 Entering Gaussian System, Link 0=/home/wykgroup/appl/g16/g16
 Input=./calculation/no_transfer_pubchem_sampling_3_b3lyp/101142445.com
 Output=./calculation/no_transfer_pubchem_sampling_3_b3lyp/101142445.log
 Initial command:
 /home/wykgroup/appl/g16/l1.exe "/userdata/scratch/wykgroup/khs/./calculation/no_transfer_pubchem_sampling_3_b3lyp/101142445/Gau-23235.inp" -scrdir="/userdata/scratch/wykgroup/khs/./calculation/no_transfer_pubchem_sampling_3_b3lyp/101142445/"
 Entering Link 1 = /home/wykgroup/appl/g16/l1.exe PID=     23236.
  
 Copyright (c) 1988-2017, Gaussian, Inc.  All Rights Reserved.
  
 This is part of the Gaussian(R) 16 program.  It is based on
 the Gaussian(R) 09 system (copyright 2009, Gaussian, Inc.),
 the Gaussian(R) 03 system (copyright 2003, Gaussian, Inc.),
 the Gaussian(R) 98 system (copyright 1998, Gaussian, Inc.),
 the Gaussian(R) 94 system (copyright 1995, Gaussian, Inc.),
 the Gaussian 92(TM) system (copyright 1992, Gaussian, Inc.),
 the Gaussian 90(TM) system (copyright 1990, Gaussian, Inc.),
 the Gaussian 88(TM) system (copyright 1988, Gaussian, Inc.),
 the Gaussian 86(TM) system (copyright 1986, Carnegie Mellon
 University), and the Gaussian 82(TM) system (copyright 1983,
 Carnegie Mellon University). Gaussian is a federally registered
 trademark of Gaussian, Inc.
  
 This software contains proprietary and confidential information,
 including trade secrets, belonging to Gaussian, Inc.
  
 This software is provided under written license and may be
 used, copied, transmitted, or stored only in accord with that
 written license.
  
 The following legend is applicable only to US Government
 contracts under FAR:
  
                    RESTRICTED RIGHTS LEGEND
  
 Use, reproduction and disclosure by the US Government is
 subject to restrictions as set forth in subparagraphs (a)
 and (c) of the Commercial Computer Software - Restricted
 Rights clause in FAR 52.227-19.
  
 Gaussian, Inc.
 340 Quinnipiac St., Bldg. 40, Wallingford CT 06492
  
  
 ---------------------------------------------------------------
 Warning -- This program may not be used in any manner that
 competes with the business of Gaussian, Inc. or will provide
 assistance to any competitor of Gaussian, Inc.  The licensee
 of this program is prohibited from giving any competitor of
 Gaussian, Inc. access to this program.  By using this program,
 the user acknowledges that Gaussian, Inc. is engaged in the
 business of creating and licensing software in the field of
 computational chemistry and represents and warrants to the
 licensee that it is not a competitor of Gaussian, Inc. and that
 it will not use this program in any manner prohibited above.
 ---------------------------------------------------------------
  

 Cite this work as:
 Gaussian 16, Revision B.01,
 M. J. Frisch, G. W. Trucks, H. B. Schlegel, G. E. Scuseria, 
 M. A. Robb, J. R. Cheeseman, G. Scalmani, V. Barone, 
 G. A. Petersson, H. Nakatsuji, X. Li, M. Caricato, A. V. Marenich, 
 J. Bloino, B. G. Janesko, R. Gomperts, B. Mennucci, H. P. Hratchian, 
 J. V. Ortiz, A. F. Izmaylov, J. L. Sonnenberg, D. Williams-Young, 
 F. Ding, F. Lipparini, F. Egidi, J. Goings, B. Peng, A. Petrone, 
 T. Henderson, D. Ranasinghe, V. G. Zakrzewski, J. Gao, N. Rega, 
 G. Zheng, W. Liang, M. Hada, M. Ehara, K. Toyota, R. Fukuda, 
 J. Hasegawa, M. Ishida, T. Nakajima, Y. Honda, O. Kitao, H. Nakai, 
 T. Vreven, K. Throssell, J. A. Montgomery, Jr., J. E. Peralta, 
 F. Ogliaro, M. J. Bearpark, J. J. Heyd, E. N. Brothers, K. N. Kudin, 
 V. N. Staroverov, T. A. Keith, R. Kobayashi, J. Normand, 
 K. Raghavachari, A. P. Rendell, J. C. Burant, S. S. Iyengar, 
 J. Tomasi, M. Cossi, J. M. Millam, M. Klene, C. Adamo, R. Cammi, 
 J. W. Ochterski, R. L. Martin, K. Morokuma, O. Farkas, 
 J. B. Foresman, and D. J. Fox, Gaussian, Inc., Wallingford CT, 2016.
 
 ******************************************
 Gaussian 16:  ES64L-G16RevB.01 20-Dec-2017
                 4-Nov-2022 
 ******************************************
 %chk=./calculation/no_transfer_pubchem_sampling_3_b3lyp/101142445.chk
 %nprocshared=7
 Will use up to    7 processors via shared memory.
 %mem=6GB
 -----------------------------
 #p b3lyp/6-31g(d) opt SCF=XQC
 -----------------------------
 1/18=20,19=15,26=3,38=1/1,3;
 2/9=110,12=2,17=6,18=5,40=1/2;
 3/5=1,6=6,7=1,11=2,25=1,30=1,71=1,74=-5/1,2,3;
 4//1;
 5/5=2,8=3,13=1,38=5/2,8;
 6/7=2,8=2,9=2,10=2,28=1/1;
 7//1,2,3,16;
 1/18=20,19=15,26=3/3(2);
 2/9=110/2;
 99//99;
 2/9=110/2;
 3/5=1,6=6,7=1,11=2,25=1,30=1,71=1,74=-5/1,2,3;
 4/5=5,16=3,69=1/1;
 5/5=2,8=3,13=1,38=5/2,8;
 7//1,2,3,16;
 1/18=20,19=15,26=3/3(-5);
 2/9=110/2;
 6/7=2,8=2,9=2,10=2,19=2,28=1/1;
 99/9=1/99;
 Leave Link    1 at Fri Nov  4 19:15:33 2022, MaxMem=   805306368 cpu:               1.4 elap:               0.2
 (Enter /home/wykgroup/appl/g16/l101.exe)
 ------------------------------
 Gaussian input prepared by ASE
 ------------------------------
 Symbolic Z-matrix:
 Charge =  0 Multiplicity = 1
 O                    -2.25888  -0.28203   2.90627 
 S                    -1.62909   0.56029   1.92627 
 O                    -1.40159   1.94123   2.27294 
 C                    -0.02922  -0.14977   1.4921 
 C                     1.0402    0.6215    1.54153 
 C                     2.41424   0.12474   1.19439 
 C                     2.74221   0.56867  -0.20006 
 C                     3.90444   1.02217  -0.75 
 C                     3.62593   1.28089  -2.11513 
 C                     2.31607   0.969    -2.29275 
 O                     1.77089   0.53572  -1.14135 
 C                     2.46151  -1.40605   1.33977 
 C                     1.30755  -2.05607   0.58622 
 C                    -0.0535   -1.60658   1.1383 
 O                    -1.09654  -1.89414   0.23215 
 C                    -2.57851   0.5278    0.40253 
 C                    -2.05776   1.1756   -0.70142 
 C                    -2.7736    1.16496  -1.88706 
 C                    -3.99479   0.51074  -1.94948 
 C                    -4.50488  -0.13344  -0.83348 
 C                    -3.79152  -0.12711   0.35422 
 H                     0.92365   1.66153   1.81021 
 H                     3.1527    0.57597   1.86379 
 H                     4.84052   1.15582  -0.2481 
 H                     4.30852   1.64876  -2.85293 
 H                     1.67711   1.00849  -3.15239 
 H                     3.41275  -1.78192   0.95906 
 H                     2.39151  -1.65516   2.39976 
 H                     1.37993  -3.14287   0.64048 
 H                     1.3589   -1.77016  -0.46754 
 H                    -0.31612  -2.16929   2.04269 
 H                    -0.8955   -1.47183  -0.6124 
 H                    -1.10753   1.68124  -0.61863 
 H                    -2.38308   1.66774  -2.75937 
 H                    -4.55208   0.50531  -2.87461 
 H                    -5.4566   -0.63963  -0.88906 
 H                    -4.14785  -0.62212   1.24307 
 
 ITRead=  0  0  0  0  0  0  0  0  0  0  0  0  0  0  0  0  0  0  0  0
 ITRead=  0  0  0  0  0  0  0  0  0  0  0  0  0  0  0  0  0
 MicOpt= -1 -1 -1 -1 -1 -1 -1 -1 -1 -1 -1 -1 -1 -1 -1 -1 -1 -1 -1 -1
 MicOpt= -1 -1 -1 -1 -1 -1 -1 -1 -1 -1 -1 -1 -1 -1 -1 -1 -1
 NAtoms=     37 NQM=       37 NQMF=       0 NMMI=      0 NMMIF=      0
                NMic=       0 NMicF=      0.
                    Isotopes and Nuclear Properties:
 (Nuclear quadrupole moments (NQMom) in fm**2, nuclear magnetic moments (NMagM)
  in nuclear magnetons)

  Atom         1           2           3           4           5           6           7           8           9          10
 IAtWgt=          16          32          16          12          12          12          12          12          12          12
 AtmWgt=  15.9949146  31.9720718  15.9949146  12.0000000  12.0000000  12.0000000  12.0000000  12.0000000  12.0000000  12.0000000
 NucSpn=           0           0           0           0           0           0           0           0           0           0
 AtZEff=  -0.0000000  -0.0000000  -0.0000000  -0.0000000  -0.0000000  -0.0000000  -0.0000000  -0.0000000  -0.0000000  -0.0000000
 NQMom=    0.0000000   0.0000000   0.0000000   0.0000000   0.0000000   0.0000000   0.0000000   0.0000000   0.0000000   0.0000000
 NMagM=    0.0000000   0.0000000   0.0000000   0.0000000   0.0000000   0.0000000   0.0000000   0.0000000   0.0000000   0.0000000
 AtZNuc=   8.0000000  16.0000000   8.0000000   6.0000000   6.0000000   6.0000000   6.0000000   6.0000000   6.0000000   6.0000000

  Atom        11          12          13          14          15          16          17          18          19          20
 IAtWgt=          16          12          12          12          16          12          12          12          12          12
 AtmWgt=  15.9949146  12.0000000  12.0000000  12.0000000  15.9949146  12.0000000  12.0000000  12.0000000  12.0000000  12.0000000
 NucSpn=           0           0           0           0           0           0           0           0           0           0
 AtZEff=  -0.0000000  -0.0000000  -0.0000000  -0.0000000  -0.0000000  -0.0000000  -0.0000000  -0.0000000  -0.0000000  -0.0000000
 NQMom=    0.0000000   0.0000000   0.0000000   0.0000000   0.0000000   0.0000000   0.0000000   0.0000000   0.0000000   0.0000000
 NMagM=    0.0000000   0.0000000   0.0000000   0.0000000   0.0000000   0.0000000   0.0000000   0.0000000   0.0000000   0.0000000
 AtZNuc=   8.0000000   6.0000000   6.0000000   6.0000000   8.0000000   6.0000000   6.0000000   6.0000000   6.0000000   6.0000000

  Atom        21          22          23          24          25          26          27          28          29          30
 IAtWgt=          12           1           1           1           1           1           1           1           1           1
 AtmWgt=  12.0000000   1.0078250   1.0078250   1.0078250   1.0078250   1.0078250   1.0078250   1.0078250   1.0078250   1.0078250
 NucSpn=           0           1           1           1           1           1           1           1           1           1
 AtZEff=  -0.0000000  -0.0000000  -0.0000000  -0.0000000  -0.0000000  -0.0000000  -0.0000000  -0.0000000  -0.0000000  -0.0000000
 NQMom=    0.0000000   0.0000000   0.0000000   0.0000000   0.0000000   0.0000000   0.0000000   0.0000000   0.0000000   0.0000000
 NMagM=    0.0000000   2.7928460   2.7928460   2.7928460   2.7928460   2.7928460   2.7928460   2.7928460   2.7928460   2.7928460
 AtZNuc=   6.0000000   1.0000000   1.0000000   1.0000000   1.0000000   1.0000000   1.0000000   1.0000000   1.0000000   1.0000000

  Atom        31          32          33          34          35          36          37
 IAtWgt=           1           1           1           1           1           1           1
 AtmWgt=   1.0078250   1.0078250   1.0078250   1.0078250   1.0078250   1.0078250   1.0078250
 NucSpn=           1           1           1           1           1           1           1
 AtZEff=  -0.0000000  -0.0000000  -0.0000000  -0.0000000  -0.0000000  -0.0000000  -0.0000000
 NQMom=    0.0000000   0.0000000   0.0000000   0.0000000   0.0000000   0.0000000   0.0000000
 NMagM=    2.7928460   2.7928460   2.7928460   2.7928460   2.7928460   2.7928460   2.7928460
 AtZNuc=   1.0000000   1.0000000   1.0000000   1.0000000   1.0000000   1.0000000   1.0000000
 Leave Link  101 at Fri Nov  4 19:15:33 2022, MaxMem=   805306368 cpu:               1.5 elap:               0.3
 (Enter /home/wykgroup/appl/g16/l103.exe)

 GradGradGradGradGradGradGradGradGradGradGradGradGradGradGradGradGradGrad
 Berny optimization.
 Initialization pass.
                           ----------------------------
                           !    Initial Parameters    !
                           ! (Angstroms and Degrees)  !
 --------------------------                            --------------------------
 ! Name  Definition              Value          Derivative Info.                !
 --------------------------------------------------------------------------------
 ! R1    R(1,2)                  1.4375         estimate D2E/DX2                !
 ! R2    R(2,3)                  1.4419         estimate D2E/DX2                !
 ! R3    R(2,4)                  1.8034         estimate D2E/DX2                !
 ! R4    R(2,16)                 1.7956         estimate D2E/DX2                !
 ! R5    R(4,5)                  1.3195         estimate D2E/DX2                !
 ! R6    R(4,14)                 1.4994         estimate D2E/DX2                !
 ! R7    R(5,6)                  1.5018         estimate D2E/DX2                !
 ! R8    R(5,22)                 1.0805         estimate D2E/DX2                !
 ! R9    R(6,7)                  1.4997         estimate D2E/DX2                !
 ! R10   R(6,12)                 1.5384         estimate D2E/DX2                !
 ! R11   R(6,23)                 1.0941         estimate D2E/DX2                !
 ! R12   R(7,8)                  1.3634         estimate D2E/DX2                !
 ! R13   R(7,11)                 1.353          estimate D2E/DX2                !
 ! R14   R(8,9)                  1.4171         estimate D2E/DX2                !
 ! R15   R(8,24)                 1.0705         estimate D2E/DX2                !
 ! R16   R(9,10)                 1.3581         estimate D2E/DX2                !
 ! R17   R(9,25)                 1.0703         estimate D2E/DX2                !
 ! R18   R(10,11)                1.3456         estimate D2E/DX2                !
 ! R19   R(10,26)                1.0718         estimate D2E/DX2                !
 ! R20   R(12,13)                1.5238         estimate D2E/DX2                !
 ! R21   R(12,27)                1.0914         estimate D2E/DX2                !
 ! R22   R(12,28)                1.0911         estimate D2E/DX2                !
 ! R23   R(13,14)                1.536          estimate D2E/DX2                !
 ! R24   R(13,29)                1.0906         estimate D2E/DX2                !
 ! R25   R(13,30)                1.0931         estimate D2E/DX2                !
 ! R26   R(14,15)                1.4113         estimate D2E/DX2                !
 ! R27   R(14,31)                1.0971         estimate D2E/DX2                !
 ! R28   R(15,32)                0.9654         estimate D2E/DX2                !
 ! R29   R(16,17)                1.3819         estimate D2E/DX2                !
 ! R30   R(16,21)                1.3794         estimate D2E/DX2                !
 ! R31   R(17,18)                1.385          estimate D2E/DX2                !
 ! R32   R(17,33)                1.0796         estimate D2E/DX2                !
 ! R33   R(18,19)                1.3868         estimate D2E/DX2                !
 ! R34   R(18,34)                1.0799         estimate D2E/DX2                !
 ! R35   R(19,20)                1.3859         estimate D2E/DX2                !
 ! R36   R(19,35)                1.08           estimate D2E/DX2                !
 ! R37   R(20,21)                1.3855         estimate D2E/DX2                !
 ! R38   R(20,36)                1.0794         estimate D2E/DX2                !
 ! R39   R(21,37)                1.078          estimate D2E/DX2                !
 ! A1    A(1,2,3)              117.8015         estimate D2E/DX2                !
 ! A2    A(1,2,4)              108.7879         estimate D2E/DX2                !
 ! A3    A(1,2,16)             109.649          estimate D2E/DX2                !
 ! A4    A(3,2,4)              107.158          estimate D2E/DX2                !
 ! A5    A(3,2,16)             107.7455         estimate D2E/DX2                !
 ! A6    A(4,2,16)             104.9303         estimate D2E/DX2                !
 ! A7    A(2,4,5)              118.6758         estimate D2E/DX2                !
 ! A8    A(2,4,14)             115.1514         estimate D2E/DX2                !
 ! A9    A(5,4,14)             126.1508         estimate D2E/DX2                !
 ! A10   A(4,5,6)              122.6535         estimate D2E/DX2                !
 ! A11   A(4,5,22)             118.9828         estimate D2E/DX2                !
 ! A12   A(6,5,22)             118.3316         estimate D2E/DX2                !
 ! A13   A(5,6,7)              108.4884         estimate D2E/DX2                !
 ! A14   A(5,6,12)             109.5977         estimate D2E/DX2                !
 ! A15   A(5,6,23)             109.8586         estimate D2E/DX2                !
 ! A16   A(7,6,12)             112.0673         estimate D2E/DX2                !
 ! A17   A(7,6,23)             107.4099         estimate D2E/DX2                !
 ! A18   A(12,6,23)            109.3795         estimate D2E/DX2                !
 ! A19   A(6,7,8)              131.2945         estimate D2E/DX2                !
 ! A20   A(6,7,11)             118.8603         estimate D2E/DX2                !
 ! A21   A(8,7,11)             109.8436         estimate D2E/DX2                !
 ! A22   A(7,8,9)              106.3655         estimate D2E/DX2                !
 ! A23   A(7,8,24)             126.7129         estimate D2E/DX2                !
 ! A24   A(9,8,24)             126.9217         estimate D2E/DX2                !
 ! A25   A(8,9,10)             105.8792         estimate D2E/DX2                !
 ! A26   A(8,9,25)             126.9745         estimate D2E/DX2                !
 ! A27   A(10,9,25)            127.1461         estimate D2E/DX2                !
 ! A28   A(9,10,11)            110.658          estimate D2E/DX2                !
 ! A29   A(9,10,26)            132.1731         estimate D2E/DX2                !
 ! A30   A(11,10,26)           117.1689         estimate D2E/DX2                !
 ! A31   A(7,11,10)            107.2535         estimate D2E/DX2                !
 ! A32   A(6,12,13)            110.7607         estimate D2E/DX2                !
 ! A33   A(6,12,27)            109.6645         estimate D2E/DX2                !
 ! A34   A(6,12,28)            108.4825         estimate D2E/DX2                !
 ! A35   A(13,12,27)           109.9154         estimate D2E/DX2                !
 ! A36   A(13,12,28)           109.5385         estimate D2E/DX2                !
 ! A37   A(27,12,28)           108.4315         estimate D2E/DX2                !
 ! A38   A(12,13,14)           111.6206         estimate D2E/DX2                !
 ! A39   A(12,13,29)           110.5019         estimate D2E/DX2                !
 ! A40   A(12,13,30)           109.2435         estimate D2E/DX2                !
 ! A41   A(14,13,29)           109.4239         estimate D2E/DX2                !
 ! A42   A(14,13,30)           108.155          estimate D2E/DX2                !
 ! A43   A(29,13,30)           107.789          estimate D2E/DX2                !
 ! A44   A(4,14,13)            110.7812         estimate D2E/DX2                !
 ! A45   A(4,14,15)            111.1891         estimate D2E/DX2                !
 ! A46   A(4,14,31)            107.9213         estimate D2E/DX2                !
 ! A47   A(13,14,15)           111.3763         estimate D2E/DX2                !
 ! A48   A(13,14,31)           110.9976         estimate D2E/DX2                !
 ! A49   A(15,14,31)           104.352          estimate D2E/DX2                !
 ! A50   A(14,15,32)           108.5815         estimate D2E/DX2                !
 ! A51   A(2,16,17)            118.0467         estimate D2E/DX2                !
 ! A52   A(2,16,21)            120.2179         estimate D2E/DX2                !
 ! A53   A(17,16,21)           121.7353         estimate D2E/DX2                !
 ! A54   A(16,17,18)           119.0458         estimate D2E/DX2                !
 ! A55   A(16,17,33)           119.341          estimate D2E/DX2                !
 ! A56   A(18,17,33)           121.6124         estimate D2E/DX2                !
 ! A57   A(17,18,19)           119.8204         estimate D2E/DX2                !
 ! A58   A(17,18,34)           120.0659         estimate D2E/DX2                !
 ! A59   A(19,18,34)           120.1134         estimate D2E/DX2                !
 ! A60   A(18,19,20)           120.4739         estimate D2E/DX2                !
 ! A61   A(18,19,35)           119.6901         estimate D2E/DX2                !
 ! A62   A(20,19,35)           119.8359         estimate D2E/DX2                !
 ! A63   A(19,20,21)           119.9126         estimate D2E/DX2                !
 ! A64   A(19,20,36)           120.0692         estimate D2E/DX2                !
 ! A65   A(21,20,36)           120.0182         estimate D2E/DX2                !
 ! A66   A(16,21,20)           119.0118         estimate D2E/DX2                !
 ! A67   A(16,21,37)           118.6744         estimate D2E/DX2                !
 ! A68   A(20,21,37)           122.3126         estimate D2E/DX2                !
 ! D1    D(1,2,4,5)           -128.5387         estimate D2E/DX2                !
 ! D2    D(1,2,4,14)            49.8613         estimate D2E/DX2                !
 ! D3    D(3,2,4,5)             -0.1757         estimate D2E/DX2                !
 ! D4    D(3,2,4,14)           178.2242         estimate D2E/DX2                !
 ! D5    D(16,2,4,5)           114.1836         estimate D2E/DX2                !
 ! D6    D(16,2,4,14)          -67.4164         estimate D2E/DX2                !
 ! D7    D(1,2,16,17)         -173.7872         estimate D2E/DX2                !
 ! D8    D(1,2,16,21)            6.3413         estimate D2E/DX2                !
 ! D9    D(3,2,16,17)           56.8484         estimate D2E/DX2                !
 ! D10   D(3,2,16,21)         -123.0231         estimate D2E/DX2                !
 ! D11   D(4,2,16,17)          -57.0991         estimate D2E/DX2                !
 ! D12   D(4,2,16,21)          123.0294         estimate D2E/DX2                !
 ! D13   D(2,4,5,6)           -179.7799         estimate D2E/DX2                !
 ! D14   D(2,4,5,22)            -1.8744         estimate D2E/DX2                !
 ! D15   D(14,4,5,6)             2.0138         estimate D2E/DX2                !
 ! D16   D(14,4,5,22)          179.9193         estimate D2E/DX2                !
 ! D17   D(2,4,14,13)          171.5228         estimate D2E/DX2                !
 ! D18   D(2,4,14,15)           47.1043         estimate D2E/DX2                !
 ! D19   D(2,4,14,31)          -66.7729         estimate D2E/DX2                !
 ! D20   D(5,4,14,13)          -10.2157         estimate D2E/DX2                !
 ! D21   D(5,4,14,15)         -134.6343         estimate D2E/DX2                !
 ! D22   D(5,4,14,31)          111.4885         estimate D2E/DX2                !
 ! D23   D(4,5,6,7)            100.4145         estimate D2E/DX2                !
 ! D24   D(4,5,6,12)           -22.2384         estimate D2E/DX2                !
 ! D25   D(4,5,6,23)          -142.4431         estimate D2E/DX2                !
 ! D26   D(22,5,6,7)           -77.5039         estimate D2E/DX2                !
 ! D27   D(22,5,6,12)          159.8432         estimate D2E/DX2                !
 ! D28   D(22,5,6,23)           39.6385         estimate D2E/DX2                !
 ! D29   D(5,6,7,8)            141.0175         estimate D2E/DX2                !
 ! D30   D(5,6,7,11)           -39.4859         estimate D2E/DX2                !
 ! D31   D(12,6,7,8)           -97.8396         estimate D2E/DX2                !
 ! D32   D(12,6,7,11)           81.657          estimate D2E/DX2                !
 ! D33   D(23,6,7,8)            22.3169         estimate D2E/DX2                !
 ! D34   D(23,6,7,11)         -158.1865         estimate D2E/DX2                !
 ! D35   D(5,6,12,13)           50.8333         estimate D2E/DX2                !
 ! D36   D(5,6,12,27)          172.3208         estimate D2E/DX2                !
 ! D37   D(5,6,12,28)          -69.4201         estimate D2E/DX2                !
 ! D38   D(7,6,12,13)          -69.6679         estimate D2E/DX2                !
 ! D39   D(7,6,12,27)           51.8197         estimate D2E/DX2                !
 ! D40   D(7,6,12,28)          170.0788         estimate D2E/DX2                !
 ! D41   D(23,6,12,13)         171.3297         estimate D2E/DX2                !
 ! D42   D(23,6,12,27)         -67.1828         estimate D2E/DX2                !
 ! D43   D(23,6,12,28)          51.0763         estimate D2E/DX2                !
 ! D44   D(6,7,8,9)            179.4371         estimate D2E/DX2                !
 ! D45   D(6,7,8,24)            -0.5807         estimate D2E/DX2                !
 ! D46   D(11,7,8,9)            -0.0941         estimate D2E/DX2                !
 ! D47   D(11,7,8,24)          179.888          estimate D2E/DX2                !
 ! D48   D(6,7,11,10)         -179.5918         estimate D2E/DX2                !
 ! D49   D(8,7,11,10)            0.0061         estimate D2E/DX2                !
 ! D50   D(7,8,9,10)             0.1442         estimate D2E/DX2                !
 ! D51   D(7,8,9,25)          -179.9821         estimate D2E/DX2                !
 ! D52   D(24,8,9,10)         -179.838          estimate D2E/DX2                !
 ! D53   D(24,8,9,25)            0.0357         estimate D2E/DX2                !
 ! D54   D(8,9,10,11)           -0.1461         estimate D2E/DX2                !
 ! D55   D(8,9,10,26)          179.8415         estimate D2E/DX2                !
 ! D56   D(25,9,10,11)         179.9804         estimate D2E/DX2                !
 ! D57   D(25,9,10,26)          -0.0319         estimate D2E/DX2                !
 ! D58   D(9,10,11,7)            0.0905         estimate D2E/DX2                !
 ! D59   D(26,10,11,7)        -179.8993         estimate D2E/DX2                !
 ! D60   D(6,12,13,14)         -61.4802         estimate D2E/DX2                !
 ! D61   D(6,12,13,29)         176.5066         estimate D2E/DX2                !
 ! D62   D(6,12,13,30)          58.0817         estimate D2E/DX2                !
 ! D63   D(27,12,13,14)        177.1801         estimate D2E/DX2                !
 ! D64   D(27,12,13,29)         55.1669         estimate D2E/DX2                !
 ! D65   D(27,12,13,30)        -63.258          estimate D2E/DX2                !
 ! D66   D(28,12,13,14)         58.1414         estimate D2E/DX2                !
 ! D67   D(28,12,13,29)        -63.8718         estimate D2E/DX2                !
 ! D68   D(28,12,13,30)        177.7033         estimate D2E/DX2                !
 ! D69   D(12,13,14,4)          39.1373         estimate D2E/DX2                !
 ! D70   D(12,13,14,15)        163.4492         estimate D2E/DX2                !
 ! D71   D(12,13,14,31)        -80.7428         estimate D2E/DX2                !
 ! D72   D(29,13,14,4)         161.7693         estimate D2E/DX2                !
 ! D73   D(29,13,14,15)        -73.9187         estimate D2E/DX2                !
 ! D74   D(29,13,14,31)         41.8893         estimate D2E/DX2                !
 ! D75   D(30,13,14,4)         -81.0658         estimate D2E/DX2                !
 ! D76   D(30,13,14,15)         43.2461         estimate D2E/DX2                !
 ! D77   D(30,13,14,31)        159.0541         estimate D2E/DX2                !
 ! D78   D(4,14,15,32)          67.5747         estimate D2E/DX2                !
 ! D79   D(13,14,15,32)        -56.507          estimate D2E/DX2                !
 ! D80   D(31,14,15,32)       -176.3316         estimate D2E/DX2                !
 ! D81   D(2,16,17,18)        -179.9236         estimate D2E/DX2                !
 ! D82   D(2,16,17,33)          -0.2417         estimate D2E/DX2                !
 ! D83   D(21,16,17,18)         -0.0541         estimate D2E/DX2                !
 ! D84   D(21,16,17,33)        179.6278         estimate D2E/DX2                !
 ! D85   D(2,16,21,20)         179.8309         estimate D2E/DX2                !
 ! D86   D(2,16,21,37)          -0.5534         estimate D2E/DX2                !
 ! D87   D(17,16,21,20)         -0.0357         estimate D2E/DX2                !
 ! D88   D(17,16,21,37)        179.58           estimate D2E/DX2                !
 ! D89   D(16,17,18,19)          0.078          estimate D2E/DX2                !
 ! D90   D(16,17,18,34)        179.8696         estimate D2E/DX2                !
 ! D91   D(33,17,18,19)       -179.5965         estimate D2E/DX2                !
 ! D92   D(33,17,18,34)          0.1952         estimate D2E/DX2                !
 ! D93   D(17,18,19,20)         -0.0129         estimate D2E/DX2                !
 ! D94   D(17,18,19,35)        179.8885         estimate D2E/DX2                !
 ! D95   D(34,18,19,20)       -179.8045         estimate D2E/DX2                !
 ! D96   D(34,18,19,35)          0.0969         estimate D2E/DX2                !
 ! D97   D(18,19,20,21)         -0.0779         estimate D2E/DX2                !
 ! D98   D(18,19,20,36)        179.9266         estimate D2E/DX2                !
 ! D99   D(35,19,20,21)       -179.9792         estimate D2E/DX2                !
 ! D100  D(35,19,20,36)          0.0254         estimate D2E/DX2                !
 ! D101  D(19,20,21,16)          0.1013         estimate D2E/DX2                !
 ! D102  D(19,20,21,37)       -179.4997         estimate D2E/DX2                !
 ! D103  D(36,20,21,16)       -179.9032         estimate D2E/DX2                !
 ! D104  D(36,20,21,37)          0.4958         estimate D2E/DX2                !
 --------------------------------------------------------------------------------
 Trust Radius=3.00D-01 FncErr=1.00D-07 GrdErr=1.00D-06 EigMax=2.50D+02 EigMin=1.00D-04
 Number of steps in this run=    221 maximum allowed number of steps=    222.
 GradGradGradGradGradGradGradGradGradGradGradGradGradGradGradGradGradGrad

 Leave Link  103 at Fri Nov  4 19:15:33 2022, MaxMem=   805306368 cpu:               0.2 elap:               0.1
 (Enter /home/wykgroup/appl/g16/l202.exe)
                          Input orientation:                          
 ---------------------------------------------------------------------
 Center     Atomic      Atomic             Coordinates (Angstroms)
 Number     Number       Type             X           Y           Z
 ---------------------------------------------------------------------
      1          8           0       -2.258878   -0.282033    2.906274
      2         16           0       -1.629094    0.560292    1.926271
      3          8           0       -1.401588    1.941231    2.272944
      4          6           0       -0.029223   -0.149774    1.492102
      5          6           0        1.040198    0.621497    1.541534
      6          6           0        2.414240    0.124739    1.194388
      7          6           0        2.742211    0.568667   -0.200060
      8          6           0        3.904443    1.022170   -0.750005
      9          6           0        3.625930    1.280892   -2.115135
     10          6           0        2.316067    0.969000   -2.292749
     11          8           0        1.770893    0.535718   -1.141351
     12          6           0        2.461506   -1.406046    1.339771
     13          6           0        1.307548   -2.056068    0.586220
     14          6           0       -0.053496   -1.606585    1.138298
     15          8           0       -1.096540   -1.894140    0.232155
     16          6           0       -2.578510    0.527802    0.402530
     17          6           0       -2.057757    1.175597   -0.701419
     18          6           0       -2.773603    1.164960   -1.887059
     19          6           0       -3.994786    0.510743   -1.949482
     20          6           0       -4.504880   -0.133444   -0.833476
     21          6           0       -3.791517   -0.127106    0.354216
     22          1           0        0.923653    1.661532    1.810207
     23          1           0        3.152702    0.575966    1.863790
     24          1           0        4.840518    1.155815   -0.248104
     25          1           0        4.308519    1.648763   -2.852927
     26          1           0        1.677112    1.008486   -3.152390
     27          1           0        3.412752   -1.781918    0.959057
     28          1           0        2.391510   -1.655158    2.399764
     29          1           0        1.379932   -3.142870    0.640484
     30          1           0        1.358898   -1.770164   -0.467537
     31          1           0       -0.316115   -2.169285    2.042692
     32          1           0       -0.895503   -1.471826   -0.612403
     33          1           0       -1.107528    1.681245   -0.618630
     34          1           0       -2.383082    1.667743   -2.759368
     35          1           0       -4.552081    0.505310   -2.874614
     36          1           0       -5.456597   -0.639629   -0.889059
     37          1           0       -4.147855   -0.622118    1.243072
 ---------------------------------------------------------------------
                    Distance matrix (angstroms):
                    1          2          3          4          5
     1  O    0.000000
     2  S    1.437548   0.000000
     3  O    2.465555   1.441851   0.000000
     4  C    2.643622   1.803409   2.620191   0.000000
     5  C    3.682769   2.697571   2.870362   1.319457   0.000000
     6  C    4.993401   4.132059   4.361590   2.476793   1.501756
     7  C    5.948436   4.861035   5.017046   3.325721   2.435732
     8  C    7.283945   6.164075   6.175505   4.676989   3.689931
     9  C    7.892291   6.668396   6.705760   5.330958   4.526813
    10  C    7.037404   5.790637   5.967558   4.590985   4.055900
    11  O    5.769838   4.579391   4.868009   3.262727   2.781931
    12  C    5.098957   4.576404   5.196015   2.793771   2.484302
    13  C    4.609690   4.155111   5.114964   2.498306   2.855425
    14  C    3.121520   2.792627   3.961284   1.499354   2.514581
    15  O    3.331791   3.029502   4.355221   2.401967   3.550853
    16  C    2.650799   1.795616   2.623238   2.853969   3.794886
    17  C    3.896227   2.732601   3.140635   3.268500   3.864608
    18  C    5.033366   4.027035   4.448668   4.547402   5.157099
    19  C    5.217302   4.540971   5.157505   5.292114   6.127848
    20  C    4.364898   4.045691   4.856392   5.043815   6.079350
    21  C    2.980937   2.760426   3.697472   3.930668   5.031461
    22  H    3.886812   2.782574   2.387279   2.071230   1.080481
    23  H    5.577466   4.782230   4.772097   3.284737   2.137427
    24  H    7.900565   6.851163   6.777643   5.333597   4.234469
    25  H    8.945786   7.699400   7.678894   6.397658   5.572117
    26  H    7.339269   6.076568   6.307349   5.081776   4.752719
    27  H    6.181318   5.642842   6.226235   3.846456   3.427054
    28  H    4.875257   4.614940   5.228546   2.991652   2.783121
    29  H    5.153555   4.941750   6.020786   3.416078   3.885585
    30  H    5.165794   4.482124   5.376334   2.897020   3.139741
    31  H    2.842854   3.031181   4.257654   2.112790   3.143122
    32  H    3.956701   3.333546   4.497811   2.631958   3.573288
    33  H    4.195834   2.829327   2.918093   2.995089   3.225228
    34  H    5.993043   4.873414   5.134422   5.188354   5.595645
    35  H    6.268760   5.620976   6.203614   6.320884   7.126671
    36  H    4.975725   4.900579   5.753451   5.946954   7.050288
    37  H    2.539711   2.865137   3.895302   4.153101   5.343365
                    6          7          8          9         10
     6  C    0.000000
     7  C    1.499707   0.000000
     8  C    2.608975   1.363411   0.000000
     9  C    3.709154   2.226148   1.417070   0.000000
    10  C    3.589225   2.172835   2.214910   1.358147   0.000000
    11  O    2.457330   1.352986   2.223022   2.223669   1.345611
    12  C    1.538400   2.519795   3.513611   4.529006   4.342487
    13  C    2.520031   3.092851   4.243220   4.879295   4.296116
    14  C    3.015021   3.786674   5.112859   5.697414   4.901077
    15  O    4.162612   4.581292   5.871911   6.155674   5.120410
    16  C    5.071198   5.354891   6.603138   6.738016   5.605005
    17  C    4.969622   4.864095   5.964372   5.857814   4.658901
    18  C    6.122996   5.798770   6.775661   6.404645   5.109572
    19  C    7.149023   6.960672   8.006130   7.661323   6.336773
    20  C    7.214784   7.308522   8.488765   8.351830   7.061882
    21  C    6.267435   6.594007   7.859259   7.943468   6.746144
    22  H    2.227738   2.922787   3.981027   4.780742   4.387786
    23  H    1.094089   2.104290   2.756109   4.068503   4.258081
    24  H    3.005116   2.179436   1.070514   2.230845   3.253970
    25  H    4.721409   3.264603   2.231183   1.070325   2.178472
    26  H    4.496537   3.169247   3.276072   2.224409   1.071823
    27  H    2.165121   2.705259   3.320477   4.344756   4.398240
    28  H    2.149763   3.439109   4.402055   5.525259   5.376948
    29  H    3.471868   4.042007   5.064995   5.675175   5.136894
    30  H    2.732471   2.730426   3.789026   4.142820   3.427913
    31  H    3.665653   4.677572   5.983115   6.688121   5.964333
    32  H    4.094864   4.191253   5.410956   5.502638   4.369826
    33  H    4.255889   4.029084   5.056826   4.980505   3.876980
    34  H    6.405259   5.833237   6.632291   6.055817   4.773676
    35  H    8.076585   7.769423   8.734638   8.249739   6.908330
    36  H    8.177718   8.315957   9.508416   9.363971   8.060542
    37  H    6.604639   7.139580   8.456686   8.679328   7.537638
                   11         12         13         14         15
    11  O    0.000000
    12  C    3.225423   0.000000
    13  C    3.149054   1.523806   0.000000
    14  C    3.621416   2.531016   1.535990   0.000000
    15  O    4.001612   3.758289   2.435410   1.411285   0.000000
    16  C    4.615294   5.479047   4.670287   3.387132   2.844481
    17  C    3.906603   5.590624   4.840140   3.891292   3.349445
    18  C    4.648061   6.665498   5.757423   4.922725   4.081874
    19  C    5.822091   7.495129   6.413505   5.436104   4.352336
    20  C    6.318851   7.407634   6.284611   5.086536   3.981507
    21  C    5.797970   6.458119   5.456665   4.095906   3.224936
    22  H    3.270621   3.463573   3.932692   3.476617   4.383404
    23  H    3.307853   2.163497   3.458956   3.945830   5.178776
    24  H    3.256533   3.839815   4.847078   5.788293   6.691900
    25  H    3.256979   5.506544   5.878719   6.749396   7.161324
    26  H    2.067990   5.159917   4.848224   5.314471   5.251050
    27  H    3.532542   1.091372   2.155470   3.475305   4.568884
    28  H    4.210058   1.091119   2.150498   2.751675   4.113653
    29  H    4.106067   2.162258   1.090560   2.159330   2.803385
    30  H    2.437386   2.148182   1.093061   2.144836   2.556191
    31  H    4.670200   2.965099   2.184127   1.097055   1.990681
    32  H    3.379302   3.883918   2.575164   1.947329   0.965424
    33  H    3.141779   5.109276   4.609963   3.873965   3.675233
    34  H    4.599453   7.051323   6.219364   5.598214   4.826118
    35  H    6.556304   8.402661   7.271402   6.387552   5.229736
    36  H    7.326779   8.261442   7.066569   5.851382   4.673437
    37  H    6.485185   6.656391   5.678828   4.212354   3.456952
                   16         17         18         19         20
    16  C    0.000000
    17  C    1.381856   0.000000
    18  C    2.384585   1.385023   0.000000
    19  C    2.745558   2.398285   1.386789   0.000000
    20  C    2.382405   2.778387   2.406908   1.385873   0.000000
    21  C    1.379357   2.411913   2.780089   2.398999   1.385474
    22  H    3.941071   3.928512   5.252243   6.296873   6.299203
    23  H    5.914761   5.838557   7.038243   8.101350   8.149666
    24  H    7.473935   6.913182   7.788523   9.020720   9.452053
    25  H    7.699723   6.736643   7.164037   8.429483   9.215772
    26  H    5.565864   4.470396   4.629732   5.819378   6.700626
    27  H    6.445134   6.436657   7.419936   8.281758   8.283691
    28  H    5.784061   6.117719   7.280680   8.024453   7.767216
    29  H    5.403676   5.680454   6.495977   6.996027   6.772016
    30  H    4.641212   4.517271   5.263796   6.005049   6.098905
    31  H    3.883664   4.663872   5.709586   6.054141   5.473823
    32  H    2.803768   2.892681   3.479173   3.914577   3.855870
    33  H    2.130021   1.079570   2.156680   3.387846   3.857623
    34  H    3.366787   2.140841   1.079918   2.142931   3.384577
    35  H    3.825592   3.375457   2.138547   1.080035   2.139271
    36  H    3.363700   3.857766   3.383932   2.141201   1.079387
    37  H    2.119356   3.373623   3.857452   3.391048   2.162942
                   21         22         23         24         25
    21  C    0.000000
    22  H    5.248997   0.000000
    23  H    7.141100   2.479916   0.000000
    24  H    8.747611   4.453563   2.764968   0.000000
    25  H    8.891011   5.762144   4.973352   2.703909   0.000000
    26  H    6.594829   5.061772   5.246571   4.296943   2.724690
    27  H    7.416585   4.333292   2.538855   3.482245   5.206073
    28  H    6.689472   3.674590   2.417559   4.572790   6.494734
    29  H    5.993385   4.965754   4.297549   5.589627   6.613644
    30  H    5.468244   4.141749   3.762598   4.553150   5.106801
    31  H    4.370339   4.033142   4.427313   6.549420   7.741565
    32  H    3.336094   4.358474   5.168457   6.319743   6.468375
    33  H    3.379403   3.166280   5.053079   5.982692   5.858900
    34  H    3.859997   5.640528   7.294551   7.664784   6.692283
    35  H    3.376944   7.298496   9.045504   9.774590   8.934102
    36  H    2.140304   7.299929   9.120081  10.472106  10.220127
    37  H    1.077998   5.590786   7.424205   9.283075   9.666663
                   26         27         28         29         30
    26  H    0.000000
    27  H    5.263345   0.000000
    28  H    6.199336   1.770491   0.000000
    29  H    5.630982   2.466989   2.516276   0.000000
    30  H    3.876930   2.500725   3.049742   1.764221   0.000000
    31  H    6.407813   3.902406   2.779040   2.406373   3.044046
    32  H    4.384271   4.596380   4.462199   3.088643   2.278665
    33  H    3.824495   5.908936   5.699610   5.571795   4.244797
    34  H    4.132102   7.701854   7.775284   6.990083   5.574415
    35  H    6.255653   9.130554   8.983325   7.800891   6.775800
    36  H    7.663469   9.131577   8.569740   7.439344   6.921470
    37  H    7.477246   7.654317   6.720744   6.105221   5.879499
                   31         32         33         34         35
    31  H    0.000000
    32  H    2.805649   0.000000
    33  H    4.747162   3.160198   0.000000
    34  H    6.484977   4.084023   2.491984   0.000000
    35  H    7.019741   4.732571   4.282199   2.463551   0.000000
    36  H    6.112247   4.644638   4.937002   4.274168   2.464034
    37  H    4.208960   3.839607   4.244409   4.937349   4.288337
                   36         37
    36  H    0.000000
    37  H    2.501819   0.000000
 Stoichiometry    C16H16O4S
 Framework group  C1[X(C16H16O4S)]
 Deg. of freedom   105
 Full point group                 C1      NOp   1
 Largest Abelian subgroup         C1      NOp   1
 Largest concise Abelian subgroup C1      NOp   1
                         Standard orientation:                         
 ---------------------------------------------------------------------
 Center     Atomic      Atomic             Coordinates (Angstroms)
 Number     Number       Type             X           Y           Z
 ---------------------------------------------------------------------
      1          8           0        2.249109   -2.398308   -0.393654
      2         16           0        1.513283   -1.266995   -0.888868
      3          8           0        1.317295   -1.163588   -2.313589
      4          6           0       -0.120335   -1.257125   -0.125011
      5          6           0       -1.182182   -1.161274   -0.902352
      6          6           0       -2.583020   -1.139918   -0.361550
      7          6           0       -3.061311    0.281245   -0.335958
      8          6           0       -4.278252    0.826290   -0.620335
      9          6           0       -4.149480    2.221866   -0.410881
     10          6           0       -2.864729    2.421744   -0.018416
     11          8           0       -2.196688    1.254756    0.031843
     12          6           0       -2.606527   -1.782906    1.035835
     13          6           0       -1.536973   -1.169036    1.930935
     14          6           0       -0.126777   -1.399683    1.367537
     15          8           0        0.814240   -0.535197    1.966600
     16          6           0        2.293496    0.251405   -0.332123
     17          6           0        1.653736    1.446640   -0.599789
     18          6           0        2.237981    2.630556   -0.181112
     19          6           0        3.448710    2.600931    0.494493
     20          6           0        4.079150    1.394453    0.754492
     21          6           0        3.497617    0.207458    0.339283
     22          1           0       -1.042757   -1.060784   -1.969077
     23          1           0       -3.247522   -1.696991   -1.028738
     24          1           0       -5.155600    0.302059   -0.938834
     25          1           0       -4.909326    2.964799   -0.538473
     26          1           0       -2.322130    3.307986    0.244199
     27          1           0       -3.591256   -1.646755    1.486239
     28          1           0       -2.421677   -2.852778    0.927464
     29          1           0       -1.597527   -1.583570    2.937820
     30          1           0       -1.702804   -0.091039    2.003078
     31          1           0        0.234453   -2.406284    1.612067
     32          1           0        0.521388    0.375571    1.837054
     33          1           0        0.715338    1.436440   -1.133433
     34          1           0        1.753350    3.574185   -0.383393
     35          1           0        3.903312    3.525526    0.818431
     36          1           0        5.021955    1.379081    1.279811
     37          1           0        3.950003   -0.752695    0.527782
 ---------------------------------------------------------------------
 Rotational constants (GHZ):           0.4709731           0.2260050           0.1898659
 Leave Link  202 at Fri Nov  4 19:15:33 2022, MaxMem=   805306368 cpu:               0.2 elap:               0.1
 (Enter /home/wykgroup/appl/g16/l301.exe)
 Standard basis: 6-31G(d) (6D, 7F)
 Ernie: Thresh=  0.10000D-02 Tol=  0.10000D-05 Strict=F.
 There are   351 symmetry adapted cartesian basis functions of A   symmetry.
 There are   351 symmetry adapted basis functions of A   symmetry.
   351 basis functions,   676 primitive gaussians,   351 cartesian basis functions
    80 alpha electrons       80 beta electrons
       nuclear repulsion energy      1915.7096779369 Hartrees.
 IExCor=  402 DFT=T Ex+Corr=B3LYP ExCW=0 ScaHFX=  0.200000
 ScaDFX=  0.800000  0.720000  1.000000  0.810000 ScalE2=  1.000000  1.000000
 IRadAn=      5 IRanWt=     -1 IRanGd=            0 ICorTp=0 IEmpDi=  4
 NAtoms=   37 NActive=   37 NUniq=   37 SFac= 1.00D+00 NAtFMM=   60 NAOKFM=F Big=F
 Integral buffers will be    131072 words long.
 Raffenetti 2 integral format.
 Two-electron integral symmetry is turned on.
 Leave Link  301 at Fri Nov  4 19:15:34 2022, MaxMem=   805306368 cpu:               0.6 elap:               0.2
 (Enter /home/wykgroup/appl/g16/l302.exe)
 NPDir=0 NMtPBC=     1 NCelOv=     1 NCel=       1 NClECP=     1 NCelD=      1
         NCelK=      1 NCelE2=     1 NClLst=     1 CellRange=     0.0.
 One-electron integrals computed using PRISM.
 One-electron integral symmetry used in STVInt
 NBasis=   351 RedAO= T EigKep=  4.51D-04  NBF=   351
 NBsUse=   351 1.00D-06 EigRej= -1.00D+00 NBFU=   351
 Precomputing XC quadrature grid using
 IXCGrd= 4 IRadAn=           5 IRanWt=          -1 IRanGd=           0 AccXCQ= 0.00D+00.
 Generated NRdTot=       0 NPtTot=           0 NUsed=           0 NTot=          32
 NSgBfM=   350   350   350   350   350 MxSgAt=    37 MxSgA2=    37.
 Leave Link  302 at Fri Nov  4 19:15:34 2022, MaxMem=   805306368 cpu:               5.0 elap:               0.8
 (Enter /home/wykgroup/appl/g16/l303.exe)
 DipDrv:  MaxL=1.
 Leave Link  303 at Fri Nov  4 19:15:34 2022, MaxMem=   805306368 cpu:               0.7 elap:               0.1
 (Enter /home/wykgroup/appl/g16/l401.exe)
 ExpMin= 1.17D-01 ExpMax= 2.19D+04 ExpMxC= 3.30D+03 IAcc=3 IRadAn=         5 AccDes= 0.00D+00
 Harris functional with IExCor=  402 and IRadAn=       5 diagonalized for initial guess.
 HarFok:  IExCor=  402 AccDes= 0.00D+00 IRadAn=         5 IDoV= 1 UseB2=F ITyADJ=14
 ICtDFT=  3500011 ScaDFX=  1.000000  1.000000  1.000000  1.000000
 FoFCou: FMM=F IPFlag=           0 FMFlag=      100000 FMFlg1=           0
         NFxFlg=           0 DoJE=T BraDBF=F KetDBF=T FulRan=T
         wScrn=  0.000000 ICntrl=       500 IOpCl=  0 I1Cent=   200000004 NGrid=           0
         NMat0=    1 NMatS0=      1 NMatT0=    0 NMatD0=    1 NMtDS0=    0 NMtDT0=    0
 Petite list used in FoFCou.
 Harris En= -1318.36141301563    
 JPrj=0 DoOrth=F DoCkMO=F.
 Leave Link  401 at Fri Nov  4 19:15:37 2022, MaxMem=   805306368 cpu:              17.4 elap:               2.7
 (Enter /home/wykgroup/appl/g16/l502.exe)
 Integral symmetry usage will be decided dynamically.
 Closed shell SCF:
 Using DIIS extrapolation, IDIIS=  1040.
 NGot=   805306368 LenX=   805053622 LenY=   804929980
 Requested convergence on RMS density matrix=1.00D-08 within  32 cycles.
 Requested convergence on MAX density matrix=1.00D-06.
 Requested convergence on             energy=1.00D-06.
 No special actions if energy rises.
 Fock matrices will be formed incrementally for  20 cycles.
 Integral accuracy reduced to 1.0D-05 until final iterations.

 Cycle   1  Pass 0  IDiag  1:
 FoFJK:  IHMeth= 1 ICntrl=       0 DoSepK=F KAlg= 0 I1Cent=           0 FoldK=F
 IRaf= 820000000 NMat=       1 IRICut=       1 DoRegI=T DoRafI=F ISym2E= 0 IDoP0=0 IntGTp=1.
 FoFCou: FMM=F IPFlag=           0 FMFlag=      100000 FMFlg1=           0
         NFxFlg=           0 DoJE=F BraDBF=F KetDBF=F FulRan=T
         wScrn=  0.000000 ICntrl=         0 IOpCl=  0 I1Cent=           0 NGrid=           0
         NMat0=    1 NMatS0=      1 NMatT0=    0 NMatD0=    1 NMtDS0=    0 NMtDT0=    0
 Symmetry not used in FoFCou.
 E= -1317.64319877133    
 DIIS: error= 2.72D-02 at cycle   1 NSaved=   1.
 NSaved= 1 IEnMin= 1 EnMin= -1317.64319877133     IErMin= 1 ErrMin= 2.72D-02
 ErrMax= 2.72D-02  0.00D+00 EMaxC= 1.00D-01 BMatC= 7.28D-01 BMatP= 7.28D-01
 IDIUse=3 WtCom= 7.28D-01 WtEn= 2.72D-01
 Coeff-Com:  0.100D+01
 Coeff-En:   0.100D+01
 Coeff:      0.100D+01
 Gap=     0.182 Goal=   None    Shift=    0.000
 GapD=    0.182 DampG=1.000 DampE=0.500 DampFc=0.5000 IDamp=-1.
 Damping current iteration by 5.00D-01
 RMSDP=6.24D-03 MaxDP=5.24D-01              OVMax= 2.17D-01

 Cycle   2  Pass 0  IDiag  1:
 RMSU=  3.11D-03    CP:  9.89D-01
 E= -1317.82238800687     Delta-E=       -0.179189235539 Rises=F Damp=T
 DIIS: error= 1.51D-02 at cycle   2 NSaved=   2.
 NSaved= 2 IEnMin= 2 EnMin= -1317.82238800687     IErMin= 2 ErrMin= 1.51D-02
 ErrMax= 1.51D-02  0.00D+00 EMaxC= 1.00D-01 BMatC= 1.09D-01 BMatP= 7.28D-01
 IDIUse=3 WtCom= 8.49D-01 WtEn= 1.51D-01
 Coeff-Com:  0.216D+00 0.784D+00
 Coeff-En:   0.341D+00 0.659D+00
 Coeff:      0.235D+00 0.765D+00
 Gap=     0.227 Goal=   None    Shift=    0.000
 RMSDP=1.98D-03 MaxDP=1.31D-01 DE=-1.79D-01 OVMax= 1.82D-01

 Cycle   3  Pass 0  IDiag  1:
 RMSU=  1.66D-03    CP:  9.79D-01  6.61D-01
 E= -1318.22022036284     Delta-E=       -0.397832355971 Rises=F Damp=F
 DIIS: error= 1.22D-02 at cycle   3 NSaved=   3.
 NSaved= 3 IEnMin= 3 EnMin= -1318.22022036284     IErMin= 3 ErrMin= 1.22D-02
 ErrMax= 1.22D-02  0.00D+00 EMaxC= 1.00D-01 BMatC= 7.76D-02 BMatP= 1.09D-01
 IDIUse=3 WtCom= 8.78D-01 WtEn= 1.22D-01
 Coeff-Com:  0.685D-01 0.454D+00 0.477D+00
 Coeff-En:   0.000D+00 0.000D+00 0.100D+01
 Coeff:      0.601D-01 0.399D+00 0.541D+00
 Gap=     0.194 Goal=   None    Shift=    0.000
 RMSDP=1.30D-03 MaxDP=4.95D-02 DE=-3.98D-01 OVMax= 6.88D-02

 Cycle   4  Pass 0  IDiag  1:
 RMSU=  7.77D-04    CP:  9.84D-01  7.85D-01  4.21D-01
 E= -1318.27707273439     Delta-E=       -0.056852371549 Rises=F Damp=F
 DIIS: error= 5.62D-03 at cycle   4 NSaved=   4.
 NSaved= 4 IEnMin= 4 EnMin= -1318.27707273439     IErMin= 4 ErrMin= 5.62D-03
 ErrMax= 5.62D-03  0.00D+00 EMaxC= 1.00D-01 BMatC= 1.79D-02 BMatP= 7.76D-02
 IDIUse=3 WtCom= 9.44D-01 WtEn= 5.62D-02
 Coeff-Com:  0.124D-01 0.101D+00 0.333D+00 0.553D+00
 Coeff-En:   0.000D+00 0.000D+00 0.221D+00 0.779D+00
 Coeff:      0.117D-01 0.955D-01 0.327D+00 0.566D+00
 Gap=     0.199 Goal=   None    Shift=    0.000
 RMSDP=4.84D-04 MaxDP=2.12D-02 DE=-5.69D-02 OVMax= 3.49D-02

 Cycle   5  Pass 0  IDiag  1:
 RMSU=  2.03D-04    CP:  9.83D-01  7.49D-01  5.86D-01  5.84D-01
 E= -1318.29301100911     Delta-E=       -0.015938274727 Rises=F Damp=F
 DIIS: error= 1.81D-03 at cycle   5 NSaved=   5.
 NSaved= 5 IEnMin= 5 EnMin= -1318.29301100911     IErMin= 5 ErrMin= 1.81D-03
 ErrMax= 1.81D-03  0.00D+00 EMaxC= 1.00D-01 BMatC= 1.00D-03 BMatP= 1.79D-02
 IDIUse=3 WtCom= 9.82D-01 WtEn= 1.81D-02
 Coeff-Com:  0.108D-02 0.182D-01 0.133D+00 0.307D+00 0.540D+00
 Coeff-En:   0.000D+00 0.000D+00 0.000D+00 0.000D+00 0.100D+01
 Coeff:      0.106D-02 0.179D-01 0.131D+00 0.301D+00 0.549D+00
 Gap=     0.197 Goal=   None    Shift=    0.000
 RMSDP=1.23D-04 MaxDP=6.19D-03 DE=-1.59D-02 OVMax= 1.19D-02

 Cycle   6  Pass 0  IDiag  1:
 RMSU=  7.44D-05    CP:  9.83D-01  7.51D-01  5.82D-01  6.32D-01  5.57D-01
 E= -1318.29392019049     Delta-E=       -0.000909181378 Rises=F Damp=F
 DIIS: error= 6.75D-04 at cycle   6 NSaved=   6.
 NSaved= 6 IEnMin= 6 EnMin= -1318.29392019049     IErMin= 6 ErrMin= 6.75D-04
 ErrMax= 6.75D-04  0.00D+00 EMaxC= 1.00D-01 BMatC= 1.40D-04 BMatP= 1.00D-03
 IDIUse=3 WtCom= 9.93D-01 WtEn= 6.75D-03
 Coeff-Com: -0.461D-03 0.108D-02 0.457D-01 0.122D+00 0.331D+00 0.501D+00
 Coeff-En:   0.000D+00 0.000D+00 0.000D+00 0.000D+00 0.106D+00 0.894D+00
 Coeff:     -0.458D-03 0.107D-02 0.454D-01 0.121D+00 0.329D+00 0.504D+00
 Gap=     0.197 Goal=   None    Shift=    0.000
 RMSDP=4.64D-05 MaxDP=1.68D-03 DE=-9.09D-04 OVMax= 3.73D-03

 Cycle   7  Pass 0  IDiag  1:
 RMSU=  2.17D-05    CP:  9.83D-01  7.51D-01  5.85D-01  6.39D-01  6.23D-01
                    CP:  4.90D-01
 E= -1318.29405935471     Delta-E=       -0.000139164216 Rises=F Damp=F
 DIIS: error= 9.51D-05 at cycle   7 NSaved=   7.
 NSaved= 7 IEnMin= 7 EnMin= -1318.29405935471     IErMin= 7 ErrMin= 9.51D-05
 ErrMax= 9.51D-05  0.00D+00 EMaxC= 1.00D-01 BMatC= 7.48D-06 BMatP= 1.40D-04
 IDIUse=1 WtCom= 1.00D+00 WtEn= 0.00D+00
 Coeff-Com: -0.287D-03-0.978D-03 0.142D-01 0.419D-01 0.138D+00 0.272D+00
 Coeff-Com:  0.536D+00
 Coeff:     -0.287D-03-0.978D-03 0.142D-01 0.419D-01 0.138D+00 0.272D+00
 Coeff:      0.536D+00
 Gap=     0.197 Goal=   None    Shift=    0.000
 RMSDP=1.08D-05 MaxDP=5.51D-04 DE=-1.39D-04 OVMax= 8.55D-04

 Cycle   8  Pass 0  IDiag  1:
 RMSU=  5.83D-06    CP:  9.83D-01  7.51D-01  5.85D-01  6.38D-01  6.26D-01
                    CP:  5.52D-01  6.43D-01
 E= -1318.29406594825     Delta-E=       -0.000006593546 Rises=F Damp=F
 DIIS: error= 3.82D-05 at cycle   8 NSaved=   8.
 NSaved= 8 IEnMin= 8 EnMin= -1318.29406594825     IErMin= 8 ErrMin= 3.82D-05
 ErrMax= 3.82D-05  0.00D+00 EMaxC= 1.00D-01 BMatC= 1.08D-06 BMatP= 7.48D-06
 IDIUse=1 WtCom= 1.00D+00 WtEn= 0.00D+00
 Coeff-Com: -0.948D-04-0.682D-03 0.387D-02 0.125D-01 0.495D-01 0.114D+00
 Coeff-Com:  0.325D+00 0.496D+00
 Coeff:     -0.948D-04-0.682D-03 0.387D-02 0.125D-01 0.495D-01 0.114D+00
 Coeff:      0.325D+00 0.496D+00
 Gap=     0.197 Goal=   None    Shift=    0.000
 RMSDP=3.78D-06 MaxDP=1.62D-04 DE=-6.59D-06 OVMax= 3.20D-04

 Initial convergence to 1.0D-05 achieved.  Increase integral accuracy.
 Cycle   9  Pass 1  IDiag  1:
 E= -1318.29399273123     Delta-E=        0.000073217027 Rises=F Damp=F
 DIIS: error= 4.84D-05 at cycle   1 NSaved=   1.
 NSaved= 1 IEnMin= 1 EnMin= -1318.29399273123     IErMin= 1 ErrMin= 4.84D-05
 ErrMax= 4.84D-05  0.00D+00 EMaxC= 1.00D-01 BMatC= 6.12D-07 BMatP= 6.12D-07
 IDIUse=1 WtCom= 1.00D+00 WtEn= 0.00D+00
 Coeff-Com:  0.100D+01
 Coeff:      0.100D+01
 Gap=     0.197 Goal=   None    Shift=    0.000
 RMSDP=3.78D-06 MaxDP=1.62D-04 DE= 7.32D-05 OVMax= 2.40D-04

 Cycle  10  Pass 1  IDiag  1:
 RMSU=  2.34D-05    CP:  1.00D+00
 E= -1318.29399279389     Delta-E=       -0.000000062662 Rises=F Damp=F
 DIIS: error= 2.82D-05 at cycle   2 NSaved=   2.
 NSaved= 2 IEnMin= 2 EnMin= -1318.29399279389     IErMin= 2 ErrMin= 2.82D-05
 ErrMax= 2.82D-05  0.00D+00 EMaxC= 1.00D-01 BMatC= 5.17D-07 BMatP= 6.12D-07
 IDIUse=1 WtCom= 1.00D+00 WtEn= 0.00D+00
 Coeff-Com:  0.471D+00 0.529D+00
 Coeff:      0.471D+00 0.529D+00
 Gap=     0.197 Goal=   None    Shift=    0.000
 RMSDP=3.55D-06 MaxDP=1.34D-04 DE=-6.27D-08 OVMax= 2.62D-04

 Cycle  11  Pass 1  IDiag  1:
 RMSU=  3.53D-06    CP:  1.00D+00  9.87D-01
 E= -1318.29399305987     Delta-E=       -0.000000265982 Rises=F Damp=F
 DIIS: error= 1.68D-05 at cycle   3 NSaved=   3.
 NSaved= 3 IEnMin= 3 EnMin= -1318.29399305987     IErMin= 3 ErrMin= 1.68D-05
 ErrMax= 1.68D-05  0.00D+00 EMaxC= 1.00D-01 BMatC= 2.35D-07 BMatP= 5.17D-07
 IDIUse=1 WtCom= 1.00D+00 WtEn= 0.00D+00
 Coeff-Com:  0.196D-01 0.399D+00 0.582D+00
 Coeff:      0.196D-01 0.399D+00 0.582D+00
 Gap=     0.197 Goal=   None    Shift=    0.000
 RMSDP=1.48D-06 MaxDP=5.43D-05 DE=-2.66D-07 OVMax= 1.12D-04

 Cycle  12  Pass 1  IDiag  1:
 RMSU=  5.82D-07    CP:  1.00D+00  1.00D+00  6.24D-01
 E= -1318.29399326353     Delta-E=       -0.000000203656 Rises=F Damp=F
 DIIS: error= 3.46D-06 at cycle   4 NSaved=   4.
 NSaved= 4 IEnMin= 4 EnMin= -1318.29399326353     IErMin= 4 ErrMin= 3.46D-06
 ErrMax= 3.46D-06  0.00D+00 EMaxC= 1.00D-01 BMatC= 8.39D-09 BMatP= 2.35D-07
 IDIUse=1 WtCom= 1.00D+00 WtEn= 0.00D+00
 Coeff-Com: -0.261D-02 0.221D+00 0.344D+00 0.438D+00
 Coeff:     -0.261D-02 0.221D+00 0.344D+00 0.438D+00
 Gap=     0.197 Goal=   None    Shift=    0.000
 RMSDP=3.43D-07 MaxDP=1.68D-05 DE=-2.04D-07 OVMax= 1.79D-05

 Cycle  13  Pass 1  IDiag  1:
 RMSU=  1.23D-07    CP:  1.00D+00  1.00D+00  6.24D-01  4.51D-01
 E= -1318.29399327086     Delta-E=       -0.000000007327 Rises=F Damp=F
 DIIS: error= 6.27D-07 at cycle   5 NSaved=   5.
 NSaved= 5 IEnMin= 5 EnMin= -1318.29399327086     IErMin= 5 ErrMin= 6.27D-07
 ErrMax= 6.27D-07  0.00D+00 EMaxC= 1.00D-01 BMatC= 3.04D-10 BMatP= 8.39D-09
 IDIUse=1 WtCom= 1.00D+00 WtEn= 0.00D+00
 Coeff-Com: -0.217D-02 0.111D+00 0.174D+00 0.253D+00 0.464D+00
 Coeff:     -0.217D-02 0.111D+00 0.174D+00 0.253D+00 0.464D+00
 Gap=     0.197 Goal=   None    Shift=    0.000
 RMSDP=5.90D-08 MaxDP=4.31D-06 DE=-7.33D-09 OVMax= 3.79D-06

 Cycle  14  Pass 1  IDiag  1:
 RMSU=  3.77D-08    CP:  1.00D+00  1.00D+00  6.23D-01  4.71D-01  6.49D-01
 E= -1318.29399327111     Delta-E=       -0.000000000257 Rises=F Damp=F
 DIIS: error= 1.25D-07 at cycle   6 NSaved=   6.
 NSaved= 6 IEnMin= 6 EnMin= -1318.29399327111     IErMin= 6 ErrMin= 1.25D-07
 ErrMax= 1.25D-07  0.00D+00 EMaxC= 1.00D-01 BMatC= 1.21D-11 BMatP= 3.04D-10
 IDIUse=1 WtCom= 1.00D+00 WtEn= 0.00D+00
 Coeff-Com: -0.883D-03 0.380D-01 0.599D-01 0.922D-01 0.228D+00 0.583D+00
 Coeff:     -0.883D-03 0.380D-01 0.599D-01 0.922D-01 0.228D+00 0.583D+00
 Gap=     0.197 Goal=   None    Shift=    0.000
 RMSDP=1.48D-08 MaxDP=6.38D-07 DE=-2.57D-10 OVMax= 9.27D-07

 Cycle  15  Pass 1  IDiag  1:
 RMSU=  1.27D-08    CP:  1.00D+00  1.00D+00  6.23D-01  4.73D-01  6.59D-01
                    CP:  8.06D-01
 E= -1318.29399327112     Delta-E=       -0.000000000002 Rises=F Damp=F
 DIIS: error= 6.27D-08 at cycle   7 NSaved=   7.
 NSaved= 7 IEnMin= 7 EnMin= -1318.29399327112     IErMin= 7 ErrMin= 6.27D-08
 ErrMax= 6.27D-08  0.00D+00 EMaxC= 1.00D-01 BMatC= 2.23D-12 BMatP= 1.21D-11
 IDIUse=1 WtCom= 1.00D+00 WtEn= 0.00D+00
 Coeff-Com: -0.253D-03 0.873D-02 0.139D-01 0.233D-01 0.758D-01 0.337D+00
 Coeff-Com:  0.542D+00
 Coeff:     -0.253D-03 0.873D-02 0.139D-01 0.233D-01 0.758D-01 0.337D+00
 Coeff:      0.542D+00
 Gap=     0.197 Goal=   None    Shift=    0.000
 RMSDP=6.08D-09 MaxDP=2.92D-07 DE=-2.27D-12 OVMax= 3.77D-07

 SCF Done:  E(RB3LYP) =  -1318.29399327     A.U. after   15 cycles
            NFock= 15  Conv=0.61D-08     -V/T= 2.0070
 KE= 1.309150305451D+03 PE=-6.919111927896D+03 EE= 2.375957951237D+03
 Leave Link  502 at Fri Nov  4 19:16:26 2022, MaxMem=   805306368 cpu:             342.5 elap:              49.2
 (Enter /home/wykgroup/appl/g16/l508.exe)
 QCSCF skips out because SCF is already converged.
 Leave Link  508 at Fri Nov  4 19:16:26 2022, MaxMem=   805306368 cpu:               0.2 elap:               0.1
 (Enter /home/wykgroup/appl/g16/l601.exe)
 Copying SCF densities to generalized density rwf, IOpCl= 0 IROHF=0.

 **********************************************************************

            Population analysis using the SCF Density.

 **********************************************************************

 Orbital symmetries:
       Occupied  (A) (A) (A) (A) (A) (A) (A) (A) (A) (A) (A) (A)
                 (A) (A) (A) (A) (A) (A) (A) (A) (A) (A) (A) (A)
                 (A) (A) (A) (A) (A) (A) (A) (A) (A) (A) (A) (A)
                 (A) (A) (A) (A) (A) (A) (A) (A) (A) (A) (A) (A)
                 (A) (A) (A) (A) (A) (A) (A) (A) (A) (A) (A) (A)
                 (A) (A) (A) (A) (A) (A) (A) (A) (A) (A) (A) (A)
                 (A) (A) (A) (A) (A) (A) (A) (A)
       Virtual   (A) (A) (A) (A) (A) (A) (A) (A) (A) (A) (A) (A)
                 (A) (A) (A) (A) (A) (A) (A) (A) (A) (A) (A) (A)
                 (A) (A) (A) (A) (A) (A) (A) (A) (A) (A) (A) (A)
                 (A) (A) (A) (A) (A) (A) (A) (A) (A) (A) (A) (A)
                 (A) (A) (A) (A) (A) (A) (A) (A) (A) (A) (A) (A)
                 (A) (A) (A) (A) (A) (A) (A) (A) (A) (A) (A) (A)
                 (A) (A) (A) (A) (A) (A) (A) (A) (A) (A) (A) (A)
                 (A) (A) (A) (A) (A) (A) (A) (A) (A) (A) (A) (A)
                 (A) (A) (A) (A) (A) (A) (A) (A) (A) (A) (A) (A)
                 (A) (A) (A) (A) (A) (A) (A) (A) (A) (A) (A) (A)
                 (A) (A) (A) (A) (A) (A) (A) (A) (A) (A) (A) (A)
                 (A) (A) (A) (A) (A) (A) (A) (A) (A) (A) (A) (A)
                 (A) (A) (A) (A) (A) (A) (A) (A) (A) (A) (A) (A)
                 (A) (A) (A) (A) (A) (A) (A) (A) (A) (A) (A) (A)
                 (A) (A) (A) (A) (A) (A) (A) (A) (A) (A) (A) (A)
                 (A) (A) (A) (A) (A) (A) (A) (A) (A) (A) (A) (A)
                 (A) (A) (A) (A) (A) (A) (A) (A) (A) (A) (A) (A)
                 (A) (A) (A) (A) (A) (A) (A) (A) (A) (A) (A) (A)
                 (A) (A) (A) (A) (A) (A) (A) (A) (A) (A) (A) (A)
                 (A) (A) (A) (A) (A) (A) (A) (A) (A) (A) (A) (A)
                 (A) (A) (A) (A) (A) (A) (A) (A) (A) (A) (A) (A)
                 (A) (A) (A) (A) (A) (A) (A) (A) (A) (A) (A) (A)
                 (A) (A) (A) (A) (A) (A) (A)
 The electronic state is 1-A.
 Alpha  occ. eigenvalues --  -89.08001 -19.23192 -19.15213 -19.12639 -19.12215
 Alpha  occ. eigenvalues --  -10.24975 -10.24960 -10.24353 -10.22229 -10.21668
 Alpha  occ. eigenvalues --  -10.21454 -10.21290 -10.20546 -10.20315 -10.20235
 Alpha  occ. eigenvalues --  -10.20126 -10.20027 -10.19851 -10.19382 -10.19218
 Alpha  occ. eigenvalues --  -10.19187  -8.10981  -6.07418  -6.07339  -6.07294
 Alpha  occ. eigenvalues --   -1.13458  -1.10363  -1.03451  -0.99342  -0.87634
 Alpha  occ. eigenvalues --   -0.86716  -0.81318  -0.79365  -0.77767  -0.76886
 Alpha  occ. eigenvalues --   -0.76288  -0.73047  -0.67612  -0.65065  -0.62821
 Alpha  occ. eigenvalues --   -0.62290  -0.61357  -0.59543  -0.56843  -0.55954
 Alpha  occ. eigenvalues --   -0.54775  -0.53205  -0.50834  -0.49618  -0.47770
 Alpha  occ. eigenvalues --   -0.47006  -0.46774  -0.46264  -0.45708  -0.45369
 Alpha  occ. eigenvalues --   -0.44888  -0.43809  -0.43316  -0.42691  -0.42223
 Alpha  occ. eigenvalues --   -0.41386  -0.40925  -0.39445  -0.38622  -0.37879
 Alpha  occ. eigenvalues --   -0.37402  -0.35951  -0.35533  -0.35192  -0.32831
 Alpha  occ. eigenvalues --   -0.32081  -0.31187  -0.29826  -0.29447  -0.29028
 Alpha  occ. eigenvalues --   -0.28511  -0.26629  -0.26189  -0.25625  -0.23108
 Alpha virt. eigenvalues --   -0.03368  -0.01865  -0.00785   0.00848   0.06032
 Alpha virt. eigenvalues --    0.06985   0.07741   0.08644   0.10455   0.10488
 Alpha virt. eigenvalues --    0.11240   0.12241   0.12601   0.12925   0.13924
 Alpha virt. eigenvalues --    0.14185   0.15165   0.16041   0.16076   0.16220
 Alpha virt. eigenvalues --    0.17088   0.17209   0.17399   0.18191   0.19257
 Alpha virt. eigenvalues --    0.19708   0.20308   0.20876   0.21406   0.22834
 Alpha virt. eigenvalues --    0.25420   0.26104   0.26855   0.27969   0.28770
 Alpha virt. eigenvalues --    0.29610   0.31014   0.32180   0.32948   0.33543
 Alpha virt. eigenvalues --    0.35830   0.37362   0.40261   0.41010   0.42174
 Alpha virt. eigenvalues --    0.45110   0.46920   0.48469   0.49754   0.51518
 Alpha virt. eigenvalues --    0.51750   0.52406   0.53111   0.54491   0.54882
 Alpha virt. eigenvalues --    0.55290   0.56104   0.56704   0.57004   0.57505
 Alpha virt. eigenvalues --    0.57851   0.58081   0.58374   0.58895   0.60105
 Alpha virt. eigenvalues --    0.60218   0.60763   0.60976   0.61803   0.62440
 Alpha virt. eigenvalues --    0.63292   0.63807   0.65231   0.65571   0.67314
 Alpha virt. eigenvalues --    0.68302   0.69657   0.71180   0.71938   0.72890
 Alpha virt. eigenvalues --    0.73996   0.75348   0.77533   0.78828   0.79445
 Alpha virt. eigenvalues --    0.80162   0.81074   0.81657   0.82479   0.83221
 Alpha virt. eigenvalues --    0.83280   0.83629   0.84284   0.84948   0.85229
 Alpha virt. eigenvalues --    0.85674   0.86705   0.87529   0.88501   0.89114
 Alpha virt. eigenvalues --    0.89517   0.91030   0.91177   0.91424   0.92650
 Alpha virt. eigenvalues --    0.92865   0.93965   0.94659   0.95193   0.98550
 Alpha virt. eigenvalues --    0.98767   0.99934   1.00741   1.02059   1.03381
 Alpha virt. eigenvalues --    1.04944   1.05878   1.07105   1.07538   1.07890
 Alpha virt. eigenvalues --    1.10128   1.10819   1.12268   1.13436   1.14836
 Alpha virt. eigenvalues --    1.15581   1.16980   1.19303   1.19885   1.21414
 Alpha virt. eigenvalues --    1.23051   1.25648   1.26235   1.27069   1.28410
 Alpha virt. eigenvalues --    1.30626   1.31653   1.33935   1.35159   1.36465
 Alpha virt. eigenvalues --    1.38346   1.39987   1.41589   1.42534   1.43835
 Alpha virt. eigenvalues --    1.44763   1.45253   1.46530   1.47345   1.48115
 Alpha virt. eigenvalues --    1.48968   1.49581   1.52797   1.54407   1.55973
 Alpha virt. eigenvalues --    1.57019   1.58182   1.62059   1.62365   1.66376
 Alpha virt. eigenvalues --    1.67421   1.70469   1.72958   1.74070   1.76278
 Alpha virt. eigenvalues --    1.78179   1.80132   1.80757   1.81513   1.82711
 Alpha virt. eigenvalues --    1.83251   1.84945   1.86039   1.87072   1.87184
 Alpha virt. eigenvalues --    1.89167   1.90101   1.90933   1.92205   1.92804
 Alpha virt. eigenvalues --    1.94990   1.95337   1.96193   1.97205   1.99332
 Alpha virt. eigenvalues --    2.00606   2.01667   2.02680   2.04154   2.04480
 Alpha virt. eigenvalues --    2.06292   2.07542   2.07956   2.11576   2.12216
 Alpha virt. eigenvalues --    2.12827   2.14510   2.14891   2.16528   2.17063
 Alpha virt. eigenvalues --    2.18339   2.19245   2.20159   2.20751   2.22933
 Alpha virt. eigenvalues --    2.25264   2.26154   2.27409   2.28901   2.30231
 Alpha virt. eigenvalues --    2.30434   2.31368   2.33137   2.33829   2.36299
 Alpha virt. eigenvalues --    2.37469   2.38764   2.43964   2.44742   2.47490
 Alpha virt. eigenvalues --    2.52771   2.53921   2.55856   2.56687   2.58690
 Alpha virt. eigenvalues --    2.59366   2.62627   2.64534   2.65593   2.66102
 Alpha virt. eigenvalues --    2.68267   2.69369   2.73099   2.73861   2.74314
 Alpha virt. eigenvalues --    2.75778   2.77112   2.77854   2.78381   2.81453
 Alpha virt. eigenvalues --    2.84395   2.88435   2.92573   2.94958   2.99709
 Alpha virt. eigenvalues --    3.02229   3.04169   3.06743   3.17145   3.41204
 Alpha virt. eigenvalues --    3.80571   3.97016   4.01121   4.06120   4.09321
 Alpha virt. eigenvalues --    4.12241   4.14358   4.15646   4.18523   4.21559
 Alpha virt. eigenvalues --    4.24622   4.27418   4.32525   4.34410   4.38884
 Alpha virt. eigenvalues --    4.40290   4.46390   4.52451   4.63879   4.67481
 Alpha virt. eigenvalues --    4.68988
          Condensed to atoms (all electrons):
               1          2          3          4          5          6
     1  O    8.213668   0.457601  -0.052291  -0.058322  -0.000911  -0.000043
     2  S    0.457601  13.761285   0.464602   0.150477  -0.018247   0.002231
     3  O   -0.052291   0.464602   8.230073  -0.066360   0.001372   0.000440
     4  C   -0.058322   0.150477  -0.066360   5.528237   0.613716  -0.029616
     5  C   -0.000911  -0.018247   0.001372   0.613716   5.009066   0.327169
     6  C   -0.000043   0.002231   0.000440  -0.029616   0.327169   5.132186
     7  C   -0.000000  -0.000290  -0.000004  -0.010666  -0.044167   0.358460
     8  C   -0.000000   0.000004  -0.000000  -0.000051   0.002633  -0.065928
     9  C    0.000000   0.000000   0.000000   0.000004  -0.000311   0.006084
    10  C    0.000000  -0.000006  -0.000000  -0.000032   0.000415   0.004997
    11  O   -0.000000  -0.000239   0.000001   0.002494  -0.001768  -0.060880
    12  C   -0.000012  -0.000565  -0.000007  -0.006253  -0.049564   0.349175
    13  C    0.000133   0.004468  -0.000034  -0.045360  -0.021085  -0.033947
    14  C    0.006649  -0.029495   0.001708   0.292615  -0.034133  -0.015220
    15  O   -0.001828   0.013515  -0.000010  -0.048545   0.002418   0.000174
    16  C   -0.060122   0.135281  -0.060977  -0.055267  -0.001097  -0.000154
    17  C    0.001519  -0.018712   0.001934  -0.002190  -0.000232  -0.000002
    18  C   -0.000038   0.002014   0.000208   0.000001   0.000042  -0.000000
    19  C   -0.000006  -0.000494  -0.000008  -0.000002   0.000000  -0.000000
    20  C    0.000488   0.003264  -0.000055  -0.000180   0.000002  -0.000000
    21  C    0.004049  -0.024729  -0.000868   0.000985  -0.000091   0.000002
    22  H    0.000141  -0.005723   0.015350  -0.036258   0.352698  -0.043426
    23  H    0.000001   0.000029   0.000003   0.004249  -0.035202   0.376660
    24  H    0.000000   0.000000  -0.000000  -0.000004   0.000113  -0.002331
    25  H    0.000000   0.000000  -0.000000   0.000000   0.000003  -0.000121
    26  H    0.000000   0.000000  -0.000000   0.000013  -0.000010  -0.000235
    27  H   -0.000000   0.000015   0.000000   0.000329   0.005239  -0.034705
    28  H    0.000001  -0.000118   0.000000  -0.001496  -0.000807  -0.035257
    29  H    0.000001  -0.000040   0.000000   0.005835   0.000364   0.004526
    30  H   -0.000000  -0.000274   0.000001  -0.006571   0.001570  -0.009677
    31  H    0.004979  -0.005713   0.000002  -0.055422   0.003191   0.000206
    32  H    0.000037  -0.004751   0.000001  -0.000404   0.001328  -0.000096
    33  H    0.000057  -0.001371   0.001965   0.003370   0.001182  -0.000166
    34  H    0.000000  -0.000036   0.000001   0.000004  -0.000001   0.000000
    35  H   -0.000000   0.000006  -0.000000   0.000000   0.000000   0.000000
    36  H    0.000003  -0.000038   0.000000   0.000001   0.000000   0.000000
    37  H    0.010944  -0.005054   0.000031   0.000279  -0.000004   0.000000
               7          8          9         10         11         12
     1  O   -0.000000  -0.000000   0.000000   0.000000  -0.000000  -0.000012
     2  S   -0.000290   0.000004   0.000000  -0.000006  -0.000239  -0.000565
     3  O   -0.000004  -0.000000   0.000000  -0.000000   0.000001  -0.000007
     4  C   -0.010666  -0.000051   0.000004  -0.000032   0.002494  -0.006253
     5  C   -0.044167   0.002633  -0.000311   0.000415  -0.001768  -0.049564
     6  C    0.358460  -0.065928   0.006084   0.004997  -0.060880   0.349175
     7  C    4.707400   0.586223  -0.039115  -0.102453   0.304940  -0.044672
     8  C    0.586223   5.002521   0.478729  -0.060068  -0.073603  -0.003055
     9  C   -0.039115   0.478729   4.908166   0.593840  -0.051649  -0.000039
    10  C   -0.102453  -0.060068   0.593840   4.835814   0.314780   0.000155
    11  O    0.304940  -0.073603  -0.051649   0.314780   8.023293  -0.000928
    12  C   -0.044672  -0.003055  -0.000039   0.000155  -0.000928   5.115494
    13  C   -0.008704   0.000022  -0.000022   0.000147  -0.004223   0.325621
    14  C   -0.000141  -0.000072   0.000006   0.000002  -0.000206  -0.038372
    15  O    0.000038  -0.000000  -0.000000  -0.000000  -0.000062   0.003371
    16  C    0.000029   0.000000  -0.000000   0.000002  -0.000017   0.000017
    17  C    0.000036  -0.000002   0.000001   0.000032  -0.000794   0.000007
    18  C   -0.000000  -0.000000   0.000000  -0.000002  -0.000015  -0.000000
    19  C    0.000000   0.000000  -0.000000   0.000000   0.000000  -0.000000
    20  C   -0.000000  -0.000000  -0.000000  -0.000000  -0.000000   0.000000
    21  C    0.000000   0.000000   0.000000   0.000000   0.000000   0.000000
    22  H    0.002627   0.000203  -0.000004  -0.000081  -0.000139   0.004442
    23  H   -0.040166  -0.004762   0.000136  -0.000052   0.002453  -0.040897
    24  H   -0.042681   0.367707  -0.039343   0.006407   0.003707   0.000071
    25  H    0.005257  -0.034664   0.363666  -0.040021   0.003480   0.000002
    26  H    0.004824   0.004467  -0.045474   0.375190  -0.040735  -0.000000
    27  H   -0.002307   0.002474  -0.000063  -0.000097  -0.000105   0.360342
    28  H    0.006194   0.000029   0.000000   0.000002  -0.000057   0.365072
    29  H   -0.000011  -0.000008  -0.000001  -0.000001   0.000118  -0.028809
    30  H    0.005501   0.000566  -0.000168   0.000429   0.007900  -0.035390
    31  H    0.000008   0.000001  -0.000000   0.000000  -0.000003  -0.001345
    32  H    0.000017   0.000006   0.000000   0.000016   0.000673   0.000053
    33  H   -0.000013   0.000006   0.000006   0.000176   0.003415   0.000001
    34  H   -0.000000   0.000000  -0.000000   0.000003  -0.000005  -0.000000
    35  H   -0.000000  -0.000000   0.000000   0.000000   0.000000  -0.000000
    36  H   -0.000000  -0.000000   0.000000   0.000000  -0.000000  -0.000000
    37  H    0.000000   0.000000  -0.000000  -0.000000   0.000000   0.000000
              13         14         15         16         17         18
     1  O    0.000133   0.006649  -0.001828  -0.060122   0.001519  -0.000038
     2  S    0.004468  -0.029495   0.013515   0.135281  -0.018712   0.002014
     3  O   -0.000034   0.001708  -0.000010  -0.060977   0.001934   0.000208
     4  C   -0.045360   0.292615  -0.048545  -0.055267  -0.002190   0.000001
     5  C   -0.021085  -0.034133   0.002418  -0.001097  -0.000232   0.000042
     6  C   -0.033947  -0.015220   0.000174  -0.000154  -0.000002  -0.000000
     7  C   -0.008704  -0.000141   0.000038   0.000029   0.000036  -0.000000
     8  C    0.000022  -0.000072  -0.000000   0.000000  -0.000002  -0.000000
     9  C   -0.000022   0.000006  -0.000000  -0.000000   0.000001   0.000000
    10  C    0.000147   0.000002  -0.000000   0.000002   0.000032  -0.000002
    11  O   -0.004223  -0.000206  -0.000062  -0.000017  -0.000794  -0.000015
    12  C    0.325621  -0.038372   0.003371   0.000017   0.000007  -0.000000
    13  C    5.156568   0.358359  -0.039391  -0.000315  -0.000134  -0.000000
    14  C    0.358359   4.805702   0.252545  -0.005096  -0.000314  -0.000065
    15  O   -0.039391   0.252545   8.257314  -0.001943  -0.002935  -0.000405
    16  C   -0.000315  -0.005096  -0.001943   5.334952   0.485601  -0.029732
    17  C   -0.000134  -0.000314  -0.002935   0.485601   4.958123   0.521306
    18  C   -0.000000  -0.000065  -0.000405  -0.029732   0.521306   4.874660
    19  C    0.000000   0.000010   0.000141  -0.041598  -0.029951   0.548818
    20  C   -0.000001   0.000032  -0.000414  -0.027131  -0.042555  -0.027692
    21  C    0.000004   0.000433   0.000230   0.526679  -0.036457  -0.043116
    22  H   -0.000369   0.004804  -0.000077   0.000539  -0.000135   0.000007
    23  H    0.005210   0.000038  -0.000001  -0.000000  -0.000000   0.000000
    24  H    0.000008  -0.000000   0.000000  -0.000000   0.000000   0.000000
    25  H    0.000000  -0.000000   0.000000   0.000000   0.000000  -0.000000
    26  H    0.000014  -0.000002   0.000000   0.000001   0.000035   0.000020
    27  H   -0.027073   0.004067  -0.000060   0.000000  -0.000000  -0.000000
    28  H   -0.041560  -0.002946   0.000023   0.000001   0.000000   0.000000
    29  H    0.362683  -0.028455   0.002462  -0.000000   0.000001   0.000000
    30  H    0.363430  -0.033662  -0.002727  -0.000018  -0.000002   0.000000
    31  H   -0.039550   0.378015  -0.043134  -0.000003   0.000034   0.000001
    32  H   -0.008156  -0.030636   0.229420   0.001089   0.006556   0.001026
    33  H   -0.000012   0.000163  -0.000153  -0.050165   0.354850  -0.038066
    34  H    0.000000   0.000000  -0.000003   0.005264  -0.044492   0.362260
    35  H   -0.000000  -0.000000  -0.000000   0.000555   0.005395  -0.044594
    36  H    0.000000   0.000001  -0.000005   0.004996   0.000756   0.004776
    37  H    0.000001   0.000046  -0.000286  -0.043004   0.005660   0.000351
              19         20         21         22         23         24
     1  O   -0.000006   0.000488   0.004049   0.000141   0.000001   0.000000
     2  S   -0.000494   0.003264  -0.024729  -0.005723   0.000029   0.000000
     3  O   -0.000008  -0.000055  -0.000868   0.015350   0.000003  -0.000000
     4  C   -0.000002  -0.000180   0.000985  -0.036258   0.004249  -0.000004
     5  C    0.000000   0.000002  -0.000091   0.352698  -0.035202   0.000113
     6  C   -0.000000  -0.000000   0.000002  -0.043426   0.376660  -0.002331
     7  C    0.000000  -0.000000   0.000000   0.002627  -0.040166  -0.042681
     8  C    0.000000  -0.000000   0.000000   0.000203  -0.004762   0.367707
     9  C   -0.000000  -0.000000   0.000000  -0.000004   0.000136  -0.039343
    10  C    0.000000  -0.000000   0.000000  -0.000081  -0.000052   0.006407
    11  O    0.000000  -0.000000   0.000000  -0.000139   0.002453   0.003707
    12  C   -0.000000   0.000000   0.000000   0.004442  -0.040897   0.000071
    13  C    0.000000  -0.000001   0.000004  -0.000369   0.005210   0.000008
    14  C    0.000010   0.000032   0.000433   0.004804   0.000038  -0.000000
    15  O    0.000141  -0.000414   0.000230  -0.000077  -0.000001   0.000000
    16  C   -0.041598  -0.027131   0.526679   0.000539  -0.000000  -0.000000
    17  C   -0.029951  -0.042555  -0.036457  -0.000135  -0.000000   0.000000
    18  C    0.548818  -0.027692  -0.043116   0.000007   0.000000   0.000000
    19  C    4.843423   0.546379  -0.027529   0.000000  -0.000000  -0.000000
    20  C    0.546379   4.884932   0.504881   0.000000   0.000000   0.000000
    21  C   -0.027529   0.504881   4.894755  -0.000004  -0.000000  -0.000000
    22  H    0.000000   0.000000  -0.000004   0.517804  -0.004273  -0.000002
    23  H   -0.000000   0.000000  -0.000000  -0.004273   0.578986   0.001700
    24  H   -0.000000   0.000000  -0.000000  -0.000002   0.001700   0.565488
    25  H   -0.000000   0.000000  -0.000000  -0.000000  -0.000003  -0.002298
    26  H    0.000000  -0.000000  -0.000000  -0.000001   0.000005  -0.000126
    27  H    0.000000  -0.000000   0.000000  -0.000138  -0.001799   0.000111
    28  H   -0.000000   0.000000   0.000000  -0.000038  -0.003963  -0.000003
    29  H   -0.000000   0.000000  -0.000000   0.000014  -0.000127   0.000000
    30  H   -0.000000   0.000000   0.000000  -0.000037   0.000084  -0.000005
    31  H    0.000000   0.000001  -0.000054  -0.000213   0.000046   0.000000
    32  H    0.000029  -0.000148  -0.000646  -0.000010   0.000000  -0.000000
    33  H    0.004441   0.000368   0.005486   0.000172   0.000000  -0.000000
    34  H   -0.043629   0.004785   0.000702  -0.000000  -0.000000  -0.000000
    35  H    0.361862  -0.043479   0.005063   0.000000   0.000000  -0.000000
[...]
    14  C    0.000174  -0.000048   0.000001   0.000003  -0.000327  -0.034724
    15  O    0.000012  -0.000000   0.000000  -0.000000  -0.000004   0.003286
    16  C    0.000014   0.000000  -0.000000  -0.000000  -0.000001   0.000013
    17  C    0.000003   0.000000  -0.000000  -0.000000   0.000002   0.000000
    18  C    0.000000   0.000000  -0.000000  -0.000000  -0.000000  -0.000000
    19  C   -0.000000  -0.000000   0.000000   0.000000  -0.000000  -0.000000
    20  C   -0.000000  -0.000000   0.000000  -0.000000   0.000000   0.000000
    21  C    0.000000  -0.000000   0.000000  -0.000000   0.000000  -0.000000
    22  H    0.002208   0.000673  -0.000022  -0.000048  -0.000166   0.004266
    23  H   -0.042351  -0.004300   0.000144  -0.000096   0.002814  -0.038663
    24  H   -0.040138   0.363246  -0.037277   0.005818   0.003708   0.000069
    25  H    0.004634  -0.032632   0.361139  -0.038444   0.003368   0.000001
    26  H    0.004616   0.004275  -0.044833   0.374273  -0.039758  -0.000001
    27  H   -0.001662   0.001330  -0.000044  -0.000145  -0.000145   0.361002
    28  H    0.005262  -0.000026   0.000000   0.000001  -0.000013   0.366557
    29  H    0.000012   0.000003  -0.000000  -0.000000   0.000076  -0.028038
    30  H    0.002784   0.000268   0.000004   0.000069   0.009529  -0.035016
    31  H   -0.000009   0.000000  -0.000000   0.000000  -0.000002  -0.001734
    32  H    0.000006   0.000001  -0.000000   0.000001   0.000025  -0.000053
    33  H    0.000002   0.000000  -0.000000   0.000000   0.000001  -0.000000
    34  H   -0.000000  -0.000000   0.000000   0.000000  -0.000000  -0.000000
    35  H   -0.000000  -0.000000   0.000000  -0.000000  -0.000000  -0.000000
    36  H   -0.000000  -0.000000   0.000000   0.000000   0.000000  -0.000000
    37  H   -0.000000  -0.000000   0.000000   0.000000  -0.000000  -0.000000
              13         14         15         16         17         18
     1  O    0.000173   0.006237  -0.001874  -0.056657   0.001518  -0.000035
     2  S    0.004231  -0.030977   0.010325   0.141162  -0.020616   0.002455
     3  O   -0.000027   0.001469  -0.000008  -0.058172   0.002399   0.000548
     4  C   -0.046629   0.298343  -0.041241  -0.055964  -0.001645  -0.000199
     5  C   -0.013464  -0.035074   0.002067  -0.000863   0.000118  -0.000009
     6  C   -0.034667  -0.014665   0.000173  -0.000143  -0.000008  -0.000000
     7  C   -0.007287   0.000174   0.000012   0.000014   0.000003   0.000000
     8  C    0.000027  -0.000048  -0.000000   0.000000   0.000000   0.000000
     9  C   -0.000005   0.000001   0.000000  -0.000000  -0.000000  -0.000000
    10  C    0.000058   0.000003  -0.000000  -0.000000  -0.000000  -0.000000
    11  O   -0.003484  -0.000327  -0.000004  -0.000001   0.000002  -0.000000
    12  C    0.323661  -0.034724   0.003286   0.000013   0.000000  -0.000000
    13  C    5.147099   0.354361  -0.038756  -0.000267  -0.000008  -0.000000
    14  C    0.354361   4.815749   0.242200  -0.003110   0.000120   0.000006
    15  O   -0.038756   0.242200   8.257545  -0.000953  -0.000233   0.000012
    16  C   -0.000267  -0.003110  -0.000953   5.363970   0.496845  -0.029899
    17  C   -0.000008   0.000120  -0.000233   0.496845   4.938212   0.506691
    18  C   -0.000000   0.000006   0.000012  -0.029899   0.506691   4.888653
    19  C    0.000000   0.000002   0.000009  -0.038325  -0.029564   0.544099
    20  C   -0.000001   0.000042  -0.000609  -0.029889  -0.037952  -0.030229
    21  C    0.000018   0.000181   0.000269   0.505145  -0.042523  -0.037427
    22  H   -0.000319   0.004405  -0.000057   0.000469  -0.000031   0.000006
    23  H    0.004795   0.000060  -0.000001  -0.000000  -0.000000  -0.000000
    24  H    0.000000   0.000000  -0.000000   0.000000  -0.000000   0.000000
    25  H    0.000000  -0.000000  -0.000000  -0.000000  -0.000000  -0.000000
    26  H    0.000012  -0.000001  -0.000000   0.000000   0.000000   0.000000
    27  H   -0.024840   0.003681  -0.000055   0.000000  -0.000000   0.000000
    28  H   -0.041209  -0.003287   0.000017   0.000001   0.000000   0.000000
    29  H    0.362424  -0.029914   0.002599   0.000000   0.000000   0.000000
    30  H    0.361198  -0.033521  -0.002184  -0.000004   0.000001   0.000000
    31  H   -0.041178   0.378366  -0.041496   0.000035  -0.000005   0.000000
    32  H   -0.007200  -0.029315   0.227044   0.003444   0.000090  -0.000026
    33  H    0.000000   0.000006  -0.000004  -0.044447   0.358206  -0.037652
    34  H    0.000000   0.000000   0.000000   0.004767  -0.042302   0.362498
    35  H    0.000000  -0.000000   0.000000   0.000470   0.004902  -0.042867
    36  H    0.000000   0.000001  -0.000013   0.004737   0.000626   0.004506
    37  H    0.000022   0.000222   0.002976  -0.040154   0.004761   0.000273
              19         20         21         22         23         24
     1  O   -0.000006   0.000446   0.002908   0.000147   0.000002   0.000000
     2  S   -0.000325   0.002412  -0.021175  -0.006168   0.000037  -0.000000
     3  O   -0.000008  -0.000042   0.001278   0.016327   0.000008  -0.000000
     4  C    0.000002  -0.000128  -0.001713  -0.034636   0.002980  -0.000002
     5  C    0.000000   0.000003  -0.000019   0.348912  -0.038378   0.000101
     6  C    0.000000  -0.000000   0.000000  -0.041754   0.373593  -0.002623
     7  C   -0.000000  -0.000000   0.000000   0.002208  -0.042351  -0.040138
     8  C   -0.000000  -0.000000  -0.000000   0.000673  -0.004300   0.363246
     9  C    0.000000   0.000000   0.000000  -0.000022   0.000144  -0.037277
    10  C    0.000000  -0.000000  -0.000000  -0.000048  -0.000096   0.005818
    11  O   -0.000000   0.000000   0.000000  -0.000166   0.002814   0.003708
    12  C   -0.000000   0.000000  -0.000000   0.004266  -0.038663   0.000069
    13  C    0.000000  -0.000001   0.000018  -0.000319   0.004795   0.000000
    14  C    0.000002   0.000042   0.000181   0.004405   0.000060   0.000000
    15  O    0.000009  -0.000609   0.000269  -0.000057  -0.000001  -0.000000
    16  C   -0.038325  -0.029889   0.505145   0.000469  -0.000000   0.000000
    17  C   -0.029564  -0.037952  -0.042523  -0.000031  -0.000000  -0.000000
    18  C    0.544099  -0.030229  -0.037427   0.000006  -0.000000   0.000000
    19  C    4.849613   0.540483  -0.029075   0.000000   0.000000   0.000000
    20  C    0.540483   4.901519   0.502848   0.000000   0.000000  -0.000000
    21  C   -0.029075   0.502848   4.910954  -0.000010  -0.000000  -0.000000
    22  H    0.000000   0.000000  -0.000010   0.515291  -0.003854   0.000002
    23  H    0.000000   0.000000  -0.000000  -0.003854   0.583989   0.002256
    24  H    0.000000  -0.000000  -0.000000   0.000002   0.002256   0.564174
    25  H    0.000000  -0.000000  -0.000000  -0.000000  -0.000005  -0.001857
    26  H    0.000000  -0.000000  -0.000000  -0.000001   0.000005  -0.000109
    27  H    0.000000  -0.000000   0.000000  -0.000119  -0.000697   0.000013
    28  H   -0.000000   0.000000   0.000000  -0.000095  -0.005853  -0.000001
    29  H    0.000000   0.000000  -0.000000   0.000012  -0.000122  -0.000000
    30  H   -0.000000   0.000000  -0.000003  -0.000045   0.000036  -0.000004
    31  H    0.000000   0.000002  -0.000029  -0.000204   0.000067   0.000000
    32  H   -0.000040   0.000360   0.000931  -0.000015   0.000001   0.000000
    33  H    0.004144   0.000330   0.004730   0.000117  -0.000000   0.000000
    34  H   -0.042598   0.004486   0.000617  -0.000000  -0.000000   0.000000
    35  H    0.361003  -0.042530   0.004787   0.000000  -0.000000  -0.000000
    36  H   -0.043273   0.363197  -0.041573  -0.000000   0.000000   0.000000
    37  H    0.004104  -0.038100   0.360134  -0.000001  -0.000000   0.000000
              25         26         27         28         29         30
     1  O    0.000000   0.000000  -0.000000   0.000000   0.000001  -0.000000
     2  S    0.000000   0.000000   0.000016  -0.000089  -0.000031  -0.000245
     3  O   -0.000000  -0.000000   0.000000   0.000000   0.000000   0.000000
     4  C    0.000000   0.000005   0.000238  -0.000923   0.005806  -0.006608
     5  C    0.000002  -0.000004   0.004749  -0.000307   0.000297   0.001677
     6  C   -0.000104  -0.000238  -0.034276  -0.033017   0.004083  -0.006694
     7  C    0.004634   0.004616  -0.001662   0.005262   0.000012   0.002784
     8  C   -0.032632   0.004275   0.001330  -0.000026   0.000003   0.000268
     9  C    0.361139  -0.044833  -0.000044   0.000000  -0.000000   0.000004
    10  C   -0.038444   0.374273  -0.000145   0.000001  -0.000000   0.000069
    11  O    0.003368  -0.039758  -0.000145  -0.000013   0.000076   0.009529
    12  C    0.000001  -0.000001   0.361002   0.366557  -0.028038  -0.035016
    13  C    0.000000   0.000012  -0.024840  -0.041209   0.362424   0.361198
    14  C   -0.000000  -0.000001   0.003681  -0.003287  -0.029914  -0.033521
    15  O   -0.000000  -0.000000  -0.000055   0.000017   0.002599  -0.002184
    16  C   -0.000000   0.000000   0.000000   0.000001   0.000000  -0.000004
    17  C   -0.000000   0.000000  -0.000000   0.000000   0.000000   0.000001
    18  C   -0.000000   0.000000   0.000000   0.000000   0.000000   0.000000
    19  C    0.000000   0.000000   0.000000  -0.000000   0.000000  -0.000000
    20  C   -0.000000  -0.000000  -0.000000   0.000000   0.000000   0.000000
    21  C   -0.000000  -0.000000   0.000000   0.000000  -0.000000  -0.000003
    22  H   -0.000000  -0.000001  -0.000119  -0.000095   0.000012  -0.000045
    23  H   -0.000005   0.000005  -0.000697  -0.005853  -0.000122   0.000036
    24  H   -0.001857  -0.000109   0.000013  -0.000001  -0.000000  -0.000004
    25  H    0.558604  -0.000386   0.000001  -0.000000  -0.000000  -0.000001
    26  H   -0.000386   0.546027  -0.000000  -0.000000  -0.000000  -0.000028
    27  H    0.000001  -0.000000   0.579565  -0.032574  -0.003208  -0.003762
    28  H   -0.000000  -0.000000  -0.032574   0.589405  -0.003766   0.005519
    29  H   -0.000000  -0.000000  -0.003208  -0.003766   0.573794  -0.032153
    30  H   -0.000001  -0.000028  -0.003762   0.005519  -0.032153   0.575472
    31  H    0.000000   0.000000  -0.000214   0.003195  -0.006264   0.005072
    32  H    0.000000   0.000001  -0.000011   0.000026  -0.000450   0.008031
    33  H   -0.000000   0.000000  -0.000000   0.000000  -0.000000   0.000000
    34  H    0.000000   0.000000   0.000000  -0.000000  -0.000000   0.000000
    35  H   -0.000000  -0.000000   0.000000   0.000000   0.000000  -0.000000
    36  H    0.000000   0.000000  -0.000000  -0.000000  -0.000000   0.000000
    37  H    0.000000  -0.000000   0.000000   0.000000  -0.000001  -0.000000
              31         32         33         34         35         36
     1  O    0.005044   0.000011   0.000078   0.000000  -0.000000   0.000002
     2  S   -0.004583  -0.002985  -0.001298  -0.000044   0.000009  -0.000034
     3  O   -0.000003  -0.000005   0.008732   0.000002  -0.000000   0.000000
     4  C   -0.052217  -0.001305   0.000122   0.000002   0.000000   0.000001
     5  C    0.001878   0.001096   0.000108   0.000000  -0.000000   0.000000
     6  C    0.000387  -0.000020   0.000008   0.000000  -0.000000   0.000000
     7  C   -0.000009   0.000006   0.000002  -0.000000  -0.000000  -0.000000
     8  C    0.000000   0.000001   0.000000  -0.000000  -0.000000  -0.000000
     9  C   -0.000000  -0.000000  -0.000000   0.000000   0.000000   0.000000
    10  C    0.000000   0.000001   0.000000   0.000000  -0.000000   0.000000
    11  O   -0.000002   0.000025   0.000001  -0.000000  -0.000000   0.000000
    12  C   -0.001734  -0.000053  -0.000000  -0.000000  -0.000000  -0.000000
    13  C   -0.041178  -0.007200   0.000000   0.000000   0.000000   0.000000
    14  C    0.378366  -0.029315   0.000006   0.000000  -0.000000   0.000001
    15  O   -0.041496   0.227044  -0.000004   0.000000   0.000000  -0.000013
    16  C    0.000035   0.003444  -0.044447   0.004767   0.000470   0.004737
    17  C   -0.000005   0.000090   0.358206  -0.042302   0.004902   0.000626
    18  C    0.000000  -0.000026  -0.037652   0.362498  -0.042867   0.004506
    19  C    0.000000  -0.000040   0.004144  -0.042598   0.361003  -0.043273
    20  C    0.000002   0.000360   0.000330   0.004486  -0.042530   0.363197
    21  C   -0.000029   0.000931   0.004730   0.000617   0.004787  -0.041573
    22  H   -0.000204  -0.000015   0.000117  -0.000000   0.000000  -0.000000
    23  H    0.000067   0.000001  -0.000000  -0.000000  -0.000000   0.000000
    24  H    0.000000   0.000000   0.000000   0.000000  -0.000000   0.000000
    25  H    0.000000   0.000000  -0.000000   0.000000  -0.000000   0.000000
    26  H    0.000000   0.000001   0.000000   0.000000  -0.000000   0.000000
    27  H   -0.000214  -0.000011  -0.000000   0.000000   0.000000  -0.000000
    28  H    0.003195   0.000026   0.000000  -0.000000   0.000000  -0.000000
    29  H   -0.006264  -0.000450  -0.000000  -0.000000   0.000000  -0.000000
    30  H    0.005072   0.008031   0.000000   0.000000  -0.000000   0.000000
    31  H    0.565438   0.008060  -0.000000  -0.000000  -0.000000  -0.000000
    32  H    0.008060   0.402289   0.000002   0.000000  -0.000001   0.000010
    33  H   -0.000000   0.000002   0.538358  -0.005201  -0.000150   0.000015
    34  H   -0.000000   0.000000  -0.005201   0.581640  -0.005492  -0.000172
    35  H   -0.000000  -0.000001  -0.000150  -0.005492   0.584682  -0.005492
    36  H   -0.000000   0.000010   0.000015  -0.000172  -0.005492   0.578169
    37  H   -0.000073  -0.000400  -0.000153   0.000014  -0.000140  -0.005026
              37
     1  O    0.008522
     2  S   -0.002277
     3  O    0.000065
     4  C    0.000102
     5  C   -0.000010
     6  C    0.000000
     7  C   -0.000000
     8  C   -0.000000
     9  C    0.000000
    10  C    0.000000
    11  O   -0.000000
    12  C   -0.000000
    13  C    0.000022
    14  C    0.000222
    15  O    0.002976
    16  C   -0.040154
    17  C    0.004761
    18  C    0.000273
    19  C    0.004104
    20  C   -0.038100
    21  C    0.360134
    22  H   -0.000001
    23  H   -0.000000
    24  H    0.000000
    25  H    0.000000
    26  H   -0.000000
    27  H    0.000000
    28  H    0.000000
    29  H   -0.000001
    30  H   -0.000000
    31  H   -0.000073
    32  H   -0.000400
    33  H   -0.000153
    34  H    0.000014
    35  H   -0.000140
    36  H   -0.005026
    37  H    0.514838
 Mulliken charges:
               1
     1  O   -0.550090
     2  S    1.149192
     3  O   -0.559812
     4  C   -0.180739
     5  C   -0.105879
     6  C   -0.227696
     7  C    0.355131
     8  C   -0.206053
     9  C   -0.179503
    10  C    0.081540
    11  O   -0.445261
    12  C   -0.281498
    13  C   -0.298739
    14  C    0.109332
    15  O   -0.621045
    16  C   -0.162224
    17  C   -0.139608
    18  C   -0.131405
    19  C   -0.120246
    20  C   -0.136649
    21  C   -0.121254
    22  H    0.194712
    23  H    0.163532
    24  H    0.142625
    25  H    0.145680
    26  H    0.156144
    27  H    0.151158
    28  H    0.151179
    29  H    0.154839
    30  H    0.150606
    31  H    0.180466
    32  H    0.390396
    33  H    0.173949
    34  H    0.141783
    35  H    0.140818
    36  H    0.144317
    37  H    0.190299
 Sum of Mulliken charges =  -0.00000
 Mulliken charges with hydrogens summed into heavy atoms:
               1
     1  O   -0.550090
     2  S    1.149192
     3  O   -0.559812
     4  C   -0.180739
     5  C    0.088833
     6  C   -0.064164
     7  C    0.355131
     8  C   -0.063428
     9  C   -0.033823
    10  C    0.237684
    11  O   -0.445261
    12  C    0.020839
    13  C    0.006706
    14  C    0.289799
    15  O   -0.230648
    16  C   -0.162224
    17  C    0.034342
    18  C    0.010378
    19  C    0.020572
    20  C    0.007668
    21  C    0.069045
 Electronic spatial extent (au):  <R**2>=           6652.1563
 Charge=              0.0000 electrons
 Dipole moment (field-independent basis, Debye):
    X=             -3.7127    Y=              3.9127    Z=              2.7658  Tot=              6.0616
 Quadrupole moment (field-independent basis, Debye-Ang):
   XX=           -116.7710   YY=           -122.0799   ZZ=           -133.6797
   XY=             12.0588   XZ=             10.2613   YZ=             -1.1217
 Traceless Quadrupole moment (field-independent basis, Debye-Ang):
   XX=              7.4059   YY=              2.0970   ZZ=             -9.5028
   XY=             12.0588   XZ=             10.2613   YZ=             -1.1217
 Octapole moment (field-independent basis, Debye-Ang**2):
  XXX=            -12.3754  YYY=             31.2855  ZZZ=             17.8914  XYY=            -20.1593
  XXY=             38.6172  XXZ=             12.7956  XZZ=            -13.5270  YZZ=              9.2686
  YYZ=             12.1680  XYZ=             -4.6398
 Hexadecapole moment (field-independent basis, Debye-Ang**3):
 XXXX=          -5536.1102 YYYY=          -1907.3042 ZZZZ=          -1135.1945 XXXY=            -25.2948
 XXXZ=            225.7655 YYYX=             19.0728 YYYZ=             -1.2998 ZZZX=             19.0928
 ZZZY=              9.1118 XXYY=          -1184.6590 XXZZ=          -1115.9784 YYZZ=           -512.2758
 XXYZ=             17.7800 YYXZ=             -6.0561 ZZXY=             19.8247
 N-N= 1.863533365577D+03 E-N=-6.814299316880D+03  KE= 1.308255648919D+03
 No NMR shielding tensors so no spin-rotation constants.
 Leave Link  601 at Fri Nov  4 19:28:42 2022, MaxMem=   805306368 cpu:               1.6 elap:               0.3
 (Enter /home/wykgroup/appl/g16/l9999.exe)
 1\1\GINC-NODE57\FOpt\RB3LYP\6-31G(d)\C16H16O4S1\WYKGROUP\04-Nov-2022\0
 \\#p b3lyp/6-31g(d) opt SCF=XQC\\Gaussian input prepared by ASE\\0,1\O
 ,-2.2390069382,-0.1816823179,2.8431775773\S,-1.6189190018,0.6596649667
 ,1.8063534991\O,-1.3044393886,2.0768514886,2.0676205975\C,-0.066859575
 5,-0.1536498297,1.3393928663\C,1.0223246354,0.6199541353,1.2828840015\
 C,2.4226246652,0.077387655,1.0777083062\C,2.968275299,0.4911150344,-0.
 259832369\C,4.0808519047,1.1885374237,-0.6308484519\C,4.0712781796,1.2
 539734692,-2.0636641124\C,2.9514789291,0.5946315031,-2.4625266487\O,2.
 2637466326,0.1244782375,-1.3797325725\C,2.4656294801,-1.4498458075,1.3
 408349089\C,1.2830182261,-2.170703716,0.6874338842\C,-0.0686249572,-1.
 667304698,1.2168471453\O,-1.1457009809,-2.1503997488,0.4154730393\C,-2
 .6895753868,0.6409585043,0.3542468794\C,-2.5851858851,1.6803427544,-0.
 5727075756\C,-3.4370016576,1.6892200879,-1.6775962638\C,-4.3840162912,
 0.674909073,-1.8386539185\C,-4.4860466297,-0.3511631514,-0.8955666629\
 C,-3.6358780815,-0.3752498641,0.2102439233\H,0.9154077293,1.6940858926
 ,1.4133269354\H,3.0725261445,0.571730436,1.8122760392\H,4.821643232,1.
 6066411663,0.0370039814\H,4.8002633076,1.7313729722,-2.703540113\H,2.5
 124622578,0.3791200466,-3.4247013178\H,3.4152298629,-1.8601878177,0.98
 11536299\H,2.4376377246,-1.6100881343,2.4268867782\H,1.3418856197,-3.2
 524117043,0.8493886238\H,1.3121680103,-2.0048489672,-0.3969922976\H,-0
 .26888294,-2.0871089476,2.2088578817\H,-1.020515903,-1.8030495335,-0.4
 832688319\H,-1.8638695185,2.4749982302,-0.4143361685\H,-3.3681404569,2
 .4930864306,-2.4051151896\H,-5.0494802765,0.6880101397,-2.6976944068\H
 ,-5.2310778892,-1.1322504302,-1.0180278944\H,-3.6952320822,-1.16112297
 9,0.953692297\\Version=ES64L-G16RevB.01\State=1-A\HF=-1318.3054011\RMS
 D=9.294e-09\RMSF=4.634e-06\Dipole=1.2683451,-0.3164939,-1.9946148\Quad
 rupole=7.7400136,-4.7802965,-2.9597171,2.0445421,10.5050361,-4.5069879
 \PG=C01 [X(C16H16O4S1)]\\@


 ... IT CAN BE VERY DIFFICULT, IN THESE COMPLEX TIMES,
 TO UNDERSTAND JUST HOW SCIENTISTS DO WHAT THEY DO.

                     DON MOSER IN THE FEBRUARY 1979 SMITHSONIAN
 Job cpu time:       0 days  1 hours 29 minutes 51.5 seconds.
 Elapsed time:       0 days  0 hours 13 minutes  8.2 seconds.
 File lengths (MBytes):  RWF=     82 Int=      0 D2E=      0 Chk=     12 Scr=      1
 Normal termination of Gaussian 16 at Fri Nov  4 19:28:43 2022.
