 Entering Gaussian System, Link 0=/home/wykgroup/appl/g16/g16
 Input=calculation/no_transfer_pubchem_sampling_3_b3lyp/112850755_rwf.com
 Output=calculation/no_transfer_pubchem_sampling_3_b3lyp/112850755_rwf.log
 Initial command:
 /home/wykgroup/appl/g16/l1.exe "/userdata/scratch/wykgroup/khs/calculation/no_transfer_pubchem_sampling_3_b3lyp/112850755_rwf/Gau-20667.inp" -scrdir="/userdata/scratch/wykgroup/khs/calculation/no_transfer_pubchem_sampling_3_b3lyp/112850755_rwf/"
 Entering Link 1 = /home/wykgroup/appl/g16/l1.exe PID=     20668.
  
 Copyright (c) 1988-2017, Gaussian, Inc.  All Rights Reserved.
  
 This is part of the Gaussian(R) 16 program.  It is based on
 the Gaussian(R) 09 system (copyright 2009, Gaussian, Inc.),
 the Gaussian(R) 03 system (copyright 2003, Gaussian, Inc.),
 the Gaussian(R) 98 system (copyright 1998, Gaussian, Inc.),
 the Gaussian(R) 94 system (copyright 1995, Gaussian, Inc.),
 the Gaussian 92(TM) system (copyright 1992, Gaussian, Inc.),
 the Gaussian 90(TM) system (copyright 1990, Gaussian, Inc.),
 the Gaussian 88(TM) system (copyright 1988, Gaussian, Inc.),
 the Gaussian 86(TM) system (copyright 1986, Carnegie Mellon
 University), and the Gaussian 82(TM) system (copyright 1983,
 Carnegie Mellon University). Gaussian is a federally registered
 trademark of Gaussian, Inc.
  
 This software contains proprietary and confidential information,
 including trade secrets, belonging to Gaussian, Inc.
  
 This software is provided under written license and may be
 used, copied, transmitted, or stored only in accord with that
 written license.
  
 The following legend is applicable only to US Government
 contracts under FAR:
  
                    RESTRICTED RIGHTS LEGEND
  
 Use, reproduction and disclosure by the US Government is
 subject to restrictions as set forth in subparagraphs (a)
 and (c) of the Commercial Computer Software - Restricted
 Rights clause in FAR 52.227-19.
  
 Gaussian, Inc.
 340 Quinnipiac St., Bldg. 40, Wallingford CT 06492
  
  
 ---------------------------------------------------------------
 Warning -- This program may not be used in any manner that
 competes with the business of Gaussian, Inc. or will provide
 assistance to any competitor of Gaussian, Inc.  The licensee
 of this program is prohibited from giving any competitor of
 Gaussian, Inc. access to this program.  By using this program,
 the user acknowledges that Gaussian, Inc. is engaged in the
 business of creating and licensing software in the field of
 computational chemistry and represents and warrants to the
 licensee that it is not a competitor of Gaussian, Inc. and that
 it will not use this program in any manner prohibited above.
 ---------------------------------------------------------------
  

 Cite this work as:
 Gaussian 16, Revision B.01,
 M. J. Frisch, G. W. Trucks, H. B. Schlegel, G. E. Scuseria, 
 M. A. Robb, J. R. Cheeseman, G. Scalmani, V. Barone, 
 G. A. Petersson, H. Nakatsuji, X. Li, M. Caricato, A. V. Marenich, 
 J. Bloino, B. G. Janesko, R. Gomperts, B. Mennucci, H. P. Hratchian, 
 J. V. Ortiz, A. F. Izmaylov, J. L. Sonnenberg, D. Williams-Young, 
 F. Ding, F. Lipparini, F. Egidi, J. Goings, B. Peng, A. Petrone, 
 T. Henderson, D. Ranasinghe, V. G. Zakrzewski, J. Gao, N. Rega, 
 G. Zheng, W. Liang, M. Hada, M. Ehara, K. Toyota, R. Fukuda, 
 J. Hasegawa, M. Ishida, T. Nakajima, Y. Honda, O. Kitao, H. Nakai, 
 T. Vreven, K. Throssell, J. A. Montgomery, Jr., J. E. Peralta, 
 F. Ogliaro, M. J. Bearpark, J. J. Heyd, E. N. Brothers, K. N. Kudin, 
 V. N. Staroverov, T. A. Keith, R. Kobayashi, J. Normand, 
 K. Raghavachari, A. P. Rendell, J. C. Burant, S. S. Iyengar, 
 J. Tomasi, M. Cossi, J. M. Millam, M. Klene, C. Adamo, R. Cammi, 
 J. W. Ochterski, R. L. Martin, K. Morokuma, O. Farkas, 
 J. B. Foresman, and D. J. Fox, Gaussian, Inc., Wallingford CT, 2016.
 
 ******************************************
 Gaussian 16:  ES64L-G16RevB.01 20-Dec-2017
                 5-Nov-2022 
 ******************************************
 %chk=calculation/no_transfer_pubchem_sampling_3_b3lyp/112850755_rwf.chk
 %rwf=calculation/no_transfer_pubchem_sampling_3_b3lyp/112850755_rwf.rwf
 %nprocshared=14
 Will use up to   14 processors via shared memory.
 %mem=3GB
 -------------------------------------------------------------------
 #p b3lyp/6-31g(d) 6D 10F nosymm GFInput td=(50-50,nstate=2) SCF=XQC
 -------------------------------------------------------------------
 1/38=1,172=1/1;
 2/12=2,15=1,17=6,18=5,40=1/2;
 3/5=1,6=6,7=1,8=22,11=9,24=10,25=1,30=1,74=-5/1,2,3,8;
 4//1;
 5/5=2,8=3,13=1,38=5/2,8;
 8/6=1,10=2,108=2/1;
 9/41=2,42=1,48=2,70=2/14;
 6/7=2,8=2,9=2,10=2/1;
 99/5=1,9=1/99;
 Leave Link    1 at Sat Nov  5 11:46:35 2022, MaxMem=   402653184 cpu:               1.9 elap:               0.3
 (Enter /home/wykgroup/appl/g16/l101.exe)
 ------------------------------
 Gaussian input prepared by ASE
 ------------------------------
 Symbolic Z-matrix:
 Charge =  0 Multiplicity = 1
 C                     5.75772  -0.09854   3.51143 
 O                     5.859    -0.5581    2.1738 
 C                     4.87584  -0.20121   1.30229 
 C                     3.77189   0.58777   1.61113 
 C                     2.81734   0.91047   0.63752 
 C                     2.94912   0.41104  -0.65433 
 N                     2.02792   0.72     -1.68575 
 C                     0.66202   0.7443   -1.6478 
 C                    -0.10889   0.33708  -0.53549 
 C                    -1.47705   0.42282  -0.69306 
 C                    -2.38094   0.00566   0.44644 
 O                    -1.93328  -0.39585   1.51411 
 N                    -3.70974   0.13698   0.12516 
 C                    -4.82845  -0.14471   0.90848 
 C                    -4.74443  -0.63832   2.22072 
 C                    -5.90661  -0.89694   2.94262 
 C                    -7.17257  -0.67675   2.39208 
 C                    -7.27173  -0.18897   1.09508 
 C                    -6.11382   0.07918   0.34789 
 C                    -6.23307   0.58079  -0.98671 
 N                    -6.30025   0.98943  -2.07531 
 N                    -2.07536   0.85946  -1.81826 
 C                    -1.26068   1.20785  -2.82229 
 C                    -1.8961    1.68605  -4.10002 
 N                     0.07596   1.16901  -2.78467 
 C                     4.05935  -0.39097  -0.97887 
 C                     5.02477  -0.68965  -0.02283 
 O                     6.13103  -1.44851  -0.24597 
 C                     6.3307   -1.97339  -1.54806 
 H                     6.62987  -0.49977   4.03053 
 H                     4.84414  -0.46711   3.99696 
 H                     5.77646   0.99838   3.56462 
 H                     3.64743   0.98012   2.61355 
 H                     1.9921    1.56565   0.89297 
 H                     2.40028   0.94268  -2.60111 
 H                     0.31821  -0.03704   0.38441 
 H                    -3.85525   0.49405  -0.82074 
 H                    -3.76761  -0.81022   2.65007 
 H                    -5.81763  -1.27857   3.9561 
 H                    -8.06967  -0.88315   2.96721 
 H                    -8.24022  -0.00801   0.63995 
 H                    -1.58424   1.05318  -4.93824 
 H                    -2.98388   1.66633  -4.01362 
 H                    -1.56683   2.7058   -4.32864 
 H                     4.14274  -0.78599  -1.98488 
 H                     7.2656   -2.5344   -1.50215 
 H                     5.51577  -2.64907  -1.84043 
 H                     6.42305  -1.17429  -2.29588 
 
 ITRead=  0  0  0  0  0  0  0  0  0  0  0  0  0  0  0  0  0  0  0  0
 ITRead=  0  0  0  0  0  0  0  0  0  0  0  0  0  0  0  0  0  0  0  0
 ITRead=  0  0  0  0  0  0  0  0
 MicOpt= -1 -1 -1 -1 -1 -1 -1 -1 -1 -1 -1 -1 -1 -1 -1 -1 -1 -1 -1 -1
 MicOpt= -1 -1 -1 -1 -1 -1 -1 -1 -1 -1 -1 -1 -1 -1 -1 -1 -1 -1 -1 -1
 MicOpt= -1 -1 -1 -1 -1 -1 -1 -1
 NAtoms=     48 NQM=       48 NQMF=       0 NMMI=      0 NMMIF=      0
                NMic=       0 NMicF=      0.
                    Isotopes and Nuclear Properties:
 (Nuclear quadrupole moments (NQMom) in fm**2, nuclear magnetic moments (NMagM)
  in nuclear magnetons)

  Atom         1           2           3           4           5           6           7           8           9          10
 IAtWgt=          12          16          12          12          12          12          14          12          12          12
 AtmWgt=  12.0000000  15.9949146  12.0000000  12.0000000  12.0000000  12.0000000  14.0030740  12.0000000  12.0000000  12.0000000
 NucSpn=           0           0           0           0           0           0           2           0           0           0
 AtZEff=  -0.0000000  -0.0000000  -0.0000000  -0.0000000  -0.0000000  -0.0000000  -0.0000000  -0.0000000  -0.0000000  -0.0000000
 NQMom=    0.0000000   0.0000000   0.0000000   0.0000000   0.0000000   0.0000000   2.0440000   0.0000000   0.0000000   0.0000000
 NMagM=    0.0000000   0.0000000   0.0000000   0.0000000   0.0000000   0.0000000   0.4037610   0.0000000   0.0000000   0.0000000
 AtZNuc=   6.0000000   8.0000000   6.0000000   6.0000000   6.0000000   6.0000000   7.0000000   6.0000000   6.0000000   6.0000000

  Atom        11          12          13          14          15          16          17          18          19          20
 IAtWgt=          12          16          14          12          12          12          12          12          12          12
 AtmWgt=  12.0000000  15.9949146  14.0030740  12.0000000  12.0000000  12.0000000  12.0000000  12.0000000  12.0000000  12.0000000
 NucSpn=           0           0           2           0           0           0           0           0           0           0
 AtZEff=  -0.0000000  -0.0000000  -0.0000000  -0.0000000  -0.0000000  -0.0000000  -0.0000000  -0.0000000  -0.0000000  -0.0000000
 NQMom=    0.0000000   0.0000000   2.0440000   0.0000000   0.0000000   0.0000000   0.0000000   0.0000000   0.0000000   0.0000000
 NMagM=    0.0000000   0.0000000   0.4037610   0.0000000   0.0000000   0.0000000   0.0000000   0.0000000   0.0000000   0.0000000
 AtZNuc=   6.0000000   8.0000000   7.0000000   6.0000000   6.0000000   6.0000000   6.0000000   6.0000000   6.0000000   6.0000000

  Atom        21          22          23          24          25          26          27          28          29          30
 IAtWgt=          14          14          12          12          14          12          12          16          12           1
 AtmWgt=  14.0030740  14.0030740  12.0000000  12.0000000  14.0030740  12.0000000  12.0000000  15.9949146  12.0000000   1.0078250
 NucSpn=           2           2           0           0           2           0           0           0           0           1
 AtZEff=  -0.0000000  -0.0000000  -0.0000000  -0.0000000  -0.0000000  -0.0000000  -0.0000000  -0.0000000  -0.0000000  -0.0000000
 NQMom=    2.0440000   2.0440000   0.0000000   0.0000000   2.0440000   0.0000000   0.0000000   0.0000000   0.0000000   0.0000000
 NMagM=    0.4037610   0.4037610   0.0000000   0.0000000   0.4037610   0.0000000   0.0000000   0.0000000   0.0000000   2.7928460
 AtZNuc=   7.0000000   7.0000000   6.0000000   6.0000000   7.0000000   6.0000000   6.0000000   8.0000000   6.0000000   1.0000000

  Atom        31          32          33          34          35          36          37          38          39          40
 IAtWgt=           1           1           1           1           1           1           1           1           1           1
 AtmWgt=   1.0078250   1.0078250   1.0078250   1.0078250   1.0078250   1.0078250   1.0078250   1.0078250   1.0078250   1.0078250
 NucSpn=           1           1           1           1           1           1           1           1           1           1
 AtZEff=  -0.0000000  -0.0000000  -0.0000000  -0.0000000  -0.0000000  -0.0000000  -0.0000000  -0.0000000  -0.0000000  -0.0000000
 NQMom=    0.0000000   0.0000000   0.0000000   0.0000000   0.0000000   0.0000000   0.0000000   0.0000000   0.0000000   0.0000000
 NMagM=    2.7928460   2.7928460   2.7928460   2.7928460   2.7928460   2.7928460   2.7928460   2.7928460   2.7928460   2.7928460
 AtZNuc=   1.0000000   1.0000000   1.0000000   1.0000000   1.0000000   1.0000000   1.0000000   1.0000000   1.0000000   1.0000000

  Atom        41          42          43          44          45          46          47          48
 IAtWgt=           1           1           1           1           1           1           1           1
 AtmWgt=   1.0078250   1.0078250   1.0078250   1.0078250   1.0078250   1.0078250   1.0078250   1.0078250
 NucSpn=           1           1           1           1           1           1           1           1
 AtZEff=  -0.0000000  -0.0000000  -0.0000000  -0.0000000  -0.0000000  -0.0000000  -0.0000000  -0.0000000
 NQMom=    0.0000000   0.0000000   0.0000000   0.0000000   0.0000000   0.0000000   0.0000000   0.0000000
 NMagM=    2.7928460   2.7928460   2.7928460   2.7928460   2.7928460   2.7928460   2.7928460   2.7928460
 AtZNuc=   1.0000000   1.0000000   1.0000000   1.0000000   1.0000000   1.0000000   1.0000000   1.0000000
 Leave Link  101 at Sat Nov  5 11:46:36 2022, MaxMem=   402653184 cpu:               1.2 elap:               0.2
 (Enter /home/wykgroup/appl/g16/l202.exe)
                          Input orientation:                          
 ---------------------------------------------------------------------
 Center     Atomic      Atomic             Coordinates (Angstroms)
 Number     Number       Type             X           Y           Z
 ---------------------------------------------------------------------
      1          6           0        5.757716   -0.098541    3.511433
      2          8           0        5.859004   -0.558098    2.173800
      3          6           0        4.875842   -0.201207    1.302294
      4          6           0        3.771892    0.587773    1.611135
      5          6           0        2.817342    0.910466    0.637520
      6          6           0        2.949116    0.411038   -0.654328
      7          7           0        2.027915    0.719998   -1.685753
      8          6           0        0.662022    0.744300   -1.647801
      9          6           0       -0.108894    0.337082   -0.535490
     10          6           0       -1.477049    0.422824   -0.693063
     11          6           0       -2.380940    0.005658    0.446436
     12          8           0       -1.933283   -0.395849    1.514113
     13          7           0       -3.709738    0.136979    0.125161
     14          6           0       -4.828454   -0.144707    0.908478
     15          6           0       -4.744426   -0.638324    2.220718
     16          6           0       -5.906613   -0.896939    2.942620
     17          6           0       -7.172575   -0.676749    2.392076
     18          6           0       -7.271730   -0.188971    1.095082
     19          6           0       -6.113824    0.079184    0.347886
     20          6           0       -6.233075    0.580788   -0.986711
     21          7           0       -6.300252    0.989426   -2.075306
     22          7           0       -2.075359    0.859456   -1.818263
     23          6           0       -1.260683    1.207846   -2.822290
     24          6           0       -1.896104    1.686047   -4.100022
     25          7           0        0.075963    1.169005   -2.784669
     26          6           0        4.059355   -0.390966   -0.978870
     27          6           0        5.024769   -0.689653   -0.022827
     28          8           0        6.131032   -1.448515   -0.245969
     29          6           0        6.330703   -1.973389   -1.548061
     30          1           0        6.629866   -0.499768    4.030533
     31          1           0        4.844136   -0.467107    3.996963
     32          1           0        5.776461    0.998379    3.564615
     33          1           0        3.647435    0.980122    2.613549
     34          1           0        1.992101    1.565650    0.892966
     35          1           0        2.400277    0.942681   -2.601109
     36          1           0        0.318213   -0.037037    0.384414
     37          1           0       -3.855255    0.494051   -0.820744
     38          1           0       -3.767611   -0.810217    2.650067
     39          1           0       -5.817632   -1.278568    3.956097
     40          1           0       -8.069670   -0.883147    2.967206
     41          1           0       -8.240218   -0.008007    0.639950
     42          1           0       -1.584235    1.053177   -4.938244
     43          1           0       -2.983884    1.666327   -4.013621
     44          1           0       -1.566831    2.705801   -4.328639
     45          1           0        4.142744   -0.785995   -1.984878
     46          1           0        7.265601   -2.534402   -1.502146
     47          1           0        5.515772   -2.649069   -1.840427
     48          1           0        6.423053   -1.174291   -2.295883
 ---------------------------------------------------------------------
                    Distance matrix (angstroms):
                    1          2          3          4          5
     1  C    0.000000
     2  O    1.417996   0.000000
     3  C    2.380869   1.361434   0.000000
     4  C    2.832960   2.446559   1.391610   0.000000
     5  C    4.233589   3.710599   2.432111   1.401150   0.000000
     6  C    5.049898   4.171928   2.813448   2.416716   1.391281
     7  N    6.449199   5.586316   4.229389   3.732078   2.461111
     8  C    7.300286   6.580995   5.230040   4.507377   3.145743
     9  C    7.140342   6.614939   5.339926   4.441998   3.204306
    10  C    8.383999   7.937178   6.688056   5.734799   4.522172
    11  C    8.697286   8.437908   7.310005   6.289095   5.279898
    12  O    7.951676   7.821844   6.815199   5.790159   5.004329
    13  N   10.057584   9.810243   8.672496   7.641080   6.592690
    14  C   10.901583  10.770037   9.712448   8.660035   7.723018
    15  C   10.594919  10.603837   9.673889   8.625692   7.879442
    16  C   11.705450  11.795577  10.928680   9.881835   9.202586
    17  C   12.991525  13.033947  12.106945  11.044919  10.266263
    18  C   13.251921  13.180140  12.149346  11.082925  10.159109
    19  C   12.287111  12.128014  11.034595   9.979070   8.974444
    20  C   12.824736  12.550071  11.369217  10.336741   9.200916
    21  N   13.333788  12.972943  11.735879  10.733091   9.512947
    22  N    9.522630   8.994451   7.692989   6.784166   5.474668
    23  C    9.543617   8.875214   7.526923   6.735470   5.356212
    24  C   10.940748  10.224419   8.866003   8.120941   6.727734
    25  N    8.574958   7.811074   6.451325   5.772418   4.392423
    26  C    4.809654   3.634007   2.430303   2.783647   2.418478
    27  C    3.657543   2.353387   1.420108   2.423087   2.805204
    28  O    4.009970   2.592706   2.351254   3.627788   4.162437
    29  C    5.426034   4.009714   3.658111   4.804954   5.043519
    30  H    1.091372   2.011240   3.257150   3.899263   5.294963
    31  H    1.098276   2.088579   2.707942   2.820400   4.158300
    32  H    1.098369   2.088971   2.714446   2.828954   4.163172
    33  H    2.534364   2.729568   2.150329   1.083634   2.144435
    34  H    4.879114   4.593885   3.406654   2.153987   1.084224
    35  H    7.051220   6.083986   4.761665   4.444129   3.265531
    36  H    6.274570   5.845834   4.652037   3.717947   2.684673
    37  H   10.560689  10.219645   9.012366   8.006009   6.842769
    38  H    9.590636   9.641686   8.769074   7.738078   7.097373
    39  H   11.643834  11.833828  11.070400  10.046942   9.506187
    40  H   13.860318  13.955039  13.069937  12.009376  11.277035
    41  H   14.289709  14.193075  13.134195  12.066024  11.095640
    42  H   11.252899  10.420134   9.069200   8.473432   7.105166
    43  H   11.668623  11.019479   9.670674   8.856729   7.473865
    44  H   11.089637  10.396046   9.036932   8.262500   6.863449
    45  H    5.769763   4.504674   3.418320   3.867308   3.392880
    46  H    5.774350   4.404189   4.361150   5.625522   6.019327
    47  H    5.933475   4.539161   4.034629   5.042969   5.108035
    48  H    5.943469   4.547077   4.035794   5.039674   5.094331
                    6          7          8          9         10
     6  C    0.000000
     7  N    1.417006   0.000000
     8  C    2.515720   1.366636   0.000000
     9  C    3.061212   2.456763   1.413284   0.000000
    10  C    4.426350   3.654931   2.364423   1.379865   0.000000
    11  C    5.457610   4.949193   3.767099   2.497241   1.513110
    12  O    5.402871   5.212998   4.246557   2.840151   2.397916
    13  N    6.709921   6.044831   4.756524   3.666411   2.395015
    14  C    7.952471   7.381568   6.121293   4.958972   3.757518
    15  C    8.279953   7.935374   6.790196   5.480534   4.504653
    16  C    9.647422   9.327007   8.180012   6.872670   5.880561
    17  C   10.626028  10.160148   8.928656   7.713241   6.570096
    18  C   10.386825   9.748983   8.446232   7.364897   6.095087
    19  C    9.124222   8.416309   7.094874   6.075035   4.764593
    20  C    9.189772   8.291682   6.928646   6.145615   4.767700
    21  N    9.375740   8.341625   6.979692   6.413228   5.049249
    22  N    5.176984   4.107781   2.745100   2.405278   1.347106
    23  C    4.801809   3.513487   2.300238   2.704496   2.279623
    24  C    6.080675   4.707427   3.666645   4.209479   3.657692
    25  N    3.656211   2.284588   1.347706   2.405218   2.709880
    26  C    1.407540   2.420882   3.643921   4.254520   5.603187
    27  C    2.432827   3.705883   4.871377   5.260371   6.630268
    28  O    3.708003   4.859115   6.056702   6.496835   7.847592
    29  C    4.233129   5.078117   6.287267   6.916068   8.211812
    30  H    6.027057   7.439201   8.331046   8.182895   9.427916
    31  H    5.098701   6.452409   7.128880   6.761831   7.921219
    32  H    5.112566   6.457202   7.306936   7.203165   8.430451
    33  H    3.389768   4.601577   5.208397   4.943679   6.124100
    34  H    2.154791   2.714075   2.983156   2.822065   3.982028
    35  H    2.091369   1.012974   1.992406   3.305975   4.352534
    36  H    2.863809   2.789583   2.204220   1.081022   2.143687
    37  H    6.806911   5.950713   4.599178   3.760482   2.382696
    38  H    7.584517   7.397906   6.364734   4.985005   4.235986
    39  H   10.048216   9.867996   8.802362   7.441395   6.584078
    40  H   11.670649  11.233046  10.009461   8.782470   7.652828
    41  H   11.271732  10.553362   9.222237   8.223088   6.906735
    42  H    6.270211   4.872098   3.996010   4.698262   4.293063
    43  H    6.932610   5.606482   4.442957   4.704237   3.852655
    44  H    6.257817   4.883693   4.000271   4.703657   4.293886
    45  H    2.151279   2.613425   3.817178   4.630168   5.891698
    46  H    5.294002   6.169132   7.374168   7.972643   9.264650
    47  H    4.166390   4.851771   5.925449   6.500525   7.723504
    48  H    4.156466   4.824710   6.106593   6.931779   8.217750
                   11         12         13         14         15
    11  C    0.000000
    12  O    1.225374   0.000000
    13  N    1.373378   2.317086   0.000000
    14  C    2.495279   2.968482   1.394438   0.000000
    15  C    3.024707   2.908713   2.462322   1.404526   0.000000
    16  C    4.413160   4.251949   3.719317   2.421986   1.392373
    17  C    5.216413   5.319766   4.218092   2.824719   2.434491
    18  C    4.937454   5.358863   3.706047   2.450791   2.802899
    19  C    3.734909   4.366082   2.415073   1.420059   2.428491
    20  C    4.150136   5.069138   2.792930   2.468004   3.740309
    21  N    4.763191   5.820080   3.504209   3.515026   4.850359
    22  N    2.439510   3.563805   2.640088   4.002873   5.067606
    23  C    3.658524   4.672111   3.978956   5.336386   6.401307
    24  C    4.871248   5.987837   4.851912   6.085672   7.312140
    25  N    4.222533   4.996535   4.885050   6.278413   7.180284
    26  C    6.608041   6.490508   7.864884   9.089327   9.370438
    27  C    7.453066   7.131829   8.774783   9.912129  10.023637
    28  O    8.663008   8.321008   9.974581  11.096982  11.181079
    29  C    9.153544   8.953156  10.395373  11.571752  11.774743
    30  H    9.710604   8.925843  11.070898  11.881346  11.518209
    31  H    8.064209   7.218242   9.408747  10.158823   9.753198
    32  H    8.789296   8.098678  10.127182  10.992085  10.731911
    33  H    6.479758   5.852048   7.812231   8.718555   8.555525
    34  H    4.664381   4.431923   5.928034   7.031752   7.211187
    35  H    5.746788   6.124252   6.738990   8.108894   8.763354
    36  H    2.700203   2.544445   4.040034   5.174400   5.418844
    37  H    2.004465   3.152374   1.021476   2.084547   3.365024
    38  H    2.728461   2.197009   2.697347   2.145094   1.080766
    39  H    5.077185   4.672328   4.595983   3.398838   2.138510
    40  H    6.285372   6.324886   5.303479   3.910132   3.416787
    41  H    5.862489   6.379030   4.561938   3.425044   3.888019
    42  H    5.543177   6.622267   5.567337   6.792940   8.006167
    43  H    4.797235   5.992677   4.471609   5.559617   6.875893
    44  H    5.545709   6.625125   5.570209   6.796394   8.010890
    45  H    7.006886   7.022340   8.183252   9.448024   9.833139
    46  H   10.163889   9.914167  11.412382  12.561366  12.715958
    47  H    8.639177   8.474571   9.835427  10.992330  11.216401
    48  H    9.296391   9.216853  10.500206  11.744121  12.058172
                   16         17         18         19         20
    16  C    0.000000
    17  C    1.397942   0.000000
    18  C    2.403781   1.389228   0.000000
    19  C    2.779999   2.423036   1.403907   0.000000
    20  C    4.210688   3.725623   2.450550   1.430726   0.000000
    21  N    5.375212   4.847122   3.519055   2.595218   1.164704
    22  N    6.358414   6.787378   6.048889   4.648680   4.249204
    23  C    7.697335   8.105046   7.309554   5.905664   5.337343
    24  C    8.506163   8.693175   7.707280   6.336802   5.451937
    25  N    8.535875   9.096527   8.419332   7.022398   6.586547
    26  C   10.721688  11.730354  11.521092  10.270097  10.338204
    27  C   11.328369  12.434111  12.357358  11.171249  11.370230
    28  O   12.465000  13.584582  13.528448  12.354070  12.551411
    29  C   13.079635  14.126021  13.971276  12.754369  12.833061
    30  H   12.589860  13.900476  14.211539  13.277752  13.849028
    31  H   10.810873  12.125219  12.461640  11.562486  12.191788
    32  H   11.852144  13.109479  13.332805  12.351970  12.849821
    33  H    9.742251  10.948373  11.086058  10.061168  10.523583
    34  H    8.523796   9.553375   9.430701   8.259099   8.494508
    35  H   10.154878  10.917598  10.415862   9.051636   8.790450
    36  H    6.784711   7.781506   7.624655   6.433191   6.721686
    37  H    4.506199   4.764200   3.976080   2.576615   2.385182
    38  H    2.160657   3.417331   3.883655   3.405259   4.608640
    39  H    1.086598   2.155045   3.389253   3.866576   5.297278
    40  H    2.163241   1.085428   2.150218   3.407675   4.598874
    41  H    3.396793   2.158014   1.085293   2.148128   2.649779
    42  H    9.197495   9.378474   8.384005   7.029154   6.119597
    43  H    7.968812   8.004255   6.922904   5.598062   4.571413
    44  H    9.202426   9.382645   8.387034   7.031654   6.120294
    45  H   11.192949  12.132852  11.837770  10.554028  10.512947
    46  H   13.998016  15.069067  14.952613  13.757270  13.863057
    47  H   12.506733  13.520292  13.348764  12.144117  12.214590
    48  H   13.399235  14.389774  14.142722  12.873772  12.844135
                   21         22         23         24         25
    21  N    0.000000
    22  N    4.234700   0.000000
    23  C    5.099308   1.339083   0.000000
    24  C    4.897068   2.433477   1.505003   0.000000
    25  N    6.418065   2.378643   1.337739   2.426218   0.000000
    26  C   10.508525   6.316869   5.852965   7.037262   4.643472
    27  C   11.631340   7.485662   7.137535   8.376511   5.964316
    28  O   12.799486   8.668546   8.266265   9.440027   7.068259
    29  C   12.984501   8.874677   8.329049   9.358650   7.108137
    30  H   14.376609  10.575294  10.589518  11.982315   9.601324
    31  H   12.774635   9.135427   9.304649  10.753049   8.450022
    32  H   13.328758   9.520806   9.505674  10.866821   8.534530
    33  H   10.997359   7.239191   7.327334   8.735055   6.475481
    34  H    8.826426   4.938998   4.950935   6.329500   4.165803
    35  H    8.716528   4.544347   3.677209   4.610664   2.342511
    36  H    7.134978   3.374117   3.784917   5.289838   3.399457
    37  H    2.792370   2.072823   3.353728   4.001598   4.446013
    38  H    5.655275   5.061373   6.348539   7.436234   6.944547
    39  H    6.461775   7.205483   8.537831   9.437605   9.282403
    40  H    5.662534   7.865694   9.178933   9.729306  10.180703
    41  H    3.482952   6.693340   7.885386   8.098453   9.070404
    42  H    5.517363   3.164334   2.146129   1.095629   2.721683
    43  H    3.900456   2.509194   2.144503   1.091384   3.334713
    44  H    5.516224   3.157464   2.146319   1.095712   2.728434
    45  H   10.593227   6.434289   5.820110   6.859483   4.582620
    46  H   14.027767   9.943427   9.404506  10.416237   8.188467
    47  H   12.365769   8.362745   7.858765   8.878902   6.712735
    48  H   12.907858   8.751414   8.061730   8.980246   6.783473
                   26         27         28         29         30
    26  C    0.000000
    27  C    1.391135   0.000000
    28  O    2.438730   1.359957   0.000000
    29  C    2.826140   2.383229   1.418029   0.000000
    30  H    5.631473   4.363728   4.408789   5.777696   0.000000
    31  H    5.037916   4.029997   4.541116   5.935155   1.786344
    32  H    5.051930   4.035373   4.542417   5.939533   1.786007
    33  H    3.867175   3.411111   4.499264   5.765601   3.618399
    34  H    3.406707   3.888719   5.245294   6.107935   5.968177
    35  H    2.676342   4.024923   5.018270   5.006058   7.996796
    36  H    3.997493   4.769007   6.014858   6.605601   7.303785
    37  H    7.965507   8.994034  10.189694  10.505760  11.595703
    38  H    8.637497   9.190476  10.333324  10.997872  10.493311
    39  H   11.076850  11.564442  12.667155  13.355170  12.472059
    40  H   12.764286  13.432872  14.570658  15.130995  14.742930
    41  H   12.411556  13.299015  14.470409  14.864786  15.259662
    42  H    7.043599   8.418890   9.370233   9.126866  12.260589
    43  H    7.940363   9.252869  10.343072  10.299905  12.721028
    44  H    7.243264   8.574282   9.653167   9.591531  12.138256
    45  H    1.083998   2.153344   2.723238   2.527425   6.515587
    46  H    3.892063   3.257732   2.011065   1.091274   5.929118
    47  H    2.821783   2.717363   2.088581   1.098241   6.350502
    48  H    2.816947   2.712352   2.088689   1.098327   6.365634
                   31         32         33         34         35
    31  H    0.000000
    32  H    1.789917   0.000000
    33  H    2.332466   2.331869   0.000000
    34  H    4.679850   4.666999   2.458328   0.000000
    35  H    7.175967   7.029785   5.361853   3.572570   0.000000
    36  H    5.806845   6.401425   4.133688   2.372579   3.769375
    37  H    9.990672  10.595078   8.265651   6.186817   6.519405
    38  H    8.723189   9.756881   7.628207   6.473517   8.287964
    39  H   10.692681  11.822045   9.823014   8.858006  10.745461
    40  H   12.961476  13.986150  11.869599  10.561170  11.998315
    41  H   13.515940  14.353877  12.090814  10.355712  11.163710
    42  H   11.111847  11.246398   9.187235   6.859725   4.620687
    43  H   11.401705  11.602563   9.400247   6.988931   5.613203
    44  H   10.976497  10.915250   8.852147   6.421145   4.672355
    45  H    6.031257   6.053916   4.950761   4.293889   2.530662
    46  H    6.354322   6.353751   6.510143   7.096252   6.080230
    47  H    6.267948   6.525819   6.041491   6.136085   4.815144
    48  H    6.526331   6.283630   6.037224   6.108139   4.556035
                   36         37         38         39         40
    36  H    0.000000
    37  H    4.376333   0.000000
    38  H    4.735498   3.708818   0.000000
    39  H    7.207420   5.459974   2.475410   0.000000
    40  H    8.817216   5.831512   4.314349   2.491172   0.000000
    41  H    8.562294   4.649042   4.968735   4.298847   2.492203
    42  H    5.756610   4.735394   8.113065  10.122647  10.407034
    43  H    5.757430   3.511122   7.152079   8.956503   9.005386
    44  H    5.769698   4.736459   8.118384  10.128246  10.411379
    45  H    4.560868   8.183014   9.168261  11.608053  13.178605
    46  H    7.619852  11.545964  11.914087  14.231674  16.058403
    47  H    6.227941   9.936554  10.475071  12.803281  14.518817
    48  H    6.763609  10.516797  11.333340  13.745272  15.421539
                   41         42         43         44         45
    41  H    0.000000
    42  H    8.748969   0.000000
    43  H    7.217213   1.786028   0.000000
    44  H    8.751327   1.761558   1.785436   0.000000
    45  H   12.681985   6.700986   7.805031   7.091199   0.000000
    46  H   15.855651  10.148748  11.358062  10.651790   3.611398
    47  H   14.225145   8.585639   9.776991   9.221122   2.318861
    48  H   14.999695   8.721259   9.975480   9.111830   2.333947
                   46         47         48
    46  H    0.000000
    47  H    1.785913   0.000000
    48  H    1.786003   1.790410   0.000000
 Symmetry turned off by external request.
 Stoichiometry    C21H19N5O3
 Framework group  C1[X(C21H19N5O3)]
 Deg. of freedom   138
 Full point group                 C1      NOp   1
 Rotational constants (GHZ):           0.3045636           0.0628273           0.0540425
 Leave Link  202 at Sat Nov  5 11:46:36 2022, MaxMem=   402653184 cpu:               0.3 elap:               0.1
 (Enter /home/wykgroup/appl/g16/l301.exe)
 Standard basis: 6-31G(d) (6D, 10F)
 Ernie: Thresh=  0.10000D-02 Tol=  0.10000D-05 Strict=F.
 AO basis set in the form of general basis input (Overlap normalization):
      1 0
 S   6 1.00       0.000000000000
      0.3047524880D+04  0.1834737132D-02
      0.4573695180D+03  0.1403732281D-01
      0.1039486850D+03  0.6884262226D-01
      0.2921015530D+02  0.2321844432D+00
      0.9286662960D+01  0.4679413484D+00
      0.3163926960D+01  0.3623119853D+00
 SP   3 1.00       0.000000000000
      0.7868272350D+01 -0.1193324198D+00  0.6899906659D-01
      0.1881288540D+01 -0.1608541517D+00  0.3164239610D+00
      0.5442492580D+00  0.1143456438D+01  0.7443082909D+00
 SP   1 1.00       0.000000000000
      0.1687144782D+00  0.1000000000D+01  0.1000000000D+01
 D   1 1.00       0.000000000000
      0.8000000000D+00  0.1000000000D+01
 ****
      2 0
 S   6 1.00       0.000000000000
      0.5484671660D+04  0.1831074430D-02
      0.8252349460D+03  0.1395017220D-01
      0.1880469580D+03  0.6844507810D-01
      0.5296450000D+02  0.2327143360D+00
      0.1689757040D+02  0.4701928980D+00
      0.5799635340D+01  0.3585208530D+00
 SP   3 1.00       0.000000000000
      0.1553961625D+02 -0.1107775495D+00  0.7087426823D-01
      0.3599933586D+01 -0.1480262627D+00  0.3397528391D+00
      0.1013761750D+01  0.1130767015D+01  0.7271585773D+00
 SP   1 1.00       0.000000000000
      0.2700058226D+00  0.1000000000D+01  0.1000000000D+01
 D   1 1.00       0.000000000000
      0.8000000000D+00  0.1000000000D+01
 ****
      3 0
 S   6 1.00       0.000000000000
      0.3047524880D+04  0.1834737132D-02
      0.4573695180D+03  0.1403732281D-01
      0.1039486850D+03  0.6884262226D-01
      0.2921015530D+02  0.2321844432D+00
      0.9286662960D+01  0.4679413484D+00
      0.3163926960D+01  0.3623119853D+00
 SP   3 1.00       0.000000000000
      0.7868272350D+01 -0.1193324198D+00  0.6899906659D-01
      0.1881288540D+01 -0.1608541517D+00  0.3164239610D+00
      0.5442492580D+00  0.1143456438D+01  0.7443082909D+00
 SP   1 1.00       0.000000000000
      0.1687144782D+00  0.1000000000D+01  0.1000000000D+01
 D   1 1.00       0.000000000000
      0.8000000000D+00  0.1000000000D+01
 ****
      4 0
 S   6 1.00       0.000000000000
      0.3047524880D+04  0.1834737132D-02
      0.4573695180D+03  0.1403732281D-01
      0.1039486850D+03  0.6884262226D-01
      0.2921015530D+02  0.2321844432D+00
      0.9286662960D+01  0.4679413484D+00
      0.3163926960D+01  0.3623119853D+00
 SP   3 1.00       0.000000000000
      0.7868272350D+01 -0.1193324198D+00  0.6899906659D-01
      0.1881288540D+01 -0.1608541517D+00  0.3164239610D+00
      0.5442492580D+00  0.1143456438D+01  0.7443082909D+00
 SP   1 1.00       0.000000000000
      0.1687144782D+00  0.1000000000D+01  0.1000000000D+01
 D   1 1.00       0.000000000000
      0.8000000000D+00  0.1000000000D+01
 ****
      5 0
 S   6 1.00       0.000000000000
      0.3047524880D+04  0.1834737132D-02
      0.4573695180D+03  0.1403732281D-01
      0.1039486850D+03  0.6884262226D-01
      0.2921015530D+02  0.2321844432D+00
      0.9286662960D+01  0.4679413484D+00
      0.3163926960D+01  0.3623119853D+00
 SP   3 1.00       0.000000000000
      0.7868272350D+01 -0.1193324198D+00  0.6899906659D-01
      0.1881288540D+01 -0.1608541517D+00  0.3164239610D+00
      0.5442492580D+00  0.1143456438D+01  0.7443082909D+00
 SP   1 1.00       0.000000000000
      0.1687144782D+00  0.1000000000D+01  0.1000000000D+01
 D   1 1.00       0.000000000000
      0.8000000000D+00  0.1000000000D+01
 ****
      6 0
 S   6 1.00       0.000000000000
      0.3047524880D+04  0.1834737132D-02
      0.4573695180D+03  0.1403732281D-01
      0.1039486850D+03  0.6884262226D-01
      0.2921015530D+02  0.2321844432D+00
      0.9286662960D+01  0.4679413484D+00
      0.3163926960D+01  0.3623119853D+00
 SP   3 1.00       0.000000000000
      0.7868272350D+01 -0.1193324198D+00  0.6899906659D-01
      0.1881288540D+01 -0.1608541517D+00  0.3164239610D+00
      0.5442492580D+00  0.1143456438D+01  0.7443082909D+00
 SP   1 1.00       0.000000000000
      0.1687144782D+00  0.1000000000D+01  0.1000000000D+01
 D   1 1.00       0.000000000000
      0.8000000000D+00  0.1000000000D+01
 ****
      7 0
 S   6 1.00       0.000000000000
      0.4173511460D+04  0.1834772160D-02
      0.6274579110D+03  0.1399462700D-01
      0.1429020930D+03  0.6858655181D-01
      0.4023432930D+02  0.2322408730D+00
      0.1282021290D+02  0.4690699481D+00
      0.4390437010D+01  0.3604551991D+00
 SP   3 1.00       0.000000000000
      0.1162636186D+02 -0.1149611817D+00  0.6757974388D-01
      0.2716279807D+01 -0.1691174786D+00  0.3239072959D+00
      0.7722183966D+00  0.1145851947D+01  0.7408951398D+00
 SP   1 1.00       0.000000000000
      0.2120314975D+00  0.1000000000D+01  0.1000000000D+01
 D   1 1.00       0.000000000000
      0.8000000000D+00  0.1000000000D+01
 ****
      8 0
 S   6 1.00       0.000000000000
      0.3047524880D+04  0.1834737132D-02
      0.4573695180D+03  0.1403732281D-01
      0.1039486850D+03  0.6884262226D-01
      0.2921015530D+02  0.2321844432D+00
      0.9286662960D+01  0.4679413484D+00
      0.3163926960D+01  0.3623119853D+00
 SP   3 1.00       0.000000000000
      0.7868272350D+01 -0.1193324198D+00  0.6899906659D-01
      0.1881288540D+01 -0.1608541517D+00  0.3164239610D+00
      0.5442492580D+00  0.1143456438D+01  0.7443082909D+00
 SP   1 1.00       0.000000000000
      0.1687144782D+00  0.1000000000D+01  0.1000000000D+01
 D   1 1.00       0.000000000000
      0.8000000000D+00  0.1000000000D+01
 ****
      9 0
 S   6 1.00       0.000000000000
      0.3047524880D+04  0.1834737132D-02
      0.4573695180D+03  0.1403732281D-01
      0.1039486850D+03  0.6884262226D-01
      0.2921015530D+02  0.2321844432D+00
      0.9286662960D+01  0.4679413484D+00
      0.3163926960D+01  0.3623119853D+00
 SP   3 1.00       0.000000000000
      0.7868272350D+01 -0.1193324198D+00  0.6899906659D-01
      0.1881288540D+01 -0.1608541517D+00  0.3164239610D+00
      0.5442492580D+00  0.1143456438D+01  0.7443082909D+00
 SP   1 1.00       0.000000000000
      0.1687144782D+00  0.1000000000D+01  0.1000000000D+01
 D   1 1.00       0.000000000000
      0.8000000000D+00  0.1000000000D+01
 ****
     10 0
 S   6 1.00       0.000000000000
      0.3047524880D+04  0.1834737132D-02
      0.4573695180D+03  0.1403732281D-01
      0.1039486850D+03  0.6884262226D-01
      0.2921015530D+02  0.2321844432D+00
      0.9286662960D+01  0.4679413484D+00
      0.3163926960D+01  0.3623119853D+00
 SP   3 1.00       0.000000000000
      0.7868272350D+01 -0.1193324198D+00  0.6899906659D-01
      0.1881288540D+01 -0.1608541517D+00  0.3164239610D+00
      0.5442492580D+00  0.1143456438D+01  0.7443082909D+00
 SP   1 1.00       0.000000000000
      0.1687144782D+00  0.1000000000D+01  0.1000000000D+01
 D   1 1.00       0.000000000000
      0.8000000000D+00  0.1000000000D+01
 ****
     11 0
 S   6 1.00       0.000000000000
      0.3047524880D+04  0.1834737132D-02
      0.4573695180D+03  0.1403732281D-01
      0.1039486850D+03  0.6884262226D-01
      0.2921015530D+02  0.2321844432D+00
      0.9286662960D+01  0.4679413484D+00
      0.3163926960D+01  0.3623119853D+00
 SP   3 1.00       0.000000000000
      0.7868272350D+01 -0.1193324198D+00  0.6899906659D-01
      0.1881288540D+01 -0.1608541517D+00  0.3164239610D+00
      0.5442492580D+00  0.1143456438D+01  0.7443082909D+00
 SP   1 1.00       0.000000000000
      0.1687144782D+00  0.1000000000D+01  0.1000000000D+01
 D   1 1.00       0.000000000000
      0.8000000000D+00  0.1000000000D+01
 ****
     12 0
 S   6 1.00       0.000000000000
      0.5484671660D+04  0.1831074430D-02
      0.8252349460D+03  0.1395017220D-01
      0.1880469580D+03  0.6844507810D-01
      0.5296450000D+02  0.2327143360D+00
      0.1689757040D+02  0.4701928980D+00
      0.5799635340D+01  0.3585208530D+00
 SP   3 1.00       0.000000000000
      0.1553961625D+02 -0.1107775495D+00  0.7087426823D-01
      0.3599933586D+01 -0.1480262627D+00  0.3397528391D+00
      0.1013761750D+01  0.1130767015D+01  0.7271585773D+00
 SP   1 1.00       0.000000000000
      0.2700058226D+00  0.1000000000D+01  0.1000000000D+01
 D   1 1.00       0.000000000000
      0.8000000000D+00  0.1000000000D+01
 ****
     13 0
 S   6 1.00       0.000000000000
      0.4173511460D+04  0.1834772160D-02
      0.6274579110D+03  0.1399462700D-01
      0.1429020930D+03  0.6858655181D-01
      0.4023432930D+02  0.2322408730D+00
      0.1282021290D+02  0.4690699481D+00
      0.4390437010D+01  0.3604551991D+00
 SP   3 1.00       0.000000000000
      0.1162636186D+02 -0.1149611817D+00  0.6757974388D-01
      0.2716279807D+01 -0.1691174786D+00  0.3239072959D+00
      0.7722183966D+00  0.1145851947D+01  0.7408951398D+00
 SP   1 1.00       0.000000000000
      0.2120314975D+00  0.1000000000D+01  0.1000000000D+01
 D   1 1.00       0.000000000000
      0.8000000000D+00  0.1000000000D+01
 ****
     14 0
 S   6 1.00       0.000000000000
      0.3047524880D+04  0.1834737132D-02
      0.4573695180D+03  0.1403732281D-01
      0.1039486850D+03  0.6884262226D-01
      0.2921015530D+02  0.2321844432D+00
      0.9286662960D+01  0.4679413484D+00
      0.3163926960D+01  0.3623119853D+00
 SP   3 1.00       0.000000000000
      0.7868272350D+01 -0.1193324198D+00  0.6899906659D-01
      0.1881288540D+01 -0.1608541517D+00  0.3164239610D+00
      0.5442492580D+00  0.1143456438D+01  0.7443082909D+00
 SP   1 1.00       0.000000000000
      0.1687144782D+00  0.1000000000D+01  0.1000000000D+01
 D   1 1.00       0.000000000000
      0.8000000000D+00  0.1000000000D+01
 ****
     15 0
 S   6 1.00       0.000000000000
      0.3047524880D+04  0.1834737132D-02
      0.4573695180D+03  0.1403732281D-01
      0.1039486850D+03  0.6884262226D-01
      0.2921015530D+02  0.2321844432D+00
      0.9286662960D+01  0.4679413484D+00
      0.3163926960D+01  0.3623119853D+00
 SP   3 1.00       0.000000000000
      0.7868272350D+01 -0.1193324198D+00  0.6899906659D-01
      0.1881288540D+01 -0.1608541517D+00  0.3164239610D+00
      0.5442492580D+00  0.1143456438D+01  0.7443082909D+00
 SP   1 1.00       0.000000000000
      0.1687144782D+00  0.1000000000D+01  0.1000000000D+01
 D   1 1.00       0.000000000000
      0.8000000000D+00  0.1000000000D+01
 ****
     16 0
 S   6 1.00       0.000000000000
      0.3047524880D+04  0.1834737132D-02
      0.4573695180D+03  0.1403732281D-01
      0.1039486850D+03  0.6884262226D-01
      0.2921015530D+02  0.2321844432D+00
      0.9286662960D+01  0.4679413484D+00
      0.3163926960D+01  0.3623119853D+00
 SP   3 1.00       0.000000000000
      0.7868272350D+01 -0.1193324198D+00  0.6899906659D-01
      0.1881288540D+01 -0.1608541517D+00  0.3164239610D+00
      0.5442492580D+00  0.1143456438D+01  0.7443082909D+00
 SP   1 1.00       0.000000000000
      0.1687144782D+00  0.1000000000D+01  0.1000000000D+01
 D   1 1.00       0.000000000000
      0.8000000000D+00  0.1000000000D+01
 ****
     17 0
 S   6 1.00       0.000000000000
      0.3047524880D+04  0.1834737132D-02
      0.4573695180D+03  0.1403732281D-01
      0.1039486850D+03  0.6884262226D-01
      0.2921015530D+02  0.2321844432D+00
      0.9286662960D+01  0.4679413484D+00
      0.3163926960D+01  0.3623119853D+00
 SP   3 1.00       0.000000000000
      0.7868272350D+01 -0.1193324198D+00  0.6899906659D-01
      0.1881288540D+01 -0.1608541517D+00  0.3164239610D+00
      0.5442492580D+00  0.1143456438D+01  0.7443082909D+00
 SP   1 1.00       0.000000000000
      0.1687144782D+00  0.1000000000D+01  0.1000000000D+01
 D   1 1.00       0.000000000000
      0.8000000000D+00  0.1000000000D+01
 ****
     18 0
 S   6 1.00       0.000000000000
      0.3047524880D+04  0.1834737132D-02
      0.4573695180D+03  0.1403732281D-01
      0.1039486850D+03  0.6884262226D-01
      0.2921015530D+02  0.2321844432D+00
      0.9286662960D+01  0.4679413484D+00
      0.3163926960D+01  0.3623119853D+00
 SP   3 1.00       0.000000000000
      0.7868272350D+01 -0.1193324198D+00  0.6899906659D-01
      0.1881288540D+01 -0.1608541517D+00  0.3164239610D+00
      0.5442492580D+00  0.1143456438D+01  0.7443082909D+00
 SP   1 1.00       0.000000000000
      0.1687144782D+00  0.1000000000D+01  0.1000000000D+01
 D   1 1.00       0.000000000000
      0.8000000000D+00  0.1000000000D+01
 ****
     19 0
 S   6 1.00       0.000000000000
      0.3047524880D+04  0.1834737132D-02
      0.4573695180D+03  0.1403732281D-01
      0.1039486850D+03  0.6884262226D-01
      0.2921015530D+02  0.2321844432D+00
      0.9286662960D+01  0.4679413484D+00
      0.3163926960D+01  0.3623119853D+00
 SP   3 1.00       0.000000000000
      0.7868272350D+01 -0.1193324198D+00  0.6899906659D-01
      0.1881288540D+01 -0.1608541517D+00  0.3164239610D+00
      0.5442492580D+00  0.1143456438D+01  0.7443082909D+00
 SP   1 1.00       0.000000000000
      0.1687144782D+00  0.1000000000D+01  0.1000000000D+01
 D   1 1.00       0.000000000000
      0.8000000000D+00  0.1000000000D+01
 ****
     20 0
 S   6 1.00       0.000000000000
      0.3047524880D+04  0.1834737132D-02
      0.4573695180D+03  0.1403732281D-01
      0.1039486850D+03  0.6884262226D-01
      0.2921015530D+02  0.2321844432D+00
      0.9286662960D+01  0.4679413484D+00
      0.3163926960D+01  0.3623119853D+00
 SP   3 1.00       0.000000000000
      0.7868272350D+01 -0.1193324198D+00  0.6899906659D-01
      0.1881288540D+01 -0.1608541517D+00  0.3164239610D+00
      0.5442492580D+00  0.1143456438D+01  0.7443082909D+00
 SP   1 1.00       0.000000000000
      0.1687144782D+00  0.1000000000D+01  0.1000000000D+01
 D   1 1.00       0.000000000000
      0.8000000000D+00  0.1000000000D+01
 ****
     21 0
 S   6 1.00       0.000000000000
      0.4173511460D+04  0.1834772160D-02
      0.6274579110D+03  0.1399462700D-01
      0.1429020930D+03  0.6858655181D-01
      0.4023432930D+02  0.2322408730D+00
      0.1282021290D+02  0.4690699481D+00
      0.4390437010D+01  0.3604551991D+00
 SP   3 1.00       0.000000000000
      0.1162636186D+02 -0.1149611817D+00  0.6757974388D-01
      0.2716279807D+01 -0.1691174786D+00  0.3239072959D+00
      0.7722183966D+00  0.1145851947D+01  0.7408951398D+00
 SP   1 1.00       0.000000000000
      0.2120314975D+00  0.1000000000D+01  0.1000000000D+01
 D   1 1.00       0.000000000000
      0.8000000000D+00  0.1000000000D+01
 ****
     22 0
 S   6 1.00       0.000000000000
      0.4173511460D+04  0.1834772160D-02
      0.6274579110D+03  0.1399462700D-01
      0.1429020930D+03  0.6858655181D-01
      0.4023432930D+02  0.2322408730D+00
      0.1282021290D+02  0.4690699481D+00
      0.4390437010D+01  0.3604551991D+00
 SP   3 1.00       0.000000000000
      0.1162636186D+02 -0.1149611817D+00  0.6757974388D-01
      0.2716279807D+01 -0.1691174786D+00  0.3239072959D+00
      0.7722183966D+00  0.1145851947D+01  0.7408951398D+00
 SP   1 1.00       0.000000000000
      0.2120314975D+00  0.1000000000D+01  0.1000000000D+01
 D   1 1.00       0.000000000000
      0.8000000000D+00  0.1000000000D+01
 ****
     23 0
 S   6 1.00       0.000000000000
      0.3047524880D+04  0.1834737132D-02
      0.4573695180D+03  0.1403732281D-01
      0.1039486850D+03  0.6884262226D-01
      0.2921015530D+02  0.2321844432D+00
      0.9286662960D+01  0.4679413484D+00
      0.3163926960D+01  0.3623119853D+00
 SP   3 1.00       0.000000000000
      0.7868272350D+01 -0.1193324198D+00  0.6899906659D-01
      0.1881288540D+01 -0.1608541517D+00  0.3164239610D+00
      0.5442492580D+00  0.1143456438D+01  0.7443082909D+00
 SP   1 1.00       0.000000000000
      0.1687144782D+00  0.1000000000D+01  0.1000000000D+01
 D   1 1.00       0.000000000000
      0.8000000000D+00  0.1000000000D+01
 ****
     24 0
 S   6 1.00       0.000000000000
      0.3047524880D+04  0.1834737132D-02
      0.4573695180D+03  0.1403732281D-01
      0.1039486850D+03  0.6884262226D-01
      0.2921015530D+02  0.2321844432D+00
      0.9286662960D+01  0.4679413484D+00
      0.3163926960D+01  0.3623119853D+00
 SP   3 1.00       0.000000000000
      0.7868272350D+01 -0.1193324198D+00  0.6899906659D-01
      0.1881288540D+01 -0.1608541517D+00  0.3164239610D+00
      0.5442492580D+00  0.1143456438D+01  0.7443082909D+00
 SP   1 1.00       0.000000000000
      0.1687144782D+00  0.1000000000D+01  0.1000000000D+01
 D   1 1.00       0.000000000000
      0.8000000000D+00  0.1000000000D+01
 ****
     25 0
 S   6 1.00       0.000000000000
      0.4173511460D+04  0.1834772160D-02
      0.6274579110D+03  0.1399462700D-01
      0.1429020930D+03  0.6858655181D-01
      0.4023432930D+02  0.2322408730D+00
      0.1282021290D+02  0.4690699481D+00
      0.4390437010D+01  0.3604551991D+00
 SP   3 1.00       0.000000000000
      0.1162636186D+02 -0.1149611817D+00  0.6757974388D-01
      0.2716279807D+01 -0.1691174786D+00  0.3239072959D+00
      0.7722183966D+00  0.1145851947D+01  0.7408951398D+00
 SP   1 1.00       0.000000000000
      0.2120314975D+00  0.1000000000D+01  0.1000000000D+01
 D   1 1.00       0.000000000000
      0.8000000000D+00  0.1000000000D+01
 ****
     26 0
 S   6 1.00       0.000000000000
      0.3047524880D+04  0.1834737132D-02
      0.4573695180D+03  0.1403732281D-01
      0.1039486850D+03  0.6884262226D-01
      0.2921015530D+02  0.2321844432D+00
      0.9286662960D+01  0.4679413484D+00
      0.3163926960D+01  0.3623119853D+00
 SP   3 1.00       0.000000000000
      0.7868272350D+01 -0.1193324198D+00  0.6899906659D-01
      0.1881288540D+01 -0.1608541517D+00  0.3164239610D+00
      0.5442492580D+00  0.1143456438D+01  0.7443082909D+00
 SP   1 1.00       0.000000000000
      0.1687144782D+00  0.1000000000D+01  0.1000000000D+01
 D   1 1.00       0.000000000000
      0.8000000000D+00  0.1000000000D+01
 ****
     27 0
 S   6 1.00       0.000000000000
      0.3047524880D+04  0.1834737132D-02
      0.4573695180D+03  0.1403732281D-01
      0.1039486850D+03  0.6884262226D-01
      0.2921015530D+02  0.2321844432D+00
      0.9286662960D+01  0.4679413484D+00
      0.3163926960D+01  0.3623119853D+00
 SP   3 1.00       0.000000000000
      0.7868272350D+01 -0.1193324198D+00  0.6899906659D-01
      0.1881288540D+01 -0.1608541517D+00  0.3164239610D+00
      0.5442492580D+00  0.1143456438D+01  0.7443082909D+00
 SP   1 1.00       0.000000000000
      0.1687144782D+00  0.1000000000D+01  0.1000000000D+01
 D   1 1.00       0.000000000000
      0.8000000000D+00  0.1000000000D+01
 ****
     28 0
 S   6 1.00       0.000000000000
      0.5484671660D+04  0.1831074430D-02
      0.8252349460D+03  0.1395017220D-01
      0.1880469580D+03  0.6844507810D-01
      0.5296450000D+02  0.2327143360D+00
      0.1689757040D+02  0.4701928980D+00
      0.5799635340D+01  0.3585208530D+00
 SP   3 1.00       0.000000000000
      0.1553961625D+02 -0.1107775495D+00  0.7087426823D-01
      0.3599933586D+01 -0.1480262627D+00  0.3397528391D+00
      0.1013761750D+01  0.1130767015D+01  0.7271585773D+00
 SP   1 1.00       0.000000000000
      0.2700058226D+00  0.1000000000D+01  0.1000000000D+01
 D   1 1.00       0.000000000000
      0.8000000000D+00  0.1000000000D+01
 ****
     29 0
 S   6 1.00       0.000000000000
      0.3047524880D+04  0.1834737132D-02
      0.4573695180D+03  0.1403732281D-01
      0.1039486850D+03  0.6884262226D-01
      0.2921015530D+02  0.2321844432D+00
      0.9286662960D+01  0.4679413484D+00
      0.3163926960D+01  0.3623119853D+00
 SP   3 1.00       0.000000000000
      0.7868272350D+01 -0.1193324198D+00  0.6899906659D-01
      0.1881288540D+01 -0.1608541517D+00  0.3164239610D+00
      0.5442492580D+00  0.1143456438D+01  0.7443082909D+00
 SP   1 1.00       0.000000000000
      0.1687144782D+00  0.1000000000D+01  0.1000000000D+01
 D   1 1.00       0.000000000000
      0.8000000000D+00  0.1000000000D+01
 ****
     30 0
 S   3 1.00       0.000000000000
      0.1873113696D+02  0.3349460434D-01
      0.2825394365D+01  0.2347269535D+00
      0.6401216923D+00  0.8137573261D+00
 S   1 1.00       0.000000000000
      0.1612777588D+00  0.1000000000D+01
 ****
     31 0
 S   3 1.00       0.000000000000
      0.1873113696D+02  0.3349460434D-01
      0.2825394365D+01  0.2347269535D+00
      0.6401216923D+00  0.8137573261D+00
 S   1 1.00       0.000000000000
      0.1612777588D+00  0.1000000000D+01
 ****
     32 0
 S   3 1.00       0.000000000000
      0.1873113696D+02  0.3349460434D-01
      0.2825394365D+01  0.2347269535D+00
      0.6401216923D+00  0.8137573261D+00
 S   1 1.00       0.000000000000
      0.1612777588D+00  0.1000000000D+01
 ****
     33 0
 S   3 1.00       0.000000000000
      0.1873113696D+02  0.3349460434D-01
      0.2825394365D+01  0.2347269535D+00
      0.6401216923D+00  0.8137573261D+00
 S   1 1.00       0.000000000000
      0.1612777588D+00  0.1000000000D+01
 ****
     34 0
 S   3 1.00       0.000000000000
      0.1873113696D+02  0.3349460434D-01
      0.2825394365D+01  0.2347269535D+00
      0.6401216923D+00  0.8137573261D+00
 S   1 1.00       0.000000000000
      0.1612777588D+00  0.1000000000D+01
 ****
     35 0
 S   3 1.00       0.000000000000
      0.1873113696D+02  0.3349460434D-01
      0.2825394365D+01  0.2347269535D+00
      0.6401216923D+00  0.8137573261D+00
 S   1 1.00       0.000000000000
      0.1612777588D+00  0.1000000000D+01
 ****
     36 0
 S   3 1.00       0.000000000000
      0.1873113696D+02  0.3349460434D-01
      0.2825394365D+01  0.2347269535D+00
      0.6401216923D+00  0.8137573261D+00
 S   1 1.00       0.000000000000
      0.1612777588D+00  0.1000000000D+01
 ****
     37 0
 S   3 1.00       0.000000000000
      0.1873113696D+02  0.3349460434D-01
      0.2825394365D+01  0.2347269535D+00
      0.6401216923D+00  0.8137573261D+00
 S   1 1.00       0.000000000000
      0.1612777588D+00  0.1000000000D+01
 ****
     38 0
 S   3 1.00       0.000000000000
      0.1873113696D+02  0.3349460434D-01
      0.2825394365D+01  0.2347269535D+00
      0.6401216923D+00  0.8137573261D+00
 S   1 1.00       0.000000000000
      0.1612777588D+00  0.1000000000D+01
 ****
     39 0
 S   3 1.00       0.000000000000
      0.1873113696D+02  0.3349460434D-01
      0.2825394365D+01  0.2347269535D+00
      0.6401216923D+00  0.8137573261D+00
 S   1 1.00       0.000000000000
      0.1612777588D+00  0.1000000000D+01
 ****
     40 0
 S   3 1.00       0.000000000000
      0.1873113696D+02  0.3349460434D-01
      0.2825394365D+01  0.2347269535D+00
      0.6401216923D+00  0.8137573261D+00
 S   1 1.00       0.000000000000
      0.1612777588D+00  0.1000000000D+01
 ****
     41 0
 S   3 1.00       0.000000000000
      0.1873113696D+02  0.3349460434D-01
      0.2825394365D+01  0.2347269535D+00
      0.6401216923D+00  0.8137573261D+00
 S   1 1.00       0.000000000000
      0.1612777588D+00  0.1000000000D+01
 ****
     42 0
 S   3 1.00       0.000000000000
      0.1873113696D+02  0.3349460434D-01
      0.2825394365D+01  0.2347269535D+00
      0.6401216923D+00  0.8137573261D+00
 S   1 1.00       0.000000000000
      0.1612777588D+00  0.1000000000D+01
 ****
     43 0
 S   3 1.00       0.000000000000
      0.1873113696D+02  0.3349460434D-01
      0.2825394365D+01  0.2347269535D+00
      0.6401216923D+00  0.8137573261D+00
 S   1 1.00       0.000000000000
      0.1612777588D+00  0.1000000000D+01
 ****
     44 0
 S   3 1.00       0.000000000000
      0.1873113696D+02  0.3349460434D-01
      0.2825394365D+01  0.2347269535D+00
      0.6401216923D+00  0.8137573261D+00
 S   1 1.00       0.000000000000
      0.1612777588D+00  0.1000000000D+01
 ****
     45 0
 S   3 1.00       0.000000000000
      0.1873113696D+02  0.3349460434D-01
      0.2825394365D+01  0.2347269535D+00
      0.6401216923D+00  0.8137573261D+00
 S   1 1.00       0.000000000000
      0.1612777588D+00  0.1000000000D+01
 ****
     46 0
 S   3 1.00       0.000000000000
      0.1873113696D+02  0.3349460434D-01
      0.2825394365D+01  0.2347269535D+00
      0.6401216923D+00  0.8137573261D+00
 S   1 1.00       0.000000000000
      0.1612777588D+00  0.1000000000D+01
 ****
     47 0
 S   3 1.00       0.000000000000
      0.1873113696D+02  0.3349460434D-01
      0.2825394365D+01  0.2347269535D+00
      0.6401216923D+00  0.8137573261D+00
 S   1 1.00       0.000000000000
      0.1612777588D+00  0.1000000000D+01
 ****
     48 0
 S   3 1.00       0.000000000000
      0.1873113696D+02  0.3349460434D-01
      0.2825394365D+01  0.2347269535D+00
      0.6401216923D+00  0.8137573261D+00
 S   1 1.00       0.000000000000
      0.1612777588D+00  0.1000000000D+01
 ****

   473 basis functions,   888 primitive gaussians,   473 cartesian basis functions
   102 alpha electrons      102 beta electrons
       nuclear repulsion energy      2459.4681904945 Hartrees.
 IExCor=  402 DFT=T Ex+Corr=B3LYP ExCW=0 ScaHFX=  0.200000
 ScaDFX=  0.800000  0.720000  1.000000  0.810000 ScalE2=  1.000000  1.000000
 IRadAn=      5 IRanWt=     -1 IRanGd=            0 ICorTp=0 IEmpDi=  4
 NAtoms=   48 NActive=   48 NUniq=   48 SFac= 1.00D+00 NAtFMM=   60 NAOKFM=F Big=F
 Integral buffers will be    131072 words long.
 Regular integral format.
 Two-electron integral symmetry is turned off.
 Leave Link  301 at Sat Nov  5 11:46:36 2022, MaxMem=   402653184 cpu:               0.6 elap:               0.1
 (Enter /home/wykgroup/appl/g16/l302.exe)
 NPDir=0 NMtPBC=     1 NCelOv=     1 NCel=       1 NClECP=     1 NCelD=      1
         NCelK=      1 NCelE2=     1 NClLst=     1 CellRange=     0.0.
 One-electron integrals computed using PRISM.
 NBasis=   473 RedAO= T EigKep=  3.65D-04  NBF=   473
 NBsUse=   473 1.00D-06 EigRej= -1.00D+00 NBFU=   473
 Precomputing XC quadrature grid using
 IXCGrd= 4 IRadAn=           5 IRanWt=          -1 IRanGd=           0 AccXCQ= 0.00D+00.
 Generated NRdTot=       0 NPtTot=           0 NUsed=           0 NTot=          32
 NSgBfM=   461   461   461   461   461 MxSgAt=    48 MxSgA2=    48.
 Leave Link  302 at Sat Nov  5 11:46:39 2022, MaxMem=   402653184 cpu:              24.4 elap:               3.0
 (Enter /home/wykgroup/appl/g16/l303.exe)
 DipDrv:  MaxL=1.
 Leave Link  303 at Sat Nov  5 11:46:39 2022, MaxMem=   402653184 cpu:               0.7 elap:               0.2
 (Enter /home/wykgroup/appl/g16/l308.exe)
 Leave Link  308 at Sat Nov  5 11:46:39 2022, MaxMem=   402653184 cpu:               0.7 elap:               0.1
 (Enter /home/wykgroup/appl/g16/l401.exe)
 ExpMin= 1.61D-01 ExpMax= 5.48D+03 ExpMxC= 8.25D+02 IAcc=3 IRadAn=         5 AccDes= 0.00D+00
 Harris functional with IExCor=  402 and IRadAn=       5 diagonalized for initial guess.
 HarFok:  IExCor=  402 AccDes= 0.00D+00 IRadAn=         5 IDoV= 1 UseB2=F ITyADJ=14
 ICtDFT=  3500011 ScaDFX=  1.000000  1.000000  1.000000  1.000000
 FoFCou: FMM=F IPFlag=           0 FMFlag=      100000 FMFlg1=           0
         NFxFlg=           0 DoJE=T BraDBF=F KetDBF=T FulRan=T
         wScrn=  0.000000 ICntrl=       500 IOpCl=  0 I1Cent=   200000004 NGrid=           0
         NMat0=    1 NMatS0=      1 NMatT0=    0 NMatD0=    1 NMtDS0=    0 NMtDT0=    0
 Symmetry not used in FoFCou.
 Harris En= -1311.05244761403    
 JPrj=0 DoOrth=F DoCkMO=F.
 Leave Link  401 at Sat Nov  5 11:46:45 2022, MaxMem=   402653184 cpu:              43.5 elap:               5.5
 (Enter /home/wykgroup/appl/g16/l502.exe)
 Two-electron integral symmetry not used.
 Closed shell SCF:
 Using DIIS extrapolation, IDIIS=  1040.
 NGot=   402653184 LenX=   402195085 LenY=   401970883
 Requested convergence on RMS density matrix=1.00D-08 within  32 cycles.
 Requested convergence on MAX density matrix=1.00D-06.
 Requested convergence on             energy=1.00D-06.
 No special actions if energy rises.
 Fock matrices will be formed incrementally for  20 cycles.
 Integral accuracy reduced to 1.0D-05 until final iterations.

 Cycle   1  Pass 0  IDiag  1:
 FoFJK:  IHMeth= 1 ICntrl=       0 DoSepK=F KAlg= 0 I1Cent=           0 FoldK=F
 IRaf= 570000000 NMat=       1 IRICut=       1 DoRegI=T DoRafI=F ISym2E= 0 IDoP0=0 IntGTp=1.
 FoFCou: FMM=F IPFlag=           0 FMFlag=      100000 FMFlg1=           0
         NFxFlg=           0 DoJE=F BraDBF=F KetDBF=F FulRan=T
         wScrn=  0.000000 ICntrl=         0 IOpCl=  0 I1Cent=           0 NGrid=           0
         NMat0=    1 NMatS0=      1 NMatT0=    0 NMatD0=    1 NMtDS0=    0 NMtDT0=    0
 Symmetry not used in FoFCou.
 E= -1310.53565358331    
 DIIS: error= 2.75D-02 at cycle   1 NSaved=   1.
 NSaved= 1 IEnMin= 1 EnMin= -1310.53565358331     IErMin= 1 ErrMin= 2.75D-02
 ErrMax= 2.75D-02  0.00D+00 EMaxC= 1.00D-01 BMatC= 6.13D-01 BMatP= 6.13D-01
 IDIUse=3 WtCom= 7.25D-01 WtEn= 2.75D-01
 Coeff-Com:  0.100D+01
 Coeff-En:   0.100D+01
 Coeff:      0.100D+01
 Gap=     0.108 Goal=   None    Shift=    0.000
 GapD=    0.108 DampG=1.000 DampE=0.500 DampFc=0.5000 IDamp=-1.
 Damping current iteration by 5.00D-01
 RMSDP=4.23D-03 MaxDP=2.34D-01              OVMax= 2.54D-01

 Cycle   2  Pass 0  IDiag  1:
 RMSU=  2.09D-03    CP:  9.77D-01
 E= -1310.73179130248     Delta-E=       -0.196137719168 Rises=F Damp=T
 DIIS: error= 1.34D-02 at cycle   2 NSaved=   2.
 NSaved= 2 IEnMin= 2 EnMin= -1310.73179130248     IErMin= 2 ErrMin= 1.34D-02
 ErrMax= 1.34D-02  0.00D+00 EMaxC= 1.00D-01 BMatC= 9.29D-02 BMatP= 6.13D-01
 IDIUse=3 WtCom= 8.66D-01 WtEn= 1.34D-01
 Coeff-Com:  0.168D+00 0.832D+00
 Coeff-En:   0.264D+00 0.736D+00
 Coeff:      0.181D+00 0.819D+00
 Gap=     0.130 Goal=   None    Shift=    0.000
 RMSDP=1.51D-03 MaxDP=1.06D-01 DE=-1.96D-01 OVMax= 2.32D-01

 Cycle   3  Pass 0  IDiag  1:
 RMSU=  1.40D-03    CP:  9.64D-01  7.41D-01
 E= -1310.98740480480     Delta-E=       -0.255613502322 Rises=F Damp=F
 DIIS: error= 1.80D-02 at cycle   3 NSaved=   3.
 NSaved= 3 IEnMin= 3 EnMin= -1310.98740480480     IErMin= 2 ErrMin= 1.34D-02
 ErrMax= 1.80D-02  0.00D+00 EMaxC= 1.00D-01 BMatC= 1.39D-01 BMatP= 9.29D-02
 IDIUse=2 WtCom= 0.00D+00 WtEn= 1.00D+00
 Coeff-En:   0.000D+00 0.000D+00 0.100D+01
 Coeff:      0.000D+00 0.000D+00 0.100D+01
 Gap=     0.117 Goal=   None    Shift=    0.000
 RMSDP=2.89D-03 MaxDP=2.02D-01 DE=-2.56D-01 OVMax= 2.96D-01

 Cycle   4  Pass 0  IDiag  1:
 RMSU=  1.20D-03    CP:  9.72D-01  1.44D+00 -5.69D-01
 E= -1310.26553033072     Delta-E=        0.721874474075 Rises=F Damp=F
 DIIS: error= 5.29D-02 at cycle   4 NSaved=   4.
 NSaved= 4 IEnMin= 3 EnMin= -1310.98740480480     IErMin= 2 ErrMin= 1.34D-02
 ErrMax= 5.29D-02  0.00D+00 EMaxC= 1.00D-01 BMatC= 9.63D-01 BMatP= 9.29D-02
 IDIUse=2 WtCom= 0.00D+00 WtEn= 1.00D+00
 Coeff-En:   0.000D+00 0.000D+00 0.812D+00 0.188D+00
 Coeff:      0.000D+00 0.000D+00 0.812D+00 0.188D+00
 Gap=     0.176 Goal=   None    Shift=    0.000
 RMSDP=1.64D-03 MaxDP=1.18D-01 DE= 7.22D-01 OVMax= 1.39D-01

 Cycle   5  Pass 0  IDiag  1:
 RMSU=  2.97D-04    CP:  9.70D-01  9.85D-01  2.47D-01  4.70D-01
 E= -1311.04187909701     Delta-E=       -0.776348766288 Rises=F Damp=F
 DIIS: error= 1.38D-02 at cycle   5 NSaved=   5.
 NSaved= 5 IEnMin= 5 EnMin= -1311.04187909701     IErMin= 2 ErrMin= 1.34D-02
 ErrMax= 1.38D-02  0.00D+00 EMaxC= 1.00D-01 BMatC= 8.12D-02 BMatP= 9.29D-02
 IDIUse=3 WtCom= 8.62D-01 WtEn= 1.38D-01
 Coeff-Com:  0.178D-02 0.357D-01 0.346D+00-0.818D-01 0.698D+00
 Coeff-En:   0.000D+00 0.000D+00 0.399D+00 0.000D+00 0.601D+00
 Coeff:      0.154D-02 0.308D-01 0.354D+00-0.706D-01 0.685D+00
 Gap=     0.133 Goal=   None    Shift=    0.000
 RMSDP=5.96D-04 MaxDP=3.95D-02 DE=-7.76D-01 OVMax= 7.35D-02

 Cycle   6  Pass 0  IDiag  1:
 RMSU=  1.09D-04    CP:  9.68D-01  8.58D-01  5.69D-01  2.62D-01  7.11D-01
 E= -1311.11306499624     Delta-E=       -0.071185899233 Rises=F Damp=F
 DIIS: error= 9.99D-04 at cycle   6 NSaved=   6.
 NSaved= 6 IEnMin= 6 EnMin= -1311.11306499624     IErMin= 6 ErrMin= 9.99D-04
 ErrMax= 9.99D-04  0.00D+00 EMaxC= 1.00D-01 BMatC= 7.57D-04 BMatP= 8.12D-02
 IDIUse=3 WtCom= 9.90D-01 WtEn= 9.99D-03
 Coeff-Com: -0.231D-02 0.157D-01 0.177D+00-0.653D-01 0.441D+00 0.433D+00
 Coeff-En:   0.000D+00 0.000D+00 0.000D+00 0.000D+00 0.000D+00 0.100D+01
 Coeff:     -0.228D-02 0.155D-01 0.176D+00-0.646D-01 0.437D+00 0.439D+00
 Gap=     0.135 Goal=   None    Shift=    0.000
 RMSDP=7.09D-05 MaxDP=4.12D-03 DE=-7.12D-02 OVMax= 6.93D-03

 Cycle   7  Pass 0  IDiag  1:
 RMSU=  3.01D-05    CP:  9.68D-01  8.65D-01  5.64D-01  2.62D-01  7.63D-01
                    CP:  4.51D-01
 E= -1311.11368598046     Delta-E=       -0.000620984213 Rises=F Damp=F
 DIIS: error= 5.69D-04 at cycle   7 NSaved=   7.
 NSaved= 7 IEnMin= 7 EnMin= -1311.11368598046     IErMin= 7 ErrMin= 5.69D-04
 ErrMax= 5.69D-04  0.00D+00 EMaxC= 1.00D-01 BMatC= 9.20D-05 BMatP= 7.57D-04
 IDIUse=3 WtCom= 9.94D-01 WtEn= 5.69D-03
 Coeff-Com: -0.861D-03 0.518D-02 0.721D-01-0.305D-01 0.185D+00 0.261D+00
 Coeff-Com:  0.508D+00
 Coeff-En:   0.000D+00 0.000D+00 0.000D+00 0.000D+00 0.000D+00 0.719D-01
 Coeff-En:   0.928D+00
 Coeff:     -0.856D-03 0.515D-02 0.717D-01-0.303D-01 0.184D+00 0.260D+00
 Coeff:      0.510D+00
 Gap=     0.136 Goal=   None    Shift=    0.000
 RMSDP=2.36D-05 MaxDP=2.24D-03 DE=-6.21D-04 OVMax= 3.51D-03

 Cycle   8  Pass 0  IDiag  1:
 RMSU=  1.57D-05    CP:  9.68D-01  8.63D-01  5.66D-01  2.61D-01  7.63D-01
                    CP:  5.32D-01  5.25D-01
 E= -1311.11375075371     Delta-E=       -0.000064773251 Rises=F Damp=F
 DIIS: error= 2.09D-04 at cycle   8 NSaved=   8.
 NSaved= 8 IEnMin= 8 EnMin= -1311.11375075371     IErMin= 8 ErrMin= 2.09D-04
 ErrMax= 2.09D-04  0.00D+00 EMaxC= 1.00D-01 BMatC= 2.24D-05 BMatP= 9.20D-05
 IDIUse=3 WtCom= 9.98D-01 WtEn= 2.09D-03
 Coeff-Com:  0.423D-03-0.132D-02 0.156D-01-0.609D-02 0.329D-01 0.954D-01
 Coeff-Com:  0.378D+00 0.485D+00
 Coeff-En:   0.000D+00 0.000D+00 0.000D+00 0.000D+00 0.000D+00 0.000D+00
 Coeff-En:   0.144D+00 0.856D+00
 Coeff:      0.422D-03-0.132D-02 0.156D-01-0.608D-02 0.328D-01 0.952D-01
 Coeff:      0.378D+00 0.486D+00
 Gap=     0.136 Goal=   None    Shift=    0.000
 RMSDP=1.06D-05 MaxDP=7.27D-04 DE=-6.48D-05 OVMax= 1.19D-03

 Cycle   9  Pass 0  IDiag  1:
 RMSU=  3.88D-06    CP:  9.68D-01  8.62D-01  5.68D-01  2.61D-01  7.56D-01
                    CP:  5.31D-01  6.56D-01  5.08D-01
 E= -1311.11377035035     Delta-E=       -0.000019596642 Rises=F Damp=F
 DIIS: error= 3.67D-05 at cycle   9 NSaved=   9.
 NSaved= 9 IEnMin= 9 EnMin= -1311.11377035035     IErMin= 9 ErrMin= 3.67D-05
 ErrMax= 3.67D-05  0.00D+00 EMaxC= 1.00D-01 BMatC= 8.52D-07 BMatP= 2.24D-05
 IDIUse=1 WtCom= 1.00D+00 WtEn= 0.00D+00
 Coeff-Com:  0.369D-03-0.117D-02 0.350D-02-0.111D-02 0.409D-02 0.356D-01
 Coeff-Com:  0.180D+00 0.272D+00 0.507D+00
 Coeff:      0.369D-03-0.117D-02 0.350D-02-0.111D-02 0.409D-02 0.356D-01
 Coeff:      0.180D+00 0.272D+00 0.507D+00
 Gap=     0.135 Goal=   None    Shift=    0.000
 RMSDP=2.22D-06 MaxDP=1.14D-04 DE=-1.96D-05 OVMax= 2.91D-04

 Initial convergence to 1.0D-05 achieved.  Increase integral accuracy.
 Cycle  10  Pass 1  IDiag  1:
 E= -1311.11377232406     Delta-E=       -0.000001973713 Rises=F Damp=F
 DIIS: error= 7.42D-05 at cycle   1 NSaved=   1.
 NSaved= 1 IEnMin= 1 EnMin= -1311.11377232406     IErMin= 1 ErrMin= 7.42D-05
 ErrMax= 7.42D-05  0.00D+00 EMaxC= 1.00D-01 BMatC= 1.37D-06 BMatP= 1.37D-06
 IDIUse=1 WtCom= 1.00D+00 WtEn= 0.00D+00
 Coeff-Com:  0.100D+01
 Coeff:      0.100D+01
 Gap=     0.135 Goal=   None    Shift=    0.000
 RMSDP=2.22D-06 MaxDP=1.14D-04 DE=-1.97D-06 OVMax= 2.82D-04

 Cycle  11  Pass 1  IDiag  1:
 RMSU=  4.29D-05    CP:  1.00D+00
 E= -1311.11377340322     Delta-E=       -0.000001079154 Rises=F Damp=F
 DIIS: error= 2.81D-05 at cycle   2 NSaved=   2.
 NSaved= 2 IEnMin= 2 EnMin= -1311.11377340322     IErMin= 2 ErrMin= 2.81D-05
 ErrMax= 2.81D-05  0.00D+00 EMaxC= 1.00D-01 BMatC= 2.19D-07 BMatP= 1.37D-06
 IDIUse=1 WtCom= 1.00D+00 WtEn= 0.00D+00
 Coeff-Com:  0.178D+00 0.822D+00
 Coeff:      0.178D+00 0.822D+00
 Gap=     0.135 Goal=   None    Shift=    0.000
 RMSDP=2.62D-06 MaxDP=1.51D-04 DE=-1.08D-06 OVMax= 4.02D-04

 Cycle  12  Pass 1  IDiag  1:
 RMSU=  2.59D-06    CP:  1.00D+00  1.01D+00
 E= -1311.11377313571     Delta-E=        0.000000267502 Rises=F Damp=F
 DIIS: error= 4.23D-05 at cycle   3 NSaved=   3.
 NSaved= 3 IEnMin= 2 EnMin= -1311.11377340322     IErMin= 2 ErrMin= 2.81D-05
 ErrMax= 4.23D-05  0.00D+00 EMaxC= 1.00D-01 BMatC= 4.73D-07 BMatP= 2.19D-07
 IDIUse=1 WtCom= 1.00D+00 WtEn= 0.00D+00
 Coeff-Com: -0.248D-02 0.597D+00 0.406D+00
 Coeff:     -0.248D-02 0.597D+00 0.406D+00
 Gap=     0.135 Goal=   None    Shift=    0.000
 RMSDP=1.60D-06 MaxDP=8.91D-05 DE= 2.68D-07 OVMax= 2.42D-04

 Cycle  13  Pass 1  IDiag  1:
 RMSU=  2.96D-07    CP:  1.00D+00  1.01D+00  3.97D-01
 E= -1311.11377362166     Delta-E=       -0.000000485947 Rises=F Damp=F
 DIIS: error= 4.04D-06 at cycle   4 NSaved=   4.
 NSaved= 4 IEnMin= 4 EnMin= -1311.11377362166     IErMin= 4 ErrMin= 4.04D-06
 ErrMax= 4.04D-06  0.00D+00 EMaxC= 1.00D-01 BMatC= 7.39D-09 BMatP= 2.19D-07
 IDIUse=1 WtCom= 1.00D+00 WtEn= 0.00D+00
 Coeff-Com: -0.383D-02 0.388D+00 0.271D+00 0.345D+00
 Coeff:     -0.383D-02 0.388D+00 0.271D+00 0.345D+00
 Gap=     0.135 Goal=   None    Shift=    0.000
 RMSDP=2.00D-07 MaxDP=1.17D-05 DE=-4.86D-07 OVMax= 1.96D-05

 Cycle  14  Pass 1  IDiag  1:
 RMSU=  9.71D-08    CP:  1.00D+00  1.01D+00  4.13D-01  4.24D-01
 E= -1311.11377362845     Delta-E=       -0.000000006790 Rises=F Damp=F
 DIIS: error= 6.44D-07 at cycle   5 NSaved=   5.
 NSaved= 5 IEnMin= 5 EnMin= -1311.11377362845     IErMin= 5 ErrMin= 6.44D-07
 ErrMax= 6.44D-07  0.00D+00 EMaxC= 1.00D-01 BMatC= 1.95D-10 BMatP= 7.39D-09
 IDIUse=1 WtCom= 1.00D+00 WtEn= 0.00D+00
 Coeff-Com: -0.209D-02 0.195D+00 0.136D+00 0.202D+00 0.469D+00
 Coeff:     -0.209D-02 0.195D+00 0.136D+00 0.202D+00 0.469D+00
 Gap=     0.135 Goal=   None    Shift=    0.000
 RMSDP=3.63D-08 MaxDP=2.49D-06 DE=-6.79D-09 OVMax= 3.32D-06

 Cycle  15  Pass 1  IDiag  1:
 RMSU=  2.79D-08    CP:  1.00D+00  1.01D+00  4.13D-01  4.62D-01  7.94D-01
 E= -1311.11377362862     Delta-E=       -0.000000000168 Rises=F Damp=F
 DIIS: error= 1.50D-07 at cycle   6 NSaved=   6.
 NSaved= 6 IEnMin= 6 EnMin= -1311.11377362862     IErMin= 6 ErrMin= 1.50D-07
 ErrMax= 1.50D-07  0.00D+00 EMaxC= 1.00D-01 BMatC= 1.79D-11 BMatP= 1.95D-10
 IDIUse=1 WtCom= 1.00D+00 WtEn= 0.00D+00
 Coeff-Com: -0.654D-03 0.561D-01 0.394D-01 0.680D-01 0.274D+00 0.564D+00
 Coeff:     -0.654D-03 0.561D-01 0.394D-01 0.680D-01 0.274D+00 0.564D+00
 Gap=     0.135 Goal=   None    Shift=    0.000
 RMSDP=1.09D-08 MaxDP=6.58D-07 DE=-1.68D-10 OVMax= 1.05D-06

 Cycle  16  Pass 1  IDiag  1:
 RMSU=  7.67D-09    CP:  1.00D+00  1.01D+00  4.12D-01  4.57D-01  8.35D-01
                    CP:  7.82D-01
 E= -1311.11377362864     Delta-E=       -0.000000000020 Rises=F Damp=F
 DIIS: error= 2.60D-08 at cycle   7 NSaved=   7.
 NSaved= 7 IEnMin= 7 EnMin= -1311.11377362864     IErMin= 7 ErrMin= 2.60D-08
 ErrMax= 2.60D-08  0.00D+00 EMaxC= 1.00D-01 BMatC= 1.12D-12 BMatP= 1.79D-11
 IDIUse=1 WtCom= 1.00D+00 WtEn= 0.00D+00
 Coeff-Com: -0.158D-03 0.123D-01 0.871D-02 0.183D-01 0.104D+00 0.276D+00
 Coeff-Com:  0.581D+00
 Coeff:     -0.158D-03 0.123D-01 0.871D-02 0.183D-01 0.104D+00 0.276D+00
 Coeff:      0.581D+00
 Gap=     0.135 Goal=   None    Shift=    0.000
 RMSDP=3.29D-09 MaxDP=1.87D-07 DE=-2.05D-11 OVMax= 3.24D-07

 SCF Done:  E(RB3LYP) =  -1311.11377363     A.U. after   16 cycles
            NFock= 16  Conv=0.33D-08     -V/T= 2.0094
 KE= 1.298912045360D+03 PE=-7.968346013387D+03 EE= 2.898852003903D+03
 Leave Link  502 at Sat Nov  5 11:48:05 2022, MaxMem=   402653184 cpu:             714.9 elap:              80.7
 (Enter /home/wykgroup/appl/g16/l508.exe)
 QCSCF skips out because SCF is already converged.
 Leave Link  508 at Sat Nov  5 11:48:06 2022, MaxMem=   402653184 cpu:               0.2 elap:               0.1
 (Enter /home/wykgroup/appl/g16/l801.exe)
 DoSCS=F DFT=T ScalE2(SS,OS)=  1.000000  1.000000
 ExpMin= 1.61D-01 ExpMax= 5.48D+03 ExpMxC= 8.25D+02 IAcc=3 IRadAn=         5 AccDes= 0.00D+00
 HarFok:  IExCor=  205 AccDes= 0.00D+00 IRadAn=         5 IDoV=-2 UseB2=F ITyADJ=14
 ICtDFT= 12500011 ScaDFX=  1.000000  1.000000  1.000000  1.000000
 GSVD:  LWork=       -1073 too small for GESVD, short by        4640 words or        4640 for optimal perf.
 Largest valence mixing into a core orbital is  5.73D-05
 Largest core mixing into a valence orbital is  1.53D-05
 Range of M.O.s used for correlation:    30   473
 NBasis=   473 NAE=   102 NBE=   102 NFC=    29 NFV=     0
 NROrb=    444 NOA=    73 NOB=    73 NVA=   371 NVB=   371
 Leave Link  801 at Sat Nov  5 11:48:08 2022, MaxMem=   402653184 cpu:              19.4 elap:               2.2
 (Enter /home/wykgroup/appl/g16/l914.exe)
 RHF ground state
 Two-electron integral symmetry not used.
 MDV=   402653184 DFT=T DoStab=F Mixed=T DoRPA=T DoScal=F NonHer=T
 Making orbital integer symmetry assigments:
    16 initial guesses have been made.
 Convergence on wavefunction:    0.001000000000000
 Davidson Disk Diagonalization:  ConvIn= 1.00D-03 SkipCon=T Conv= 1.00D-03.
 Max sub-space:  2000 roots to seek:    16 dimension of matrix:        54166
 Iteration     1 Dimension    16 NMult     0 NNew     16
 CISAX will form    16 AO SS matrices at one time.
 NMat=    16 NSing=     8 JSym2X= 0.
 FoFJK:  IHMeth= 1 ICntrl=       0 DoSepK=F KAlg= 0 I1Cent=           0 FoldK=F
 IRaf= 570000000 NMat=      32 IRICut=       1 DoRegI=T DoRafI=F ISym2E= 0 IDoP0=0 IntGTp=1.
 FoFCou: FMM=F IPFlag=           0 FMFlag=      100000 FMFlg1=           0
         NFxFlg=           0 DoJE=F BraDBF=F KetDBF=F FulRan=T
         wScrn=  0.000000 ICntrl=         0 IOpCl=  0 I1Cent=           0 NGrid=           0
         NMat0=   32 NMatS0=      8 NMatT0=    8 NMatD0=   32 NMtDS0=    0 NMtDT0=    0
 Symmetry not used in FoFCou.
 New state      1 was old state      2
 New state      2 was old state      1
 New state      3 was old state      6
 New state      4 was old state     12
 New state      5 was old state     10
 New state      6 was old state     14
 New state      7 was old state      8
 New state      8 was old state      3
 Excitation Energies [eV] at current iteration:
 Root      1 :     2.964868311846355
 Root      2 :     3.321042946092380
 Root      3 :     3.437371082641670
 Root      4 :     3.831920898126162
 Root      5 :     3.873834143730146
 Root      6 :     3.918350790894758
 Root      7 :     4.009606662005432
 Root      8 :     4.038052062765129
 Root      9 :     4.065350432461673
 Root     10 :     4.084055756515308
 Root     11 :     4.354406562803273
 Root     12 :     4.460357962989926
 Root     13 :     4.525609226196289
 Root     14 :     4.856330578982006
 Root     15 :     5.160918664584499
 Root     16 :     5.343485135774500
 Vector   4 SDiff=3.19D-01 TDiff=1.07D+01 assumed to be singlet.
 Vector   8 SDiff=3.33D-01 TDiff=1.01D+01 assumed to be singlet.
 Iteration     2 Dimension    24 NMult    16 NNew      8
 CISAX will form     8 AO SS matrices at one time.
 NMat=     8 NSing=     4 JSym2X= 0.
 Root      1 not converged, maximum delta is    0.069969858631749
 New state      2 was old state      3
 Root      2 not converged, maximum delta is    0.148144975115176
 New state      3 was old state      2
 Root      3 not converged, maximum delta is    0.081542829209613
 New state      4 was old state     10
 Root      4 not converged, maximum delta is    0.221850198467723
 Excitation Energies [eV] at current iteration:
 Root      1 :     2.853096098325577   Change is   -0.111772213520778
 Root      2 :     3.180274709683252   Change is   -0.257096372958419
 Root      3 :     3.218097080579409   Change is   -0.102945865512971
 Root      4 :     4.004746633027336   Change is   -0.079309123487972
 Iteration     3 Dimension    32 NMult    24 NNew      8
 CISAX will form     8 AO SS matrices at one time.
 NMat=     8 NSing=     4 JSym2X= 0.
 Root      1 not converged, maximum delta is    0.014614440911952
 Root      2 not converged, maximum delta is    0.134184220050024
 Root      3 not converged, maximum delta is    0.008608397279646
 Root      4 not converged, maximum delta is    0.103495595409027
 Excitation Energies [eV] at current iteration:
 Root      1 :     2.846682792950101   Change is   -0.006413305375476
 Root      2 :     3.095952439742891   Change is   -0.084322269940360
 Root      3 :     3.210831752345826   Change is   -0.007265328233583
 Root      4 :     3.963350583568847   Change is   -0.041396049458489
 Iteration     4 Dimension    40 NMult    32 NNew      8
 CISAX will form     8 AO SS matrices at one time.
 NMat=     8 NSing=     4 JSym2X= 0.
 Root      1 not converged, maximum delta is    0.014485110912253
 Root      2 not converged, maximum delta is    0.036077049515071
 Root      3 not converged, maximum delta is    0.004025002584186
 Root      4 not converged, maximum delta is    0.022244922812697
 Excitation Energies [eV] at current iteration:
 Root      1 :     2.845139859385863   Change is   -0.001542933564237
 Root      2 :     3.081622236455461   Change is   -0.014330203287431
 Root      3 :     3.209395181263640   Change is   -0.001436571082186
 Root      4 :     3.957353179728202   Change is   -0.005997403840645
 Iteration     5 Dimension    48 NMult    40 NNew      8
 CISAX will form     8 AO SS matrices at one time.
 NMat=     8 NSing=     4 JSym2X= 0.
 Root      1 not converged, maximum delta is    0.004418062537064
 Root      2 not converged, maximum delta is    0.010619882618247
 Root      3 not converged, maximum delta is    0.001453613568340
 Root      4 not converged, maximum delta is    0.007196451304997
 Excitation Energies [eV] at current iteration:
 Root      1 :     2.844792762961312   Change is   -0.000347096424551
 Root      2 :     3.078644327776813   Change is   -0.002977908678648
 Root      3 :     3.209063012842829   Change is   -0.000332168420811
 Root      4 :     3.955950742427763   Change is   -0.001402437300439
 Iteration     6 Dimension    56 NMult    48 NNew      8
 CISAX will form     8 AO SS matrices at one time.
 NMat=     8 NSing=     4 JSym2X= 0.
 Root      1 has converged.
 Root      2 not converged, maximum delta is    0.001864235176198
 Root      3 has converged.
 Root      4 not converged, maximum delta is    0.005357379764353
 Excitation Energies [eV] at current iteration:
 Root      1 :     2.844756675006720   Change is   -0.000036087954593
 Root      2 :     3.078346823792688   Change is   -0.000297503984125
 Root      3 :     3.209022208705947   Change is   -0.000040804136882
[...]
    34  H   -0.000096   0.006007   0.000359   0.000001  -0.000000  -0.000000
    35  H    0.011294  -0.005349  -0.000069  -0.000001  -0.000003   0.000000
    36  H    0.003798  -0.000101  -0.000024   0.000000   0.000000  -0.000000
    37  H    0.000241   0.000000   0.000000   0.000000   0.000000   0.000000
    38  H   -0.000000  -0.000000  -0.000000  -0.000000  -0.000000   0.000000
    39  H   -0.000000  -0.000000   0.000000   0.000000   0.000000  -0.000000
    40  H   -0.000000   0.000000   0.000000   0.000000   0.000000   0.000000
    41  H    0.000000   0.000000   0.000000   0.000000   0.000000   0.000000
    42  H    0.001234  -0.000000  -0.000000   0.000000  -0.000000  -0.000000
    43  H    0.004296   0.000000  -0.000000   0.000000   0.000000   0.000000
    44  H    0.000943   0.000000   0.000000  -0.000000   0.000000   0.000000
    45  H   -0.000032   0.343967  -0.040226  -0.008267   0.006980  -0.000000
    46  H    0.000000   0.000034   0.003260  -0.033489   0.387865   0.000000
    47  H    0.000000   0.005939  -0.006127  -0.034789   0.362734   0.000000
    48  H    0.000000   0.006466  -0.005889  -0.034917   0.361505   0.000000
              31         32         33         34         35         36
     1  C    0.362604   0.362260   0.006637  -0.000007   0.000000   0.000000
     2  O   -0.035001  -0.035235  -0.007861  -0.000038  -0.000000   0.000000
     3  C   -0.005822  -0.005308  -0.044315   0.003135   0.000002  -0.000022
     4  C    0.006238   0.005742   0.353743  -0.035549  -0.000056   0.000481
     5  C   -0.000106  -0.000146  -0.033191   0.351123   0.003701   0.006247
     6  C    0.000003  -0.000001   0.003333  -0.037378  -0.026327   0.003792
     7  N    0.000000   0.000000  -0.000126  -0.007386   0.291416  -0.004759
     8  C    0.000000  -0.000000  -0.000005   0.002992  -0.022481  -0.029816
     9  C   -0.000000   0.000000   0.000004   0.001733   0.008688   0.335687
    10  C   -0.000000   0.000000   0.000000  -0.000018   0.000085  -0.033827
    11  C    0.000000  -0.000000  -0.000000   0.000014   0.000002  -0.005033
    12  O   -0.000000   0.000000   0.000000   0.000005  -0.000000   0.014121
    13  N    0.000000   0.000000   0.000000   0.000000  -0.000000   0.000602
    14  C   -0.000000   0.000000  -0.000000  -0.000000   0.000000   0.000005
    15  C    0.000000  -0.000000  -0.000000   0.000000   0.000000  -0.000001
    16  C    0.000000  -0.000000  -0.000000  -0.000000  -0.000000  -0.000000
    17  C   -0.000000   0.000000   0.000000  -0.000000   0.000000   0.000000
    18  C    0.000000   0.000000   0.000000   0.000000  -0.000000  -0.000000
    19  C    0.000000  -0.000000  -0.000000   0.000000  -0.000000   0.000000
    20  C   -0.000000   0.000000  -0.000000  -0.000000   0.000000   0.000000
    21  N    0.000000   0.000000   0.000000  -0.000000  -0.000000   0.000000
    22  N   -0.000000   0.000000  -0.000000  -0.000005   0.000088   0.003947
    23  C    0.000000  -0.000000   0.000000  -0.000001   0.000122   0.000214
    24  C   -0.000000   0.000000  -0.000000  -0.000000  -0.000075   0.000027
    25  N   -0.000000  -0.000000  -0.000000  -0.000096   0.011294   0.003798
    26  C   -0.000015  -0.000012   0.000731   0.006007  -0.005349  -0.000101
    27  C   -0.000485  -0.000401   0.003518   0.000359  -0.000069  -0.000024
    28  O   -0.000005  -0.000003  -0.000050   0.000001  -0.000001   0.000000
    29  C    0.000000   0.000000   0.000003  -0.000000  -0.000003   0.000000
    30  H   -0.031033  -0.031607  -0.000101  -0.000000   0.000000  -0.000000
    31  H    0.597540  -0.049847   0.001721   0.000004  -0.000000  -0.000000
    32  H   -0.049847   0.600977   0.001504   0.000001   0.000000   0.000000
    33  H    0.001721   0.001504   0.577996  -0.005278   0.000002  -0.000005
    34  H    0.000004   0.000001  -0.005278   0.572844  -0.000153   0.000120
    35  H   -0.000000   0.000000   0.000002  -0.000153   0.397842  -0.000175
    36  H   -0.000000   0.000000  -0.000005   0.000120  -0.000175   0.520091
    37  H    0.000000  -0.000000   0.000000   0.000000  -0.000000  -0.000077
    38  H   -0.000000   0.000000  -0.000000  -0.000000   0.000000  -0.000004
    39  H    0.000000  -0.000000  -0.000000  -0.000000  -0.000000   0.000000
    40  H    0.000000   0.000000  -0.000000  -0.000000   0.000000  -0.000000
    41  H    0.000000   0.000000   0.000000   0.000000  -0.000000   0.000000
    42  H   -0.000000   0.000000  -0.000000  -0.000000   0.000009  -0.000001
    43  H    0.000000  -0.000000   0.000000   0.000000   0.000001  -0.000001
    44  H    0.000000  -0.000000   0.000000   0.000000   0.000010  -0.000001
    45  H    0.000000  -0.000000   0.000014  -0.000172   0.003157  -0.000007
    46  H    0.000000   0.000000  -0.000000  -0.000000   0.000000  -0.000000
    47  H    0.000000  -0.000000   0.000000   0.000000  -0.000008  -0.000000
    48  H   -0.000000   0.000000  -0.000000  -0.000000   0.000011   0.000000
              37         38         39         40         41         42
     1  C   -0.000000   0.000000  -0.000000   0.000000   0.000000  -0.000000
     2  O   -0.000000   0.000000   0.000000   0.000000   0.000000   0.000000
     3  C   -0.000000  -0.000000   0.000000   0.000000   0.000000   0.000000
     4  C   -0.000000  -0.000000   0.000000   0.000000  -0.000000  -0.000000
     5  C    0.000000   0.000000   0.000000   0.000000  -0.000000  -0.000000
     6  C   -0.000000  -0.000000  -0.000000  -0.000000   0.000000   0.000000
     7  N    0.000000  -0.000000   0.000000  -0.000000   0.000000  -0.000003
     8  C    0.000038  -0.000000  -0.000000  -0.000000  -0.000000   0.000128
     9  C    0.001816  -0.000023  -0.000000  -0.000000   0.000000   0.000012
    10  C   -0.008200   0.000599  -0.000000   0.000000  -0.000000  -0.000171
    11  C   -0.033994   0.003081  -0.000000   0.000000   0.000001   0.000004
    12  O    0.002185   0.027832  -0.000005   0.000000  -0.000000  -0.000000
    13  N    0.251556  -0.014047  -0.000111   0.000005  -0.000071  -0.000001
    14  C   -0.019042  -0.024742   0.003365   0.000818   0.004416   0.000000
    15  C    0.004391   0.338136  -0.037708   0.003942   0.000287   0.000000
    16  C   -0.000034  -0.038584   0.360305  -0.040292   0.004655   0.000000
    17  C   -0.000022   0.003942  -0.041975   0.361398  -0.039752  -0.000000
    18  C    0.000010   0.000330   0.004574  -0.038501   0.361995  -0.000000
    19  C   -0.011453   0.005238   0.000861   0.003836  -0.041808  -0.000000
    20  C    0.016736  -0.000138   0.000004  -0.000201  -0.007394  -0.000000
    21  N    0.007381  -0.000000  -0.000000  -0.000000   0.000513   0.000000
    22  N    0.055113  -0.000010  -0.000000  -0.000000   0.000000   0.001391
    23  C    0.000326   0.000000   0.000000   0.000000  -0.000000  -0.023787
    24  C   -0.000551  -0.000000   0.000000  -0.000000   0.000000   0.359669
    25  N    0.000241  -0.000000  -0.000000  -0.000000   0.000000   0.001234
    26  C    0.000000  -0.000000  -0.000000   0.000000   0.000000  -0.000000
    27  C    0.000000  -0.000000   0.000000   0.000000   0.000000  -0.000000
    28  O    0.000000  -0.000000   0.000000   0.000000   0.000000   0.000000
    29  C    0.000000  -0.000000   0.000000   0.000000   0.000000  -0.000000
    30  H    0.000000   0.000000  -0.000000   0.000000   0.000000  -0.000000
    31  H    0.000000  -0.000000   0.000000   0.000000   0.000000  -0.000000
    32  H   -0.000000   0.000000  -0.000000   0.000000   0.000000   0.000000
    33  H    0.000000  -0.000000  -0.000000  -0.000000   0.000000  -0.000000
    34  H    0.000000  -0.000000  -0.000000  -0.000000   0.000000  -0.000000
    35  H   -0.000000   0.000000  -0.000000   0.000000  -0.000000   0.000009
    36  H   -0.000077  -0.000004   0.000000  -0.000000   0.000000  -0.000001
    37  H    0.343854  -0.000229   0.000002   0.000000  -0.000011   0.000005
    38  H   -0.000229   0.506524  -0.004982  -0.000132   0.000010   0.000000
    39  H    0.000002  -0.004982   0.576134  -0.005078  -0.000175  -0.000000
    40  H    0.000000  -0.000132  -0.005078   0.578154  -0.005114   0.000000
    41  H   -0.000011   0.000010  -0.000175  -0.005114   0.564676  -0.000000
    42  H    0.000005   0.000000  -0.000000   0.000000  -0.000000   0.539739
    43  H    0.000550  -0.000000  -0.000000   0.000000   0.000000  -0.022495
    44  H    0.000005   0.000000  -0.000000   0.000000  -0.000000  -0.026861
    45  H    0.000000   0.000000  -0.000000   0.000000  -0.000000  -0.000000
    46  H    0.000000  -0.000000   0.000000   0.000000   0.000000  -0.000000
    47  H   -0.000000  -0.000000   0.000000   0.000000   0.000000  -0.000000
    48  H    0.000000   0.000000   0.000000   0.000000   0.000000   0.000000
              43         44         45         46         47         48
     1  C    0.000000   0.000000   0.000003  -0.000001   0.000000   0.000000
     2  O   -0.000000   0.000000  -0.000046  -0.000003  -0.000004  -0.000005
     3  C    0.000000  -0.000000   0.003998   0.000113  -0.000435  -0.000467
     4  C   -0.000000   0.000000   0.000090   0.000006  -0.000014  -0.000007
     5  C   -0.000000   0.000000   0.006136  -0.000000   0.000003  -0.000010
     6  C   -0.000000  -0.000000  -0.042242  -0.000000  -0.000119  -0.000045
     7  N    0.000001  -0.000007  -0.004470  -0.000000   0.000000   0.000001
     8  C   -0.000158   0.000163   0.000064   0.000000   0.000000  -0.000000
     9  C    0.000046   0.000005  -0.000022  -0.000000  -0.000000   0.000000
    10  C    0.000357  -0.000155   0.000000   0.000000  -0.000000   0.000000
    11  C   -0.000037   0.000004   0.000000   0.000000   0.000000  -0.000000
    12  O    0.000000  -0.000000   0.000000   0.000000  -0.000000   0.000000
    13  N   -0.000062  -0.000000  -0.000000   0.000000   0.000000  -0.000000
    14  C   -0.000000   0.000000   0.000000   0.000000  -0.000000   0.000000
    15  C    0.000000   0.000000   0.000000   0.000000   0.000000  -0.000000
    16  C    0.000000   0.000000   0.000000   0.000000   0.000000   0.000000
    17  C   -0.000000  -0.000000   0.000000   0.000000   0.000000   0.000000
    18  C   -0.000000  -0.000000  -0.000000   0.000000   0.000000   0.000000
    19  C    0.000005  -0.000000   0.000000   0.000000  -0.000000   0.000000
    20  C    0.000070  -0.000000  -0.000000   0.000000   0.000000   0.000000
    21  N    0.000477   0.000000   0.000000   0.000000   0.000000   0.000000
    22  N    0.007718   0.001328   0.000000  -0.000000   0.000000  -0.000000
    23  C   -0.026688  -0.023638  -0.000000  -0.000000   0.000000  -0.000000
    24  C    0.356085   0.360036  -0.000000  -0.000000   0.000000   0.000000
    25  N    0.004296   0.000943  -0.000032   0.000000   0.000000   0.000000
    26  C    0.000000   0.000000   0.343967   0.000034   0.005939   0.006466
    27  C   -0.000000   0.000000  -0.040226   0.003260  -0.006127  -0.005889
    28  O    0.000000  -0.000000  -0.008267  -0.033489  -0.034789  -0.034917
    29  C    0.000000   0.000000   0.006980   0.387865   0.362734   0.361505
    30  H    0.000000   0.000000  -0.000000   0.000000   0.000000   0.000000
    31  H    0.000000   0.000000   0.000000   0.000000   0.000000  -0.000000
    32  H   -0.000000  -0.000000  -0.000000   0.000000  -0.000000   0.000000
    33  H    0.000000   0.000000   0.000014  -0.000000   0.000000  -0.000000
    34  H    0.000000   0.000000  -0.000172  -0.000000   0.000000  -0.000000
    35  H    0.000001   0.000010   0.003157   0.000000  -0.000008   0.000011
    36  H   -0.000001  -0.000001  -0.000007  -0.000000  -0.000000   0.000000
    37  H    0.000550   0.000005   0.000000   0.000000  -0.000000   0.000000
    38  H   -0.000000   0.000000   0.000000  -0.000000  -0.000000   0.000000
    39  H   -0.000000  -0.000000  -0.000000   0.000000   0.000000   0.000000
    40  H    0.000000   0.000000   0.000000   0.000000   0.000000   0.000000
    41  H    0.000000  -0.000000  -0.000000   0.000000   0.000000   0.000000
    42  H   -0.022495  -0.026861  -0.000000  -0.000000  -0.000000   0.000000
    43  H    0.516979  -0.022624   0.000000   0.000000  -0.000000   0.000000
    44  H   -0.022624   0.538598   0.000000   0.000000  -0.000000   0.000000
    45  H    0.000000   0.000000   0.591357  -0.000115   0.002146   0.001264
    46  H    0.000000   0.000000  -0.000115   0.529379  -0.031153  -0.031274
    47  H   -0.000000  -0.000000   0.002146  -0.031153   0.596903  -0.049744
    48  H    0.000000   0.000000   0.001264  -0.031274  -0.049744   0.602105
 Mulliken charges:
               1
     1  C   -0.217170
     2  O   -0.498263
     3  C    0.345346
     4  C   -0.215430
     5  C   -0.174128
     6  C    0.333737
     7  N   -0.761347
     8  C    0.526817
     9  C   -0.196902
    10  C    0.257599
    11  C    0.596020
    12  O   -0.515651
    13  N   -0.789529
    14  C    0.383967
    15  C   -0.167910
    16  C   -0.131931
    17  C   -0.132332
    18  C   -0.152753
    19  C    0.086460
    20  C    0.241309
    21  N   -0.496065
    22  N   -0.568131
    23  C    0.448350
    24  C   -0.510865
    25  N   -0.530583
    26  C   -0.256262
    27  C    0.340636
    28  O   -0.496967
    29  C   -0.216700
    30  H    0.173338
    31  H    0.154204
    32  H    0.152076
    33  H    0.141725
    34  H    0.147742
    35  H    0.338269
    36  H    0.184721
    37  H    0.389404
    38  H    0.197200
    39  H    0.144789
    40  H    0.141163
    41  H    0.157772
    42  H    0.171128
    43  H    0.185481
    44  H    0.172194
    45  H    0.136423
    46  H    0.175378
    47  H    0.154667
    48  H    0.151006
 Sum of Mulliken charges =  -0.00000
 Mulliken charges with hydrogens summed into heavy atoms:
               1
     1  C    0.262447
     2  O   -0.498263
     3  C    0.345346
     4  C   -0.073705
     5  C   -0.026386
     6  C    0.333737
     7  N   -0.423078
     8  C    0.526817
     9  C   -0.012181
    10  C    0.257599
    11  C    0.596020
    12  O   -0.515651
    13  N   -0.400125
    14  C    0.383967
    15  C    0.029290
    16  C    0.012858
    17  C    0.008832
    18  C    0.005019
    19  C    0.086460
    20  C    0.241309
    21  N   -0.496065
    22  N   -0.568131
    23  C    0.448350
    24  C    0.017937
    25  N   -0.530583
    26  C   -0.119838
    27  C    0.340636
    28  O   -0.496967
    29  C    0.264351
 Electronic spatial extent (au):  <R**2>=          18636.8644
 Charge=             -0.0000 electrons
 Dipole moment (field-independent basis, Debye):
    X=              3.6425    Y=             -0.7963    Z=              1.8412  Tot=              4.1584
 Quadrupole moment (field-independent basis, Debye-Ang):
   XX=           -152.9900   YY=           -166.2667   ZZ=           -152.0023
   XY=              6.0008   XZ=            -22.3995   YZ=              5.8463
 Traceless Quadrupole moment (field-independent basis, Debye-Ang):
   XX=              4.0963   YY=             -9.1804   ZZ=              5.0840
   XY=              6.0008   XZ=            -22.3995   YZ=              5.8463
 Octapole moment (field-independent basis, Debye-Ang**2):
  XXX=            174.5899  YYY=            -44.9056  ZZZ=             76.5551  XYY=             87.1718
  XXY=            -88.0861  XXZ=            143.3108  XZZ=            150.1068  YZZ=            -27.5951
  YYZ=              1.8776  XYZ=             26.7427
 Hexadecapole moment (field-independent basis, Debye-Ang**3):
 XXXX=         -19123.0814 YYYY=           -901.2471 ZZZZ=          -3583.1379 XXXY=            717.2284
 XXXZ=          -1213.0229 YYYX=            411.3456 YYYZ=            436.3020 ZZZX=             34.2313
 ZZZY=            379.4940 XXYY=          -3581.9766 XXZZ=          -3626.8608 YYZZ=           -778.6170
 XXYZ=            325.4724 YYXZ=            -42.5482 ZZXY=            233.2416
 N-N= 2.459468190495D+03 E-N=-7.968346017589D+03  KE= 1.298912045360D+03
 Leave Link  601 at Sat Nov  5 11:54:17 2022, MaxMem=   402653184 cpu:               1.1 elap:               0.2
 (Enter /home/wykgroup/appl/g16/l9999.exe)
 Electronic transition elements 
                 1             2             3             4 
      1  -0.131101D+04 -0.131100D+04 -0.131100D+04 -0.131097D+04
      2   0.000000D+00  0.000000D+00 -0.781605D+00  0.156849D-01
      3   0.000000D+00  0.000000D+00  0.103324D+00 -0.796129D-01
      4   0.000000D+00  0.000000D+00 -0.273051D+00 -0.567807D-01
      5   0.000000D+00  0.000000D+00  0.912288D-01 -0.169800D-02
      6   0.000000D+00  0.000000D+00 -0.122107D-01  0.176893D-01
      7   0.000000D+00  0.000000D+00  0.314372D-01  0.107079D-01
      8   0.000000D+00  0.000000D+00  0.162605D-01  0.399770D+00
      9   0.000000D+00  0.000000D+00 -0.516716D-01 -0.448193D-01
     10   0.000000D+00  0.000000D+00 -0.505181D-01  0.158141D+00
     11   0.000000D+00  0.000000D+00  0.255438D+00  0.903588D-01
     12   0.000000D+00  0.000000D+00 -0.160521D-01  0.645169D-01
     13   0.000000D+00  0.000000D+00 -0.148911D+00 -0.833304D-01
     14   0.000000D+00  0.000000D+00 -0.116482D-01 -0.466496D-01
     15   0.000000D+00  0.000000D+00  0.582021D-01 -0.471566D-01
     16   0.000000D+00  0.000000D+00  0.105613D+00 -0.502668D-01
 1\1\GINC-NODE42\SP\RB3LYP TD-FC\6-31G(d)\C21H19N5O3\WYKGROUP\05-Nov-20
 22\0\\#p b3lyp/6-31g(d) 6D 10F nosymm GFInput td=(50-50,nstate=2) SCF=
 XQC\\Gaussian input prepared by ASE\\0,1\C,0,5.7577164893,-0.098541301
 2,3.5114329468\O,0,5.8590043339,-0.5580981941,2.173800492\C,0,4.875842
 3063,-0.2012073915,1.3022943564\C,0,3.7718916527,0.5877730605,1.611134
 588\C,0,2.8173421087,0.910465503,0.6375195553\C,0,2.9491155431,0.41103
 7567,-0.6543276929\N,0,2.0279153098,0.7199977457,-1.6857531053\C,0,0.6
 620223763,0.7442997675,-1.647800504\C,0,-0.1088943267,0.3370821974,-0.
 5354901705\C,0,-1.4770492125,0.4228241582,-0.6930630223\C,0,-2.3809398
 153,0.0056582536,0.446435885\O,0,-1.9332826764,-0.3958490048,1.5141134
 752\N,0,-3.7097375449,0.1369787817,0.1251609309\C,0,-4.8284540368,-0.1
 44706775,0.9084776922\C,0,-4.7444258371,-0.6383237709,2.2207175905\C,0
 ,-5.9066125736,-0.8969388551,2.9426199952\C,0,-7.1725749117,-0.6767486
 301,2.3920763486\C,0,-7.271730165,-0.188970996,1.0950817726\C,0,-6.113
 8241816,0.0791836748,0.347885932\C,0,-6.2330747533,0.5807876955,-0.986
 7111986\N,0,-6.3002515801,0.9894262407,-2.0753056336\N,0,-2.0753585901
 ,0.8594558095,-1.8182627271\C,0,-1.2606832127,1.2078457671,-2.82228987
 7\C,0,-1.8961036949,1.6860471361,-4.1000221107\N,0,0.075962596,1.16900
 53784,-2.7846688359\C,0,4.0593546688,-0.3909656162,-0.9788704304\C,0,5
 .0247689039,-0.6896527874,-0.0228273767\O,0,6.1310322241,-1.4485145979
 ,-0.2459685039\C,0,6.3307031187,-1.9733888027,-1.5480613405\H,0,6.6298
 655572,-0.4997679546,4.0305334008\H,0,4.8441357064,-0.4671069755,3.996
 9632772\H,0,5.7764611208,0.9983788045,3.5646152294\H,0,3.6474345925,0.
 9801217423,2.6135494863\H,0,1.9921014227,1.565649569,0.8929662617\H,0,
 2.4002772476,0.9426807447,-2.6011087409\H,0,0.318212742,-0.0370368187,
 0.3844139022\H,0,-3.8552548903,0.4940512542,-0.8207444056\H,0,-3.76761
 06775,-0.8102165397,2.6500672884\H,0,-5.8176318115,-1.2785681891,3.956
 097196\H,0,-8.0696697882,-0.8831474824,2.967205733\H,0,-8.2402181212,-
 0.0080074182,0.6399497605\H,0,-1.5842351895,1.0531771039,-4.9382437515
 \H,0,-2.9838836006,1.66632681,-4.0136209273\H,0,-1.5668305693,2.705800
 7702,-4.3286391677\H,0,4.1427440138,-0.7859949938,-1.9848777141\H,0,7.
 2656013861,-2.5344019538,-1.5021464332\H,0,5.5157722982,-2.6490685263,
 -1.8404269081\H,0,6.4230530422,-1.1742909605,-2.295882518\\Version=ES6
 4L-G16RevB.01\HF=-1311.1137736\RMSD=3.289e-09\PG=C01 [X(C21H19N5O3)]\\
 @


0EVERYBODY IS IGNORANT, ONLY ON DIFFERENT SUBJECTS.
0          WILL ROGERS
 Job cpu time:       0 days  1 hours 15 minutes 15.4 seconds.
 Elapsed time:       0 days  0 hours  7 minutes 42.0 seconds.
 File lengths (MBytes):  RWF=   1382 Int=      0 D2E=      0 Chk=     48 Scr=      1
 Normal termination of Gaussian 16 at Sat Nov  5 11:54:18 2022.
