 Entering Gaussian System, Link 0=/home/wykgroup/appl/g16/g16
 Input=calculation/no_transfer_pubchem_sampling_3_b3lyp/117913170_rwf.com
 Output=calculation/no_transfer_pubchem_sampling_3_b3lyp/117913170_rwf.log
 Initial command:
 /home/wykgroup/appl/g16/l1.exe "/userdata/scratch/wykgroup/khs/calculation/no_transfer_pubchem_sampling_3_b3lyp/117913170_rwf/Gau-25239.inp" -scrdir="/userdata/scratch/wykgroup/khs/calculation/no_transfer_pubchem_sampling_3_b3lyp/117913170_rwf/"
 Entering Link 1 = /home/wykgroup/appl/g16/l1.exe PID=     25240.
  
 Copyright (c) 1988-2017, Gaussian, Inc.  All Rights Reserved.
  
 This is part of the Gaussian(R) 16 program.  It is based on
 the Gaussian(R) 09 system (copyright 2009, Gaussian, Inc.),
 the Gaussian(R) 03 system (copyright 2003, Gaussian, Inc.),
 the Gaussian(R) 98 system (copyright 1998, Gaussian, Inc.),
 the Gaussian(R) 94 system (copyright 1995, Gaussian, Inc.),
 the Gaussian 92(TM) system (copyright 1992, Gaussian, Inc.),
 the Gaussian 90(TM) system (copyright 1990, Gaussian, Inc.),
 the Gaussian 88(TM) system (copyright 1988, Gaussian, Inc.),
 the Gaussian 86(TM) system (copyright 1986, Carnegie Mellon
 University), and the Gaussian 82(TM) system (copyright 1983,
 Carnegie Mellon University). Gaussian is a federally registered
 trademark of Gaussian, Inc.
  
 This software contains proprietary and confidential information,
 including trade secrets, belonging to Gaussian, Inc.
  
 This software is provided under written license and may be
 used, copied, transmitted, or stored only in accord with that
 written license.
  
 The following legend is applicable only to US Government
 contracts under FAR:
  
                    RESTRICTED RIGHTS LEGEND
  
 Use, reproduction and disclosure by the US Government is
 subject to restrictions as set forth in subparagraphs (a)
 and (c) of the Commercial Computer Software - Restricted
 Rights clause in FAR 52.227-19.
  
 Gaussian, Inc.
 340 Quinnipiac St., Bldg. 40, Wallingford CT 06492
  
  
 ---------------------------------------------------------------
 Warning -- This program may not be used in any manner that
 competes with the business of Gaussian, Inc. or will provide
 assistance to any competitor of Gaussian, Inc.  The licensee
 of this program is prohibited from giving any competitor of
 Gaussian, Inc. access to this program.  By using this program,
 the user acknowledges that Gaussian, Inc. is engaged in the
 business of creating and licensing software in the field of
 computational chemistry and represents and warrants to the
 licensee that it is not a competitor of Gaussian, Inc. and that
 it will not use this program in any manner prohibited above.
 ---------------------------------------------------------------
  

 Cite this work as:
 Gaussian 16, Revision B.01,
 M. J. Frisch, G. W. Trucks, H. B. Schlegel, G. E. Scuseria, 
 M. A. Robb, J. R. Cheeseman, G. Scalmani, V. Barone, 
 G. A. Petersson, H. Nakatsuji, X. Li, M. Caricato, A. V. Marenich, 
 J. Bloino, B. G. Janesko, R. Gomperts, B. Mennucci, H. P. Hratchian, 
 J. V. Ortiz, A. F. Izmaylov, J. L. Sonnenberg, D. Williams-Young, 
 F. Ding, F. Lipparini, F. Egidi, J. Goings, B. Peng, A. Petrone, 
 T. Henderson, D. Ranasinghe, V. G. Zakrzewski, J. Gao, N. Rega, 
 G. Zheng, W. Liang, M. Hada, M. Ehara, K. Toyota, R. Fukuda, 
 J. Hasegawa, M. Ishida, T. Nakajima, Y. Honda, O. Kitao, H. Nakai, 
 T. Vreven, K. Throssell, J. A. Montgomery, Jr., J. E. Peralta, 
 F. Ogliaro, M. J. Bearpark, J. J. Heyd, E. N. Brothers, K. N. Kudin, 
 V. N. Staroverov, T. A. Keith, R. Kobayashi, J. Normand, 
 K. Raghavachari, A. P. Rendell, J. C. Burant, S. S. Iyengar, 
 J. Tomasi, M. Cossi, J. M. Millam, M. Klene, C. Adamo, R. Cammi, 
 J. W. Ochterski, R. L. Martin, K. Morokuma, O. Farkas, 
 J. B. Foresman, and D. J. Fox, Gaussian, Inc., Wallingford CT, 2016.
 
 ******************************************
 Gaussian 16:  ES64L-G16RevB.01 20-Dec-2017
                 5-Nov-2022 
 ******************************************
 %chk=calculation/no_transfer_pubchem_sampling_3_b3lyp/117913170_rwf.chk
 %rwf=calculation/no_transfer_pubchem_sampling_3_b3lyp/117913170_rwf.rwf
 %nprocshared=14
 Will use up to   14 processors via shared memory.
 %mem=3GB
 -------------------------------------------------------------------
 #p b3lyp/6-31g(d) 6D 10F nosymm GFInput td=(50-50,nstate=2) SCF=XQC
 -------------------------------------------------------------------
 1/38=1,172=1/1;
 2/12=2,15=1,17=6,18=5,40=1/2;
 3/5=1,6=6,7=1,8=22,11=9,24=10,25=1,30=1,74=-5/1,2,3,8;
 4//1;
 5/5=2,8=3,13=1,38=5/2,8;
 8/6=1,10=2,108=2/1;
 9/41=2,42=1,48=2,70=2/14;
 6/7=2,8=2,9=2,10=2/1;
 99/5=1,9=1/99;
 Leave Link    1 at Sat Nov  5 11:47:41 2022, MaxMem=   402653184 cpu:               2.3 elap:               0.3
 (Enter /home/wykgroup/appl/g16/l101.exe)
 ------------------------------
 Gaussian input prepared by ASE
 ------------------------------
 Symbolic Z-matrix:
 Charge =  0 Multiplicity = 1
 C                     9.46589  -1.09981  -1.55804 
 C                     8.19543  -0.99687  -1.15941 
 C                     7.71763   0.22354  -0.47396 
 O                     8.37293   1.20788  -0.20955 
 O                     6.38746   0.09115  -0.16532 
 C                     5.78008   1.14566   0.47972 
 C                     4.48961   1.08975   0.81252 
 O                     3.72947  -0.03169   0.61001 
 C                     2.37616   0.11872   0.39997 
 C                     1.83305   1.27328  -0.21693 
 C                     0.47629   1.36187  -0.43175 
 C                    -0.38577   0.30193  -0.05253 
 C                    -1.78636   0.36097  -0.25129 
 F                    -2.30062   1.48422  -0.80529 
 C                    -2.62261  -0.67758   0.10148 
 O                    -3.98914  -0.65113  -0.03764 
 C                    -4.53317  -0.15292  -1.1974 
 C                    -5.81742   0.1925   -1.27694 
 O                    -6.63185   0.1244   -0.1656 
 C                    -7.94246   0.4837   -0.32033 
 O                    -8.41914   0.84834  -1.3742 
 C                    -8.70429   0.37494   0.9425 
 C                    -8.18885  -0.01878   2.11058 
 C                    -2.06348  -1.82851   0.71095 
 C                    -0.71217  -1.92285   0.93796 
 C                     0.16695  -0.8701    0.55952 
 C                     1.56436  -0.93051   0.77618 
 H                     10.16629  -0.28795  -1.38413 
 H                     9.834    -1.98786  -2.06236 
 H                     7.46823  -1.78746  -1.31617 
 H                     6.40897   1.99653   0.70489 
 H                     4.01372   1.92004   1.32641 
 H                     2.49326   2.07225  -0.53816 
 H                     0.05478   2.24144  -0.90596 
 H                    -3.88478  -0.10262  -2.06448 
 H                    -6.28092   0.53303  -2.19253 
 H                    -9.74929   0.6516    0.83941 
 H                    -7.14319  -0.29273   2.20606 
 H                    -8.8047   -0.07586   3.00352 
 H                    -2.74359  -2.62736   0.98884 
 H                    -0.29932  -2.81219   1.40543 
 H                     2.00855  -1.8037    1.24401 
 
 ITRead=  0  0  0  0  0  0  0  0  0  0  0  0  0  0  0  0  0  0  0  0
 ITRead=  0  0  0  0  0  0  0  0  0  0  0  0  0  0  0  0  0  0  0  0
 ITRead=  0  0
 MicOpt= -1 -1 -1 -1 -1 -1 -1 -1 -1 -1 -1 -1 -1 -1 -1 -1 -1 -1 -1 -1
 MicOpt= -1 -1 -1 -1 -1 -1 -1 -1 -1 -1 -1 -1 -1 -1 -1 -1 -1 -1 -1 -1
 MicOpt= -1 -1
 NAtoms=     42 NQM=       42 NQMF=       0 NMMI=      0 NMMIF=      0
                NMic=       0 NMicF=      0.
                    Isotopes and Nuclear Properties:
 (Nuclear quadrupole moments (NQMom) in fm**2, nuclear magnetic moments (NMagM)
  in nuclear magnetons)

  Atom         1           2           3           4           5           6           7           8           9          10
 IAtWgt=          12          12          12          16          16          12          12          16          12          12
 AtmWgt=  12.0000000  12.0000000  12.0000000  15.9949146  15.9949146  12.0000000  12.0000000  15.9949146  12.0000000  12.0000000
 NucSpn=           0           0           0           0           0           0           0           0           0           0
 AtZEff=  -0.0000000  -0.0000000  -0.0000000  -0.0000000  -0.0000000  -0.0000000  -0.0000000  -0.0000000  -0.0000000  -0.0000000
 NQMom=    0.0000000   0.0000000   0.0000000   0.0000000   0.0000000   0.0000000   0.0000000   0.0000000   0.0000000   0.0000000
 NMagM=    0.0000000   0.0000000   0.0000000   0.0000000   0.0000000   0.0000000   0.0000000   0.0000000   0.0000000   0.0000000
 AtZNuc=   6.0000000   6.0000000   6.0000000   8.0000000   8.0000000   6.0000000   6.0000000   8.0000000   6.0000000   6.0000000

  Atom        11          12          13          14          15          16          17          18          19          20
 IAtWgt=          12          12          12          19          12          16          12          12          16          12
 AtmWgt=  12.0000000  12.0000000  12.0000000  18.9984032  12.0000000  15.9949146  12.0000000  12.0000000  15.9949146  12.0000000
 NucSpn=           0           0           0           1           0           0           0           0           0           0
 AtZEff=  -0.0000000  -0.0000000  -0.0000000  -0.0000000  -0.0000000  -0.0000000  -0.0000000  -0.0000000  -0.0000000  -0.0000000
 NQMom=    0.0000000   0.0000000   0.0000000   0.0000000   0.0000000   0.0000000   0.0000000   0.0000000   0.0000000   0.0000000
 NMagM=    0.0000000   0.0000000   0.0000000   2.6288670   0.0000000   0.0000000   0.0000000   0.0000000   0.0000000   0.0000000
 AtZNuc=   6.0000000   6.0000000   6.0000000   9.0000000   6.0000000   8.0000000   6.0000000   6.0000000   8.0000000   6.0000000

  Atom        21          22          23          24          25          26          27          28          29          30
 IAtWgt=          16          12          12          12          12          12          12           1           1           1
 AtmWgt=  15.9949146  12.0000000  12.0000000  12.0000000  12.0000000  12.0000000  12.0000000   1.0078250   1.0078250   1.0078250
 NucSpn=           0           0           0           0           0           0           0           1           1           1
 AtZEff=  -0.0000000  -0.0000000  -0.0000000  -0.0000000  -0.0000000  -0.0000000  -0.0000000  -0.0000000  -0.0000000  -0.0000000
 NQMom=    0.0000000   0.0000000   0.0000000   0.0000000   0.0000000   0.0000000   0.0000000   0.0000000   0.0000000   0.0000000
 NMagM=    0.0000000   0.0000000   0.0000000   0.0000000   0.0000000   0.0000000   0.0000000   2.7928460   2.7928460   2.7928460
 AtZNuc=   8.0000000   6.0000000   6.0000000   6.0000000   6.0000000   6.0000000   6.0000000   1.0000000   1.0000000   1.0000000

  Atom        31          32          33          34          35          36          37          38          39          40
 IAtWgt=           1           1           1           1           1           1           1           1           1           1
 AtmWgt=   1.0078250   1.0078250   1.0078250   1.0078250   1.0078250   1.0078250   1.0078250   1.0078250   1.0078250   1.0078250
 NucSpn=           1           1           1           1           1           1           1           1           1           1
 AtZEff=  -0.0000000  -0.0000000  -0.0000000  -0.0000000  -0.0000000  -0.0000000  -0.0000000  -0.0000000  -0.0000000  -0.0000000
 NQMom=    0.0000000   0.0000000   0.0000000   0.0000000   0.0000000   0.0000000   0.0000000   0.0000000   0.0000000   0.0000000
 NMagM=    2.7928460   2.7928460   2.7928460   2.7928460   2.7928460   2.7928460   2.7928460   2.7928460   2.7928460   2.7928460
 AtZNuc=   1.0000000   1.0000000   1.0000000   1.0000000   1.0000000   1.0000000   1.0000000   1.0000000   1.0000000   1.0000000

  Atom        41          42
 IAtWgt=           1           1
 AtmWgt=   1.0078250   1.0078250
 NucSpn=           1           1
 AtZEff=  -0.0000000  -0.0000000
 NQMom=    0.0000000   0.0000000
 NMagM=    2.7928460   2.7928460
 AtZNuc=   1.0000000   1.0000000
 Leave Link  101 at Sat Nov  5 11:47:42 2022, MaxMem=   402653184 cpu:               1.7 elap:               0.4
 (Enter /home/wykgroup/appl/g16/l202.exe)
                          Input orientation:                          
 ---------------------------------------------------------------------
 Center     Atomic      Atomic             Coordinates (Angstroms)
 Number     Number       Type             X           Y           Z
 ---------------------------------------------------------------------
      1          6           0        9.465894   -1.099815   -1.558038
      2          6           0        8.195435   -0.996874   -1.159407
      3          6           0        7.717628    0.223543   -0.473958
      4          8           0        8.372931    1.207878   -0.209548
      5          8           0        6.387455    0.091155   -0.165318
      6          6           0        5.780077    1.145657    0.479716
      7          6           0        4.489611    1.089753    0.812520
      8          8           0        3.729471   -0.031687    0.610014
      9          6           0        2.376160    0.118718    0.399970
     10          6           0        1.833048    1.273280   -0.216931
     11          6           0        0.476289    1.361867   -0.431749
     12          6           0       -0.385771    0.301925   -0.052525
     13          6           0       -1.786359    0.360969   -0.251294
     14          9           0       -2.300623    1.484217   -0.805289
     15          6           0       -2.622607   -0.677578    0.101476
     16          8           0       -3.989141   -0.651131   -0.037635
     17          6           0       -4.533169   -0.152921   -1.197399
     18          6           0       -5.817423    0.192501   -1.276942
     19          8           0       -6.631848    0.124398   -0.165598
     20          6           0       -7.942463    0.483697   -0.320328
     21          8           0       -8.419139    0.848340   -1.374202
     22          6           0       -8.704286    0.374940    0.942497
     23          6           0       -8.188854   -0.018782    2.110582
     24          6           0       -2.063477   -1.828513    0.710947
     25          6           0       -0.712171   -1.922846    0.937957
     26          6           0        0.166950   -0.870102    0.559516
     27          6           0        1.564364   -0.930511    0.776183
     28          1           0       10.166289   -0.287953   -1.384133
     29          1           0        9.833999   -1.987858   -2.062362
     30          1           0        7.468234   -1.787460   -1.316169
     31          1           0        6.408970    1.996529    0.704889
     32          1           0        4.013721    1.920042    1.326412
     33          1           0        2.493265    2.072253   -0.538156
     34          1           0        0.054784    2.241436   -0.905958
     35          1           0       -3.884776   -0.102621   -2.064476
     36          1           0       -6.280918    0.533028   -2.192533
     37          1           0       -9.749294    0.651605    0.839411
     38          1           0       -7.143195   -0.292733    2.206062
     39          1           0       -8.804699   -0.075863    3.003519
     40          1           0       -2.743593   -2.627358    0.988838
     41          1           0       -0.299316   -2.812190    1.405427
     42          1           0        2.008550   -1.803696    1.244014
 ---------------------------------------------------------------------
                    Distance matrix (angstroms):
                    1          2          3          4          5
     1  C    0.000000
     2  C    1.335504   0.000000
     3  C    2.446005   1.479039   0.000000
     4  O    2.887635   2.407212   1.211713   0.000000
     5  O    3.582578   2.332554   1.371913   2.278408   0.000000
     6  C    4.772822   3.620927   2.348168   2.683626   1.377299
     7  C    5.931032   4.687818   3.581262   4.017306   2.356942
     8  O    6.224781   4.899721   4.140717   4.875441   2.771481
     9  C    7.455397   6.127002   5.413503   6.125279   4.051024
    10  C    8.104966   6.820691   5.983001   6.540215   4.705604
    11  C    9.388365   8.104218   7.330386   7.901268   6.052072
    12  C   10.064131   8.749237   8.114729   8.806831   6.777443
    13  C   11.421676  10.114575   9.507589  10.194616   8.178719
    14  F   12.070409  10.791128  10.102695  10.693738   8.822295
    15  C   12.209182  10.895953  10.395365  11.160356   9.046731
    16  O   13.548096  12.240988  11.747506  12.502252  10.403896
    17  C   14.035685  12.756609  12.277913  13.015186  10.972001
    18  C   15.340432  14.063733  13.558885  14.266621  12.255816
    19  O   16.204162  14.902792  14.353132  15.043911  13.019345
    20  C   17.523993  16.227381  15.663006  16.331834  14.336132
    21  O   17.991762  16.718104  16.173932  16.836250  14.875145
    22  C   18.400626  17.085094  16.483584  17.136288  15.135007
    23  C   18.064261  16.736021  16.116909  16.768436  14.753325
    24  C   11.773092  10.461124  10.064043  10.908052   8.710409
    25  C   10.511916   9.197923   8.812605   9.677669   7.461776
    26  C    9.539767   8.211415   7.699148   8.499858   6.335936
    27  C    8.240839   6.908112   6.384149   7.204233   5.019207
    28  H    1.086239   2.106499   2.661951   2.614056   3.988585
    29  H    1.085572   2.117138   3.448529   3.972451   4.449690
    30  H    2.126500   1.085551   2.194459   3.318906   2.453922
    31  H    4.904383   3.953166   2.499149   2.305496   2.094797
    32  H    6.867734   5.672250   4.454028   4.676437   3.347342
    33  H    7.727854   6.505401   5.542186   5.951942   4.385029
    34  H   10.007904   8.764763   7.935849   8.410993   6.728668
    35  H   13.397435  12.147030  11.715457  12.466337  10.448114
    36  H   15.843953  14.593585  14.107040  14.802802  12.837154
    37  H   19.443217  18.130804  17.521460  18.161080  16.177709
    38  H   17.049389  15.719280  15.109372  15.774574  13.742245
    39  H   18.859238  17.526630  16.886971  17.522636  15.520018
    40  H   12.565490  11.266577  10.940958  11.820418   9.596793
    41  H   10.347642   9.057292   8.776057   9.694172   7.457182
    42  H    7.997433   6.686175   6.297198   7.189421   4.975087
                    6          7          8          9         10
     6  C    0.000000
     7  C    1.333862   0.000000
     8  O    2.368144   1.369835   0.000000
     9  C    3.556349   2.362156   1.377748   0.000000
    10  C    4.010068   2.854957   2.446058   1.417233   0.000000
    11  C    5.385878   4.210582   3.689235   2.417992   1.376513
    12  C    6.246027   5.013813   4.181563   2.804742   2.427697
    13  C    7.642060   6.407077   5.596465   4.220119   3.732774
    14  F    8.189236   6.991437   6.376762   5.018918   4.180658
    15  C    8.606530   7.362927   6.405051   5.070588   4.874432
    16  O    9.946544   8.697280   7.770466   6.426603   6.134606
    17  C   10.529106   9.327089   8.458881   7.096775   6.597279
    18  C   11.768448  10.554897   9.734169   8.363748   7.798808
    19  O   12.470577  11.206046  10.391480   9.025747   8.542659
    20  C   13.761773  12.498285  11.720291  10.350171   9.807892
    21  O   14.322819  13.094879  12.341000  10.964420  10.326044
    22  C   14.512235  13.213886  12.444847  11.096679  10.638924
    23  C   14.111935  12.792861  12.012425  10.703487  10.369439
    24  C    8.391692   7.174229   6.066054   4.857859   5.066062
    25  C    7.195483   6.012489   4.838616   3.741016   4.245836
    26  C    5.964634   4.752940   3.660198   2.425661   2.823621
    27  C    4.708568   3.555258   2.350146   1.378925   2.432110
    28  H    4.976748   6.240835   6.743509   8.002156   8.558195
    29  H    5.719734   6.804346   6.945032   8.131427   8.834922
    30  H    3.831221   4.656379   4.557551   5.701567   6.506287
    31  H    1.081754   2.125503   3.361900   4.459002   4.723548
    32  H    2.106319   1.086249   2.098397   2.604739   2.748735
    33  H    3.563395   2.602889   2.696862   2.170274   1.085094
    34  H    5.991645   4.893591   4.579147   3.405901   2.138763
    35  H   10.071768   8.934720   8.070607   6.732147   6.164417
    36  H   12.368663  11.195739  10.410622   9.046420   8.383759
    37  H   15.541392  14.245670  13.498023  12.145111  11.647016
    38  H   13.117172  11.797263  10.992287   9.697906   9.428480
    39  H   14.851848  13.523972  12.760730  11.481635  11.196122
    40  H    9.335299   8.134325   6.984381   5.839485   6.133066
    41  H    7.313038   6.205685   4.959336   4.093818   4.885703
    42  H    4.848429   3.835870   2.550204   2.131485   3.410710
                   11         12         13         14         15
    11  C    0.000000
    12  C    1.417898   0.000000
    13  C    2.480714   1.415855   0.000000
    14  F    2.804594   2.373000   1.353907   0.000000
    15  C    3.747909   2.446749   1.379252   2.366274   0.000000
    16  O    4.914017   3.727307   2.433566   2.828444   1.373851
    17  C    5.289185   4.326493   2.950282   2.796110   2.369091
    18  C    6.456979   5.569023   4.162908   3.776091   3.586631
    19  O    7.219957   6.249622   4.852017   4.584519   4.097378
    20  C    8.465164   7.563621   6.157714   5.750355   5.461442
    21  O    8.959942   8.159681   6.744791   6.177721   6.172992
    22  C    9.335178   8.378132   7.020188   6.729945   6.229120
    23  C    9.135336   8.103703   6.834809   6.740369   5.954295
    24  C    4.234937   2.817154   2.407599   3.650944   1.417298
    25  C    3.752049   2.457071   2.789984   4.143690   2.429025
    26  C    2.461703   1.433089   2.447114   3.673476   2.833460
    27  C    2.810339   2.451261   3.735100   4.823908   4.248521
    28  H    9.875476  10.652093  12.023736  12.605536  12.880788
    29  H   10.072055  10.664251  11.992902  12.684029  12.710864
    30  H    7.719310   8.224823   9.560189  10.314817  10.250201
    31  H    6.073832   7.043710   8.411466   8.854384   9.438450
    32  H    3.989500   4.886235   6.209734   6.678700   7.231110
    33  H    2.141065   3.414490   4.618004   4.837200   5.843187
    34  H    1.084519   2.164287   2.711928   2.476179   4.087051
    35  H    4.881538   4.056432   2.811742   2.571604   2.571963
    36  H    7.031869   6.275811   4.898884   4.321105   4.484560
    37  H   10.328741   9.412407   8.042539   7.673394   7.287040
    38  H    8.231178   7.149658   5.929723   5.972963   5.001310
    39  H   10.000244   8.964401   7.748659   7.697004   6.855813
    40  H    5.319740   3.901854   3.374066   4.507790   2.145622
    41  H    4.625963   3.439595   3.876205   5.229877   3.413875
    42  H    3.895741   3.442009   4.617690   5.794738   4.901137
                   16         17         18         19         20
    16  O    0.000000
    17  C    1.374494   0.000000
    18  C    2.364362   1.332272   0.000000
    19  O    2.757121   2.354989   1.379497   0.000000
    20  C    4.122682   3.577404   2.348554   1.367754   0.000000
    21  O    4.864124   4.016782   2.684867   2.275791   1.212780
    22  C    4.924031   4.717628   3.645981   2.363397   1.478827
    23  C    4.759443   4.932015   4.140489   2.761479   2.494497
    24  C    2.377979   3.542425   4.704073   5.045018   6.400963
    25  C    3.647955   4.721484   5.953492   6.360159   7.723462
    26  C    4.204478   5.068750   6.349364   6.909303   8.268584
    27  C    5.619766   6.455972   7.743852   8.317311   9.673783
    28  H   14.223964  14.701264  15.991290  16.847322  18.156377
    29  H   14.034442  14.509676  15.822069  16.708784  18.031802
    30  H   11.584357  12.112783  13.432440  14.275550  15.608954
    31  H   10.755564  11.312349  12.516663  13.203240  14.467320
    32  H    8.515713   9.149652  10.315679  10.898558  12.154225
    33  H    7.049037   7.399782   8.552590   9.338127  10.558190
    34  H    5.047204   5.183358   6.230456   7.052732   8.209055
    35  H    2.102341   1.083866   2.107707   3.347189   4.455406
    36  H    3.361258   2.124957   1.081246   2.097283   2.503662
    37  H    5.970402   5.657192   4.488802   3.317599   2.153561
    38  H    3.887246   4.291308   3.758249   2.461756   2.761217
    39  H    5.724434   5.991629   5.226680   3.847686   3.479154
    40  H    2.551570   3.755670   4.746977   4.901368   6.198454
    41  H    4.513027   5.636659   6.831747   7.154902   8.500518
    42  H    6.240459   7.174932   8.460843   8.964431  10.329666
                   21         22         23         24         25
    21  O    0.000000
    22  C    2.381704   0.000000
    23  C    3.598424   1.336080   0.000000
    24  C    7.204708   7.000655   6.538681   0.000000
    25  C    8.510165   8.315874   7.803929   1.373485   0.000000
    26  C    8.967342   8.966361   8.541078   2.432342   1.422793
    27  C   10.366233  10.352634   9.886209   3.737899   2.488676
    28  H   18.620133  19.025016  18.686807  12.503193  11.243036
    29  H   18.484984  18.928286  18.604139  12.217470  10.964846
    30  H   16.104640  16.472036  16.124989   9.744968   8.486367
    31  H   15.017115  15.201859  14.803172   9.295877   8.131818
    32  H   12.767845  12.817271  12.380501   7.166784   6.103502
    33  H   11.012606  11.421837  11.202495   6.127000   5.330529
    34  H    8.600427   9.144502   9.064529   4.864761   4.618386
    35  H    4.684148   5.700669   5.996935   3.741498   4.732150
    36  H    2.311077   3.965618   4.739359   5.638606   6.844138
    37  H    2.590001   1.085915   2.121384   8.077083   9.397186
    38  H    3.968422   2.116457   1.085158   5.513395   6.754512
    39  H    4.490796   2.112136   1.086213   7.332922   8.553765
    40  H    7.062312   6.674264   6.141160   1.085328   2.150722
    41  H    9.330452   9.000868   8.399118   2.135927   1.086237
    42  H   11.073619  10.936280  10.388643   4.106845   2.740472
                   26         27         28         29         30
    26  C    0.000000
    27  C    1.415400   0.000000
    28  H   10.203109   8.892298   0.000000
    29  H   10.078465   8.806940   1.860131   0.000000
    30  H    7.593977   6.322024   3.087497   2.488736   0.000000
    31  H    6.870336   5.660641   4.868297   5.938337   4.418743
    32  H    4.813593   3.798389   7.076467   7.786598   5.715108
    33  H    3.908206   3.406895   8.072270   8.526083   6.344526
    34  H    3.441201   3.894827  10.434030  10.717147   8.447456
    35  H    4.887826   6.200634  14.068747  13.847705  11.501717
    36  H    7.149654   8.514908  16.487514  16.311418  13.971108
    37  H   10.036226  11.423920  20.061340  19.972292  17.522524
    38  H    7.515496   8.847197  17.677888  17.587439  15.104111
    39  H    9.332441  10.639967  19.472926  19.409275  16.923286
    40  H    3.426883   4.634976  13.332999  12.958187  10.502376
    41  H    2.169027   2.722126  11.121255  10.741935   8.294094
    42  H    2.175230   1.085643   8.703639   8.497276   6.030170
                   31         32         33         34         35
    31  H    0.000000
    32  H    2.475754   0.000000
    33  H    4.108971   2.410719   0.000000
    34  H    6.559762   4.556309   2.471859   0.000000
    35  H   10.864484   8.830376   6.909351   4.728309   0.000000
    36  H   13.098478  10.967514   9.060489   6.686932   2.482326
    37  H   16.214697  13.829920  12.401459  10.084336   6.587411
    38  H   13.825896  11.408196  10.294913   8.241213   5.375028
    39  H   15.525277  13.080834  12.033364   9.957125   7.063351
    40  H   10.258185   8.151939   7.200190   5.926747   4.123024
    41  H    8.283456   6.403324   5.952630   5.568396   5.677809
    42  H    5.839183   4.230098   4.293490   4.980228   6.969294
                   36         37         38         39         40
    36  H    0.000000
    37  H    4.608295   0.000000
    38  H    4.557745   3.090512   0.000000
    39  H    5.808544   2.470796   1.855685   0.000000
    40  H    5.711552   7.736522   5.127241   6.877941   0.000000
    41  H    7.740501  10.080691   7.336713   9.076504   2.486403
    42  H    9.272831  12.018282   9.325394  11.090879   4.829741
                   41         42
    41  H    0.000000
    42  H    2.523759   0.000000
 Symmetry turned off by external request.
 Stoichiometry    C20H15FO6
 Framework group  C1[X(C20H15FO6)]
 Deg. of freedom   120
 Full point group                 C1      NOp   1
 Rotational constants (GHZ):           0.8172329           0.0431101           0.0426229
 Leave Link  202 at Sat Nov  5 11:47:42 2022, MaxMem=   402653184 cpu:               0.3 elap:               0.1
 (Enter /home/wykgroup/appl/g16/l301.exe)
 Standard basis: 6-31G(d) (6D, 10F)
 Ernie: Thresh=  0.10000D-02 Tol=  0.10000D-05 Strict=F.
 AO basis set in the form of general basis input (Overlap normalization):
      1 0
 S   6 1.00       0.000000000000
      0.3047524880D+04  0.1834737132D-02
      0.4573695180D+03  0.1403732281D-01
      0.1039486850D+03  0.6884262226D-01
      0.2921015530D+02  0.2321844432D+00
      0.9286662960D+01  0.4679413484D+00
      0.3163926960D+01  0.3623119853D+00
 SP   3 1.00       0.000000000000
      0.7868272350D+01 -0.1193324198D+00  0.6899906659D-01
      0.1881288540D+01 -0.1608541517D+00  0.3164239610D+00
      0.5442492580D+00  0.1143456438D+01  0.7443082909D+00
 SP   1 1.00       0.000000000000
      0.1687144782D+00  0.1000000000D+01  0.1000000000D+01
 D   1 1.00       0.000000000000
      0.8000000000D+00  0.1000000000D+01
 ****
      2 0
 S   6 1.00       0.000000000000
      0.3047524880D+04  0.1834737132D-02
      0.4573695180D+03  0.1403732281D-01
      0.1039486850D+03  0.6884262226D-01
      0.2921015530D+02  0.2321844432D+00
      0.9286662960D+01  0.4679413484D+00
      0.3163926960D+01  0.3623119853D+00
 SP   3 1.00       0.000000000000
      0.7868272350D+01 -0.1193324198D+00  0.6899906659D-01
      0.1881288540D+01 -0.1608541517D+00  0.3164239610D+00
      0.5442492580D+00  0.1143456438D+01  0.7443082909D+00
 SP   1 1.00       0.000000000000
      0.1687144782D+00  0.1000000000D+01  0.1000000000D+01
 D   1 1.00       0.000000000000
      0.8000000000D+00  0.1000000000D+01
 ****
      3 0
 S   6 1.00       0.000000000000
      0.3047524880D+04  0.1834737132D-02
      0.4573695180D+03  0.1403732281D-01
      0.1039486850D+03  0.6884262226D-01
      0.2921015530D+02  0.2321844432D+00
      0.9286662960D+01  0.4679413484D+00
      0.3163926960D+01  0.3623119853D+00
 SP   3 1.00       0.000000000000
      0.7868272350D+01 -0.1193324198D+00  0.6899906659D-01
      0.1881288540D+01 -0.1608541517D+00  0.3164239610D+00
      0.5442492580D+00  0.1143456438D+01  0.7443082909D+00
 SP   1 1.00       0.000000000000
      0.1687144782D+00  0.1000000000D+01  0.1000000000D+01
 D   1 1.00       0.000000000000
      0.8000000000D+00  0.1000000000D+01
 ****
      4 0
 S   6 1.00       0.000000000000
      0.5484671660D+04  0.1831074430D-02
      0.8252349460D+03  0.1395017220D-01
      0.1880469580D+03  0.6844507810D-01
      0.5296450000D+02  0.2327143360D+00
      0.1689757040D+02  0.4701928980D+00
      0.5799635340D+01  0.3585208530D+00
 SP   3 1.00       0.000000000000
      0.1553961625D+02 -0.1107775495D+00  0.7087426823D-01
      0.3599933586D+01 -0.1480262627D+00  0.3397528391D+00
      0.1013761750D+01  0.1130767015D+01  0.7271585773D+00
 SP   1 1.00       0.000000000000
      0.2700058226D+00  0.1000000000D+01  0.1000000000D+01
 D   1 1.00       0.000000000000
      0.8000000000D+00  0.1000000000D+01
 ****
      5 0
 S   6 1.00       0.000000000000
      0.5484671660D+04  0.1831074430D-02
      0.8252349460D+03  0.1395017220D-01
      0.1880469580D+03  0.6844507810D-01
      0.5296450000D+02  0.2327143360D+00
      0.1689757040D+02  0.4701928980D+00
      0.5799635340D+01  0.3585208530D+00
 SP   3 1.00       0.000000000000
      0.1553961625D+02 -0.1107775495D+00  0.7087426823D-01
      0.3599933586D+01 -0.1480262627D+00  0.3397528391D+00
      0.1013761750D+01  0.1130767015D+01  0.7271585773D+00
 SP   1 1.00       0.000000000000
      0.2700058226D+00  0.1000000000D+01  0.1000000000D+01
 D   1 1.00       0.000000000000
      0.8000000000D+00  0.1000000000D+01
 ****
      6 0
 S   6 1.00       0.000000000000
      0.3047524880D+04  0.1834737132D-02
      0.4573695180D+03  0.1403732281D-01
      0.1039486850D+03  0.6884262226D-01
      0.2921015530D+02  0.2321844432D+00
      0.9286662960D+01  0.4679413484D+00
      0.3163926960D+01  0.3623119853D+00
 SP   3 1.00       0.000000000000
      0.7868272350D+01 -0.1193324198D+00  0.6899906659D-01
      0.1881288540D+01 -0.1608541517D+00  0.3164239610D+00
      0.5442492580D+00  0.1143456438D+01  0.7443082909D+00
 SP   1 1.00       0.000000000000
      0.1687144782D+00  0.1000000000D+01  0.1000000000D+01
 D   1 1.00       0.000000000000
      0.8000000000D+00  0.1000000000D+01
 ****
      7 0
 S   6 1.00       0.000000000000
      0.3047524880D+04  0.1834737132D-02
      0.4573695180D+03  0.1403732281D-01
      0.1039486850D+03  0.6884262226D-01
      0.2921015530D+02  0.2321844432D+00
      0.9286662960D+01  0.4679413484D+00
      0.3163926960D+01  0.3623119853D+00
 SP   3 1.00       0.000000000000
      0.7868272350D+01 -0.1193324198D+00  0.6899906659D-01
      0.1881288540D+01 -0.1608541517D+00  0.3164239610D+00
      0.5442492580D+00  0.1143456438D+01  0.7443082909D+00
 SP   1 1.00       0.000000000000
      0.1687144782D+00  0.1000000000D+01  0.1000000000D+01
 D   1 1.00       0.000000000000
      0.8000000000D+00  0.1000000000D+01
 ****
      8 0
 S   6 1.00       0.000000000000
      0.5484671660D+04  0.1831074430D-02
      0.8252349460D+03  0.1395017220D-01
      0.1880469580D+03  0.6844507810D-01
      0.5296450000D+02  0.2327143360D+00
      0.1689757040D+02  0.4701928980D+00
      0.5799635340D+01  0.3585208530D+00
 SP   3 1.00       0.000000000000
      0.1553961625D+02 -0.1107775495D+00  0.7087426823D-01
      0.3599933586D+01 -0.1480262627D+00  0.3397528391D+00
      0.1013761750D+01  0.1130767015D+01  0.7271585773D+00
 SP   1 1.00       0.000000000000
      0.2700058226D+00  0.1000000000D+01  0.1000000000D+01
 D   1 1.00       0.000000000000
      0.8000000000D+00  0.1000000000D+01
 ****
      9 0
 S   6 1.00       0.000000000000
      0.3047524880D+04  0.1834737132D-02
      0.4573695180D+03  0.1403732281D-01
      0.1039486850D+03  0.6884262226D-01
      0.2921015530D+02  0.2321844432D+00
      0.9286662960D+01  0.4679413484D+00
      0.3163926960D+01  0.3623119853D+00
 SP   3 1.00       0.000000000000
      0.7868272350D+01 -0.1193324198D+00  0.6899906659D-01
      0.1881288540D+01 -0.1608541517D+00  0.3164239610D+00
      0.5442492580D+00  0.1143456438D+01  0.7443082909D+00
 SP   1 1.00       0.000000000000
      0.1687144782D+00  0.1000000000D+01  0.1000000000D+01
 D   1 1.00       0.000000000000
      0.8000000000D+00  0.1000000000D+01
 ****
     10 0
 S   6 1.00       0.000000000000
      0.3047524880D+04  0.1834737132D-02
      0.4573695180D+03  0.1403732281D-01
      0.1039486850D+03  0.6884262226D-01
      0.2921015530D+02  0.2321844432D+00
      0.9286662960D+01  0.4679413484D+00
      0.3163926960D+01  0.3623119853D+00
 SP   3 1.00       0.000000000000
      0.7868272350D+01 -0.1193324198D+00  0.6899906659D-01
      0.1881288540D+01 -0.1608541517D+00  0.3164239610D+00
      0.5442492580D+00  0.1143456438D+01  0.7443082909D+00
 SP   1 1.00       0.000000000000
      0.1687144782D+00  0.1000000000D+01  0.1000000000D+01
 D   1 1.00       0.000000000000
      0.8000000000D+00  0.1000000000D+01
 ****
     11 0
 S   6 1.00       0.000000000000
      0.3047524880D+04  0.1834737132D-02
      0.4573695180D+03  0.1403732281D-01
      0.1039486850D+03  0.6884262226D-01
      0.2921015530D+02  0.2321844432D+00
      0.9286662960D+01  0.4679413484D+00
      0.3163926960D+01  0.3623119853D+00
 SP   3 1.00       0.000000000000
      0.7868272350D+01 -0.1193324198D+00  0.6899906659D-01
      0.1881288540D+01 -0.1608541517D+00  0.3164239610D+00
      0.5442492580D+00  0.1143456438D+01  0.7443082909D+00
 SP   1 1.00       0.000000000000
      0.1687144782D+00  0.1000000000D+01  0.1000000000D+01
 D   1 1.00       0.000000000000
      0.8000000000D+00  0.1000000000D+01
 ****
     12 0
 S   6 1.00       0.000000000000
      0.3047524880D+04  0.1834737132D-02
      0.4573695180D+03  0.1403732281D-01
      0.1039486850D+03  0.6884262226D-01
      0.2921015530D+02  0.2321844432D+00
      0.9286662960D+01  0.4679413484D+00
      0.3163926960D+01  0.3623119853D+00
 SP   3 1.00       0.000000000000
      0.7868272350D+01 -0.1193324198D+00  0.6899906659D-01
      0.1881288540D+01 -0.1608541517D+00  0.3164239610D+00
      0.5442492580D+00  0.1143456438D+01  0.7443082909D+00
 SP   1 1.00       0.000000000000
      0.1687144782D+00  0.1000000000D+01  0.1000000000D+01
 D   1 1.00       0.000000000000
      0.8000000000D+00  0.1000000000D+01
 ****
     13 0
 S   6 1.00       0.000000000000
      0.3047524880D+04  0.1834737132D-02
      0.4573695180D+03  0.1403732281D-01
      0.1039486850D+03  0.6884262226D-01
      0.2921015530D+02  0.2321844432D+00
      0.9286662960D+01  0.4679413484D+00
      0.3163926960D+01  0.3623119853D+00
 SP   3 1.00       0.000000000000
      0.7868272350D+01 -0.1193324198D+00  0.6899906659D-01
      0.1881288540D+01 -0.1608541517D+00  0.3164239610D+00
      0.5442492580D+00  0.1143456438D+01  0.7443082909D+00
 SP   1 1.00       0.000000000000
      0.1687144782D+00  0.1000000000D+01  0.1000000000D+01
 D   1 1.00       0.000000000000
      0.8000000000D+00  0.1000000000D+01
 ****
     14 0
 S   6 1.00       0.000000000000
      0.7001713090D+04  0.1819616901D-02
      0.1051366090D+04  0.1391607961D-01
      0.2392856900D+03  0.6840532453D-01
      0.6739744530D+02  0.2331857601D+00
      0.2151995730D+02  0.4712674392D+00
      0.7403101300D+01  0.3566185462D+00
 SP   3 1.00       0.000000000000
      0.2084795280D+02 -0.1085069751D+00  0.7162872424D-01
      0.4808308340D+01 -0.1464516581D+00  0.3459121027D+00
      0.1344069860D+01  0.1128688581D+01  0.7224699564D+00
 SP   1 1.00       0.000000000000
      0.3581513930D+00  0.1000000000D+01  0.1000000000D+01
 D   1 1.00       0.000000000000
      0.8000000000D+00  0.1000000000D+01
 ****
     15 0
 S   6 1.00       0.000000000000
      0.3047524880D+04  0.1834737132D-02
      0.4573695180D+03  0.1403732281D-01
      0.1039486850D+03  0.6884262226D-01
      0.2921015530D+02  0.2321844432D+00
      0.9286662960D+01  0.4679413484D+00
      0.3163926960D+01  0.3623119853D+00
 SP   3 1.00       0.000000000000
      0.7868272350D+01 -0.1193324198D+00  0.6899906659D-01
      0.1881288540D+01 -0.1608541517D+00  0.3164239610D+00
      0.5442492580D+00  0.1143456438D+01  0.7443082909D+00
 SP   1 1.00       0.000000000000
      0.1687144782D+00  0.1000000000D+01  0.1000000000D+01
 D   1 1.00       0.000000000000
      0.8000000000D+00  0.1000000000D+01
 ****
     16 0
 S   6 1.00       0.000000000000
      0.5484671660D+04  0.1831074430D-02
      0.8252349460D+03  0.1395017220D-01
      0.1880469580D+03  0.6844507810D-01
      0.5296450000D+02  0.2327143360D+00
      0.1689757040D+02  0.4701928980D+00
      0.5799635340D+01  0.3585208530D+00
 SP   3 1.00       0.000000000000
      0.1553961625D+02 -0.1107775495D+00  0.7087426823D-01
      0.3599933586D+01 -0.1480262627D+00  0.3397528391D+00
      0.1013761750D+01  0.1130767015D+01  0.7271585773D+00
 SP   1 1.00       0.000000000000
      0.2700058226D+00  0.1000000000D+01  0.1000000000D+01
 D   1 1.00       0.000000000000
      0.8000000000D+00  0.1000000000D+01
 ****
     17 0
 S   6 1.00       0.000000000000
      0.3047524880D+04  0.1834737132D-02
      0.4573695180D+03  0.1403732281D-01
      0.1039486850D+03  0.6884262226D-01
      0.2921015530D+02  0.2321844432D+00
      0.9286662960D+01  0.4679413484D+00
      0.3163926960D+01  0.3623119853D+00
 SP   3 1.00       0.000000000000
      0.7868272350D+01 -0.1193324198D+00  0.6899906659D-01
      0.1881288540D+01 -0.1608541517D+00  0.3164239610D+00
      0.5442492580D+00  0.1143456438D+01  0.7443082909D+00
 SP   1 1.00       0.000000000000
      0.1687144782D+00  0.1000000000D+01  0.1000000000D+01
 D   1 1.00       0.000000000000
      0.8000000000D+00  0.1000000000D+01
 ****
     18 0
 S   6 1.00       0.000000000000
      0.3047524880D+04  0.1834737132D-02
      0.4573695180D+03  0.1403732281D-01
      0.1039486850D+03  0.6884262226D-01
      0.2921015530D+02  0.2321844432D+00
      0.9286662960D+01  0.4679413484D+00
      0.3163926960D+01  0.3623119853D+00
 SP   3 1.00       0.000000000000
      0.7868272350D+01 -0.1193324198D+00  0.6899906659D-01
      0.1881288540D+01 -0.1608541517D+00  0.3164239610D+00
      0.5442492580D+00  0.1143456438D+01  0.7443082909D+00
 SP   1 1.00       0.000000000000
      0.1687144782D+00  0.1000000000D+01  0.1000000000D+01
 D   1 1.00       0.000000000000
      0.8000000000D+00  0.1000000000D+01
 ****
     19 0
 S   6 1.00       0.000000000000
      0.5484671660D+04  0.1831074430D-02
      0.8252349460D+03  0.1395017220D-01
      0.1880469580D+03  0.6844507810D-01
      0.5296450000D+02  0.2327143360D+00
      0.1689757040D+02  0.4701928980D+00
      0.5799635340D+01  0.3585208530D+00
 SP   3 1.00       0.000000000000
      0.1553961625D+02 -0.1107775495D+00  0.7087426823D-01
      0.3599933586D+01 -0.1480262627D+00  0.3397528391D+00
      0.1013761750D+01  0.1130767015D+01  0.7271585773D+00
 SP   1 1.00       0.000000000000
      0.2700058226D+00  0.1000000000D+01  0.1000000000D+01
 D   1 1.00       0.000000000000
      0.8000000000D+00  0.1000000000D+01
 ****
     20 0
 S   6 1.00       0.000000000000
      0.3047524880D+04  0.1834737132D-02
      0.4573695180D+03  0.1403732281D-01
      0.1039486850D+03  0.6884262226D-01
      0.2921015530D+02  0.2321844432D+00
      0.9286662960D+01  0.4679413484D+00
      0.3163926960D+01  0.3623119853D+00
 SP   3 1.00       0.000000000000
      0.7868272350D+01 -0.1193324198D+00  0.6899906659D-01
      0.1881288540D+01 -0.1608541517D+00  0.3164239610D+00
      0.5442492580D+00  0.1143456438D+01  0.7443082909D+00
 SP   1 1.00       0.000000000000
      0.1687144782D+00  0.1000000000D+01  0.1000000000D+01
 D   1 1.00       0.000000000000
      0.8000000000D+00  0.1000000000D+01
 ****
     21 0
 S   6 1.00       0.000000000000
      0.5484671660D+04  0.1831074430D-02
      0.8252349460D+03  0.1395017220D-01
      0.1880469580D+03  0.6844507810D-01
      0.5296450000D+02  0.2327143360D+00
      0.1689757040D+02  0.4701928980D+00
      0.5799635340D+01  0.3585208530D+00
 SP   3 1.00       0.000000000000
      0.1553961625D+02 -0.1107775495D+00  0.7087426823D-01
      0.3599933586D+01 -0.1480262627D+00  0.3397528391D+00
      0.1013761750D+01  0.1130767015D+01  0.7271585773D+00
 SP   1 1.00       0.000000000000
      0.2700058226D+00  0.1000000000D+01  0.1000000000D+01
 D   1 1.00       0.000000000000
      0.8000000000D+00  0.1000000000D+01
 ****
     22 0
 S   6 1.00       0.000000000000
      0.3047524880D+04  0.1834737132D-02
      0.4573695180D+03  0.1403732281D-01
      0.1039486850D+03  0.6884262226D-01
      0.2921015530D+02  0.2321844432D+00
      0.9286662960D+01  0.4679413484D+00
      0.3163926960D+01  0.3623119853D+00
 SP   3 1.00       0.000000000000
      0.7868272350D+01 -0.1193324198D+00  0.6899906659D-01
      0.1881288540D+01 -0.1608541517D+00  0.3164239610D+00
      0.5442492580D+00  0.1143456438D+01  0.7443082909D+00
 SP   1 1.00       0.000000000000
      0.1687144782D+00  0.1000000000D+01  0.1000000000D+01
 D   1 1.00       0.000000000000
      0.8000000000D+00  0.1000000000D+01
 ****
     23 0
 S   6 1.00       0.000000000000
      0.3047524880D+04  0.1834737132D-02
      0.4573695180D+03  0.1403732281D-01
      0.1039486850D+03  0.6884262226D-01
      0.2921015530D+02  0.2321844432D+00
      0.9286662960D+01  0.4679413484D+00
      0.3163926960D+01  0.3623119853D+00
 SP   3 1.00       0.000000000000
      0.7868272350D+01 -0.1193324198D+00  0.6899906659D-01
      0.1881288540D+01 -0.1608541517D+00  0.3164239610D+00
      0.5442492580D+00  0.1143456438D+01  0.7443082909D+00
 SP   1 1.00       0.000000000000
      0.1687144782D+00  0.1000000000D+01  0.1000000000D+01
 D   1 1.00       0.000000000000
      0.8000000000D+00  0.1000000000D+01
 ****
     24 0
 S   6 1.00       0.000000000000
      0.3047524880D+04  0.1834737132D-02
      0.4573695180D+03  0.1403732281D-01
      0.1039486850D+03  0.6884262226D-01
      0.2921015530D+02  0.2321844432D+00
      0.9286662960D+01  0.4679413484D+00
      0.3163926960D+01  0.3623119853D+00
 SP   3 1.00       0.000000000000
      0.7868272350D+01 -0.1193324198D+00  0.6899906659D-01
      0.1881288540D+01 -0.1608541517D+00  0.3164239610D+00
      0.5442492580D+00  0.1143456438D+01  0.7443082909D+00
 SP   1 1.00       0.000000000000
      0.1687144782D+00  0.1000000000D+01  0.1000000000D+01
 D   1 1.00       0.000000000000
      0.8000000000D+00  0.1000000000D+01
 ****
     25 0
 S   6 1.00       0.000000000000
      0.3047524880D+04  0.1834737132D-02
      0.4573695180D+03  0.1403732281D-01
      0.1039486850D+03  0.6884262226D-01
      0.2921015530D+02  0.2321844432D+00
      0.9286662960D+01  0.4679413484D+00
      0.3163926960D+01  0.3623119853D+00
 SP   3 1.00       0.000000000000
      0.7868272350D+01 -0.1193324198D+00  0.6899906659D-01
      0.1881288540D+01 -0.1608541517D+00  0.3164239610D+00
      0.5442492580D+00  0.1143456438D+01  0.7443082909D+00
 SP   1 1.00       0.000000000000
      0.1687144782D+00  0.1000000000D+01  0.1000000000D+01
 D   1 1.00       0.000000000000
      0.8000000000D+00  0.1000000000D+01
 ****
     26 0
 S   6 1.00       0.000000000000
      0.3047524880D+04  0.1834737132D-02
      0.4573695180D+03  0.1403732281D-01
      0.1039486850D+03  0.6884262226D-01
      0.2921015530D+02  0.2321844432D+00
      0.9286662960D+01  0.4679413484D+00
      0.3163926960D+01  0.3623119853D+00
 SP   3 1.00       0.000000000000
      0.7868272350D+01 -0.1193324198D+00  0.6899906659D-01
      0.1881288540D+01 -0.1608541517D+00  0.3164239610D+00
      0.5442492580D+00  0.1143456438D+01  0.7443082909D+00
 SP   1 1.00       0.000000000000
      0.1687144782D+00  0.1000000000D+01  0.1000000000D+01
 D   1 1.00       0.000000000000
      0.8000000000D+00  0.1000000000D+01
 ****
     27 0
 S   6 1.00       0.000000000000
      0.3047524880D+04  0.1834737132D-02
      0.4573695180D+03  0.1403732281D-01
      0.1039486850D+03  0.6884262226D-01
      0.2921015530D+02  0.2321844432D+00
      0.9286662960D+01  0.4679413484D+00
      0.3163926960D+01  0.3623119853D+00
 SP   3 1.00       0.000000000000
      0.7868272350D+01 -0.1193324198D+00  0.6899906659D-01
      0.1881288540D+01 -0.1608541517D+00  0.3164239610D+00
      0.5442492580D+00  0.1143456438D+01  0.7443082909D+00
 SP   1 1.00       0.000000000000
      0.1687144782D+00  0.1000000000D+01  0.1000000000D+01
 D   1 1.00       0.000000000000
      0.8000000000D+00  0.1000000000D+01
 ****
     28 0
 S   3 1.00       0.000000000000
      0.1873113696D+02  0.3349460434D-01
      0.2825394365D+01  0.2347269535D+00
      0.6401216923D+00  0.8137573261D+00
 S   1 1.00       0.000000000000
      0.1612777588D+00  0.1000000000D+01
 ****
     29 0
 S   3 1.00       0.000000000000
      0.1873113696D+02  0.3349460434D-01
      0.2825394365D+01  0.2347269535D+00
      0.6401216923D+00  0.8137573261D+00
 S   1 1.00       0.000000000000
      0.1612777588D+00  0.1000000000D+01
 ****
     30 0
 S   3 1.00       0.000000000000
      0.1873113696D+02  0.3349460434D-01
      0.2825394365D+01  0.2347269535D+00
      0.6401216923D+00  0.8137573261D+00
 S   1 1.00       0.000000000000
      0.1612777588D+00  0.1000000000D+01
 ****
     31 0
 S   3 1.00       0.000000000000
      0.1873113696D+02  0.3349460434D-01
      0.2825394365D+01  0.2347269535D+00
      0.6401216923D+00  0.8137573261D+00
 S   1 1.00       0.000000000000
      0.1612777588D+00  0.1000000000D+01
 ****
     32 0
 S   3 1.00       0.000000000000
      0.1873113696D+02  0.3349460434D-01
      0.2825394365D+01  0.2347269535D+00
      0.6401216923D+00  0.8137573261D+00
 S   1 1.00       0.000000000000
      0.1612777588D+00  0.1000000000D+01
 ****
     33 0
 S   3 1.00       0.000000000000
      0.1873113696D+02  0.3349460434D-01
      0.2825394365D+01  0.2347269535D+00
      0.6401216923D+00  0.8137573261D+00
 S   1 1.00       0.000000000000
      0.1612777588D+00  0.1000000000D+01
 ****
     34 0
 S   3 1.00       0.000000000000
      0.1873113696D+02  0.3349460434D-01
      0.2825394365D+01  0.2347269535D+00
      0.6401216923D+00  0.8137573261D+00
 S   1 1.00       0.000000000000
      0.1612777588D+00  0.1000000000D+01
 ****
     35 0
 S   3 1.00       0.000000000000
      0.1873113696D+02  0.3349460434D-01
      0.2825394365D+01  0.2347269535D+00
      0.6401216923D+00  0.8137573261D+00
 S   1 1.00       0.000000000000
      0.1612777588D+00  0.1000000000D+01
 ****
     36 0
 S   3 1.00       0.000000000000
      0.1873113696D+02  0.3349460434D-01
      0.2825394365D+01  0.2347269535D+00
      0.6401216923D+00  0.8137573261D+00
 S   1 1.00       0.000000000000
      0.1612777588D+00  0.1000000000D+01
 ****
     37 0
 S   3 1.00       0.000000000000
      0.1873113696D+02  0.3349460434D-01
      0.2825394365D+01  0.2347269535D+00
      0.6401216923D+00  0.8137573261D+00
 S   1 1.00       0.000000000000
      0.1612777588D+00  0.1000000000D+01
 ****
     38 0
 S   3 1.00       0.000000000000
      0.1873113696D+02  0.3349460434D-01
      0.2825394365D+01  0.2347269535D+00
      0.6401216923D+00  0.8137573261D+00
 S   1 1.00       0.000000000000
      0.1612777588D+00  0.1000000000D+01
 ****
     39 0
 S   3 1.00       0.000000000000
      0.1873113696D+02  0.3349460434D-01
      0.2825394365D+01  0.2347269535D+00
      0.6401216923D+00  0.8137573261D+00
 S   1 1.00       0.000000000000
      0.1612777588D+00  0.1000000000D+01
 ****
     40 0
 S   3 1.00       0.000000000000
      0.1873113696D+02  0.3349460434D-01
      0.2825394365D+01  0.2347269535D+00
      0.6401216923D+00  0.8137573261D+00
 S   1 1.00       0.000000000000
      0.1612777588D+00  0.1000000000D+01
 ****
     41 0
 S   3 1.00       0.000000000000
      0.1873113696D+02  0.3349460434D-01
      0.2825394365D+01  0.2347269535D+00
      0.6401216923D+00  0.8137573261D+00
 S   1 1.00       0.000000000000
      0.1612777588D+00  0.1000000000D+01
 ****
     42 0
 S   3 1.00       0.000000000000
      0.1873113696D+02  0.3349460434D-01
      0.2825394365D+01  0.2347269535D+00
      0.6401216923D+00  0.8137573261D+00
 S   1 1.00       0.000000000000
      0.1612777588D+00  0.1000000000D+01
 ****

   435 basis functions,   816 primitive gaussians,   435 cartesian basis functions
    96 alpha electrons       96 beta electrons
       nuclear repulsion energy      2117.0798721612 Hartrees.
 IExCor=  402 DFT=T Ex+Corr=B3LYP ExCW=0 ScaHFX=  0.200000
 ScaDFX=  0.800000  0.720000  1.000000  0.810000 ScalE2=  1.000000  1.000000
 IRadAn=      5 IRanWt=     -1 IRanGd=            0 ICorTp=0 IEmpDi=  4
 NAtoms=   42 NActive=   42 NUniq=   42 SFac= 1.00D+00 NAtFMM=   60 NAOKFM=F Big=F
 Integral buffers will be    131072 words long.
 Regular integral format.
 Two-electron integral symmetry is turned off.
 Leave Link  301 at Sat Nov  5 11:47:42 2022, MaxMem=   402653184 cpu:               0.7 elap:               0.1
 (Enter /home/wykgroup/appl/g16/l302.exe)
 NPDir=0 NMtPBC=     1 NCelOv=     1 NCel=       1 NClECP=     1 NCelD=      1
         NCelK=      1 NCelE2=     1 NClLst=     1 CellRange=     0.0.
 One-electron integrals computed using PRISM.
 NBasis=   435 RedAO= T EigKep=  2.63D-04  NBF=   435
 NBsUse=   435 1.00D-06 EigRej= -1.00D+00 NBFU=   435
 Precomputing XC quadrature grid using
 IXCGrd= 4 IRadAn=           5 IRanWt=          -1 IRanGd=           0 AccXCQ= 0.00D+00.
 Generated NRdTot=       0 NPtTot=           0 NUsed=           0 NTot=          32
 NSgBfM=   400   400   400   400   400 MxSgAt=    42 MxSgA2=    42.
 Leave Link  302 at Sat Nov  5 11:47:44 2022, MaxMem=   402653184 cpu:              17.9 elap:               1.9
 (Enter /home/wykgroup/appl/g16/l303.exe)
 DipDrv:  MaxL=1.
 Leave Link  303 at Sat Nov  5 11:47:44 2022, MaxMem=   402653184 cpu:               1.5 elap:               0.2
 (Enter /home/wykgroup/appl/g16/l308.exe)
 Leave Link  308 at Sat Nov  5 11:47:44 2022, MaxMem=   402653184 cpu:               1.8 elap:               0.3
 (Enter /home/wykgroup/appl/g16/l401.exe)
 ExpMin= 1.61D-01 ExpMax= 7.00D+03 ExpMxC= 1.05D+03 IAcc=3 IRadAn=         5 AccDes= 0.00D+00
 Harris functional with IExCor=  402 and IRadAn=       5 diagonalized for initial guess.
 HarFok:  IExCor=  402 AccDes= 0.00D+00 IRadAn=         5 IDoV= 1 UseB2=F ITyADJ=14
 ICtDFT=  3500011 ScaDFX=  1.000000  1.000000  1.000000  1.000000
 FoFCou: FMM=F IPFlag=           0 FMFlag=      100000 FMFlg1=           0
         NFxFlg=           0 DoJE=T BraDBF=F KetDBF=T FulRan=T
         wScrn=  0.000000 ICntrl=       500 IOpCl=  0 I1Cent=   200000004 NGrid=           0
         NMat0=    1 NMatS0=      1 NMatT0=    0 NMatD0=    1 NMtDS0=    0 NMtDT0=    0
 Symmetry not used in FoFCou.
 Harris En= -1322.23605224482    
 JPrj=0 DoOrth=F DoCkMO=F.
 Leave Link  401 at Sat Nov  5 11:47:47 2022, MaxMem=   402653184 cpu:              22.5 elap:               2.9
 (Enter /home/wykgroup/appl/g16/l502.exe)
 Two-electron integral symmetry not used.
 Closed shell SCF:
 Using DIIS extrapolation, IDIIS=  1040.
 NGot=   402653184 LenX=   402265085 LenY=   402075419
 Requested convergence on RMS density matrix=1.00D-08 within  32 cycles.
 Requested convergence on MAX density matrix=1.00D-06.
 Requested convergence on             energy=1.00D-06.
 No special actions if energy rises.
 Fock matrices will be formed incrementally for  20 cycles.
 Integral accuracy reduced to 1.0D-05 until final iterations.

 Cycle   1  Pass 0  IDiag  1:
 FoFJK:  IHMeth= 1 ICntrl=       0 DoSepK=F KAlg= 0 I1Cent=           0 FoldK=F
 IRaf= 540000000 NMat=       1 IRICut=       1 DoRegI=T DoRafI=F ISym2E= 0 IDoP0=0 IntGTp=1.
 FoFCou: FMM=F IPFlag=           0 FMFlag=      100000 FMFlg1=           0
         NFxFlg=           0 DoJE=F BraDBF=F KetDBF=F FulRan=T
         wScrn=  0.000000 ICntrl=         0 IOpCl=  0 I1Cent=           0 NGrid=           0
         NMat0=    1 NMatS0=      1 NMatT0=    0 NMatD0=    1 NMtDS0=    0 NMtDT0=    0
 Symmetry not used in FoFCou.
 E= -1321.72071000778    
 DIIS: error= 2.25D-02 at cycle   1 NSaved=   1.
 NSaved= 1 IEnMin= 1 EnMin= -1321.72071000778     IErMin= 1 ErrMin= 2.25D-02
 ErrMax= 2.25D-02  0.00D+00 EMaxC= 1.00D-01 BMatC= 5.70D-01 BMatP= 5.70D-01
 IDIUse=3 WtCom= 7.75D-01 WtEn= 2.25D-01
 Coeff-Com:  0.100D+01
 Coeff-En:   0.100D+01
 Coeff:      0.100D+01
 Gap=     0.169 Goal=   None    Shift=    0.000
 GapD=    0.169 DampG=1.000 DampE=0.500 DampFc=0.5000 IDamp=-1.
 Damping current iteration by 5.00D-01
 RMSDP=3.82D-03 MaxDP=1.97D-01              OVMax= 2.33D-01

 Cycle   2  Pass 0  IDiag  1:
 RMSU=  1.88D-03    CP:  9.80D-01
 E= -1321.89391688609     Delta-E=       -0.173206878304 Rises=F Damp=T
 DIIS: error= 1.05D-02 at cycle   2 NSaved=   2.
 NSaved= 2 IEnMin= 2 EnMin= -1321.89391688609     IErMin= 2 ErrMin= 1.05D-02
 ErrMax= 1.05D-02  0.00D+00 EMaxC= 1.00D-01 BMatC= 8.64D-02 BMatP= 5.70D-01
 IDIUse=3 WtCom= 8.95D-01 WtEn= 1.05D-01
 Coeff-Com:  0.177D+00 0.823D+00
 Coeff-En:   0.273D+00 0.727D+00
 Coeff:      0.187D+00 0.813D+00
 Gap=     0.150 Goal=   None    Shift=    0.000
 RMSDP=1.41D-03 MaxDP=6.48D-02 DE=-1.73D-01 OVMax= 1.78D-01

 Cycle   3  Pass 0  IDiag  1:
 RMSU=  1.36D-03    CP:  9.69D-01  8.41D-01
 E= -1322.15435633783     Delta-E=       -0.260439451740 Rises=F Damp=F
 DIIS: error= 1.48D-02 at cycle   3 NSaved=   3.
 NSaved= 3 IEnMin= 3 EnMin= -1322.15435633783     IErMin= 2 ErrMin= 1.05D-02
 ErrMax= 1.48D-02  0.00D+00 EMaxC= 1.00D-01 BMatC= 1.04D-01 BMatP= 8.64D-02
 IDIUse=2 WtCom= 0.00D+00 WtEn= 1.00D+00
 Coeff-En:   0.000D+00 0.000D+00 0.100D+01
 Coeff:      0.000D+00 0.000D+00 0.100D+01
 Gap=     0.157 Goal=   None    Shift=    0.000
 RMSDP=2.12D-03 MaxDP=1.47D-01 DE=-2.60D-01 OVMax= 1.96D-01

 Cycle   4  Pass 0  IDiag  1:
 RMSU=  1.08D-03    CP:  9.74D-01  1.29D+00 -1.87D-01
 E= -1321.74540562440     Delta-E=        0.408950713425 Rises=F Damp=F
 DIIS: error= 3.70D-02 at cycle   4 NSaved=   4.
 NSaved= 4 IEnMin= 3 EnMin= -1322.15435633783     IErMin= 2 ErrMin= 1.05D-02
 ErrMax= 3.70D-02  0.00D+00 EMaxC= 1.00D-01 BMatC= 6.18D-01 BMatP= 8.64D-02
 IDIUse=2 WtCom= 0.00D+00 WtEn= 1.00D+00
 Coeff-En:   0.000D+00 0.000D+00 0.796D+00 0.204D+00
 Coeff:      0.000D+00 0.000D+00 0.796D+00 0.204D+00
 Gap=     0.204 Goal=   None    Shift=    0.000
 RMSDP=1.12D-03 MaxDP=7.91D-02 DE= 4.09D-01 OVMax= 9.35D-02

 Cycle   5  Pass 0  IDiag  1:
 RMSU=  2.02D-04    CP:  9.73D-01  9.83D-01  3.83D-01  5.08D-01
 E= -1322.20760178506     Delta-E=       -0.462196160660 Rises=F Damp=F
 DIIS: error= 9.27D-03 at cycle   5 NSaved=   5.
 NSaved= 5 IEnMin= 5 EnMin= -1322.20760178506     IErMin= 5 ErrMin= 9.27D-03
 ErrMax= 9.27D-03  0.00D+00 EMaxC= 1.00D-01 BMatC= 4.23D-02 BMatP= 8.64D-02
 IDIUse=3 WtCom= 9.07D-01 WtEn= 9.27D-02
 Coeff-Com:  0.191D-02 0.238D-01 0.338D+00-0.491D-01 0.686D+00
 Coeff-En:   0.000D+00 0.000D+00 0.330D+00 0.000D+00 0.670D+00
 Coeff:      0.173D-02 0.216D-01 0.337D+00-0.446D-01 0.684D+00
 Gap=     0.146 Goal=   None    Shift=    0.000
 RMSDP=4.32D-04 MaxDP=2.49D-02 DE=-4.62D-01 OVMax= 3.64D-02

 Cycle   6  Pass 0  IDiag  1:
 RMSU=  8.36D-05    CP:  9.72D-01  9.08D-01  6.28D-01  3.20D-01  5.83D-01
 E= -1322.24236135741     Delta-E=       -0.034759572352 Rises=F Damp=F
 DIIS: error= 7.73D-04 at cycle   6 NSaved=   6.
 NSaved= 6 IEnMin= 6 EnMin= -1322.24236135741     IErMin= 6 ErrMin= 7.73D-04
 ErrMax= 7.73D-04  0.00D+00 EMaxC= 1.00D-01 BMatC= 5.37D-04 BMatP= 4.23D-02
 IDIUse=3 WtCom= 9.92D-01 WtEn= 7.73D-03
 Coeff-Com: -0.392D-02 0.136D-01 0.161D+00-0.562D-01 0.453D+00 0.432D+00
 Coeff-En:   0.000D+00 0.000D+00 0.000D+00 0.000D+00 0.000D+00 0.100D+01
 Coeff:     -0.389D-02 0.135D-01 0.160D+00-0.558D-01 0.450D+00 0.437D+00
 Gap=     0.147 Goal=   None    Shift=    0.000
 RMSDP=6.33D-05 MaxDP=3.68D-03 DE=-3.48D-02 OVMax= 9.78D-03

 Cycle   7  Pass 0  IDiag  1:
 RMSU=  2.41D-05    CP:  9.72D-01  9.17D-01  6.13D-01  3.19D-01  7.29D-01
                    CP:  4.90D-01
 E= -1322.24291466219     Delta-E=       -0.000553304779 Rises=F Damp=F
 DIIS: error= 1.65D-04 at cycle   7 NSaved=   7.
 NSaved= 7 IEnMin= 7 EnMin= -1322.24291466219     IErMin= 7 ErrMin= 1.65D-04
 ErrMax= 1.65D-04  0.00D+00 EMaxC= 1.00D-01 BMatC= 2.12D-05 BMatP= 5.37D-04
 IDIUse=3 WtCom= 9.98D-01 WtEn= 1.65D-03
 Coeff-Com: -0.192D-02 0.561D-02 0.589D-01-0.264D-01 0.181D+00 0.219D+00
 Coeff-Com:  0.564D+00
 Coeff-En:   0.000D+00 0.000D+00 0.000D+00 0.000D+00 0.000D+00 0.000D+00
 Coeff-En:   0.100D+01
 Coeff:     -0.192D-02 0.560D-02 0.588D-01-0.263D-01 0.181D+00 0.219D+00
 Coeff:      0.564D+00
 Gap=     0.147 Goal=   None    Shift=    0.000
 RMSDP=1.36D-05 MaxDP=7.96D-04 DE=-5.53D-04 OVMax= 1.69D-03

 Cycle   8  Pass 0  IDiag  1:
 RMSU=  8.10D-06    CP:  9.72D-01  9.16D-01  6.16D-01  3.18D-01  7.28D-01
                    CP:  5.36D-01  6.14D-01
 E= -1322.24293302207     Delta-E=       -0.000018359880 Rises=F Damp=F
 DIIS: error= 5.92D-05 at cycle   8 NSaved=   8.
 NSaved= 8 IEnMin= 8 EnMin= -1322.24293302207     IErMin= 8 ErrMin= 5.92D-05
 ErrMax= 5.92D-05  0.00D+00 EMaxC= 1.00D-01 BMatC= 3.52D-06 BMatP= 2.12D-05
 IDIUse=1 WtCom= 1.00D+00 WtEn= 0.00D+00
 Coeff-Com: -0.313D-03 0.641D-03 0.142D-01-0.735D-02 0.440D-01 0.703D-01
 Coeff-Com:  0.334D+00 0.544D+00
 Coeff:     -0.313D-03 0.641D-03 0.142D-01-0.735D-02 0.440D-01 0.703D-01
 Coeff:      0.334D+00 0.544D+00
 Gap=     0.147 Goal=   None    Shift=    0.000
 RMSDP=4.95D-06 MaxDP=2.97D-04 DE=-1.84D-05 OVMax= 6.64D-04

 Initial convergence to 1.0D-05 achieved.  Increase integral accuracy.
 Cycle   9  Pass 1  IDiag  1:
 E= -1322.24292064796     Delta-E=        0.000012374107 Rises=F Damp=F
 DIIS: error= 6.51D-05 at cycle   1 NSaved=   1.
 NSaved= 1 IEnMin= 1 EnMin= -1322.24292064796     IErMin= 1 ErrMin= 6.51D-05
 ErrMax= 6.51D-05  0.00D+00 EMaxC= 1.00D-01 BMatC= 9.91D-07 BMatP= 9.91D-07
 IDIUse=1 WtCom= 1.00D+00 WtEn= 0.00D+00
 Coeff-Com:  0.100D+01
 Coeff:      0.100D+01
 Gap=     0.147 Goal=   None    Shift=    0.000
 RMSDP=4.95D-06 MaxDP=2.97D-04 DE= 1.24D-05 OVMax= 4.91D-04

 Cycle  10  Pass 1  IDiag  1:
 RMSU=  3.42D-05    CP:  1.00D+00
 E= -1322.24292037722     Delta-E=        0.000000270747 Rises=F Damp=F
 DIIS: error= 4.47D-05 at cycle   2 NSaved=   2.
 NSaved= 2 IEnMin= 1 EnMin= -1322.24292064796     IErMin= 2 ErrMin= 4.47D-05
 ErrMax= 4.47D-05  0.00D+00 EMaxC= 1.00D-01 BMatC= 1.12D-06 BMatP= 9.91D-07
 IDIUse=1 WtCom= 1.00D+00 WtEn= 0.00D+00
 Coeff-Com:  0.520D+00 0.480D+00
 Coeff:      0.520D+00 0.480D+00
 Gap=     0.147 Goal=   None    Shift=    0.000
 RMSDP=3.89D-06 MaxDP=1.96D-04 DE= 2.71D-07 OVMax= 5.91D-04

 Cycle  11  Pass 1  IDiag  1:
 RMSU=  3.88D-06    CP:  1.00D+00  9.93D-01
 E= -1322.24292127057     Delta-E=       -0.000000893348 Rises=F Damp=F
 DIIS: error= 2.37D-05 at cycle   3 NSaved=   3.
 NSaved= 3 IEnMin= 3 EnMin= -1322.24292127057     IErMin= 3 ErrMin= 2.37D-05
 ErrMax= 2.37D-05  0.00D+00 EMaxC= 1.00D-01 BMatC= 2.57D-07 BMatP= 9.91D-07
 IDIUse=1 WtCom= 1.00D+00 WtEn= 0.00D+00
 Coeff-Com:  0.352D-01 0.321D+00 0.644D+00
 Coeff:      0.352D-01 0.321D+00 0.644D+00
 Gap=     0.147 Goal=   None    Shift=    0.000
 RMSDP=1.50D-06 MaxDP=6.95D-05 DE=-8.93D-07 OVMax= 2.18D-04

 Cycle  12  Pass 1  IDiag  1:
 RMSU=  5.29D-07    CP:  1.00D+00  1.00D+00  6.48D-01
 E= -1322.24292153250     Delta-E=       -0.000000261938 Rises=F Damp=F
 DIIS: error= 3.77D-06 at cycle   4 NSaved=   4.
 NSaved= 4 IEnMin= 4 EnMin= -1322.24292153250     IErMin= 4 ErrMin= 3.77D-06
 ErrMax= 3.77D-06  0.00D+00 EMaxC= 1.00D-01 BMatC= 2.45D-08 BMatP= 2.57D-07
 IDIUse=1 WtCom= 1.00D+00 WtEn= 0.00D+00
 Coeff-Com: -0.156D-02 0.181D+00 0.405D+00 0.416D+00
 Coeff:     -0.156D-02 0.181D+00 0.405D+00 0.416D+00
 Gap=     0.147 Goal=   None    Shift=    0.000
 RMSDP=3.36D-07 MaxDP=2.15D-05 DE=-2.62D-07 OVMax= 3.56D-05

 Cycle  13  Pass 1  IDiag  1:
 RMSU=  1.18D-07    CP:  1.00D+00  1.00D+00  6.82D-01  4.62D-01
 E= -1322.24292155417     Delta-E=       -0.000000021663 Rises=F Damp=F
 DIIS: error= 7.35D-07 at cycle   5 NSaved=   5.
 NSaved= 5 IEnMin= 5 EnMin= -1322.24292155417     IErMin= 5 ErrMin= 7.35D-07
 ErrMax= 7.35D-07  0.00D+00 EMaxC= 1.00D-01 BMatC= 4.82D-10 BMatP= 2.45D-08
 IDIUse=1 WtCom= 1.00D+00 WtEn= 0.00D+00
 Coeff-Com: -0.191D-02 0.935D-01 0.211D+00 0.238D+00 0.459D+00
 Coeff:     -0.191D-02 0.935D-01 0.211D+00 0.238D+00 0.459D+00
 Gap=     0.147 Goal=   None    Shift=    0.000
 RMSDP=5.87D-08 MaxDP=3.53D-06 DE=-2.17D-08 OVMax= 5.03D-06

 Cycle  14  Pass 1  IDiag  1:
 RMSU=  4.00D-08    CP:  1.00D+00  1.00D+00  6.81D-01  4.61D-01  6.38D-01
 E= -1322.24292155458     Delta-E=       -0.000000000410 Rises=F Damp=F
 DIIS: error= 2.08D-07 at cycle   6 NSaved=   6.
 NSaved= 6 IEnMin= 6 EnMin= -1322.24292155458     IErMin= 6 ErrMin= 2.08D-07
 ErrMax= 2.08D-07  0.00D+00 EMaxC= 1.00D-01 BMatC= 3.51D-11 BMatP= 4.82D-10
 IDIUse=1 WtCom= 1.00D+00 WtEn= 0.00D+00
 Coeff-Com: -0.106D-02 0.449D-01 0.101D+00 0.117D+00 0.273D+00 0.465D+00
 Coeff:     -0.106D-02 0.449D-01 0.101D+00 0.117D+00 0.273D+00 0.465D+00
 Gap=     0.147 Goal=   None    Shift=    0.000
 RMSDP=1.65D-08 MaxDP=8.95D-07 DE=-4.10D-10 OVMax= 2.12D-06

 Cycle  15  Pass 1  IDiag  1:
 RMSU=  1.48D-08    CP:  1.00D+00  1.00D+00  6.80D-01  4.61D-01  6.67D-01
                    CP:  8.50D-01
 E= -1322.24292155462     Delta-E=       -0.000000000042 Rises=F Damp=F
 DIIS: error= 1.02D-07 at cycle   7 NSaved=   7.
 NSaved= 7 IEnMin= 7 EnMin= -1322.24292155462     IErMin= 7 ErrMin= 1.02D-07
 ErrMax= 1.02D-07  0.00D+00 EMaxC= 1.00D-01 BMatC= 4.00D-12 BMatP= 3.51D-11
 IDIUse=1 WtCom= 1.00D+00 WtEn= 0.00D+00
 Coeff-Com: -0.141D-03 0.391D-02 0.823D-02 0.120D-01 0.430D-01 0.252D+00
 Coeff-Com:  0.681D+00
 Coeff:     -0.141D-03 0.391D-02 0.823D-02 0.120D-01 0.430D-01 0.252D+00
 Coeff:      0.681D+00
 Gap=     0.147 Goal=   None    Shift=    0.000
 RMSDP=7.00D-09 MaxDP=4.80D-07 DE=-4.18D-11 OVMax= 1.40D-06

 SCF Done:  E(RB3LYP) =  -1322.24292155     A.U. after   15 cycles
            NFock= 15  Conv=0.70D-08     -V/T= 2.0090
 KE= 1.310429803458D+03 PE=-7.321335737075D+03 EE= 2.571583139902D+03
 Leave Link  502 at Sat Nov  5 11:48:30 2022, MaxMem=   402653184 cpu:             449.1 elap:              43.2
 (Enter /home/wykgroup/appl/g16/l508.exe)
 QCSCF skips out because SCF is already converged.
 Leave Link  508 at Sat Nov  5 11:48:31 2022, MaxMem=   402653184 cpu:               0.5 elap:               0.1
 (Enter /home/wykgroup/appl/g16/l801.exe)
 DoSCS=F DFT=T ScalE2(SS,OS)=  1.000000  1.000000
 ExpMin= 1.61D-01 ExpMax= 7.00D+03 ExpMxC= 1.05D+03 IAcc=3 IRadAn=         5 AccDes= 0.00D+00
 HarFok:  IExCor=  205 AccDes= 0.00D+00 IRadAn=         5 IDoV=-2 UseB2=F ITyADJ=14
 ICtDFT= 12500011 ScaDFX=  1.000000  1.000000  1.000000  1.000000
 GSVD:  LWork=        -945 too small for GESVD, short by        4050 words or        4050 for optimal perf.
 Largest valence mixing into a core orbital is  5.86D-05
 Largest core mixing into a valence orbital is  1.21D-05
 Range of M.O.s used for correlation:    28   435
 NBasis=   435 NAE=    96 NBE=    96 NFC=    27 NFV=     0
 NROrb=    408 NOA=    69 NOB=    69 NVA=   339 NVB=   339

 **** Warning!!: The largest alpha MO coefficient is  0.14269129D+02

 Leave Link  801 at Sat Nov  5 11:48:31 2022, MaxMem=   402653184 cpu:               3.1 elap:               0.3
 (Enter /home/wykgroup/appl/g16/l914.exe)
 RHF ground state
 Two-electron integral symmetry not used.
 MDV=   402653184 DFT=T DoStab=F Mixed=T DoRPA=T DoScal=F NonHer=T
 Making orbital integer symmetry assigments:
    16 initial guesses have been made.
 Convergence on wavefunction:    0.001000000000000
 Davidson Disk Diagonalization:  ConvIn= 1.00D-03 SkipCon=T Conv= 1.00D-03.
 Max sub-space:  2000 roots to seek:    16 dimension of matrix:        46782
 Iteration     1 Dimension    16 NMult     0 NNew     16
 CISAX will form    16 AO SS matrices at one time.
 NMat=    16 NSing=     8 JSym2X= 0.
 FoFJK:  IHMeth= 1 ICntrl=       0 DoSepK=F KAlg= 0 I1Cent=           0 FoldK=F
 IRaf= 540000000 NMat=      32 IRICut=       1 DoRegI=T DoRafI=F ISym2E= 0 IDoP0=0 IntGTp=1.
 FoFCou: FMM=F IPFlag=           0 FMFlag=      100000 FMFlg1=           0
         NFxFlg=           0 DoJE=F BraDBF=F KetDBF=F FulRan=T
         wScrn=  0.000000 ICntrl=         0 IOpCl=  0 I1Cent=           0 NGrid=           0
         NMat0=   32 NMatS0=      8 NMatT0=    8 NMatD0=   32 NMtDS0=    0 NMtDT0=    0
 Symmetry not used in FoFCou.
 New state      1 was old state      6
 New state      3 was old state      4
 New state      4 was old state      1
 New state      5 was old state      3
 New state      6 was old state      8
 New state      7 was old state     10
 New state      8 was old state      5
 Excitation Energies [eV] at current iteration:
 Root      1 :     3.084698601270902
 Root      2 :     3.483440691591256
 Root      3 :     3.489919781450508
 Root      4 :     3.709024460412704
 Root      5 :     3.814461918316993
 Root      6 :     4.049049353569897
 Root      7 :     4.125117530437280
 Root      8 :     4.162964809113434
 Root      9 :     4.185490984720420
 Root     10 :     4.397171915944127
 Root     11 :     4.420893705735351
 Root     12 :     4.440491060046598
 Root     13 :     4.511158937774128
 Root     14 :     4.610492582600022
 Root     15 :     4.666653038123515
 Root     16 :     4.858942900268760
 Vector   3 SDiff=5.75D+00 TDiff=1.02D+01 assumed to be singlet.
 Vector   7 SDiff=5.82D+00 TDiff=9.25D+00 assumed to be singlet.
 Iteration     2 Dimension    24 NMult    16 NNew      8
 CISAX will form     8 AO SS matrices at one time.
 NMat=     8 NSing=     4 JSym2X= 0.
 Root      1 not converged, maximum delta is    0.286437209208236
 Root      2 not converged, maximum delta is    0.104675064298787
 New state      3 was old state      4
 Root      3 not converged, maximum delta is    0.076029100649511
 New state      4 was old state      5
 Root      4 not converged, maximum delta is    0.114085610518920
 Excitation Energies [eV] at current iteration:
 Root      1 :     2.678046251635432   Change is   -0.406652349635471
 Root      2 :     3.302871761687415   Change is   -0.180568929903841
 Root      3 :     3.644845074528045   Change is   -0.064179385884659
 Root      4 :     3.730800672175327   Change is   -0.083661246141666
 Iteration     3 Dimension    32 NMult    24 NNew      8
 CISAX will form     8 AO SS matrices at one time.
 NMat=     8 NSing=     4 JSym2X= 0.
 Root      1 not converged, maximum delta is    0.092185379274254
 Root      2 not converged, maximum delta is    0.056483277825188
 Root      3 not converged, maximum delta is    0.041237414096467
 Root      4 not converged, maximum delta is    0.018029974604750
 Excitation Energies [eV] at current iteration:
 Root      1 :     2.589086270783830   Change is   -0.088959980851601
 Root      2 :     3.247253642433150   Change is   -0.055618119254265
 Root      3 :     3.635143174083832   Change is   -0.009701900444213
 Root      4 :     3.718982852260655   Change is   -0.011817819914672
 Iteration     4 Dimension    40 NMult    32 NNew      8
 CISAX will form     8 AO SS matrices at one time.
 NMat=     8 NSing=     4 JSym2X= 0.
 Root      1 not converged, maximum delta is    0.012487878827080
 Root      2 not converged, maximum delta is    0.033915797289597
 Root      3 not converged, maximum delta is    0.050541606196539
 Root      4 not converged, maximum delta is    0.025412897824393
 Excitation Energies [eV] at current iteration:
 Root      1 :     2.582166788498822   Change is   -0.006919482285009
 Root      2 :     3.232255661330821   Change is   -0.014997981102328
 Root      3 :     3.630865703958214   Change is   -0.004277470125618
 Root      4 :     3.717067393711628   Change is   -0.001915458549027
 Iteration     5 Dimension    48 NMult    40 NNew      8
 CISAX will form     8 AO SS matrices at one time.
 NMat=     8 NSing=     4 JSym2X= 0.
 Root      1 not converged, maximum delta is    0.002083012812790
 Root      2 not converged, maximum delta is    0.026929531889348
 Root      3 not converged, maximum delta is    0.025275980084429
 Root      4 not converged, maximum delta is    0.025188692602181
 Excitation Energies [eV] at current iteration:
 Root      1 :     2.581799681009960   Change is   -0.000367107488862
 Root      2 :     3.227292135147433   Change is   -0.004963526183388
 Root      3 :     3.629526406892783   Change is   -0.001339297065432
 Root      4 :     3.716497107674060   Change is   -0.000570286037569
 Iteration     6 Dimension    56 NMult    48 NNew      8
 CISAX will form     8 AO SS matrices at one time.
 NMat=     8 NSing=     4 JSym2X= 0.
 Root      1 has converged.
 Root      2 not converged, maximum delta is    0.028497784914616
 Root      3 not converged, maximum delta is    0.013019058841797
 Root      4 not converged, maximum delta is    0.020167584009307
 Excitation Energies [eV] at current iteration:
 Root      1 :     2.581779524908537   Change is   -0.000020156101423
 Root      2 :     3.224612777088601   Change is   -0.002679358058832
 Root      3 :     3.629128398138484   Change is   -0.000398008754299
 Root      4 :     3.716263632734288   Change is   -0.000233474939771
 Iteration     7 Dimension    62 NMult    56 NNew      6
 CISAX will form     6 AO SS matrices at one time.
 NMat=     6 NSing=     4 JSym2X= 0.
 Root      1 has converged.
 Root      2 not converged, maximum delta is    0.016372345150878
 Root      3 not converged, maximum delta is    0.003921216739451
 Root      4 not converged, maximum delta is    0.012201662056033
 Excitation Energies [eV] at current iteration:
 Root      1 :     2.581779520967238   Change is   -0.000000003941299
 Root      2 :     3.223415897938151   Change is   -0.001196879150450
 Root      3 :     3.629010653947616   Change is   -0.000117744190868
 Root      4 :     3.716162203373249   Change is   -0.000101429361039
 Iteration     8 Dimension    68 NMult    62 NNew      6
 CISAX will form     6 AO SS matrices at one time.
 NMat=     6 NSing=     4 JSym2X= 0.
 Root      1 has converged.
 Root      2 not converged, maximum delta is    0.004096656780899
 Root      3 has converged.
 Root      4 not converged, maximum delta is    0.003120970868735
 Excitation Energies [eV] at current iteration:
 Root      1 :     2.581779447823684   Change is   -0.000000073143555
 Root      2 :     3.223254186019968   Change is   -0.000161711918182
 Root      3 :     3.628996976815149   Change is   -0.000013677132467
 Root      4 :     3.716144602661939   Change is   -0.000017600711310
 Iteration     9 Dimension    72 NMult    68 NNew      4
 CISAX will form     4 AO SS matrices at one time.
 NMat=     4 NSing=     2 JSym2X= 0.
 Root      1 has converged.
 Root      2 not converged, maximum delta is    0.024062665974752
 Root      3 has converged.
 Root      4 has converged.
 Excitation Energies [eV] at current iteration:
 Root      1 :     2.581779013632908   Change is   -0.000000434190776
 Root      2 :     3.222904549508655   Change is   -0.000349636511313
 Root      3 :     3.628996330875850   Change is   -0.000000645939299
 Root      4 :     3.716142646539842   Change is   -0.000001956122098
 Iteration    10 Dimension    74 NMult    72 NNew      2
 CISAX will form     2 AO SS matrices at one time.
 NMat=     2 NSing=     0 JSym2X= 0.
 Root      1 has converged.
 Root      2 not converged, maximum delta is    0.116238564904652
 Root      3 has converged.
 Root      4 has converged.
 Excitation Energies [eV] at current iteration:
 Root      1 :     2.581778845006812   Change is   -0.000000168626096
 Root      2 :     3.221526687877167   Change is   -0.001377861631488
 Root      3 :     3.628996330875805   Change is   -0.000000000000045
 Root      4 :     3.716142646539863   Change is    0.000000000000022
 Iteration    11 Dimension    76 NMult    74 NNew      2
 CISAX will form     2 AO SS matrices at one time.
 NMat=     2 NSing=     0 JSym2X= 0.
 Root      1 has converged.
 Root      2 not converged, maximum delta is    0.072283315649088
 Root      3 has converged.
 Root      4 has converged.
 Excitation Energies [eV] at current iteration:
 Root      1 :     2.581778772524552   Change is   -0.000000072482259
 Root      2 :     3.220719316862792   Change is   -0.000807371014375
 Root      3 :     3.628996330875850   Change is    0.000000000000045
 Root      4 :     3.716142646539863   Change is    0.000000000000000
 Iteration    12 Dimension    78 NMult    76 NNew      2
 CISAX will form     2 AO SS matrices at one time.
 NMat=     2 NSing=     0 JSym2X= 0.
 Root      1 has converged.
 Root      2 not converged, maximum delta is    0.035840660749297
 Root      3 has converged.
 Root      4 has converged.
 Excitation Energies [eV] at current iteration:
 Root      1 :     2.581778598817249   Change is   -0.000000173707304
 Root      2 :     3.220355858490940   Change is   -0.000363458371853
 Root      3 :     3.628996330875873   Change is    0.000000000000023
 Root      4 :     3.716142646539842   Change is   -0.000000000000022
 Iteration    13 Dimension    80 NMult    78 NNew      2
 CISAX will form     2 AO SS matrices at one time.
 NMat=     2 NSing=     0 JSym2X= 0.
 Root      1 has converged.
 Root      2 not converged, maximum delta is    0.019523822865830
 Root      3 has converged.
 Root      4 has converged.
 Excitation Energies [eV] at current iteration:
 Root      1 :     2.581778217598437   Change is   -0.000000381218811
 Root      2 :     3.220166670062151   Change is   -0.000189188428789
 Root      3 :     3.628996330875828   Change is   -0.000000000000045
 Root      4 :     3.716142646539842   Change is    0.000000000000000
 Iteration    14 Dimension    82 NMult    80 NNew      2
 CISAX will form     2 AO SS matrices at one time.
 NMat=     2 NSing=     0 JSym2X= 0.
 Root      1 has converged.
 Root      2 not converged, maximum delta is    0.007082837491491
 Root      3 has converged.
 Root      4 has converged.
 Excitation Energies [eV] at current iteration:
 Root      1 :     2.581777918490451   Change is   -0.000000299107987
 Root      2 :     3.220098395792685   Change is   -0.000068274269466
 Root      3 :     3.628996330875828   Change is    0.000000000000000
 Root      4 :     3.716142646539842   Change is    0.000000000000000
 Iteration    15 Dimension    84 NMult    82 NNew      2
 CISAX will form     2 AO SS matrices at one time.
 NMat=     2 NSing=     0 JSym2X= 0.
 Root      1 has converged.
 Root      2 not converged, maximum delta is    0.001077394014772
 Root      3 has converged.
 Root      4 has converged.
 Excitation Energies [eV] at current iteration:
 Root      1 :     2.581777873543271   Change is   -0.000000044947180
 Root      2 :     3.220088355524238   Change is   -0.000010040268447
 Root      3 :     3.628996330875850   Change is    0.000000000000023
 Root      4 :     3.716142646539930   Change is    0.000000000000088
 Iteration    16 Dimension    86 NMult    84 NNew      2
 CISAX will form     2 AO SS matrices at one time.
 NMat=     2 NSing=     0 JSym2X= 0.
 Root      1 has converged.
 Root      2 has converged.
 Root      3 has converged.
 Root      4 has converged.
 Excitation Energies [eV] at current iteration:
 Root      1 :     2.581777858771837   Change is   -0.000000014771433
 Root      2 :     3.220087336691076   Change is   -0.000001018833162
 Root      3 :     3.628996330875850   Change is    0.000000000000000
 Root      4 :     3.716142646539842   Change is   -0.000000000000088
 Convergence achieved on expansion vectors.
 ***********************************************************************
 Excited states from <AA,BB:AA,BB> singles matrix:
 ***********************************************************************
 
 1PDM for each excited state written to RWF  633
 Ground to excited state transition densities written to RWF  633
 Ground to excited state transition electric dipole moments (Au):
       state          X           Y           Z        Dip. S.      Osc.
         1        -0.0000      0.0000      0.0000      0.0000      0.0000
         2         0.0000      0.0000      0.0000      0.0000      0.0000
         3         1.8097      0.1393     -0.3246      3.3999      0.3023
         4        -0.6644     -0.0454      0.1091      0.4554      0.0415
 Ground to excited state transition velocity dipole moments (Au):
       state          X           Y           Z        Dip. S.      Osc.
         1         0.0000     -0.0000     -0.0000      0.0000      0.0000
         2         0.0000     -0.0000     -0.0000      0.0000      0.0000
         3        -0.2286     -0.0234      0.0411      0.0545      0.2725
         4         0.0869      0.0076     -0.0181      0.0079      0.0388
 Ground to excited state transition magnetic dipole moments (Au):
       state          X           Y           Z
         1         0.0000     -0.0000      0.0000
         2        -0.0000     -0.0000     -0.0000
         3         0.1622     -0.1701      0.1373
         4        -0.0859     -0.6488      0.2059
 Ground to excited state transition velocity quadrupole moments (Au):
       state          XX          YY          ZZ          XY          XZ          YZ
         1        -0.0000     -0.0000     -0.0000     -0.0000      0.0000      0.0000
         2        -0.0000      0.0000      0.0000     -0.0000     -0.0000      0.0000
[...]
     4  O    0.000000   0.000000   0.000000   0.000000   0.000000   0.000000
     5  O    0.000000   0.000000   0.000000   0.000000   0.000000   0.000000
     6  C    0.000000   0.000000   0.000000   0.000000   0.000000   0.000000
     7  C   -0.000000   0.000000   0.000000   0.000000   0.000000  -0.000000
     8  O    0.000000   0.000000   0.000000   0.000000   0.000000   0.000000
     9  C   -0.000000  -0.000000  -0.000000  -0.000000   0.000000  -0.000260
    10  C    0.000000   0.000000   0.000000   0.000000   0.000000   0.000059
    11  C   -0.000000   0.000000   0.000000   0.000000  -0.000000  -0.001524
    12  C   -0.000000  -0.000000  -0.000000  -0.000000  -0.000000  -0.040678
    13  C   -0.000022  -0.000000  -0.000000  -0.000000   0.000000  -0.028847
    14  F    0.000001  -0.000000   0.000000  -0.000000   0.000000   0.002699
    15  C    0.000308   0.000009   0.000000  -0.000000   0.000001   0.461438
    16  O    0.001359   0.000103  -0.000002   0.000004  -0.000052  -0.054034
    17  C   -0.043367   0.003043   0.001365  -0.000315  -0.000007   0.001679
    18  C    0.232085  -0.013873   0.000308   0.006924  -0.000575  -0.000351
    19  O    8.223162   0.253165  -0.081579  -0.093752   0.002033   0.000003
    20  C    0.253165   4.254805   0.526773   0.419905  -0.024296  -0.000000
    21  O   -0.081579   0.526773   8.065719  -0.061503   0.004851  -0.000000
    22  C   -0.093752   0.419905  -0.061503   4.984625   0.568190   0.000000
    23  C    0.002033  -0.024296   0.004851   0.568190   5.085929  -0.000000
    24  C    0.000003  -0.000000  -0.000000   0.000000  -0.000000   5.037969
    25  C   -0.000000   0.000000  -0.000000   0.000000  -0.000000   0.485748
    26  C    0.000000   0.000000   0.000000  -0.000000  -0.000000   0.000232
    27  C    0.000000  -0.000000   0.000000  -0.000000   0.000000   0.008208
    28  H    0.000000   0.000000   0.000000   0.000000   0.000000  -0.000000
    29  H    0.000000   0.000000   0.000000   0.000000   0.000000  -0.000000
    30  H    0.000000   0.000000   0.000000   0.000000   0.000000  -0.000000
    31  H    0.000000   0.000000   0.000000   0.000000   0.000000   0.000000
    32  H   -0.000000  -0.000000   0.000000   0.000000   0.000000  -0.000000
    33  H   -0.000000   0.000000  -0.000000   0.000000  -0.000000  -0.000000
    34  H   -0.000000   0.000000  -0.000000   0.000000  -0.000000  -0.000036
    35  H    0.002207   0.000049   0.000003   0.000006  -0.000001   0.001152
    36  H   -0.041834  -0.004180   0.021030   0.000780  -0.000007   0.000003
    37  H    0.003170  -0.031828   0.000930   0.363876  -0.049299  -0.000000
    38  H    0.009763  -0.012472   0.000073  -0.027923   0.366907  -0.000001
    39  H    0.000190   0.003005  -0.000071  -0.018492   0.355239   0.000000
    40  H    0.000003   0.000000   0.000000   0.000000  -0.000000   0.348139
    41  H   -0.000000  -0.000000  -0.000000  -0.000000  -0.000000  -0.040289
    42  H    0.000000   0.000000   0.000000   0.000000  -0.000000   0.000187
              25         26         27         28         29         30
     1  C    0.000000   0.000000   0.000000   0.366723   0.359964  -0.046460
     2  C   -0.000000  -0.000000   0.000000  -0.034691  -0.023809   0.354006
     3  C   -0.000000  -0.000000  -0.000000  -0.009487   0.003571  -0.029502
     4  O   -0.000000  -0.000000  -0.000000   0.010713   0.000239   0.002886
     5  O    0.000000  -0.000000  -0.000004   0.000275  -0.000052   0.003580
     6  C   -0.000000   0.000004  -0.000290  -0.000012   0.000000  -0.000408
     7  C    0.000002  -0.000027   0.001406  -0.000000  -0.000000  -0.000031
     8  O   -0.000071   0.002263  -0.048604   0.000000   0.000000   0.000011
     9  C    0.006488   0.005900   0.509226  -0.000000  -0.000000   0.000000
    10  C   -0.000422  -0.033365  -0.060477   0.000000   0.000000  -0.000000
    11  C    0.014620  -0.045552  -0.062934   0.000000   0.000000  -0.000000
    12  C   -0.027428   0.471478  -0.036491  -0.000000  -0.000000   0.000000
    13  C   -0.067042  -0.001950   0.012691  -0.000000  -0.000000   0.000000
    14  F   -0.000099   0.002185  -0.000019   0.000000   0.000000  -0.000000
    15  C   -0.000118  -0.045034  -0.000790   0.000000   0.000000  -0.000000
    16  O    0.003732   0.000190   0.000000   0.000000   0.000000   0.000000
    17  C   -0.000063   0.000006   0.000000   0.000000   0.000000   0.000000
    18  C    0.000005   0.000000  -0.000000   0.000000   0.000000   0.000000
    19  O   -0.000000   0.000000   0.000000   0.000000   0.000000   0.000000
    20  C    0.000000   0.000000  -0.000000   0.000000   0.000000   0.000000
    21  O   -0.000000   0.000000   0.000000   0.000000   0.000000   0.000000
    22  C    0.000000  -0.000000  -0.000000   0.000000   0.000000   0.000000
    23  C   -0.000000  -0.000000   0.000000   0.000000   0.000000   0.000000
    24  C    0.485748   0.000232   0.008208  -0.000000  -0.000000  -0.000000
    25  C    5.105149   0.441594  -0.080624   0.000000  -0.000000   0.000000
    26  C    0.441594   4.689936   0.432099   0.000000   0.000000  -0.000000
    27  C   -0.080624   0.432099   5.247740   0.000000   0.000000  -0.000000
    28  H    0.000000   0.000000   0.000000   0.513348  -0.035145   0.004894
    29  H   -0.000000   0.000000   0.000000  -0.035145   0.538112  -0.005203
    30  H    0.000000  -0.000000  -0.000000   0.004894  -0.005203   0.553173
    31  H    0.000000  -0.000000   0.000004  -0.000009   0.000000  -0.000014
    32  H   -0.000000  -0.000028   0.001040  -0.000000   0.000000   0.000000
    33  H    0.000008   0.000771   0.004861   0.000000   0.000000   0.000000
    34  H   -0.000146   0.003563   0.000610   0.000000   0.000000   0.000000
    35  H   -0.000035  -0.000018   0.000000   0.000000   0.000000  -0.000000
    36  H   -0.000000   0.000000   0.000000   0.000000   0.000000   0.000000
    37  H   -0.000000   0.000000  -0.000000   0.000000   0.000000   0.000000
    38  H   -0.000000   0.000000  -0.000000   0.000000   0.000000   0.000000
    39  H   -0.000000  -0.000000   0.000000   0.000000   0.000000   0.000000
    40  H   -0.034077   0.002910  -0.000180   0.000000   0.000000   0.000000
    41  H    0.355666  -0.038148  -0.007656   0.000000   0.000000  -0.000000
    42  H   -0.007982  -0.042096   0.346456  -0.000000  -0.000000   0.000000
              31         32         33         34         35         36
     1  C   -0.000002  -0.000000   0.000000   0.000000   0.000000   0.000000
     2  C    0.001411   0.000004  -0.000000  -0.000000   0.000000   0.000000
     3  C   -0.003605   0.000044  -0.000001   0.000000  -0.000000   0.000000
     4  O    0.021115   0.000002   0.000000  -0.000000   0.000000   0.000000
     5  O   -0.042088   0.002151  -0.000024  -0.000000  -0.000000   0.000000
     6  C    0.356578  -0.051142   0.000703  -0.000000   0.000000  -0.000000
     7  C   -0.047148   0.354139   0.010302  -0.000010   0.000000  -0.000000
     8  O    0.001961  -0.043446  -0.007655  -0.000048  -0.000000   0.000000
     9  C    0.000027   0.000249  -0.041507   0.003140   0.000000  -0.000000
    10  C   -0.000026   0.005256   0.350696  -0.036360   0.000000   0.000000
    11  C   -0.000000  -0.000245  -0.034250   0.359983   0.000014   0.000000
    12  C    0.000000  -0.000010   0.002673  -0.042400  -0.000546  -0.000000
    13  C    0.000000   0.000000  -0.000133  -0.007985   0.004107  -0.000030
    14  F   -0.000000   0.000000  -0.000001   0.008081   0.000925  -0.000009
    15  C   -0.000000   0.000000   0.000002   0.000635   0.003051   0.000014
    16  O   -0.000000  -0.000000  -0.000000   0.000001  -0.043526   0.001945
    17  C    0.000000   0.000000  -0.000000  -0.000001   0.356157  -0.046469
    18  C   -0.000000   0.000000   0.000000   0.000000  -0.047211   0.359593
    19  O    0.000000  -0.000000  -0.000000  -0.000000   0.002207  -0.041834
    20  C    0.000000  -0.000000   0.000000   0.000000   0.000049  -0.004180
    21  O    0.000000   0.000000  -0.000000  -0.000000   0.000003   0.021030
    22  C    0.000000   0.000000   0.000000   0.000000   0.000006   0.000780
    23  C    0.000000   0.000000  -0.000000  -0.000000  -0.000001  -0.000007
    24  C    0.000000  -0.000000  -0.000000  -0.000036   0.001152   0.000003
    25  C    0.000000  -0.000000   0.000008  -0.000146  -0.000035  -0.000000
    26  C   -0.000000  -0.000028   0.000771   0.003563  -0.000018   0.000000
    27  C    0.000004   0.001040   0.004861   0.000610   0.000000   0.000000
    28  H   -0.000009  -0.000000   0.000000   0.000000   0.000000   0.000000
    29  H    0.000000   0.000000   0.000000   0.000000   0.000000   0.000000
    30  H   -0.000014   0.000000   0.000000   0.000000  -0.000000   0.000000
    31  H    0.520170   0.000472   0.000042   0.000000  -0.000000   0.000000
    32  H    0.000472   0.567662   0.001007   0.000007  -0.000000   0.000000
    33  H    0.000042   0.001007   0.565429  -0.004732   0.000000   0.000000
    34  H    0.000000   0.000007  -0.004732   0.561275   0.000002   0.000000
    35  H   -0.000000  -0.000000   0.000000   0.000002   0.559442  -0.000035
    36  H    0.000000   0.000000   0.000000   0.000000  -0.000035   0.518314
    37  H    0.000000   0.000000   0.000000   0.000000  -0.000000  -0.000014
    38  H    0.000000  -0.000000   0.000000   0.000000   0.000001   0.000023
    39  H    0.000000   0.000000  -0.000000  -0.000000   0.000000   0.000001
    40  H    0.000000   0.000000  -0.000000   0.000000   0.000087   0.000000
    41  H   -0.000000  -0.000000  -0.000000   0.000002   0.000000   0.000000
    42  H    0.000000   0.000057  -0.000145   0.000016   0.000000   0.000000
              37         38         39         40         41         42
     1  C    0.000000   0.000000   0.000000   0.000000   0.000000  -0.000000
     2  C    0.000000   0.000000   0.000000  -0.000000  -0.000000  -0.000000
     3  C    0.000000   0.000000   0.000000  -0.000000  -0.000000   0.000000
     4  O    0.000000   0.000000   0.000000   0.000000  -0.000000   0.000000
     5  O    0.000000   0.000000   0.000000   0.000000  -0.000000   0.000003
     6  C    0.000000   0.000000   0.000000  -0.000000  -0.000000  -0.000023
     7  C    0.000000   0.000000   0.000000   0.000000   0.000000  -0.000125
     8  O    0.000000   0.000000   0.000000  -0.000000  -0.000001   0.000005
     9  C   -0.000000  -0.000000   0.000000   0.000002   0.000125  -0.037702
    10  C    0.000000  -0.000000   0.000000  -0.000000   0.000009   0.007127
    11  C   -0.000000   0.000000  -0.000000   0.000014  -0.000167  -0.000110
    12  C    0.000000  -0.000000   0.000000   0.000429   0.005014   0.004681
    13  C    0.000000  -0.000000  -0.000000   0.005875   0.000245  -0.000123
    14  F   -0.000000   0.000000   0.000000  -0.000021   0.000000   0.000000
    15  C    0.000000   0.000002   0.000000  -0.033977   0.003811   0.000019
    16  O    0.000000   0.000277  -0.000000  -0.000054  -0.000053   0.000000
    17  C    0.000003  -0.000065  -0.000000  -0.000177   0.000000   0.000000
    18  C   -0.000093  -0.000341   0.000006  -0.000040  -0.000000   0.000000
    19  O    0.003170   0.009763   0.000190   0.000003  -0.000000   0.000000
    20  C   -0.031828  -0.012472   0.003005   0.000000  -0.000000   0.000000
    21  O    0.000930   0.000073  -0.000071   0.000000  -0.000000   0.000000
    22  C    0.363876  -0.027923  -0.018492   0.000000  -0.000000   0.000000
    23  C   -0.049299   0.366907   0.355239  -0.000000  -0.000000  -0.000000
    24  C   -0.000000  -0.000001   0.000000   0.348139  -0.040289   0.000187
    25  C   -0.000000  -0.000000  -0.000000  -0.034077   0.355666  -0.007982
    26  C    0.000000   0.000000  -0.000000   0.002910  -0.038148  -0.042096
    27  C   -0.000000  -0.000000   0.000000  -0.000180  -0.007656   0.346456
    28  H    0.000000   0.000000   0.000000   0.000000   0.000000  -0.000000
    29  H    0.000000   0.000000   0.000000   0.000000   0.000000  -0.000000
    30  H    0.000000   0.000000   0.000000   0.000000  -0.000000   0.000000
    31  H    0.000000   0.000000   0.000000   0.000000  -0.000000   0.000000
    32  H    0.000000  -0.000000   0.000000   0.000000  -0.000000   0.000057
    33  H    0.000000   0.000000  -0.000000  -0.000000  -0.000000  -0.000145
    34  H    0.000000   0.000000  -0.000000   0.000000   0.000002   0.000016
    35  H   -0.000000   0.000001   0.000000   0.000087   0.000000   0.000000
    36  H   -0.000014   0.000023   0.000001   0.000000   0.000000   0.000000
    37  H    0.552845   0.004679  -0.006278   0.000000   0.000000  -0.000000
    38  H    0.004679   0.509173  -0.036024   0.000002  -0.000000   0.000000
    39  H   -0.006278  -0.036024   0.541808  -0.000000  -0.000000  -0.000000
    40  H    0.000000   0.000002  -0.000000   0.562850  -0.005406  -0.000008
    41  H    0.000000  -0.000000  -0.000000  -0.005406   0.580815   0.005286
    42  H   -0.000000   0.000000  -0.000000  -0.000008   0.005286   0.577472
 Mulliken charges:
               1
     1  C   -0.300240
     2  C   -0.141810
     3  C    0.619157
     4  O   -0.480907
     5  O   -0.463725
     6  C    0.066978
     7  C    0.054066
     8  O   -0.504811
     9  C    0.370768
    10  C   -0.182181
    11  C   -0.190256
    12  C    0.051283
    13  C    0.263809
    14  F   -0.286457
    15  C    0.297311
    16  O   -0.512808
    17  C    0.072214
    18  C    0.053428
    19  O   -0.466896
    20  C    0.625792
    21  O   -0.477898
    22  C   -0.142323
    23  C   -0.308913
    24  C   -0.181498
    25  C   -0.194903
    26  C    0.153086
    27  C   -0.266272
    28  H    0.183392
    29  H    0.162323
    30  H    0.163068
    31  H    0.191113
    32  H    0.162781
    33  H    0.151955
    34  H    0.154403
    35  H    0.164168
    36  H    0.190873
    37  H    0.162008
    38  H    0.185925
    39  H    0.160617
    40  H    0.153629
    41  H    0.140745
    42  H    0.147005
 Sum of Mulliken charges =  -0.00000
 Mulliken charges with hydrogens summed into heavy atoms:
               1
     1  C    0.045474
     2  C    0.021257
     3  C    0.619157
     4  O   -0.480907
     5  O   -0.463725
     6  C    0.258091
     7  C    0.216847
     8  O   -0.504811
     9  C    0.370768
    10  C   -0.030226
    11  C   -0.035853
    12  C    0.051283
    13  C    0.263809
    14  F   -0.286457
    15  C    0.297311
    16  O   -0.512808
    17  C    0.236383
    18  C    0.244301
    19  O   -0.466896
    20  C    0.625792
    21  O   -0.477898
    22  C    0.019685
    23  C    0.037629
    24  C   -0.027870
    25  C   -0.054158
    26  C    0.153086
    27  C   -0.119267
 Electronic spatial extent (au):  <R**2>=          23178.0409
 Charge=             -0.0000 electrons
 Dipole moment (field-independent basis, Debye):
    X=              1.5411    Y=             -1.9053    Z=              1.1849  Tot=              2.7220
 Quadrupole moment (field-independent basis, Debye-Ang):
   XX=           -163.4339   YY=           -144.8823   ZZ=           -145.9857
   XY=             -4.9105   XZ=            -23.9036   YZ=              1.6374
 Traceless Quadrupole moment (field-independent basis, Debye-Ang):
   XX=            -11.9999   YY=              6.5517   ZZ=              5.4483
   XY=             -4.9105   XZ=            -23.9036   YZ=              1.6374
 Octapole moment (field-independent basis, Debye-Ang**2):
  XXX=            158.8523  YYY=            -27.3702  ZZZ=             20.5041  XYY=             43.2234
  XXY=           -183.0598  XXZ=            100.9589  XZZ=             10.3539  YZZ=            -12.7327
  YYZ=             12.3044  XYZ=             16.0821
 Hexadecapole moment (field-independent basis, Debye-Ang**3):
 XXXX=         -27923.0248 YYYY=           -963.6194 ZZZZ=           -869.6413 XXXY=           -950.6126
 XXXZ=          -2092.8639 YYYX=             60.2051 YYYZ=             49.4330 ZZZX=            314.4530
 ZZZY=             62.7167 XXYY=          -4910.2749 XXZZ=          -4598.8912 YYZZ=           -306.5036
 XXYZ=            345.4930 YYXZ=            102.4826 ZZXY=             25.7095
 N-N= 2.117079872161D+03 E-N=-7.321335756895D+03  KE= 1.310429803458D+03
 Leave Link  601 at Sat Nov  5 11:56:10 2022, MaxMem=   402653184 cpu:               1.9 elap:               0.4
 (Enter /home/wykgroup/appl/g16/l9999.exe)
 Electronic transition elements 
                 1             2             3             4 
      1  -0.132215D+04 -0.132212D+04 -0.132211D+04 -0.132211D+04
      2   0.000000D+00  0.000000D+00  0.180975D+01 -0.664376D+00
      3   0.000000D+00  0.000000D+00  0.139277D+00 -0.453558D-01
      4   0.000000D+00  0.000000D+00 -0.324586D+00  0.109133D+00
      5   0.000000D+00  0.000000D+00 -0.228635D+00  0.869469D-01
      6   0.000000D+00  0.000000D+00 -0.234238D-01  0.758046D-02
      7   0.000000D+00  0.000000D+00  0.410772D-01 -0.181259D-01
      8   0.000000D+00  0.000000D+00  0.162158D+00 -0.858642D-01
      9   0.000000D+00  0.000000D+00 -0.170127D+00 -0.648822D+00
     10   0.000000D+00  0.000000D+00  0.137335D+00  0.205868D+00
     11   0.000000D+00  0.000000D+00 -0.122612D+01 -0.282530D+01
     12   0.000000D+00  0.000000D+00  0.141812D-01  0.283229D-01
     13   0.000000D+00  0.000000D+00  0.545488D-01 -0.144373D+00
     14   0.000000D+00  0.000000D+00  0.474415D-01  0.181203D+00
     15   0.000000D+00  0.000000D+00  0.231541D+00  0.464695D+00
     16   0.000000D+00  0.000000D+00 -0.676770D-01  0.301643D-02
 1\1\GINC-NODE96\SP\RB3LYP TD-FC\6-31G(d)\C20H15F1O6\WYKGROUP\05-Nov-20
 22\0\\#p b3lyp/6-31g(d) 6D 10F nosymm GFInput td=(50-50,nstate=2) SCF=
 XQC\\Gaussian input prepared by ASE\\0,1\C,0,9.4658939407,-1.099814798
 5,-1.5580380899\C,0,8.1954346032,-0.9968743034,-1.159406636\C,0,7.7176
 284839,0.2235429675,-0.4739575846\O,0,8.3729314029,1.2078776176,-0.209
 5478501\O,0,6.3874552301,0.0911545885,-0.1653178136\C,0,5.7800774701,1
 .1456571637,0.4797160899\C,0,4.4896111926,1.0897527358,0.8125197012\O,
 0,3.7294711106,-0.0316872062,0.6100143737\C,0,2.3761602734,0.118718406
 ,0.3999695287\C,0,1.8330480246,1.2732795849,-0.2169313786\C,0,0.476289
 403,1.3618672919,-0.4317488818\C,0,-0.3857706797,0.3019253281,-0.05252
 52428\C,0,-1.7863594891,0.3609688289,-0.2512941958\F,0,-2.3006232798,1
 .4842170179,-0.8052890397\C,0,-2.6226070276,-0.6775775759,0.1014757721
 \O,0,-3.989141175,-0.6511312892,-0.0376353627\C,0,-4.5331694024,-0.152
 9208467,-1.1973993953\C,0,-5.8174226773,0.192500604,-1.2769421336\O,0,
 -6.6318478038,0.1243979609,-0.1655977369\C,0,-7.9424632838,0.483697419
 6,-0.3203275144\O,0,-8.419138655,0.8483395728,-1.3742023219\C,0,-8.704
 286318,0.3749401055,0.9424973933\C,0,-8.188854233,-0.0187821406,2.1105
 824551\C,0,-2.0634768862,-1.8285129521,0.71094659\C,0,-0.7121706793,-1
 .9228457219,0.9379570069\C,0,0.1669499772,-0.8701020046,0.5595160536\C
 ,0,1.5643635069,-0.930511173,0.7761825335\H,0,10.1662886041,-0.2879533
 9,-1.3841326603\H,0,9.833999052,-1.9878582985,-2.062362338\H,0,7.46823
 40304,-1.7874600329,-1.3161687059\H,0,6.4089696232,1.9965287946,0.7048
 89306\H,0,4.0137209875,1.9200420524,1.326411696\H,0,2.4932646526,2.072
 2528819,-0.5381557223\H,0,0.0547844536,2.2414360856,-0.9059582741\H,0,
 -3.8847763026,-0.1026208805,-2.0644756878\H,0,-6.2809176934,0.53302775
 32,-2.1925331441\H,0,-9.7492943082,0.6516045848,0.8394110206\H,0,-7.14
 31949723,-0.2927333324,2.2060616149\H,0,-8.8046989497,-0.0758634079,3.
 0035190818\H,0,-2.7435932523,-2.627358328,0.9888384499\H,0,-0.29931646
 72,-2.8121904873,1.4054267713\H,0,2.0085495134,-1.803696177,1.24401427
 16\\Version=ES64L-G16RevB.01\HF=-1322.2429216\RMSD=7.005e-09\PG=C01 [X
 (C20H15F1O6)]\\@


 HE WHO LAUGHS LAST PROBABLY DIDN'T GET THE JOKE.
 Job cpu time:       0 days  1 hours 29 minutes 39.2 seconds.
 Elapsed time:       0 days  0 hours  8 minutes 28.7 seconds.
 File lengths (MBytes):  RWF=   1153 Int=      0 D2E=      0 Chk=     41 Scr=      1
 Normal termination of Gaussian 16 at Sat Nov  5 11:56:10 2022.
