 Entering Gaussian System, Link 0=/home/wykgroup/appl/g16/g16
 Input=calculation/no_transfer_pubchem_sampling_3_b3lyp/122503827_rwf.com
 Output=calculation/no_transfer_pubchem_sampling_3_b3lyp/122503827_rwf.log
 Initial command:
 /home/wykgroup/appl/g16/l1.exe "/userdata/scratch/wykgroup/khs/calculation/no_transfer_pubchem_sampling_3_b3lyp/122503827_rwf/Gau-30091.inp" -scrdir="/userdata/scratch/wykgroup/khs/calculation/no_transfer_pubchem_sampling_3_b3lyp/122503827_rwf/"
 Entering Link 1 = /home/wykgroup/appl/g16/l1.exe PID=     30092.
  
 Copyright (c) 1988-2017, Gaussian, Inc.  All Rights Reserved.
  
 This is part of the Gaussian(R) 16 program.  It is based on
 the Gaussian(R) 09 system (copyright 2009, Gaussian, Inc.),
 the Gaussian(R) 03 system (copyright 2003, Gaussian, Inc.),
 the Gaussian(R) 98 system (copyright 1998, Gaussian, Inc.),
 the Gaussian(R) 94 system (copyright 1995, Gaussian, Inc.),
 the Gaussian 92(TM) system (copyright 1992, Gaussian, Inc.),
 the Gaussian 90(TM) system (copyright 1990, Gaussian, Inc.),
 the Gaussian 88(TM) system (copyright 1988, Gaussian, Inc.),
 the Gaussian 86(TM) system (copyright 1986, Carnegie Mellon
 University), and the Gaussian 82(TM) system (copyright 1983,
 Carnegie Mellon University). Gaussian is a federally registered
 trademark of Gaussian, Inc.
  
 This software contains proprietary and confidential information,
 including trade secrets, belonging to Gaussian, Inc.
  
 This software is provided under written license and may be
 used, copied, transmitted, or stored only in accord with that
 written license.
  
 The following legend is applicable only to US Government
 contracts under FAR:
  
                    RESTRICTED RIGHTS LEGEND
  
 Use, reproduction and disclosure by the US Government is
 subject to restrictions as set forth in subparagraphs (a)
 and (c) of the Commercial Computer Software - Restricted
 Rights clause in FAR 52.227-19.
  
 Gaussian, Inc.
 340 Quinnipiac St., Bldg. 40, Wallingford CT 06492
  
  
 ---------------------------------------------------------------
 Warning -- This program may not be used in any manner that
 competes with the business of Gaussian, Inc. or will provide
 assistance to any competitor of Gaussian, Inc.  The licensee
 of this program is prohibited from giving any competitor of
 Gaussian, Inc. access to this program.  By using this program,
 the user acknowledges that Gaussian, Inc. is engaged in the
 business of creating and licensing software in the field of
 computational chemistry and represents and warrants to the
 licensee that it is not a competitor of Gaussian, Inc. and that
 it will not use this program in any manner prohibited above.
 ---------------------------------------------------------------
  

 Cite this work as:
 Gaussian 16, Revision B.01,
 M. J. Frisch, G. W. Trucks, H. B. Schlegel, G. E. Scuseria, 
 M. A. Robb, J. R. Cheeseman, G. Scalmani, V. Barone, 
 G. A. Petersson, H. Nakatsuji, X. Li, M. Caricato, A. V. Marenich, 
 J. Bloino, B. G. Janesko, R. Gomperts, B. Mennucci, H. P. Hratchian, 
 J. V. Ortiz, A. F. Izmaylov, J. L. Sonnenberg, D. Williams-Young, 
 F. Ding, F. Lipparini, F. Egidi, J. Goings, B. Peng, A. Petrone, 
 T. Henderson, D. Ranasinghe, V. G. Zakrzewski, J. Gao, N. Rega, 
 G. Zheng, W. Liang, M. Hada, M. Ehara, K. Toyota, R. Fukuda, 
 J. Hasegawa, M. Ishida, T. Nakajima, Y. Honda, O. Kitao, H. Nakai, 
 T. Vreven, K. Throssell, J. A. Montgomery, Jr., J. E. Peralta, 
 F. Ogliaro, M. J. Bearpark, J. J. Heyd, E. N. Brothers, K. N. Kudin, 
 V. N. Staroverov, T. A. Keith, R. Kobayashi, J. Normand, 
 K. Raghavachari, A. P. Rendell, J. C. Burant, S. S. Iyengar, 
 J. Tomasi, M. Cossi, J. M. Millam, M. Klene, C. Adamo, R. Cammi, 
 J. W. Ochterski, R. L. Martin, K. Morokuma, O. Farkas, 
 J. B. Foresman, and D. J. Fox, Gaussian, Inc., Wallingford CT, 2016.
 
 ******************************************
 Gaussian 16:  ES64L-G16RevB.01 20-Dec-2017
                 5-Nov-2022 
 ******************************************
 %chk=calculation/no_transfer_pubchem_sampling_3_b3lyp/122503827_rwf.chk
 %rwf=calculation/no_transfer_pubchem_sampling_3_b3lyp/122503827_rwf.rwf
 %nprocshared=14
 Will use up to   14 processors via shared memory.
 %mem=3GB
 -------------------------------------------------------------------
 #p b3lyp/6-31g(d) 6D 10F nosymm GFInput td=(50-50,nstate=2) SCF=XQC
 -------------------------------------------------------------------
 1/38=1,172=1/1;
 2/12=2,15=1,17=6,18=5,40=1/2;
 3/5=1,6=6,7=1,8=22,11=9,24=10,25=1,30=1,74=-5/1,2,3,8;
 4//1;
 5/5=2,8=3,13=1,38=5/2,8;
 8/6=1,10=2,108=2/1;
 9/41=2,42=1,48=2,70=2/14;
 6/7=2,8=2,9=2,10=2/1;
 99/5=1,9=1/99;
 Leave Link    1 at Sat Nov  5 11:48:33 2022, MaxMem=   402653184 cpu:               2.7 elap:               0.4
 (Enter /home/wykgroup/appl/g16/l101.exe)
 ------------------------------
 Gaussian input prepared by ASE
 ------------------------------
 Symbolic Z-matrix:
 Charge =  0 Multiplicity = 1
 C                     9.41754  -0.51295  -4.50206 
 C                     9.98691   0.47579  -3.48038 
 C                     9.36873   0.34036  -2.0943 
 O                     7.98074   0.65049  -2.19784 
 C                     7.20455   0.57546  -1.07575 
 C                     5.8466    0.88254  -1.24969 
 C                     4.97413   0.83575  -0.17062 
 C                     5.41507   0.48738   1.11925 
 C                     4.46848   0.42898   2.30739 
 C                     3.42844  -0.7136    2.16668 
 C                     2.31223  -0.56336   3.20837 
 C                     1.45262   0.70668   2.96899 
 C                     0.13448   0.49269   2.25468 
 C                    -0.30844  -0.61755   1.6573 
 C                    -1.61897  -0.79694   0.92461 
 C                    -2.48983   0.46531   0.82928 
 C                    -3.7946    0.20956   0.06022 
 C                    -4.59839  -0.94515   0.68698 
 C                    -5.88769  -1.21392  -0.07584 
 F                    -6.57202  -2.26307   0.4797 
 F                    -5.62841  -1.5878   -1.36902 
 O                    -6.68458  -0.08174  -0.06363 
 C                    -7.91382  -0.04245  -0.68539 
 C                    -8.56932   1.18734  -0.57301 
 C                    -9.81165   1.32901  -1.16219 
 F                    -10.43684   2.51153  -1.05179 
 C                    -10.45202   0.30198  -1.86899 
 C                    -11.80783   0.5633   -2.47324 
 F                    -12.70177   0.9136   -1.52175 
 F                    -11.75407   1.58339  -3.35854 
 F                    -12.30737  -0.50297  -3.11976 
 C                    -9.75252  -0.90509  -1.9503 
 F                    -10.28378  -1.9468   -2.60625 
 C                    -8.50045  -1.10259  -1.37628 
 C                    -3.74132  -2.22123   0.78772 
 C                    -2.43598  -1.95204   1.54896 
 C                     2.27202   1.78743   2.20291 
 C                     3.75157   1.7877    2.61075 
 C                     6.77078   0.18667   1.26938 
 C                     7.6673    0.22485   0.19585 
 H                     8.33841  -0.37462  -4.61708 
 H                     9.59215  -1.54964  -4.18824 
 H                     9.88607  -0.37718  -5.4829 
 H                     11.07059   0.33133  -3.37639 
 H                     9.83778   1.50566  -3.82827 
 H                     9.85215   1.02784  -1.38485 
 H                     9.49487  -0.6843   -1.71247 
 H                     5.50016   1.15392  -2.24241 
 H                     3.92722   1.07659  -0.33798 
 H                     5.08207   0.18746   3.18535 
 H                     2.99755  -0.70651   1.1572 
 H                     3.93599  -1.6797    2.27481 
 H                     2.77403  -0.49618   4.20261 
 H                     1.6807   -1.45743   3.23715 
 H                     1.20966   1.13405   3.95404 
 H                    -0.4822    1.39169   2.20986 
 H                     0.30504  -1.51901   1.68506 
 H                    -1.37471  -1.10629  -0.10698 
 H                    -1.93249   1.27335   0.34024 
 H                    -2.72919   0.81826   1.84288 
 H                    -3.5655   -0.0452   -0.98302 
 H                    -4.40239   1.12027   0.03829 
 H                    -4.91294  -0.6502    1.69747 
 H                    -8.11657   2.01216  -0.03695 
 H                    -8.02613  -2.0664   -1.48385 
 H                    -3.51161  -2.5749   -0.2262 
 H                    -4.3104   -3.01662   1.28046 
 H                    -2.66098  -1.69963   2.59523 
 H                    -1.83155  -2.8676    1.57392 
 H                     1.83027   2.77676   2.3765 
 H                     2.18628   1.60328   1.12449 
 H                     3.81652   1.99541   3.68733 
 H                     4.2791    2.6067    2.10952 
 H                     7.14892  -0.08582   2.25271 
 H                     8.7106   -0.01601   0.36531 
 
 ITRead=  0  0  0  0  0  0  0  0  0  0  0  0  0  0  0  0  0  0  0  0
 ITRead=  0  0  0  0  0  0  0  0  0  0  0  0  0  0  0  0  0  0  0  0
 ITRead=  0  0  0  0  0  0  0  0  0  0  0  0  0  0  0  0  0  0  0  0
 ITRead=  0  0  0  0  0  0  0  0  0  0  0  0  0  0  0
 MicOpt= -1 -1 -1 -1 -1 -1 -1 -1 -1 -1 -1 -1 -1 -1 -1 -1 -1 -1 -1 -1
 MicOpt= -1 -1 -1 -1 -1 -1 -1 -1 -1 -1 -1 -1 -1 -1 -1 -1 -1 -1 -1 -1
 MicOpt= -1 -1 -1 -1 -1 -1 -1 -1 -1 -1 -1 -1 -1 -1 -1 -1 -1 -1 -1 -1
 MicOpt= -1 -1 -1 -1 -1 -1 -1 -1 -1 -1 -1 -1 -1 -1 -1
 NAtoms=     75 NQM=       75 NQMF=       0 NMMI=      0 NMMIF=      0
                NMic=       0 NMicF=      0.
                    Isotopes and Nuclear Properties:
 (Nuclear quadrupole moments (NQMom) in fm**2, nuclear magnetic moments (NMagM)
  in nuclear magnetons)

  Atom         1           2           3           4           5           6           7           8           9          10
 IAtWgt=          12          12          12          16          12          12          12          12          12          12
 AtmWgt=  12.0000000  12.0000000  12.0000000  15.9949146  12.0000000  12.0000000  12.0000000  12.0000000  12.0000000  12.0000000
 NucSpn=           0           0           0           0           0           0           0           0           0           0
 AtZEff=  -0.0000000  -0.0000000  -0.0000000  -0.0000000  -0.0000000  -0.0000000  -0.0000000  -0.0000000  -0.0000000  -0.0000000
 NQMom=    0.0000000   0.0000000   0.0000000   0.0000000   0.0000000   0.0000000   0.0000000   0.0000000   0.0000000   0.0000000
 NMagM=    0.0000000   0.0000000   0.0000000   0.0000000   0.0000000   0.0000000   0.0000000   0.0000000   0.0000000   0.0000000
 AtZNuc=   6.0000000   6.0000000   6.0000000   8.0000000   6.0000000   6.0000000   6.0000000   6.0000000   6.0000000   6.0000000

  Atom        11          12          13          14          15          16          17          18          19          20
 IAtWgt=          12          12          12          12          12          12          12          12          12          19
 AtmWgt=  12.0000000  12.0000000  12.0000000  12.0000000  12.0000000  12.0000000  12.0000000  12.0000000  12.0000000  18.9984032
 NucSpn=           0           0           0           0           0           0           0           0           0           1
 AtZEff=  -0.0000000  -0.0000000  -0.0000000  -0.0000000  -0.0000000  -0.0000000  -0.0000000  -0.0000000  -0.0000000  -0.0000000
 NQMom=    0.0000000   0.0000000   0.0000000   0.0000000   0.0000000   0.0000000   0.0000000   0.0000000   0.0000000   0.0000000
 NMagM=    0.0000000   0.0000000   0.0000000   0.0000000   0.0000000   0.0000000   0.0000000   0.0000000   0.0000000   2.6288670
 AtZNuc=   6.0000000   6.0000000   6.0000000   6.0000000   6.0000000   6.0000000   6.0000000   6.0000000   6.0000000   9.0000000

  Atom        21          22          23          24          25          26          27          28          29          30
 IAtWgt=          19          16          12          12          12          19          12          12          19          19
 AtmWgt=  18.9984032  15.9949146  12.0000000  12.0000000  12.0000000  18.9984032  12.0000000  12.0000000  18.9984032  18.9984032
 NucSpn=           1           0           0           0           0           1           0           0           1           1
 AtZEff=  -0.0000000  -0.0000000  -0.0000000  -0.0000000  -0.0000000  -0.0000000  -0.0000000  -0.0000000  -0.0000000  -0.0000000
 NQMom=    0.0000000   0.0000000   0.0000000   0.0000000   0.0000000   0.0000000   0.0000000   0.0000000   0.0000000   0.0000000
 NMagM=    2.6288670   0.0000000   0.0000000   0.0000000   0.0000000   2.6288670   0.0000000   0.0000000   2.6288670   2.6288670
 AtZNuc=   9.0000000   8.0000000   6.0000000   6.0000000   6.0000000   9.0000000   6.0000000   6.0000000   9.0000000   9.0000000

  Atom        31          32          33          34          35          36          37          38          39          40
 IAtWgt=          19          12          19          12          12          12          12          12          12          12
 AtmWgt=  18.9984032  12.0000000  18.9984032  12.0000000  12.0000000  12.0000000  12.0000000  12.0000000  12.0000000  12.0000000
 NucSpn=           1           0           1           0           0           0           0           0           0           0
 AtZEff=  -0.0000000  -0.0000000  -0.0000000  -0.0000000  -0.0000000  -0.0000000  -0.0000000  -0.0000000  -0.0000000  -0.0000000
 NQMom=    0.0000000   0.0000000   0.0000000   0.0000000   0.0000000   0.0000000   0.0000000   0.0000000   0.0000000   0.0000000
 NMagM=    2.6288670   0.0000000   2.6288670   0.0000000   0.0000000   0.0000000   0.0000000   0.0000000   0.0000000   0.0000000
 AtZNuc=   9.0000000   6.0000000   9.0000000   6.0000000   6.0000000   6.0000000   6.0000000   6.0000000   6.0000000   6.0000000

  Atom        41          42          43          44          45          46          47          48          49          50
 IAtWgt=           1           1           1           1           1           1           1           1           1           1
 AtmWgt=   1.0078250   1.0078250   1.0078250   1.0078250   1.0078250   1.0078250   1.0078250   1.0078250   1.0078250   1.0078250
 NucSpn=           1           1           1           1           1           1           1           1           1           1
 AtZEff=  -0.0000000  -0.0000000  -0.0000000  -0.0000000  -0.0000000  -0.0000000  -0.0000000  -0.0000000  -0.0000000  -0.0000000
 NQMom=    0.0000000   0.0000000   0.0000000   0.0000000   0.0000000   0.0000000   0.0000000   0.0000000   0.0000000   0.0000000
 NMagM=    2.7928460   2.7928460   2.7928460   2.7928460   2.7928460   2.7928460   2.7928460   2.7928460   2.7928460   2.7928460
 AtZNuc=   1.0000000   1.0000000   1.0000000   1.0000000   1.0000000   1.0000000   1.0000000   1.0000000   1.0000000   1.0000000

  Atom        51          52          53          54          55          56          57          58          59          60
 IAtWgt=           1           1           1           1           1           1           1           1           1           1
 AtmWgt=   1.0078250   1.0078250   1.0078250   1.0078250   1.0078250   1.0078250   1.0078250   1.0078250   1.0078250   1.0078250
 NucSpn=           1           1           1           1           1           1           1           1           1           1
 AtZEff=  -0.0000000  -0.0000000  -0.0000000  -0.0000000  -0.0000000  -0.0000000  -0.0000000  -0.0000000  -0.0000000  -0.0000000
 NQMom=    0.0000000   0.0000000   0.0000000   0.0000000   0.0000000   0.0000000   0.0000000   0.0000000   0.0000000   0.0000000
 NMagM=    2.7928460   2.7928460   2.7928460   2.7928460   2.7928460   2.7928460   2.7928460   2.7928460   2.7928460   2.7928460
 AtZNuc=   1.0000000   1.0000000   1.0000000   1.0000000   1.0000000   1.0000000   1.0000000   1.0000000   1.0000000   1.0000000

  Atom        61          62          63          64          65          66          67          68          69          70
 IAtWgt=           1           1           1           1           1           1           1           1           1           1
 AtmWgt=   1.0078250   1.0078250   1.0078250   1.0078250   1.0078250   1.0078250   1.0078250   1.0078250   1.0078250   1.0078250
 NucSpn=           1           1           1           1           1           1           1           1           1           1
 AtZEff=  -0.0000000  -0.0000000  -0.0000000  -0.0000000  -0.0000000  -0.0000000  -0.0000000  -0.0000000  -0.0000000  -0.0000000
 NQMom=    0.0000000   0.0000000   0.0000000   0.0000000   0.0000000   0.0000000   0.0000000   0.0000000   0.0000000   0.0000000
 NMagM=    2.7928460   2.7928460   2.7928460   2.7928460   2.7928460   2.7928460   2.7928460   2.7928460   2.7928460   2.7928460
 AtZNuc=   1.0000000   1.0000000   1.0000000   1.0000000   1.0000000   1.0000000   1.0000000   1.0000000   1.0000000   1.0000000

  Atom        71          72          73          74          75
 IAtWgt=           1           1           1           1           1
 AtmWgt=   1.0078250   1.0078250   1.0078250   1.0078250   1.0078250
 NucSpn=           1           1           1           1           1
 AtZEff=  -0.0000000  -0.0000000  -0.0000000  -0.0000000  -0.0000000
 NQMom=    0.0000000   0.0000000   0.0000000   0.0000000   0.0000000
 NMagM=    2.7928460   2.7928460   2.7928460   2.7928460   2.7928460
 AtZNuc=   1.0000000   1.0000000   1.0000000   1.0000000   1.0000000
 Leave Link  101 at Sat Nov  5 11:48:34 2022, MaxMem=   402653184 cpu:               1.6 elap:               0.2
 (Enter /home/wykgroup/appl/g16/l202.exe)
 Symmetry turned off by external request.
 Stoichiometry    C31H35F7O2
 Framework group  C1[X(C31H35F7O2)]
 Deg. of freedom   219
 Full point group                 C1      NOp   1
                          Input orientation:                          
 ---------------------------------------------------------------------
 Center     Atomic      Atomic             Coordinates (Angstroms)
 Number     Number       Type             X           Y           Z
 ---------------------------------------------------------------------
      1          6           0        9.417541   -0.512949   -4.502062
      2          6           0        9.986911    0.475785   -3.480376
      3          6           0        9.368729    0.340359   -2.094298
      4          8           0        7.980736    0.650486   -2.197839
      5          6           0        7.204552    0.575457   -1.075752
      6          6           0        5.846596    0.882536   -1.249686
      7          6           0        4.974128    0.835752   -0.170618
      8          6           0        5.415074    0.487380    1.119254
      9          6           0        4.468475    0.428979    2.307388
     10          6           0        3.428443   -0.713603    2.166681
     11          6           0        2.312229   -0.563362    3.208371
     12          6           0        1.452625    0.706678    2.968986
     13          6           0        0.134480    0.492690    2.254677
     14          6           0       -0.308440   -0.617545    1.657304
     15          6           0       -1.618966   -0.796940    0.924607
     16          6           0       -2.489833    0.465306    0.829283
     17          6           0       -3.794599    0.209562    0.060223
     18          6           0       -4.598389   -0.945149    0.686975
     19          6           0       -5.887691   -1.213919   -0.075841
     20          9           0       -6.572018   -2.263068    0.479704
     21          9           0       -5.628410   -1.587802   -1.369016
     22          8           0       -6.684579   -0.081745   -0.063629
     23          6           0       -7.913823   -0.042451   -0.685391
     24          6           0       -8.569316    1.187340   -0.573012
     25          6           0       -9.811650    1.329010   -1.162190
     26          9           0      -10.436835    2.511531   -1.051790
     27          6           0      -10.452025    0.301981   -1.868992
     28          6           0      -11.807831    0.563298   -2.473245
     29          9           0      -12.701775    0.913598   -1.521750
     30          9           0      -11.754065    1.583392   -3.358541
     31          9           0      -12.307373   -0.502974   -3.119757
     32          6           0       -9.752522   -0.905091   -1.950299
     33          9           0      -10.283784   -1.946802   -2.606246
     34          6           0       -8.500452   -1.102589   -1.376276
     35          6           0       -3.741321   -2.221232    0.787725
     36          6           0       -2.435983   -1.952042    1.548964
     37          6           0        2.272018    1.787428    2.202908
     38          6           0        3.751573    1.787702    2.610754
     39          6           0        6.770780    0.186673    1.269384
     40          6           0        7.667300    0.224851    0.195846
     41          1           0        8.338410   -0.374620   -4.617078
     42          1           0        9.592148   -1.549637   -4.188243
     43          1           0        9.886075   -0.377183   -5.482904
     44          1           0       11.070592    0.331325   -3.376392
     45          1           0        9.837784    1.505665   -3.828273
     46          1           0        9.852150    1.027839   -1.384852
     47          1           0        9.494865   -0.684304   -1.712467
     48          1           0        5.500161    1.153920   -2.242409
     49          1           0        3.927221    1.076585   -0.337985
     50          1           0        5.082065    0.187461    3.185351
     51          1           0        2.997553   -0.706515    1.157199
     52          1           0        3.935992   -1.679703    2.274808
     53          1           0        2.774028   -0.496177    4.202609
     54          1           0        1.680697   -1.457425    3.237147
     55          1           0        1.209662    1.134049    3.954036
     56          1           0       -0.482196    1.391695    2.209859
     57          1           0        0.305038   -1.519008    1.685063
     58          1           0       -1.374710   -1.106287   -0.106977
     59          1           0       -1.932494    1.273349    0.340242
     60          1           0       -2.729187    0.818257    1.842877
     61          1           0       -3.565496   -0.045200   -0.983020
     62          1           0       -4.402388    1.120268    0.038292
     63          1           0       -4.912945   -0.650197    1.697469
     64          1           0       -8.116571    2.012162   -0.036951
     65          1           0       -8.026133   -2.066404   -1.483845
     66          1           0       -3.511611   -2.574901   -0.226197
     67          1           0       -4.310396   -3.016617    1.280464
     68          1           0       -2.660978   -1.699631    2.595232
     69          1           0       -1.831555   -2.867599    1.573917
     70          1           0        1.830274    2.776761    2.376503
     71          1           0        2.186284    1.603276    1.124485
     72          1           0        3.816523    1.995407    3.687329
     73          1           0        4.279097    2.606705    2.109522
     74          1           0        7.148924   -0.085820    2.252710
     75          1           0        8.710603   -0.016010    0.365307
 ---------------------------------------------------------------------
 Rotational constants (GHZ):           0.1751438           0.0163532           0.0157264
 Leave Link  202 at Sat Nov  5 11:48:34 2022, MaxMem=   402653184 cpu:               1.0 elap:               0.2
 (Enter /home/wykgroup/appl/g16/l301.exe)
 Standard basis: 6-31G(d) (6D, 10F)
 Ernie: Thresh=  0.10000D-02 Tol=  0.10000D-05 Strict=F.
 AO basis set in the form of general basis input (Overlap normalization):
      1 0
 S   6 1.00       0.000000000000
      0.3047524880D+04  0.1834737132D-02
      0.4573695180D+03  0.1403732281D-01
      0.1039486850D+03  0.6884262226D-01
      0.2921015530D+02  0.2321844432D+00
      0.9286662960D+01  0.4679413484D+00
      0.3163926960D+01  0.3623119853D+00
 SP   3 1.00       0.000000000000
      0.7868272350D+01 -0.1193324198D+00  0.6899906659D-01
      0.1881288540D+01 -0.1608541517D+00  0.3164239610D+00
      0.5442492580D+00  0.1143456438D+01  0.7443082909D+00
 SP   1 1.00       0.000000000000
      0.1687144782D+00  0.1000000000D+01  0.1000000000D+01
 D   1 1.00       0.000000000000
      0.8000000000D+00  0.1000000000D+01
 ****
      2 0
 S   6 1.00       0.000000000000
      0.3047524880D+04  0.1834737132D-02
      0.4573695180D+03  0.1403732281D-01
      0.1039486850D+03  0.6884262226D-01
      0.2921015530D+02  0.2321844432D+00
      0.9286662960D+01  0.4679413484D+00
      0.3163926960D+01  0.3623119853D+00
 SP   3 1.00       0.000000000000
      0.7868272350D+01 -0.1193324198D+00  0.6899906659D-01
      0.1881288540D+01 -0.1608541517D+00  0.3164239610D+00
      0.5442492580D+00  0.1143456438D+01  0.7443082909D+00
 SP   1 1.00       0.000000000000
      0.1687144782D+00  0.1000000000D+01  0.1000000000D+01
 D   1 1.00       0.000000000000
      0.8000000000D+00  0.1000000000D+01
 ****
      3 0
 S   6 1.00       0.000000000000
      0.3047524880D+04  0.1834737132D-02
      0.4573695180D+03  0.1403732281D-01
      0.1039486850D+03  0.6884262226D-01
      0.2921015530D+02  0.2321844432D+00
      0.9286662960D+01  0.4679413484D+00
      0.3163926960D+01  0.3623119853D+00
 SP   3 1.00       0.000000000000
      0.7868272350D+01 -0.1193324198D+00  0.6899906659D-01
      0.1881288540D+01 -0.1608541517D+00  0.3164239610D+00
      0.5442492580D+00  0.1143456438D+01  0.7443082909D+00
 SP   1 1.00       0.000000000000
      0.1687144782D+00  0.1000000000D+01  0.1000000000D+01
 D   1 1.00       0.000000000000
      0.8000000000D+00  0.1000000000D+01
 ****
      4 0
 S   6 1.00       0.000000000000
      0.5484671660D+04  0.1831074430D-02
      0.8252349460D+03  0.1395017220D-01
      0.1880469580D+03  0.6844507810D-01
      0.5296450000D+02  0.2327143360D+00
      0.1689757040D+02  0.4701928980D+00
      0.5799635340D+01  0.3585208530D+00
 SP   3 1.00       0.000000000000
      0.1553961625D+02 -0.1107775495D+00  0.7087426823D-01
      0.3599933586D+01 -0.1480262627D+00  0.3397528391D+00
      0.1013761750D+01  0.1130767015D+01  0.7271585773D+00
 SP   1 1.00       0.000000000000
      0.2700058226D+00  0.1000000000D+01  0.1000000000D+01
 D   1 1.00       0.000000000000
      0.8000000000D+00  0.1000000000D+01
 ****
      5 0
 S   6 1.00       0.000000000000
      0.3047524880D+04  0.1834737132D-02
      0.4573695180D+03  0.1403732281D-01
      0.1039486850D+03  0.6884262226D-01
      0.2921015530D+02  0.2321844432D+00
      0.9286662960D+01  0.4679413484D+00
      0.3163926960D+01  0.3623119853D+00
 SP   3 1.00       0.000000000000
      0.7868272350D+01 -0.1193324198D+00  0.6899906659D-01
      0.1881288540D+01 -0.1608541517D+00  0.3164239610D+00
      0.5442492580D+00  0.1143456438D+01  0.7443082909D+00
 SP   1 1.00       0.000000000000
      0.1687144782D+00  0.1000000000D+01  0.1000000000D+01
 D   1 1.00       0.000000000000
      0.8000000000D+00  0.1000000000D+01
 ****
      6 0
 S   6 1.00       0.000000000000
      0.3047524880D+04  0.1834737132D-02
      0.4573695180D+03  0.1403732281D-01
      0.1039486850D+03  0.6884262226D-01
      0.2921015530D+02  0.2321844432D+00
      0.9286662960D+01  0.4679413484D+00
      0.3163926960D+01  0.3623119853D+00
 SP   3 1.00       0.000000000000
      0.7868272350D+01 -0.1193324198D+00  0.6899906659D-01
      0.1881288540D+01 -0.1608541517D+00  0.3164239610D+00
      0.5442492580D+00  0.1143456438D+01  0.7443082909D+00
 SP   1 1.00       0.000000000000
      0.1687144782D+00  0.1000000000D+01  0.1000000000D+01
 D   1 1.00       0.000000000000
      0.8000000000D+00  0.1000000000D+01
 ****
      7 0
 S   6 1.00       0.000000000000
      0.3047524880D+04  0.1834737132D-02
      0.4573695180D+03  0.1403732281D-01
      0.1039486850D+03  0.6884262226D-01
      0.2921015530D+02  0.2321844432D+00
      0.9286662960D+01  0.4679413484D+00
      0.3163926960D+01  0.3623119853D+00
 SP   3 1.00       0.000000000000
      0.7868272350D+01 -0.1193324198D+00  0.6899906659D-01
      0.1881288540D+01 -0.1608541517D+00  0.3164239610D+00
      0.5442492580D+00  0.1143456438D+01  0.7443082909D+00
 SP   1 1.00       0.000000000000
      0.1687144782D+00  0.1000000000D+01  0.1000000000D+01
 D   1 1.00       0.000000000000
      0.8000000000D+00  0.1000000000D+01
 ****
      8 0
 S   6 1.00       0.000000000000
      0.3047524880D+04  0.1834737132D-02
      0.4573695180D+03  0.1403732281D-01
      0.1039486850D+03  0.6884262226D-01
      0.2921015530D+02  0.2321844432D+00
      0.9286662960D+01  0.4679413484D+00
      0.3163926960D+01  0.3623119853D+00
 SP   3 1.00       0.000000000000
      0.7868272350D+01 -0.1193324198D+00  0.6899906659D-01
      0.1881288540D+01 -0.1608541517D+00  0.3164239610D+00
      0.5442492580D+00  0.1143456438D+01  0.7443082909D+00
 SP   1 1.00       0.000000000000
      0.1687144782D+00  0.1000000000D+01  0.1000000000D+01
 D   1 1.00       0.000000000000
      0.8000000000D+00  0.1000000000D+01
 ****
      9 0
 S   6 1.00       0.000000000000
      0.3047524880D+04  0.1834737132D-02
      0.4573695180D+03  0.1403732281D-01
      0.1039486850D+03  0.6884262226D-01
      0.2921015530D+02  0.2321844432D+00
      0.9286662960D+01  0.4679413484D+00
      0.3163926960D+01  0.3623119853D+00
 SP   3 1.00       0.000000000000
      0.7868272350D+01 -0.1193324198D+00  0.6899906659D-01
      0.1881288540D+01 -0.1608541517D+00  0.3164239610D+00
      0.5442492580D+00  0.1143456438D+01  0.7443082909D+00
 SP   1 1.00       0.000000000000
      0.1687144782D+00  0.1000000000D+01  0.1000000000D+01
 D   1 1.00       0.000000000000
      0.8000000000D+00  0.1000000000D+01
 ****
     10 0
 S   6 1.00       0.000000000000
      0.3047524880D+04  0.1834737132D-02
      0.4573695180D+03  0.1403732281D-01
      0.1039486850D+03  0.6884262226D-01
      0.2921015530D+02  0.2321844432D+00
      0.9286662960D+01  0.4679413484D+00
      0.3163926960D+01  0.3623119853D+00
 SP   3 1.00       0.000000000000
      0.7868272350D+01 -0.1193324198D+00  0.6899906659D-01
      0.1881288540D+01 -0.1608541517D+00  0.3164239610D+00
      0.5442492580D+00  0.1143456438D+01  0.7443082909D+00
 SP   1 1.00       0.000000000000
      0.1687144782D+00  0.1000000000D+01  0.1000000000D+01
 D   1 1.00       0.000000000000
      0.8000000000D+00  0.1000000000D+01
 ****
     11 0
 S   6 1.00       0.000000000000
      0.3047524880D+04  0.1834737132D-02
      0.4573695180D+03  0.1403732281D-01
      0.1039486850D+03  0.6884262226D-01
      0.2921015530D+02  0.2321844432D+00
      0.9286662960D+01  0.4679413484D+00
      0.3163926960D+01  0.3623119853D+00
 SP   3 1.00       0.000000000000
      0.7868272350D+01 -0.1193324198D+00  0.6899906659D-01
      0.1881288540D+01 -0.1608541517D+00  0.3164239610D+00
      0.5442492580D+00  0.1143456438D+01  0.7443082909D+00
 SP   1 1.00       0.000000000000
      0.1687144782D+00  0.1000000000D+01  0.1000000000D+01
 D   1 1.00       0.000000000000
      0.8000000000D+00  0.1000000000D+01
 ****
     12 0
 S   6 1.00       0.000000000000
      0.3047524880D+04  0.1834737132D-02
      0.4573695180D+03  0.1403732281D-01
      0.1039486850D+03  0.6884262226D-01
      0.2921015530D+02  0.2321844432D+00
      0.9286662960D+01  0.4679413484D+00
      0.3163926960D+01  0.3623119853D+00
 SP   3 1.00       0.000000000000
      0.7868272350D+01 -0.1193324198D+00  0.6899906659D-01
      0.1881288540D+01 -0.1608541517D+00  0.3164239610D+00
      0.5442492580D+00  0.1143456438D+01  0.7443082909D+00
 SP   1 1.00       0.000000000000
      0.1687144782D+00  0.1000000000D+01  0.1000000000D+01
 D   1 1.00       0.000000000000
      0.8000000000D+00  0.1000000000D+01
 ****
     13 0
 S   6 1.00       0.000000000000
      0.3047524880D+04  0.1834737132D-02
      0.4573695180D+03  0.1403732281D-01
      0.1039486850D+03  0.6884262226D-01
      0.2921015530D+02  0.2321844432D+00
      0.9286662960D+01  0.4679413484D+00
      0.3163926960D+01  0.3623119853D+00
 SP   3 1.00       0.000000000000
      0.7868272350D+01 -0.1193324198D+00  0.6899906659D-01
      0.1881288540D+01 -0.1608541517D+00  0.3164239610D+00
      0.5442492580D+00  0.1143456438D+01  0.7443082909D+00
 SP   1 1.00       0.000000000000
      0.1687144782D+00  0.1000000000D+01  0.1000000000D+01
 D   1 1.00       0.000000000000
      0.8000000000D+00  0.1000000000D+01
 ****
     14 0
 S   6 1.00       0.000000000000
      0.3047524880D+04  0.1834737132D-02
      0.4573695180D+03  0.1403732281D-01
      0.1039486850D+03  0.6884262226D-01
      0.2921015530D+02  0.2321844432D+00
      0.9286662960D+01  0.4679413484D+00
      0.3163926960D+01  0.3623119853D+00
 SP   3 1.00       0.000000000000
      0.7868272350D+01 -0.1193324198D+00  0.6899906659D-01
      0.1881288540D+01 -0.1608541517D+00  0.3164239610D+00
      0.5442492580D+00  0.1143456438D+01  0.7443082909D+00
 SP   1 1.00       0.000000000000
      0.1687144782D+00  0.1000000000D+01  0.1000000000D+01
 D   1 1.00       0.000000000000
      0.8000000000D+00  0.1000000000D+01
 ****
     15 0
 S   6 1.00       0.000000000000
      0.3047524880D+04  0.1834737132D-02
      0.4573695180D+03  0.1403732281D-01
      0.1039486850D+03  0.6884262226D-01
      0.2921015530D+02  0.2321844432D+00
      0.9286662960D+01  0.4679413484D+00
      0.3163926960D+01  0.3623119853D+00
 SP   3 1.00       0.000000000000
      0.7868272350D+01 -0.1193324198D+00  0.6899906659D-01
      0.1881288540D+01 -0.1608541517D+00  0.3164239610D+00
      0.5442492580D+00  0.1143456438D+01  0.7443082909D+00
 SP   1 1.00       0.000000000000
      0.1687144782D+00  0.1000000000D+01  0.1000000000D+01
 D   1 1.00       0.000000000000
      0.8000000000D+00  0.1000000000D+01
 ****
     16 0
 S   6 1.00       0.000000000000
      0.3047524880D+04  0.1834737132D-02
      0.4573695180D+03  0.1403732281D-01
      0.1039486850D+03  0.6884262226D-01
      0.2921015530D+02  0.2321844432D+00
      0.9286662960D+01  0.4679413484D+00
      0.3163926960D+01  0.3623119853D+00
 SP   3 1.00       0.000000000000
      0.7868272350D+01 -0.1193324198D+00  0.6899906659D-01
      0.1881288540D+01 -0.1608541517D+00  0.3164239610D+00
      0.5442492580D+00  0.1143456438D+01  0.7443082909D+00
 SP   1 1.00       0.000000000000
      0.1687144782D+00  0.1000000000D+01  0.1000000000D+01
 D   1 1.00       0.000000000000
      0.8000000000D+00  0.1000000000D+01
 ****
     17 0
 S   6 1.00       0.000000000000
      0.3047524880D+04  0.1834737132D-02
      0.4573695180D+03  0.1403732281D-01
      0.1039486850D+03  0.6884262226D-01
      0.2921015530D+02  0.2321844432D+00
      0.9286662960D+01  0.4679413484D+00
      0.3163926960D+01  0.3623119853D+00
 SP   3 1.00       0.000000000000
      0.7868272350D+01 -0.1193324198D+00  0.6899906659D-01
      0.1881288540D+01 -0.1608541517D+00  0.3164239610D+00
      0.5442492580D+00  0.1143456438D+01  0.7443082909D+00
 SP   1 1.00       0.000000000000
      0.1687144782D+00  0.1000000000D+01  0.1000000000D+01
 D   1 1.00       0.000000000000
      0.8000000000D+00  0.1000000000D+01
 ****
     18 0
 S   6 1.00       0.000000000000
      0.3047524880D+04  0.1834737132D-02
      0.4573695180D+03  0.1403732281D-01
      0.1039486850D+03  0.6884262226D-01
      0.2921015530D+02  0.2321844432D+00
      0.9286662960D+01  0.4679413484D+00
      0.3163926960D+01  0.3623119853D+00
 SP   3 1.00       0.000000000000
      0.7868272350D+01 -0.1193324198D+00  0.6899906659D-01
      0.1881288540D+01 -0.1608541517D+00  0.3164239610D+00
      0.5442492580D+00  0.1143456438D+01  0.7443082909D+00
 SP   1 1.00       0.000000000000
      0.1687144782D+00  0.1000000000D+01  0.1000000000D+01
 D   1 1.00       0.000000000000
      0.8000000000D+00  0.1000000000D+01
 ****
     19 0
 S   6 1.00       0.000000000000
      0.3047524880D+04  0.1834737132D-02
      0.4573695180D+03  0.1403732281D-01
      0.1039486850D+03  0.6884262226D-01
      0.2921015530D+02  0.2321844432D+00
      0.9286662960D+01  0.4679413484D+00
      0.3163926960D+01  0.3623119853D+00
 SP   3 1.00       0.000000000000
      0.7868272350D+01 -0.1193324198D+00  0.6899906659D-01
      0.1881288540D+01 -0.1608541517D+00  0.3164239610D+00
      0.5442492580D+00  0.1143456438D+01  0.7443082909D+00
 SP   1 1.00       0.000000000000
      0.1687144782D+00  0.1000000000D+01  0.1000000000D+01
 D   1 1.00       0.000000000000
      0.8000000000D+00  0.1000000000D+01
 ****
     20 0
 S   6 1.00       0.000000000000
      0.7001713090D+04  0.1819616901D-02
      0.1051366090D+04  0.1391607961D-01
      0.2392856900D+03  0.6840532453D-01
      0.6739744530D+02  0.2331857601D+00
      0.2151995730D+02  0.4712674392D+00
      0.7403101300D+01  0.3566185462D+00
 SP   3 1.00       0.000000000000
      0.2084795280D+02 -0.1085069751D+00  0.7162872424D-01
      0.4808308340D+01 -0.1464516581D+00  0.3459121027D+00
      0.1344069860D+01  0.1128688581D+01  0.7224699564D+00
 SP   1 1.00       0.000000000000
      0.3581513930D+00  0.1000000000D+01  0.1000000000D+01
 D   1 1.00       0.000000000000
      0.8000000000D+00  0.1000000000D+01
 ****
     21 0
 S   6 1.00       0.000000000000
      0.7001713090D+04  0.1819616901D-02
      0.1051366090D+04  0.1391607961D-01
      0.2392856900D+03  0.6840532453D-01
      0.6739744530D+02  0.2331857601D+00
      0.2151995730D+02  0.4712674392D+00
      0.7403101300D+01  0.3566185462D+00
 SP   3 1.00       0.000000000000
      0.2084795280D+02 -0.1085069751D+00  0.7162872424D-01
      0.4808308340D+01 -0.1464516581D+00  0.3459121027D+00
      0.1344069860D+01  0.1128688581D+01  0.7224699564D+00
 SP   1 1.00       0.000000000000
      0.3581513930D+00  0.1000000000D+01  0.1000000000D+01
 D   1 1.00       0.000000000000
      0.8000000000D+00  0.1000000000D+01
 ****
     22 0
 S   6 1.00       0.000000000000
      0.5484671660D+04  0.1831074430D-02
      0.8252349460D+03  0.1395017220D-01
      0.1880469580D+03  0.6844507810D-01
      0.5296450000D+02  0.2327143360D+00
      0.1689757040D+02  0.4701928980D+00
      0.5799635340D+01  0.3585208530D+00
 SP   3 1.00       0.000000000000
      0.1553961625D+02 -0.1107775495D+00  0.7087426823D-01
      0.3599933586D+01 -0.1480262627D+00  0.3397528391D+00
      0.1013761750D+01  0.1130767015D+01  0.7271585773D+00
 SP   1 1.00       0.000000000000
      0.2700058226D+00  0.1000000000D+01  0.1000000000D+01
 D   1 1.00       0.000000000000
      0.8000000000D+00  0.1000000000D+01
 ****
     23 0
 S   6 1.00       0.000000000000
      0.3047524880D+04  0.1834737132D-02
      0.4573695180D+03  0.1403732281D-01
      0.1039486850D+03  0.6884262226D-01
      0.2921015530D+02  0.2321844432D+00
      0.9286662960D+01  0.4679413484D+00
      0.3163926960D+01  0.3623119853D+00
 SP   3 1.00       0.000000000000
      0.7868272350D+01 -0.1193324198D+00  0.6899906659D-01
      0.1881288540D+01 -0.1608541517D+00  0.3164239610D+00
      0.5442492580D+00  0.1143456438D+01  0.7443082909D+00
 SP   1 1.00       0.000000000000
      0.1687144782D+00  0.1000000000D+01  0.1000000000D+01
 D   1 1.00       0.000000000000
      0.8000000000D+00  0.1000000000D+01
 ****
     24 0
 S   6 1.00       0.000000000000
      0.3047524880D+04  0.1834737132D-02
      0.4573695180D+03  0.1403732281D-01
      0.1039486850D+03  0.6884262226D-01
      0.2921015530D+02  0.2321844432D+00
      0.9286662960D+01  0.4679413484D+00
      0.3163926960D+01  0.3623119853D+00
 SP   3 1.00       0.000000000000
      0.7868272350D+01 -0.1193324198D+00  0.6899906659D-01
      0.1881288540D+01 -0.1608541517D+00  0.3164239610D+00
      0.5442492580D+00  0.1143456438D+01  0.7443082909D+00
 SP   1 1.00       0.000000000000
      0.1687144782D+00  0.1000000000D+01  0.1000000000D+01
 D   1 1.00       0.000000000000
      0.8000000000D+00  0.1000000000D+01
 ****
     25 0
 S   6 1.00       0.000000000000
      0.3047524880D+04  0.1834737132D-02
      0.4573695180D+03  0.1403732281D-01
      0.1039486850D+03  0.6884262226D-01
      0.2921015530D+02  0.2321844432D+00
      0.9286662960D+01  0.4679413484D+00
      0.3163926960D+01  0.3623119853D+00
 SP   3 1.00       0.000000000000
      0.7868272350D+01 -0.1193324198D+00  0.6899906659D-01
      0.1881288540D+01 -0.1608541517D+00  0.3164239610D+00
      0.5442492580D+00  0.1143456438D+01  0.7443082909D+00
 SP   1 1.00       0.000000000000
      0.1687144782D+00  0.1000000000D+01  0.1000000000D+01
 D   1 1.00       0.000000000000
      0.8000000000D+00  0.1000000000D+01
 ****
     26 0
 S   6 1.00       0.000000000000
      0.7001713090D+04  0.1819616901D-02
      0.1051366090D+04  0.1391607961D-01
      0.2392856900D+03  0.6840532453D-01
      0.6739744530D+02  0.2331857601D+00
      0.2151995730D+02  0.4712674392D+00
      0.7403101300D+01  0.3566185462D+00
 SP   3 1.00       0.000000000000
      0.2084795280D+02 -0.1085069751D+00  0.7162872424D-01
      0.4808308340D+01 -0.1464516581D+00  0.3459121027D+00
      0.1344069860D+01  0.1128688581D+01  0.7224699564D+00
 SP   1 1.00       0.000000000000
      0.3581513930D+00  0.1000000000D+01  0.1000000000D+01
 D   1 1.00       0.000000000000
      0.8000000000D+00  0.1000000000D+01
 ****
     27 0
 S   6 1.00       0.000000000000
      0.3047524880D+04  0.1834737132D-02
      0.4573695180D+03  0.1403732281D-01
      0.1039486850D+03  0.6884262226D-01
      0.2921015530D+02  0.2321844432D+00
      0.9286662960D+01  0.4679413484D+00
      0.3163926960D+01  0.3623119853D+00
 SP   3 1.00       0.000000000000
      0.7868272350D+01 -0.1193324198D+00  0.6899906659D-01
      0.1881288540D+01 -0.1608541517D+00  0.3164239610D+00
      0.5442492580D+00  0.1143456438D+01  0.7443082909D+00
 SP   1 1.00       0.000000000000
      0.1687144782D+00  0.1000000000D+01  0.1000000000D+01
 D   1 1.00       0.000000000000
      0.8000000000D+00  0.1000000000D+01
 ****
     28 0
 S   6 1.00       0.000000000000
      0.3047524880D+04  0.1834737132D-02
      0.4573695180D+03  0.1403732281D-01
      0.1039486850D+03  0.6884262226D-01
      0.2921015530D+02  0.2321844432D+00
      0.9286662960D+01  0.4679413484D+00
      0.3163926960D+01  0.3623119853D+00
 SP   3 1.00       0.000000000000
      0.7868272350D+01 -0.1193324198D+00  0.6899906659D-01
      0.1881288540D+01 -0.1608541517D+00  0.3164239610D+00
      0.5442492580D+00  0.1143456438D+01  0.7443082909D+00
 SP   1 1.00       0.000000000000
      0.1687144782D+00  0.1000000000D+01  0.1000000000D+01
 D   1 1.00       0.000000000000
      0.8000000000D+00  0.1000000000D+01
 ****
     29 0
 S   6 1.00       0.000000000000
      0.7001713090D+04  0.1819616901D-02
      0.1051366090D+04  0.1391607961D-01
      0.2392856900D+03  0.6840532453D-01
      0.6739744530D+02  0.2331857601D+00
      0.2151995730D+02  0.4712674392D+00
      0.7403101300D+01  0.3566185462D+00
 SP   3 1.00       0.000000000000
      0.2084795280D+02 -0.1085069751D+00  0.7162872424D-01
      0.4808308340D+01 -0.1464516581D+00  0.3459121027D+00
      0.1344069860D+01  0.1128688581D+01  0.7224699564D+00
 SP   1 1.00       0.000000000000
      0.3581513930D+00  0.1000000000D+01  0.1000000000D+01
 D   1 1.00       0.000000000000
      0.8000000000D+00  0.1000000000D+01
 ****
     30 0
 S   6 1.00       0.000000000000
      0.7001713090D+04  0.1819616901D-02
      0.1051366090D+04  0.1391607961D-01
      0.2392856900D+03  0.6840532453D-01
      0.6739744530D+02  0.2331857601D+00
      0.2151995730D+02  0.4712674392D+00
      0.7403101300D+01  0.3566185462D+00
 SP   3 1.00       0.000000000000
      0.2084795280D+02 -0.1085069751D+00  0.7162872424D-01
      0.4808308340D+01 -0.1464516581D+00  0.3459121027D+00
      0.1344069860D+01  0.1128688581D+01  0.7224699564D+00
 SP   1 1.00       0.000000000000
      0.3581513930D+00  0.1000000000D+01  0.1000000000D+01
 D   1 1.00       0.000000000000
      0.8000000000D+00  0.1000000000D+01
 ****
     31 0
 S   6 1.00       0.000000000000
      0.7001713090D+04  0.1819616901D-02
      0.1051366090D+04  0.1391607961D-01
      0.2392856900D+03  0.6840532453D-01
      0.6739744530D+02  0.2331857601D+00
      0.2151995730D+02  0.4712674392D+00
      0.7403101300D+01  0.3566185462D+00
 SP   3 1.00       0.000000000000
      0.2084795280D+02 -0.1085069751D+00  0.7162872424D-01
      0.4808308340D+01 -0.1464516581D+00  0.3459121027D+00
      0.1344069860D+01  0.1128688581D+01  0.7224699564D+00
 SP   1 1.00       0.000000000000
      0.3581513930D+00  0.1000000000D+01  0.1000000000D+01
 D   1 1.00       0.000000000000
      0.8000000000D+00  0.1000000000D+01
 ****
     32 0
 S   6 1.00       0.000000000000
      0.3047524880D+04  0.1834737132D-02
      0.4573695180D+03  0.1403732281D-01
      0.1039486850D+03  0.6884262226D-01
      0.2921015530D+02  0.2321844432D+00
      0.9286662960D+01  0.4679413484D+00
      0.3163926960D+01  0.3623119853D+00
 SP   3 1.00       0.000000000000
      0.7868272350D+01 -0.1193324198D+00  0.6899906659D-01
      0.1881288540D+01 -0.1608541517D+00  0.3164239610D+00
      0.5442492580D+00  0.1143456438D+01  0.7443082909D+00
 SP   1 1.00       0.000000000000
      0.1687144782D+00  0.1000000000D+01  0.1000000000D+01
 D   1 1.00       0.000000000000
      0.8000000000D+00  0.1000000000D+01
 ****
     33 0
 S   6 1.00       0.000000000000
      0.7001713090D+04  0.1819616901D-02
      0.1051366090D+04  0.1391607961D-01
      0.2392856900D+03  0.6840532453D-01
      0.6739744530D+02  0.2331857601D+00
      0.2151995730D+02  0.4712674392D+00
      0.7403101300D+01  0.3566185462D+00
 SP   3 1.00       0.000000000000
      0.2084795280D+02 -0.1085069751D+00  0.7162872424D-01
      0.4808308340D+01 -0.1464516581D+00  0.3459121027D+00
      0.1344069860D+01  0.1128688581D+01  0.7224699564D+00
 SP   1 1.00       0.000000000000
      0.3581513930D+00  0.1000000000D+01  0.1000000000D+01
 D   1 1.00       0.000000000000
      0.8000000000D+00  0.1000000000D+01
 ****
     34 0
 S   6 1.00       0.000000000000
      0.3047524880D+04  0.1834737132D-02
      0.4573695180D+03  0.1403732281D-01
      0.1039486850D+03  0.6884262226D-01
      0.2921015530D+02  0.2321844432D+00
      0.9286662960D+01  0.4679413484D+00
      0.3163926960D+01  0.3623119853D+00
 SP   3 1.00       0.000000000000
      0.7868272350D+01 -0.1193324198D+00  0.6899906659D-01
      0.1881288540D+01 -0.1608541517D+00  0.3164239610D+00
      0.5442492580D+00  0.1143456438D+01  0.7443082909D+00
 SP   1 1.00       0.000000000000
      0.1687144782D+00  0.1000000000D+01  0.1000000000D+01
 D   1 1.00       0.000000000000
      0.8000000000D+00  0.1000000000D+01
 ****
     35 0
 S   6 1.00       0.000000000000
      0.3047524880D+04  0.1834737132D-02
      0.4573695180D+03  0.1403732281D-01
      0.1039486850D+03  0.6884262226D-01
      0.2921015530D+02  0.2321844432D+00
      0.9286662960D+01  0.4679413484D+00
      0.3163926960D+01  0.3623119853D+00
 SP   3 1.00       0.000000000000
      0.7868272350D+01 -0.1193324198D+00  0.6899906659D-01
      0.1881288540D+01 -0.1608541517D+00  0.3164239610D+00
      0.5442492580D+00  0.1143456438D+01  0.7443082909D+00
 SP   1 1.00       0.000000000000
      0.1687144782D+00  0.1000000000D+01  0.1000000000D+01
 D   1 1.00       0.000000000000
      0.8000000000D+00  0.1000000000D+01
 ****
     36 0
 S   6 1.00       0.000000000000
      0.3047524880D+04  0.1834737132D-02
      0.4573695180D+03  0.1403732281D-01
      0.1039486850D+03  0.6884262226D-01
      0.2921015530D+02  0.2321844432D+00
      0.9286662960D+01  0.4679413484D+00
      0.3163926960D+01  0.3623119853D+00
 SP   3 1.00       0.000000000000
      0.7868272350D+01 -0.1193324198D+00  0.6899906659D-01
      0.1881288540D+01 -0.1608541517D+00  0.3164239610D+00
      0.5442492580D+00  0.1143456438D+01  0.7443082909D+00
 SP   1 1.00       0.000000000000
      0.1687144782D+00  0.1000000000D+01  0.1000000000D+01
 D   1 1.00       0.000000000000
      0.8000000000D+00  0.1000000000D+01
 ****
     37 0
 S   6 1.00       0.000000000000
      0.3047524880D+04  0.1834737132D-02
      0.4573695180D+03  0.1403732281D-01
      0.1039486850D+03  0.6884262226D-01
      0.2921015530D+02  0.2321844432D+00
      0.9286662960D+01  0.4679413484D+00
      0.3163926960D+01  0.3623119853D+00
 SP   3 1.00       0.000000000000
      0.7868272350D+01 -0.1193324198D+00  0.6899906659D-01
      0.1881288540D+01 -0.1608541517D+00  0.3164239610D+00
      0.5442492580D+00  0.1143456438D+01  0.7443082909D+00
 SP   1 1.00       0.000000000000
      0.1687144782D+00  0.1000000000D+01  0.1000000000D+01
 D   1 1.00       0.000000000000
      0.8000000000D+00  0.1000000000D+01
 ****
     38 0
 S   6 1.00       0.000000000000
      0.3047524880D+04  0.1834737132D-02
      0.4573695180D+03  0.1403732281D-01
      0.1039486850D+03  0.6884262226D-01
      0.2921015530D+02  0.2321844432D+00
      0.9286662960D+01  0.4679413484D+00
      0.3163926960D+01  0.3623119853D+00
 SP   3 1.00       0.000000000000
      0.7868272350D+01 -0.1193324198D+00  0.6899906659D-01
      0.1881288540D+01 -0.1608541517D+00  0.3164239610D+00
      0.5442492580D+00  0.1143456438D+01  0.7443082909D+00
 SP   1 1.00       0.000000000000
      0.1687144782D+00  0.1000000000D+01  0.1000000000D+01
 D   1 1.00       0.000000000000
      0.8000000000D+00  0.1000000000D+01
 ****
     39 0
 S   6 1.00       0.000000000000
      0.3047524880D+04  0.1834737132D-02
      0.4573695180D+03  0.1403732281D-01
      0.1039486850D+03  0.6884262226D-01
      0.2921015530D+02  0.2321844432D+00
      0.9286662960D+01  0.4679413484D+00
      0.3163926960D+01  0.3623119853D+00
 SP   3 1.00       0.000000000000
      0.7868272350D+01 -0.1193324198D+00  0.6899906659D-01
      0.1881288540D+01 -0.1608541517D+00  0.3164239610D+00
      0.5442492580D+00  0.1143456438D+01  0.7443082909D+00
 SP   1 1.00       0.000000000000
      0.1687144782D+00  0.1000000000D+01  0.1000000000D+01
 D   1 1.00       0.000000000000
      0.8000000000D+00  0.1000000000D+01
 ****
     40 0
 S   6 1.00       0.000000000000
      0.3047524880D+04  0.1834737132D-02
      0.4573695180D+03  0.1403732281D-01
      0.1039486850D+03  0.6884262226D-01
      0.2921015530D+02  0.2321844432D+00
      0.9286662960D+01  0.4679413484D+00
      0.3163926960D+01  0.3623119853D+00
 SP   3 1.00       0.000000000000
      0.7868272350D+01 -0.1193324198D+00  0.6899906659D-01
      0.1881288540D+01 -0.1608541517D+00  0.3164239610D+00
      0.5442492580D+00  0.1143456438D+01  0.7443082909D+00
 SP   1 1.00       0.000000000000
      0.1687144782D+00  0.1000000000D+01  0.1000000000D+01
 D   1 1.00       0.000000000000
      0.8000000000D+00  0.1000000000D+01
 ****
     41 0
 S   3 1.00       0.000000000000
      0.1873113696D+02  0.3349460434D-01
      0.2825394365D+01  0.2347269535D+00
      0.6401216923D+00  0.8137573261D+00
 S   1 1.00       0.000000000000
      0.1612777588D+00  0.1000000000D+01
 ****
     42 0
 S   3 1.00       0.000000000000
      0.1873113696D+02  0.3349460434D-01
      0.2825394365D+01  0.2347269535D+00
      0.6401216923D+00  0.8137573261D+00
 S   1 1.00       0.000000000000
      0.1612777588D+00  0.1000000000D+01
 ****
     43 0
 S   3 1.00       0.000000000000
      0.1873113696D+02  0.3349460434D-01
      0.2825394365D+01  0.2347269535D+00
      0.6401216923D+00  0.8137573261D+00
 S   1 1.00       0.000000000000
      0.1612777588D+00  0.1000000000D+01
 ****
     44 0
 S   3 1.00       0.000000000000
      0.1873113696D+02  0.3349460434D-01
      0.2825394365D+01  0.2347269535D+00
      0.6401216923D+00  0.8137573261D+00
 S   1 1.00       0.000000000000
      0.1612777588D+00  0.1000000000D+01
 ****
     45 0
 S   3 1.00       0.000000000000
      0.1873113696D+02  0.3349460434D-01
      0.2825394365D+01  0.2347269535D+00
      0.6401216923D+00  0.8137573261D+00
 S   1 1.00       0.000000000000
      0.1612777588D+00  0.1000000000D+01
 ****
     46 0
 S   3 1.00       0.000000000000
      0.1873113696D+02  0.3349460434D-01
      0.2825394365D+01  0.2347269535D+00
      0.6401216923D+00  0.8137573261D+00
 S   1 1.00       0.000000000000
      0.1612777588D+00  0.1000000000D+01
 ****
     47 0
 S   3 1.00       0.000000000000
      0.1873113696D+02  0.3349460434D-01
      0.2825394365D+01  0.2347269535D+00
      0.6401216923D+00  0.8137573261D+00
 S   1 1.00       0.000000000000
      0.1612777588D+00  0.1000000000D+01
 ****
     48 0
 S   3 1.00       0.000000000000
      0.1873113696D+02  0.3349460434D-01
      0.2825394365D+01  0.2347269535D+00
      0.6401216923D+00  0.8137573261D+00
 S   1 1.00       0.000000000000
      0.1612777588D+00  0.1000000000D+01
 ****
     49 0
 S   3 1.00       0.000000000000
      0.1873113696D+02  0.3349460434D-01
      0.2825394365D+01  0.2347269535D+00
      0.6401216923D+00  0.8137573261D+00
 S   1 1.00       0.000000000000
      0.1612777588D+00  0.1000000000D+01
 ****
     50 0
 S   3 1.00       0.000000000000
      0.1873113696D+02  0.3349460434D-01
      0.2825394365D+01  0.2347269535D+00
      0.6401216923D+00  0.8137573261D+00
 S   1 1.00       0.000000000000
      0.1612777588D+00  0.1000000000D+01
 ****
     51 0
 S   3 1.00       0.000000000000
      0.1873113696D+02  0.3349460434D-01
      0.2825394365D+01  0.2347269535D+00
      0.6401216923D+00  0.8137573261D+00
 S   1 1.00       0.000000000000
      0.1612777588D+00  0.1000000000D+01
 ****
     52 0
 S   3 1.00       0.000000000000
      0.1873113696D+02  0.3349460434D-01
      0.2825394365D+01  0.2347269535D+00
      0.6401216923D+00  0.8137573261D+00
 S   1 1.00       0.000000000000
      0.1612777588D+00  0.1000000000D+01
 ****
     53 0
 S   3 1.00       0.000000000000
      0.1873113696D+02  0.3349460434D-01
      0.2825394365D+01  0.2347269535D+00
      0.6401216923D+00  0.8137573261D+00
 S   1 1.00       0.000000000000
      0.1612777588D+00  0.1000000000D+01
 ****
     54 0
 S   3 1.00       0.000000000000
      0.1873113696D+02  0.3349460434D-01
      0.2825394365D+01  0.2347269535D+00
      0.6401216923D+00  0.8137573261D+00
 S   1 1.00       0.000000000000
      0.1612777588D+00  0.1000000000D+01
 ****
     55 0
 S   3 1.00       0.000000000000
      0.1873113696D+02  0.3349460434D-01
      0.2825394365D+01  0.2347269535D+00
      0.6401216923D+00  0.8137573261D+00
 S   1 1.00       0.000000000000
      0.1612777588D+00  0.1000000000D+01
 ****
     56 0
 S   3 1.00       0.000000000000
      0.1873113696D+02  0.3349460434D-01
      0.2825394365D+01  0.2347269535D+00
      0.6401216923D+00  0.8137573261D+00
 S   1 1.00       0.000000000000
      0.1612777588D+00  0.1000000000D+01
 ****
     57 0
 S   3 1.00       0.000000000000
      0.1873113696D+02  0.3349460434D-01
      0.2825394365D+01  0.2347269535D+00
      0.6401216923D+00  0.8137573261D+00
 S   1 1.00       0.000000000000
      0.1612777588D+00  0.1000000000D+01
 ****
     58 0
 S   3 1.00       0.000000000000
      0.1873113696D+02  0.3349460434D-01
      0.2825394365D+01  0.2347269535D+00
      0.6401216923D+00  0.8137573261D+00
 S   1 1.00       0.000000000000
      0.1612777588D+00  0.1000000000D+01
 ****
     59 0
 S   3 1.00       0.000000000000
      0.1873113696D+02  0.3349460434D-01
      0.2825394365D+01  0.2347269535D+00
      0.6401216923D+00  0.8137573261D+00
 S   1 1.00       0.000000000000
      0.1612777588D+00  0.1000000000D+01
 ****
     60 0
 S   3 1.00       0.000000000000
      0.1873113696D+02  0.3349460434D-01
      0.2825394365D+01  0.2347269535D+00
      0.6401216923D+00  0.8137573261D+00
 S   1 1.00       0.000000000000
      0.1612777588D+00  0.1000000000D+01
 ****
     61 0
 S   3 1.00       0.000000000000
      0.1873113696D+02  0.3349460434D-01
      0.2825394365D+01  0.2347269535D+00
      0.6401216923D+00  0.8137573261D+00
 S   1 1.00       0.000000000000
      0.1612777588D+00  0.1000000000D+01
 ****
     62 0
 S   3 1.00       0.000000000000
      0.1873113696D+02  0.3349460434D-01
      0.2825394365D+01  0.2347269535D+00
      0.6401216923D+00  0.8137573261D+00
 S   1 1.00       0.000000000000
      0.1612777588D+00  0.1000000000D+01
 ****
     63 0
 S   3 1.00       0.000000000000
      0.1873113696D+02  0.3349460434D-01
      0.2825394365D+01  0.2347269535D+00
      0.6401216923D+00  0.8137573261D+00
 S   1 1.00       0.000000000000
      0.1612777588D+00  0.1000000000D+01
 ****
     64 0
 S   3 1.00       0.000000000000
      0.1873113696D+02  0.3349460434D-01
      0.2825394365D+01  0.2347269535D+00
      0.6401216923D+00  0.8137573261D+00
 S   1 1.00       0.000000000000
      0.1612777588D+00  0.1000000000D+01
 ****
     65 0
 S   3 1.00       0.000000000000
      0.1873113696D+02  0.3349460434D-01
      0.2825394365D+01  0.2347269535D+00
      0.6401216923D+00  0.8137573261D+00
 S   1 1.00       0.000000000000
      0.1612777588D+00  0.1000000000D+01
 ****
     66 0
 S   3 1.00       0.000000000000
      0.1873113696D+02  0.3349460434D-01
      0.2825394365D+01  0.2347269535D+00
      0.6401216923D+00  0.8137573261D+00
 S   1 1.00       0.000000000000
      0.1612777588D+00  0.1000000000D+01
 ****
     67 0
 S   3 1.00       0.000000000000
      0.1873113696D+02  0.3349460434D-01
      0.2825394365D+01  0.2347269535D+00
      0.6401216923D+00  0.8137573261D+00
 S   1 1.00       0.000000000000
      0.1612777588D+00  0.1000000000D+01
 ****
     68 0
 S   3 1.00       0.000000000000
      0.1873113696D+02  0.3349460434D-01
      0.2825394365D+01  0.2347269535D+00
      0.6401216923D+00  0.8137573261D+00
 S   1 1.00       0.000000000000
      0.1612777588D+00  0.1000000000D+01
 ****
     69 0
 S   3 1.00       0.000000000000
      0.1873113696D+02  0.3349460434D-01
      0.2825394365D+01  0.2347269535D+00
      0.6401216923D+00  0.8137573261D+00
 S   1 1.00       0.000000000000
      0.1612777588D+00  0.1000000000D+01
 ****
     70 0
 S   3 1.00       0.000000000000
      0.1873113696D+02  0.3349460434D-01
      0.2825394365D+01  0.2347269535D+00
      0.6401216923D+00  0.8137573261D+00
 S   1 1.00       0.000000000000
      0.1612777588D+00  0.1000000000D+01
 ****
     71 0
 S   3 1.00       0.000000000000
      0.1873113696D+02  0.3349460434D-01
      0.2825394365D+01  0.2347269535D+00
      0.6401216923D+00  0.8137573261D+00
 S   1 1.00       0.000000000000
      0.1612777588D+00  0.1000000000D+01
 ****
     72 0
 S   3 1.00       0.000000000000
      0.1873113696D+02  0.3349460434D-01
      0.2825394365D+01  0.2347269535D+00
      0.6401216923D+00  0.8137573261D+00
 S   1 1.00       0.000000000000
      0.1612777588D+00  0.1000000000D+01
 ****
     73 0
 S   3 1.00       0.000000000000
      0.1873113696D+02  0.3349460434D-01
      0.2825394365D+01  0.2347269535D+00
      0.6401216923D+00  0.8137573261D+00
 S   1 1.00       0.000000000000
      0.1612777588D+00  0.1000000000D+01
 ****
     74 0
 S   3 1.00       0.000000000000
      0.1873113696D+02  0.3349460434D-01
      0.2825394365D+01  0.2347269535D+00
      0.6401216923D+00  0.8137573261D+00
 S   1 1.00       0.000000000000
      0.1612777588D+00  0.1000000000D+01
 ****
     75 0
 S   3 1.00       0.000000000000
      0.1873113696D+02  0.3349460434D-01
      0.2825394365D+01  0.2347269535D+00
      0.6401216923D+00  0.8137573261D+00
 S   1 1.00       0.000000000000
      0.1612777588D+00  0.1000000000D+01
 ****

   670 basis functions,  1260 primitive gaussians,   670 cartesian basis functions
   150 alpha electrons      150 beta electrons
       nuclear repulsion energy      4220.5195190034 Hartrees.
 IExCor=  402 DFT=T Ex+Corr=B3LYP ExCW=0 ScaHFX=  0.200000
 ScaDFX=  0.800000  0.720000  1.000000  0.810000 ScalE2=  1.000000  1.000000
 IRadAn=      5 IRanWt=     -1 IRanGd=            0 ICorTp=0 IEmpDi=  4
 NAtoms=   75 NActive=   75 NUniq=   75 SFac= 1.00D+00 NAtFMM=   60 NAOKFM=T Big=T
 Integral buffers will be    131072 words long.
 Regular integral format.
 Two-electron integral symmetry is turned off.
 Leave Link  301 at Sat Nov  5 11:48:34 2022, MaxMem=   402653184 cpu:               1.1 elap:               0.2
 (Enter /home/wykgroup/appl/g16/l302.exe)
 NPDir=0 NMtPBC=     1 NCelOv=     1 NCel=       1 NClECP=     1 NCelD=      1
         NCelK=      1 NCelE2=     1 NClLst=     1 CellRange=     0.0.
 One-electron integrals computed using PRISM.
 NBasis=   670 RedAO= T EigKep=  3.87D-04  NBF=   670
 NBsUse=   670 1.00D-06 EigRej= -1.00D+00 NBFU=   670
 Precomputing XC quadrature grid using
 IXCGrd= 4 IRadAn=           5 IRanWt=          -1 IRanGd=           0 AccXCQ= 0.00D+00.
 Generated NRdTot=       0 NPtTot=           0 NUsed=           0 NTot=          32
 NSgBfM=   556   555   555   556   556 MxSgAt=    75 MxSgA2=    75.
 Leave Link  302 at Sat Nov  5 11:48:37 2022, MaxMem=   402653184 cpu:              23.5 elap:               2.4
 (Enter /home/wykgroup/appl/g16/l303.exe)
 DipDrv:  MaxL=1.
 Leave Link  303 at Sat Nov  5 11:48:37 2022, MaxMem=   402653184 cpu:               2.4 elap:               0.3
 (Enter /home/wykgroup/appl/g16/l308.exe)
 Leave Link  308 at Sat Nov  5 11:48:37 2022, MaxMem=   402653184 cpu:               2.1 elap:               0.3
 (Enter /home/wykgroup/appl/g16/l401.exe)
 ExpMin= 1.61D-01 ExpMax= 7.00D+03 ExpMxC= 1.05D+03 IAcc=3 IRadAn=         5 AccDes= 0.00D+00
 Harris functional with IExCor=  402 and IRadAn=       5 diagonalized for initial guess.
 HarFok:  IExCor=  402 AccDes= 0.00D+00 IRadAn=         5 IDoV= 1 UseB2=F ITyADJ=14
 ICtDFT=  3500011 ScaDFX=  1.000000  1.000000  1.000000  1.000000
 FoFCou: FMM=F IPFlag=           0 FMFlag=      100000 FMFlg1=        2001
         NFxFlg=           0 DoJE=T BraDBF=F KetDBF=T FulRan=T
         wScrn=  0.000000 ICntrl=       500 IOpCl=  0 I1Cent=   200000004 NGrid=           0
         NMat0=    1 NMatS0=      1 NMatT0=    0 NMatD0=    1 NMtDS0=    0 NMtDT0=    0
 Symmetry not used in FoFCou.
 Harris En= -2051.71046788136    
 JPrj=0 DoOrth=F DoCkMO=F.
 Leave Link  401 at Sat Nov  5 11:48:44 2022, MaxMem=   402653184 cpu:              64.2 elap:               6.9
 (Enter /home/wykgroup/appl/g16/l502.exe)
 Two-electron integral symmetry not used.
 Closed shell SCF:
 Using DIIS extrapolation, IDIIS=  1040.
 NGot=   402653184 LenX=   401740163 LenY=   401290593
 Requested convergence on RMS density matrix=1.00D-08 within  32 cycles.
 Requested convergence on MAX density matrix=1.00D-06.
 Requested convergence on             energy=1.00D-06.
 No special actions if energy rises.
 Fock matrices will be formed incrementally for  20 cycles.
 Integral accuracy reduced to 1.0D-05 until final iterations.

 Cycle   1  Pass 0  IDiag  1:
 FoFJK:  IHMeth= 1 ICntrl=       0 DoSepK=F KAlg= 0 I1Cent=           0 FoldK=F
 IRaf= 650000000 NMat=       1 IRICut=       1 DoRegI=T DoRafI=F ISym2E= 0 IDoP0=0 IntGTp=1.
 FoFCou: FMM=T IPFlag=           0 FMFlag=      100000 FMFlg1=        2001
         NFxFlg=           0 DoJE=F BraDBF=F KetDBF=F FulRan=T
         wScrn=  0.000000 ICntrl=         0 IOpCl=  0 I1Cent=           0 NGrid=           0
         NMat0=    1 NMatS0=      1 NMatT0=    0 NMatD0=    1 NMtDS0=    0 NMtDT0=    0
 Symmetry not used in FoFCou.
 FMM levels:  10  Number of levels for PrismC:   9
 E= -2050.78869394983    
 DIIS: error= 2.48D-02 at cycle   1 NSaved=   1.
 NSaved= 1 IEnMin= 1 EnMin= -2050.78869394983     IErMin= 1 ErrMin= 2.48D-02
 ErrMax= 2.48D-02  0.00D+00 EMaxC= 1.00D-01 BMatC= 9.36D-01 BMatP= 9.36D-01
 IDIUse=3 WtCom= 7.52D-01 WtEn= 2.48D-01
 Coeff-Com:  0.100D+01
 Coeff-En:   0.100D+01
 Coeff:      0.100D+01
 Gap=     0.338 Goal=   None    Shift=    0.000
 GapD=    0.338 DampG=1.000 DampE=0.500 DampFc=0.5000 IDamp=-1.
 Damping current iteration by 5.00D-01
 RMSDP=3.21D-03 MaxDP=1.48D-01              OVMax= 2.48D-01

 Cycle   2  Pass 0  IDiag  1:
 RMSU=  1.59D-03    CP:  9.83D-01
 E= -2051.18043850307     Delta-E=       -0.391744553239 Rises=F Damp=T
 DIIS: error= 8.93D-03 at cycle   2 NSaved=   2.
 NSaved= 2 IEnMin= 2 EnMin= -2051.18043850307     IErMin= 2 ErrMin= 8.93D-03
 ErrMax= 8.93D-03  0.00D+00 EMaxC= 1.00D-01 BMatC= 6.06D-02 BMatP= 9.36D-01
 IDIUse=3 WtCom= 9.11D-01 WtEn= 8.93D-02
 Coeff-Com:  0.851D-01 0.915D+00
 Coeff-En:   0.146D+00 0.854D+00
 Coeff:      0.905D-01 0.909D+00
 Gap=     0.196 Goal=   None    Shift=    0.000
 RMSDP=7.79D-04 MaxDP=3.35D-02 DE=-3.92D-01 OVMax= 1.90D-01

 Cycle   3  Pass 0  IDiag  1:
 RMSU=  7.46D-04    CP:  9.79D-01  8.63D-01
 E= -2051.68004934287     Delta-E=       -0.499610839799 Rises=F Damp=F
 DIIS: error= 5.05D-03 at cycle   3 NSaved=   3.
 NSaved= 3 IEnMin= 3 EnMin= -2051.68004934287     IErMin= 3 ErrMin= 5.05D-03
 ErrMax= 5.05D-03  0.00D+00 EMaxC= 1.00D-01 BMatC= 2.92D-02 BMatP= 6.06D-02
 IDIUse=3 WtCom= 9.50D-01 WtEn= 5.05D-02
 Coeff-Com: -0.670D-02 0.390D+00 0.617D+00
 Coeff-En:   0.000D+00 0.000D+00 0.100D+01
 Coeff:     -0.636D-02 0.370D+00 0.636D+00
 Gap=     0.183 Goal=   None    Shift=    0.000
 RMSDP=4.15D-04 MaxDP=2.65D-02 DE=-5.00D-01 OVMax= 7.28D-02

 Cycle   4  Pass 0  IDiag  1:
 RMSU=  3.01D-04    CP:  9.80D-01  8.98D-01  6.26D-01
 E= -2051.69706636548     Delta-E=       -0.017017022613 Rises=F Damp=F
 DIIS: error= 4.42D-03 at cycle   4 NSaved=   4.
 NSaved= 4 IEnMin= 4 EnMin= -2051.69706636548     IErMin= 4 ErrMin= 4.42D-03
 ErrMax= 4.42D-03  0.00D+00 EMaxC= 1.00D-01 BMatC= 9.89D-03 BMatP= 2.92D-02
 IDIUse=3 WtCom= 9.56D-01 WtEn= 4.42D-02
 Coeff-Com: -0.125D-01 0.109D+00 0.385D+00 0.519D+00
 Coeff-En:   0.000D+00 0.000D+00 0.290D+00 0.710D+00
 Coeff:     -0.119D-01 0.104D+00 0.381D+00 0.527D+00
 Gap=     0.176 Goal=   None    Shift=    0.000
 RMSDP=2.00D-04 MaxDP=1.47D-02 DE=-1.70D-02 OVMax= 4.14D-02

 Cycle   5  Pass 0  IDiag  1:
 RMSU=  1.01D-04    CP:  9.80D-01  8.97D-01  7.35D-01  4.98D-01
 E= -2051.70626330785     Delta-E=       -0.009196942371 Rises=F Damp=F
 DIIS: error= 1.61D-03 at cycle   5 NSaved=   5.
 NSaved= 5 IEnMin= 5 EnMin= -2051.70626330785     IErMin= 5 ErrMin= 1.61D-03
 ErrMax= 1.61D-03  0.00D+00 EMaxC= 1.00D-01 BMatC= 1.01D-03 BMatP= 9.89D-03
 IDIUse=3 WtCom= 9.84D-01 WtEn= 1.61D-02
 Coeff-Com: -0.589D-02 0.234D-01 0.158D+00 0.311D+00 0.514D+00
 Coeff-En:   0.000D+00 0.000D+00 0.000D+00 0.671D-01 0.933D+00
 Coeff:     -0.580D-02 0.230D-01 0.155D+00 0.307D+00 0.521D+00
 Gap=     0.176 Goal=   None    Shift=    0.000
 RMSDP=6.40D-05 MaxDP=5.29D-03 DE=-9.20D-03 OVMax= 1.29D-02

 Cycle   6  Pass 0  IDiag  1:
 RMSU=  2.84D-05    CP:  9.80D-01  9.01D-01  7.27D-01  5.82D-01  4.99D-01
 E= -2051.70728019559     Delta-E=       -0.001016887742 Rises=F Damp=F
 DIIS: error= 3.47D-04 at cycle   6 NSaved=   6.
 NSaved= 6 IEnMin= 6 EnMin= -2051.70728019559     IErMin= 6 ErrMin= 3.47D-04
 ErrMax= 3.47D-04  0.00D+00 EMaxC= 1.00D-01 BMatC= 7.57D-05 BMatP= 1.01D-03
 IDIUse=3 WtCom= 9.97D-01 WtEn= 3.47D-03
 Coeff-Com: -0.220D-02 0.417D-02 0.551D-01 0.128D+00 0.294D+00 0.521D+00
 Coeff-En:   0.000D+00 0.000D+00 0.000D+00 0.000D+00 0.000D+00 0.100D+01
 Coeff:     -0.220D-02 0.416D-02 0.549D-01 0.127D+00 0.293D+00 0.523D+00
 Gap=     0.176 Goal=   None    Shift=    0.000
 RMSDP=1.53D-05 MaxDP=9.98D-04 DE=-1.02D-03 OVMax= 2.63D-03

 Cycle   7  Pass 0  IDiag  1:
 RMSU=  6.94D-06    CP:  9.80D-01  9.00D-01  7.33D-01  5.78D-01  5.58D-01
                    CP:  6.08D-01
 E= -2051.70734843990     Delta-E=       -0.000068244305 Rises=F Damp=F
 DIIS: error= 5.43D-05 at cycle   7 NSaved=   7.
 NSaved= 7 IEnMin= 7 EnMin= -2051.70734843990     IErMin= 7 ErrMin= 5.43D-05
 ErrMax= 5.43D-05  0.00D+00 EMaxC= 1.00D-01 BMatC= 3.71D-06 BMatP= 7.57D-05
 IDIUse=1 WtCom= 1.00D+00 WtEn= 0.00D+00
 Coeff-Com: -0.762D-03 0.675D-03 0.188D-01 0.474D-01 0.123D+00 0.271D+00
 Coeff-Com:  0.541D+00
 Coeff:     -0.762D-03 0.675D-03 0.188D-01 0.474D-01 0.123D+00 0.271D+00
 Coeff:      0.541D+00
 Gap=     0.176 Goal=   None    Shift=    0.000
 RMSDP=3.72D-06 MaxDP=2.19D-04 DE=-6.82D-05 OVMax= 6.18D-04

 Initial convergence to 1.0D-05 achieved.  Increase integral accuracy.
 Cycle   8  Pass 1  IDiag  1:
 E= -2051.70727898113     Delta-E=        0.000069458772 Rises=F Damp=F
 DIIS: error= 1.07D-04 at cycle   1 NSaved=   1.
 NSaved= 1 IEnMin= 1 EnMin= -2051.70727898113     IErMin= 1 ErrMin= 1.07D-04
 ErrMax= 1.07D-04  0.00D+00 EMaxC= 1.00D-01 BMatC= 3.58D-06 BMatP= 3.58D-06
 IDIUse=3 WtCom= 9.99D-01 WtEn= 1.07D-03
 Coeff-Com:  0.100D+01
 Coeff-En:   0.100D+01
 Coeff:      0.100D+01
 Gap=     0.176 Goal=   None    Shift=    0.000
 RMSDP=3.72D-06 MaxDP=2.19D-04 DE= 6.95D-05 OVMax= 5.53D-04

 Cycle   9  Pass 1  IDiag  1:
 RMSU=  3.50D-05    CP:  1.00D+00
 E= -2051.70728068632     Delta-E=       -0.000001705190 Rises=F Damp=F
 DIIS: error= 4.19D-05 at cycle   2 NSaved=   2.
 NSaved= 2 IEnMin= 2 EnMin= -2051.70728068632     IErMin= 2 ErrMin= 4.19D-05
 ErrMax= 4.19D-05  0.00D+00 EMaxC= 1.00D-01 BMatC= 1.28D-06 BMatP= 3.58D-06
 IDIUse=1 WtCom= 1.00D+00 WtEn= 0.00D+00
 Coeff-Com:  0.315D+00 0.685D+00
 Coeff:      0.315D+00 0.685D+00
 Gap=     0.176 Goal=   None    Shift=    0.000
 RMSDP=3.59D-06 MaxDP=2.21D-04 DE=-1.71D-06 OVMax= 7.57D-04

 Cycle  10  Pass 1  IDiag  1:
 RMSU=  3.59D-06    CP:  1.00D+00  1.00D+00
 E= -2051.70728067353     Delta-E=        0.000000012789 Rises=F Damp=F
 DIIS: error= 4.76D-05 at cycle   3 NSaved=   3.
 NSaved= 3 IEnMin= 2 EnMin= -2051.70728068632     IErMin= 2 ErrMin= 4.19D-05
 ErrMax= 4.76D-05  0.00D+00 EMaxC= 1.00D-01 BMatC= 1.27D-06 BMatP= 1.28D-06
 IDIUse=1 WtCom= 1.00D+00 WtEn= 0.00D+00
 Coeff-Com:  0.467D-02 0.497D+00 0.498D+00
 Coeff:      0.467D-02 0.497D+00 0.498D+00
 Gap=     0.176 Goal=   None    Shift=    0.000
 RMSDP=1.89D-06 MaxDP=1.20D-04 DE= 1.28D-08 OVMax= 4.29D-04

 Cycle  11  Pass 1  IDiag  1:
 RMSU=  4.47D-07    CP:  1.00D+00  1.01D+00  4.94D-01
 E= -2051.70728196749     Delta-E=       -0.000001293963 Rises=F Damp=F
 DIIS: error= 6.32D-06 at cycle   4 NSaved=   4.
 NSaved= 4 IEnMin= 4 EnMin= -2051.70728196749     IErMin= 4 ErrMin= 6.32D-06
 ErrMax= 6.32D-06  0.00D+00 EMaxC= 1.00D-01 BMatC= 2.49D-08 BMatP= 1.27D-06
 IDIUse=1 WtCom= 1.00D+00 WtEn= 0.00D+00
 Coeff-Com: -0.284D-02 0.288D+00 0.299D+00 0.416D+00
 Coeff:     -0.284D-02 0.288D+00 0.299D+00 0.416D+00
 Gap=     0.176 Goal=   None    Shift=    0.000
 RMSDP=2.69D-07 MaxDP=1.96D-05 DE=-1.29D-06 OVMax= 4.58D-05

 Cycle  12  Pass 1  IDiag  1:
 RMSU=  9.69D-08    CP:  1.00D+00  1.01D+00  5.12D-01  4.60D-01
 E= -2051.70728199011     Delta-E=       -0.000000022615 Rises=F Damp=F
 DIIS: error= 1.11D-06 at cycle   5 NSaved=   5.
 NSaved= 5 IEnMin= 5 EnMin= -2051.70728199011     IErMin= 5 ErrMin= 1.11D-06
 ErrMax= 1.11D-06  0.00D+00 EMaxC= 1.00D-01 BMatC= 6.48D-10 BMatP= 2.49D-08
 IDIUse=1 WtCom= 1.00D+00 WtEn= 0.00D+00
 Coeff-Com: -0.176D-02 0.142D+00 0.148D+00 0.233D+00 0.479D+00
 Coeff:     -0.176D-02 0.142D+00 0.148D+00 0.233D+00 0.479D+00
 Gap=     0.176 Goal=   None    Shift=    0.000
 RMSDP=4.51D-08 MaxDP=3.32D-06 DE=-2.26D-08 OVMax= 8.04D-06

 Cycle  13  Pass 1  IDiag  1:
 RMSU=  3.16D-08    CP:  1.00D+00  1.01D+00  5.09D-01  4.72D-01  7.03D-01
 E= -2051.70728199066     Delta-E=       -0.000000000554 Rises=F Damp=F
 DIIS: error= 1.61D-07 at cycle   6 NSaved=   6.
 NSaved= 6 IEnMin= 6 EnMin= -2051.70728199066     IErMin= 6 ErrMin= 1.61D-07
 ErrMax= 1.61D-07  0.00D+00 EMaxC= 1.00D-01 BMatC= 3.03D-11 BMatP= 6.48D-10
 IDIUse=1 WtCom= 1.00D+00 WtEn= 0.00D+00
 Coeff-Com: -0.698D-03 0.521D-01 0.543D-01 0.902D-01 0.241D+00 0.563D+00
 Coeff:     -0.698D-03 0.521D-01 0.543D-01 0.902D-01 0.241D+00 0.563D+00
 Gap=     0.176 Goal=   None    Shift=    0.000
 RMSDP=1.17D-08 MaxDP=7.65D-07 DE=-5.54D-10 OVMax= 2.20D-06

 Cycle  14  Pass 1  IDiag  1:
 RMSU=  9.53D-09    CP:  1.00D+00  1.01D+00  5.09D-01  4.72D-01  7.21D-01
                    CP:  8.00D-01
 E= -2051.70728199068     Delta-E=       -0.000000000024 Rises=F Damp=F
 DIIS: error= 6.04D-08 at cycle   7 NSaved=   7.
 NSaved= 7 IEnMin= 7 EnMin= -2051.70728199068     IErMin= 7 ErrMin= 6.04D-08
 ErrMax= 6.04D-08  0.00D+00 EMaxC= 1.00D-01 BMatC= 3.56D-12 BMatP= 3.03D-11
 IDIUse=1 WtCom= 1.00D+00 WtEn= 0.00D+00
 Coeff-Com: -0.132D-03 0.867D-02 0.901D-02 0.165D-01 0.597D-01 0.290D+00
 Coeff-Com:  0.616D+00
 Coeff:     -0.132D-03 0.867D-02 0.901D-02 0.165D-01 0.597D-01 0.290D+00
 Coeff:      0.616D+00
 Gap=     0.176 Goal=   None    Shift=    0.000
 RMSDP=4.38D-09 MaxDP=2.86D-07 DE=-2.36D-11 OVMax= 7.80D-07

 SCF Done:  E(RB3LYP) =  -2051.70728199     A.U. after   14 cycles
            NFock= 14  Conv=0.44D-08     -V/T= 2.0086
 KE= 2.034214154521D+03 PE=-1.324273022788D+04 EE= 4.936289272360D+03
 Leave Link  502 at Sat Nov  5 11:50:13 2022, MaxMem=   402653184 cpu:             937.7 elap:              89.0
 (Enter /home/wykgroup/appl/g16/l508.exe)
 QCSCF skips out because SCF is already converged.
 Leave Link  508 at Sat Nov  5 11:50:13 2022, MaxMem=   402653184 cpu:               0.3 elap:               0.1
 (Enter /home/wykgroup/appl/g16/l801.exe)
 DoSCS=F DFT=T ScalE2(SS,OS)=  1.000000  1.000000
 ExpMin= 1.61D-01 ExpMax= 7.00D+03 ExpMxC= 1.05D+03 IAcc=3 IRadAn=         5 AccDes= 0.00D+00
 HarFok:  IExCor=  205 AccDes= 0.00D+00 IRadAn=         5 IDoV=-2 UseB2=F ITyADJ=14
 ICtDFT= 12500011 ScaDFX=  1.000000  1.000000  1.000000  1.000000
 GSVD:  LWork=       -1920 too small for GESVD, short by        8600 words or        8600 for optimal perf.
 Largest valence mixing into a core orbital is  6.88D-05
 Largest core mixing into a valence orbital is  1.33D-05
 Range of M.O.s used for correlation:    41   670
 NBasis=   670 NAE=   150 NBE=   150 NFC=    40 NFV=     0
 NROrb=    630 NOA=   110 NOB=   110 NVA=   520 NVB=   520

 **** Warning!!: The largest alpha MO coefficient is  0.13267572D+02

 Leave Link  801 at Sat Nov  5 11:50:16 2022, MaxMem=   402653184 cpu:              25.3 elap:               2.9
 (Enter /home/wykgroup/appl/g16/l914.exe)
 RHF ground state
 Two-electron integral symmetry not used.
 MDV=   402653184 DFT=T DoStab=F Mixed=T DoRPA=T DoScal=F NonHer=T
 Making orbital integer symmetry assigments:
    16 initial guesses have been made.
 Convergence on wavefunction:    0.001000000000000
 Davidson Disk Diagonalization:  ConvIn= 1.00D-03 SkipCon=T Conv= 1.00D-03.
 Max sub-space:  2000 roots to seek:    16 dimension of matrix:       114400
 Iteration     1 Dimension    16 NMult     0 NNew     16
 CISAX will form    14 AO SS matrices at one time.
 NMat=    14 NSing=     8 JSym2X= 0.
 FoFJK:  IHMeth= 1 ICntrl=       0 DoSepK=F KAlg= 0 I1Cent=           0 FoldK=F
 IRaf= 650000000 NMat=      28 IRICut=       1 DoRegI=T DoRafI=F ISym2E= 0 IDoP0=0 IntGTp=1.
 FoFCou: FMM=T IPFlag=           0 FMFlag=      100000 FMFlg1=        2001
         NFxFlg=           0 DoJE=F BraDBF=F KetDBF=F FulRan=T
         wScrn=  0.000000 ICntrl=         0 IOpCl=  0 I1Cent=           0 NGrid=           0
         NMat0=   28 NMatS0=      8 NMatT0=    6 NMatD0=   28 NMtDS0=    0 NMtDT0=    0
 Symmetry not used in FoFCou.
 FMM levels:  10  Number of levels for PrismC:   9
 NMat=     2 NSing=     0 JSym2X= 0.
 New state      1 was old state      8
 New state      2 was old state     16
 New state      3 was old state      1
 New state      4 was old state      2
 New state      5 was old state      4
 New state      6 was old state      3
 New state      7 was old state      6
 New state      8 was old state      5
 Excitation Energies [eV] at current iteration:
 Root      1 :     4.200369586260133
 Root      2 :     4.334043648348085
 Root      3 :     4.606614567728138
 Root      4 :     4.606614568547730
 Root      5 :     4.990407240932788
 Root      6 :     4.990407307397610
 Root      7 :     5.373089442470489
 Root      8 :     5.373272099854944
 Root      9 :     5.589577354732890
 Root     10 :     5.589577817552529
 Root     11 :     5.763975743882197
 Root     12 :     5.764073006175606
 Root     13 :     5.973461334294016
 Root     14 :     5.973461640938202
 Root     15 :     6.199934773052175
 Root     16 :     7.059217090732349
 Vector   4 SDiff=3.55D+01 TDiff=2.08D-02 assumed to be triplet.
 Vector   8 SDiff=3.55D+01 TDiff=1.92D-02 assumed to be triplet.
 Iteration     2 Dimension    24 NMult    16 NNew      8
 CISAX will form     8 AO SS matrices at one time.
 NMat=     8 NSing=     2 JSym2X= 0.
 New state      1 was old state      2
 Root      1 not converged, maximum delta is    0.378880865553232
 New state      2 was old state      1
 Root      2 not converged, maximum delta is    0.214952996391160
 Root      3 not converged, maximum delta is    0.002593366525614
 New state      4 was old state      6
 Root      4 has converged.
 Excitation Energies [eV] at current iteration:
 Root      1 :     3.833013449205594   Change is   -0.501030199142491
 Root      2 :     4.111529161972075   Change is   -0.088840424288058
 Root      3 :     4.606510280712707   Change is   -0.000104287015432
 Root      4 :     4.990407300913843   Change is   -0.000000006483766
 Iteration     3 Dimension    30 NMult    24 NNew      6
 CISAX will form     6 AO SS matrices at one time.
 NMat=     6 NSing=     2 JSym2X= 0.
 Root      1 not converged, maximum delta is    0.123507300551718
 Root      2 not converged, maximum delta is    0.031717990873525
 Root      3 has converged.
 Root      4 has converged.
 Excitation Energies [eV] at current iteration:
 Root      1 :     3.714289861345190   Change is   -0.118723587860405
 Root      2 :     4.103722533973476   Change is   -0.007806627998600
 Root      3 :     4.606510144479031   Change is   -0.000000136233676
 Root      4 :     4.990407272236898   Change is   -0.000000028676946
 Iteration     4 Dimension    34 NMult    30 NNew      4
 CISAX will form     4 AO SS matrices at one time.
 NMat=     4 NSing=     0 JSym2X= 0.
 Root      1 not converged, maximum delta is    0.012620098409373
 Root      2 not converged, maximum delta is    0.002922030869754
 Root      3 has converged.
 Root      4 has converged.
 Excitation Energies [eV] at current iteration:
 Root      1 :     3.706065739729725   Change is   -0.008224121615465
 Root      2 :     4.103234505251061   Change is   -0.000488028722415
 Root      3 :     4.606510144479048   Change is    0.000000000000018
 Root      4 :     4.990407272236948   Change is    0.000000000000050
 Iteration     5 Dimension    38 NMult    34 NNew      4
 CISAX will form     4 AO SS matrices at one time.
 NMat=     4 NSing=     0 JSym2X= 0.
 Root      1 not converged, maximum delta is    0.001793593871638
 Root      2 has converged.
 Root      3 has converged.
 Root      4 has converged.
 Excitation Energies [eV] at current iteration:
 Root      1 :     3.705365920469521   Change is   -0.000699819260204
 Root      2 :     4.103171832508423   Change is   -0.000062672742638
 Root      3 :     4.606510144479048   Change is    0.000000000000000
 Root      4 :     4.990407272236914   Change is   -0.000000000000033
 Iteration     6 Dimension    40 NMult    38 NNew      2
 CISAX will form     2 AO SS matrices at one time.
 NMat=     2 NSing=     0 JSym2X= 0.
 Root      1 has converged.
 Root      2 has converged.
 Root      3 has converged.
 Root      4 has converged.
 Excitation Energies [eV] at current iteration:
 Root      1 :     3.705336073812244   Change is   -0.000029846657277
 Root      2 :     4.103170938097756   Change is   -0.000000894410666
 Root      3 :     4.606510144479048   Change is    0.000000000000000
 Root      4 :     4.990407272236898   Change is   -0.000000000000017
 Convergence achieved on expansion vectors.
 ***********************************************************************
 Excited states from <AA,BB:AA,BB> singles matrix:
 ***********************************************************************
 
 1PDM for each excited state written to RWF  633
 Ground to excited state transition densities written to RWF  633
 Ground to excited state transition electric dipole moments (Au):
       state          X           Y           Z        Dip. S.      Osc.
         1         0.0000     -0.0000      0.0000      0.0000      0.0000
[...]
 Alpha  occ. eigenvalues --  -10.19725 -10.19555 -10.19529 -10.19182 -10.19090
 Alpha  occ. eigenvalues --  -10.18976 -10.18928 -10.18859 -10.18435 -10.18403
 Alpha  occ. eigenvalues --  -10.18286 -10.18286 -10.18245 -10.18183 -10.18141
 Alpha  occ. eigenvalues --  -10.18014 -10.17934 -10.17888 -10.17804 -10.17505
 Alpha  occ. eigenvalues --   -1.30173  -1.27646  -1.24285  -1.24140  -1.21434
 Alpha  occ. eigenvalues --   -1.20995  -1.20896  -1.10617  -1.05791  -0.89594
 Alpha  occ. eigenvalues --   -0.85641  -0.85228  -0.83204  -0.81628  -0.79773
 Alpha  occ. eigenvalues --   -0.78995  -0.77851  -0.77040  -0.75375  -0.74246
 Alpha  occ. eigenvalues --   -0.74027  -0.73633  -0.72287  -0.70290  -0.68576
 Alpha  occ. eigenvalues --   -0.67806  -0.65557  -0.64643  -0.63538  -0.62452
 Alpha  occ. eigenvalues --   -0.61991  -0.61624  -0.60660  -0.59953  -0.59097
 Alpha  occ. eigenvalues --   -0.58539  -0.58292  -0.57920  -0.57838  -0.57037
 Alpha  occ. eigenvalues --   -0.56395  -0.55075  -0.53985  -0.53546  -0.53215
 Alpha  occ. eigenvalues --   -0.52610  -0.51708  -0.50514  -0.49354  -0.49176
 Alpha  occ. eigenvalues --   -0.48587  -0.48347  -0.47905  -0.47622  -0.47490
 Alpha  occ. eigenvalues --   -0.46981  -0.46827  -0.45749  -0.45547  -0.45354
 Alpha  occ. eigenvalues --   -0.45198  -0.44773  -0.44431  -0.43840  -0.43419
 Alpha  occ. eigenvalues --   -0.43304  -0.42903  -0.42410  -0.42236  -0.41674
 Alpha  occ. eigenvalues --   -0.41562  -0.41382  -0.41037  -0.40758  -0.40574
 Alpha  occ. eigenvalues --   -0.40417  -0.39506  -0.39448  -0.39385  -0.38969
 Alpha  occ. eigenvalues --   -0.38806  -0.38465  -0.37882  -0.37561  -0.37471
 Alpha  occ. eigenvalues --   -0.37147  -0.36735  -0.36595  -0.36029  -0.35856
 Alpha  occ. eigenvalues --   -0.35505  -0.35291  -0.34932  -0.34739  -0.34446
 Alpha  occ. eigenvalues --   -0.34234  -0.33619  -0.33265  -0.32058  -0.31674
 Alpha  occ. eigenvalues --   -0.31147  -0.30722  -0.30188  -0.29794  -0.29454
 Alpha  occ. eigenvalues --   -0.26602  -0.26316  -0.24535  -0.24171  -0.20908
 Alpha virt. eigenvalues --   -0.03305  -0.01902   0.00304   0.01768   0.02577
 Alpha virt. eigenvalues --    0.06325   0.07564   0.08384   0.08981   0.09280
 Alpha virt. eigenvalues --    0.09366   0.10317   0.10538   0.11050   0.11404
 Alpha virt. eigenvalues --    0.12290   0.12477   0.12716   0.13062   0.13525
 Alpha virt. eigenvalues --    0.13611   0.13845   0.14042   0.14192   0.14560
 Alpha virt. eigenvalues --    0.14905   0.15729   0.15957   0.16044   0.16151
 Alpha virt. eigenvalues --    0.16493   0.16609   0.16736   0.16931   0.17145
 Alpha virt. eigenvalues --    0.17285   0.17589   0.17856   0.18283   0.18532
 Alpha virt. eigenvalues --    0.18579   0.18934   0.19474   0.19729   0.20128
 Alpha virt. eigenvalues --    0.20354   0.20774   0.20992   0.21408   0.21621
 Alpha virt. eigenvalues --    0.21912   0.22023   0.22466   0.22848   0.23224
 Alpha virt. eigenvalues --    0.23748   0.23754   0.24626   0.25233   0.25645
 Alpha virt. eigenvalues --    0.25985   0.26249   0.26476   0.27117   0.27296
 Alpha virt. eigenvalues --    0.28369   0.29156   0.29721   0.30469   0.31128
 Alpha virt. eigenvalues --    0.31328   0.32667   0.33262   0.34258   0.35529
 Alpha virt. eigenvalues --    0.35875   0.36837   0.38729   0.39770   0.41253
 Alpha virt. eigenvalues --    0.42884   0.44715   0.46504   0.47085   0.47353
 Alpha virt. eigenvalues --    0.48180   0.48526   0.49122   0.49738   0.49927
 Alpha virt. eigenvalues --    0.50396   0.50925   0.51198   0.51578   0.51993
 Alpha virt. eigenvalues --    0.52429   0.52779   0.53290   0.53525   0.53711
 Alpha virt. eigenvalues --    0.53827   0.54500   0.55124   0.55220   0.55850
 Alpha virt. eigenvalues --    0.56165   0.56737   0.57129   0.57204   0.57834
 Alpha virt. eigenvalues --    0.58091   0.58099   0.58796   0.59100   0.59753
 Alpha virt. eigenvalues --    0.60215   0.60455   0.61449   0.61623   0.62067
 Alpha virt. eigenvalues --    0.62256   0.62722   0.62806   0.63074   0.63556
 Alpha virt. eigenvalues --    0.63736   0.64456   0.65071   0.65311   0.65673
 Alpha virt. eigenvalues --    0.66521   0.66927   0.67452   0.68020   0.68354
 Alpha virt. eigenvalues --    0.68626   0.68988   0.69332   0.69864   0.70538
 Alpha virt. eigenvalues --    0.70661   0.71583   0.71644   0.72892   0.73958
 Alpha virt. eigenvalues --    0.75316   0.76122   0.76944   0.77450   0.78361
 Alpha virt. eigenvalues --    0.78574   0.79238   0.79433   0.80820   0.80982
 Alpha virt. eigenvalues --    0.81643   0.81852   0.83063   0.83340   0.83469
 Alpha virt. eigenvalues --    0.83660   0.83848   0.84606   0.84944   0.85331
 Alpha virt. eigenvalues --    0.85742   0.85894   0.86372   0.86633   0.86898
 Alpha virt. eigenvalues --    0.87592   0.87710   0.87879   0.88151   0.88343
 Alpha virt. eigenvalues --    0.88995   0.89663   0.90245   0.90493   0.91248
 Alpha virt. eigenvalues --    0.91317   0.91714   0.92182   0.92210   0.92296
 Alpha virt. eigenvalues --    0.92514   0.93026   0.93586   0.94150   0.94405
 Alpha virt. eigenvalues --    0.94626   0.95030   0.96054   0.96238   0.96538
 Alpha virt. eigenvalues --    0.97500   0.97633   0.97925   0.98225   0.98451
 Alpha virt. eigenvalues --    0.99095   0.99947   1.00531   1.01119   1.01210
 Alpha virt. eigenvalues --    1.01583   1.03000   1.04517   1.05598   1.06542
 Alpha virt. eigenvalues --    1.07126   1.08029   1.08476   1.09195   1.10280
 Alpha virt. eigenvalues --    1.10677   1.12184   1.13312   1.13912   1.14206
 Alpha virt. eigenvalues --    1.15396   1.15776   1.16382   1.17266   1.17855
 Alpha virt. eigenvalues --    1.18169   1.19412   1.19510   1.19978   1.20361
 Alpha virt. eigenvalues --    1.21029   1.21425   1.22603   1.22832   1.24127
 Alpha virt. eigenvalues --    1.24891   1.25609   1.26364   1.27505   1.28521
 Alpha virt. eigenvalues --    1.29142   1.29459   1.31190   1.31550   1.32054
 Alpha virt. eigenvalues --    1.32957   1.33676   1.33752   1.35292   1.35517
 Alpha virt. eigenvalues --    1.35690   1.36261   1.37075   1.37726   1.37908
 Alpha virt. eigenvalues --    1.38474   1.38635   1.38695   1.39971   1.40818
 Alpha virt. eigenvalues --    1.41561   1.41981   1.42161   1.42582   1.43347
 Alpha virt. eigenvalues --    1.44267   1.44512   1.45182   1.45410   1.46275
 Alpha virt. eigenvalues --    1.47539   1.47847   1.48016   1.49895   1.52065
 Alpha virt. eigenvalues --    1.52321   1.52695   1.54463   1.56005   1.56391
 Alpha virt. eigenvalues --    1.57941   1.59037   1.59093   1.60319   1.60522
 Alpha virt. eigenvalues --    1.62844   1.63021   1.63875   1.64539   1.66222
 Alpha virt. eigenvalues --    1.67765   1.68032   1.68904   1.70835   1.71033
 Alpha virt. eigenvalues --    1.71391   1.71942   1.73134   1.73624   1.74037
 Alpha virt. eigenvalues --    1.74126   1.74763   1.75383   1.76107   1.77472
 Alpha virt. eigenvalues --    1.77889   1.78815   1.78914   1.80338   1.80526
 Alpha virt. eigenvalues --    1.81018   1.81738   1.82393   1.82874   1.83506
 Alpha virt. eigenvalues --    1.83664   1.84318   1.84711   1.85077   1.85460
 Alpha virt. eigenvalues --    1.86142   1.86194   1.86773   1.86955   1.87546
 Alpha virt. eigenvalues --    1.87791   1.88348   1.88978   1.89262   1.89714
 Alpha virt. eigenvalues --    1.91085   1.91431   1.91754   1.91946   1.92133
 Alpha virt. eigenvalues --    1.93367   1.93481   1.94231   1.94994   1.95634
 Alpha virt. eigenvalues --    1.95923   1.96104   1.96562   1.96987   1.97650
 Alpha virt. eigenvalues --    1.98004   1.98348   1.98942   1.99058   1.99467
 Alpha virt. eigenvalues --    1.99829   2.01153   2.01491   2.02631   2.02951
 Alpha virt. eigenvalues --    2.03723   2.04078   2.04376   2.04918   2.05601
 Alpha virt. eigenvalues --    2.05798   2.05953   2.06339   2.07160   2.07285
 Alpha virt. eigenvalues --    2.07605   2.08338   2.09018   2.09694   2.10150
 Alpha virt. eigenvalues --    2.10519   2.10575   2.11739   2.12393   2.13378
 Alpha virt. eigenvalues --    2.13948   2.14832   2.14880   2.17035   2.17869
 Alpha virt. eigenvalues --    2.18251   2.19674   2.20041   2.20448   2.21503
 Alpha virt. eigenvalues --    2.21884   2.23080   2.24544   2.24924   2.25209
 Alpha virt. eigenvalues --    2.26043   2.27456   2.28366   2.28915   2.29396
 Alpha virt. eigenvalues --    2.30902   2.31343   2.31650   2.32097   2.33032
 Alpha virt. eigenvalues --    2.33930   2.34066   2.35012   2.35300   2.35893
 Alpha virt. eigenvalues --    2.36475   2.37676   2.38010   2.38260   2.38854
 Alpha virt. eigenvalues --    2.40597   2.40870   2.41337   2.44067   2.44405
 Alpha virt. eigenvalues --    2.44789   2.45511   2.45823   2.46104   2.48593
 Alpha virt. eigenvalues --    2.49365   2.49882   2.52112   2.52806   2.52868
 Alpha virt. eigenvalues --    2.53882   2.54535   2.55583   2.57332   2.58642
 Alpha virt. eigenvalues --    2.58850   2.58938   2.59890   2.60801   2.61640
 Alpha virt. eigenvalues --    2.62440   2.63201   2.64774   2.65254   2.66829
 Alpha virt. eigenvalues --    2.67052   2.68270   2.68764   2.69625   2.71105
 Alpha virt. eigenvalues --    2.72819   2.73386   2.74475   2.75918   2.77258
 Alpha virt. eigenvalues --    2.77534   2.77888   2.78316   2.80173   2.81885
 Alpha virt. eigenvalues --    2.82639   2.83691   2.83847   2.86473   2.89311
 Alpha virt. eigenvalues --    2.92089   2.94209   2.97787   2.99384   2.99638
 Alpha virt. eigenvalues --    3.00637   3.03087   3.03856   3.03938   3.05569
 Alpha virt. eigenvalues --    3.08090   3.08513   3.10102   3.12381   3.15921
 Alpha virt. eigenvalues --    3.20069   3.20624   3.29333   3.43175   3.43444
 Alpha virt. eigenvalues --    4.03959   4.06283   4.06959   4.09205   4.11570
 Alpha virt. eigenvalues --    4.11942   4.12996   4.15163   4.17237   4.19131
 Alpha virt. eigenvalues --    4.23677   4.25633   4.26937   4.29083   4.29410
 Alpha virt. eigenvalues --    4.29983   4.31738   4.33098   4.33935   4.38374
 Alpha virt. eigenvalues --    4.38638   4.40125   4.43633   4.46233   4.48757
 Alpha virt. eigenvalues --    4.53941   4.54954   4.56325   4.64350   4.65336
 Alpha virt. eigenvalues --    4.68876   4.71291   4.72043   4.73950   4.76411
 Alpha virt. eigenvalues --    4.78124   5.29294   5.48432   5.77525   6.27112
          Condensed to atoms (all electrons):
 Mulliken charges:
               1
     1  C   -0.443083
     2  C   -0.271211
     3  C   -0.027605
     4  O   -0.523213
     5  C    0.379277
     6  C   -0.177932
     7  C   -0.189702
     8  C    0.171648
     9  C   -0.162726
    10  C   -0.268170
    11  C   -0.282033
    12  C   -0.109790
    13  C   -0.121311
    14  C   -0.115797
    15  C   -0.114933
    16  C   -0.275435
    17  C   -0.282002
    18  C   -0.193028
    19  C    0.866488
    20  F   -0.304088
    21  F   -0.302092
    22  O   -0.559853
    23  C    0.386616
    24  C   -0.262514
    25  C    0.376835
    26  F   -0.273001
    27  C   -0.200579
    28  C    0.835816
    29  F   -0.263295
    30  F   -0.263276
    31  F   -0.260116
    32  C    0.362098
    33  F   -0.271719
    34  C   -0.252534
    35  C   -0.280489
    36  C   -0.269717
    37  C   -0.277651
    38  C   -0.276937
    39  C   -0.208427
    40  C   -0.191996
    41  H    0.166844
    42  H    0.140376
    43  H    0.144549
    44  H    0.136877
    45  H    0.150935
    46  H    0.137496
    47  H    0.135047
    48  H    0.133240
    49  H    0.127251
    50  H    0.122660
    51  H    0.140732
    52  H    0.134649
    53  H    0.130615
    54  H    0.138285
    55  H    0.128328
    56  H    0.118651
    57  H    0.119312
    58  H    0.129248
    59  H    0.143701
    60  H    0.135303
    61  H    0.146725
    62  H    0.152655
    63  H    0.153243
    64  H    0.169464
    65  H    0.183603
    66  H    0.147100
    67  H    0.152457
    68  H    0.137521
    69  H    0.137728
    70  H    0.131183
    71  H    0.143097
    72  H    0.131603
    73  H    0.145481
    74  H    0.121484
    75  H    0.130034
 Sum of Mulliken charges =  -0.00000
 Mulliken charges with hydrogens summed into heavy atoms:
               1
     1  C    0.008686
     2  C    0.016601
     3  C    0.244938
     4  O   -0.523213
     5  C    0.379277
     6  C   -0.044692
     7  C   -0.062451
     8  C    0.171648
     9  C   -0.040066
    10  C    0.007211
    11  C   -0.013133
    12  C    0.018538
    13  C   -0.002660
    14  C    0.003515
    15  C    0.014314
    16  C    0.003569
    17  C    0.017378
    18  C   -0.039784
    19  C    0.866488
    20  F   -0.304088
    21  F   -0.302092
    22  O   -0.559853
    23  C    0.386616
    24  C   -0.093050
    25  C    0.376835
    26  F   -0.273001
    27  C   -0.200579
    28  C    0.835816
    29  F   -0.263295
    30  F   -0.263276
    31  F   -0.260116
    32  C    0.362098
    33  F   -0.271719
    34  C   -0.068930
    35  C    0.019068
    36  C    0.005533
    37  C   -0.003371
    38  C    0.000146
    39  C   -0.086943
    40  C   -0.061962
 Electronic spatial extent (au):  <R**2>=          66155.4551
 Charge=             -0.0000 electrons
 Dipole moment (field-independent basis, Debye):
    X=              5.9080    Y=             -0.3495    Z=              2.4169  Tot=              6.3928
 Quadrupole moment (field-independent basis, Debye-Ang):
   XX=           -281.5819   YY=           -232.8654   ZZ=           -231.8561
   XY=             -0.1399   XZ=            -20.8147   YZ=              0.9971
 Traceless Quadrupole moment (field-independent basis, Debye-Ang):
   XX=            -32.8141   YY=             15.9024   ZZ=             16.9117
   XY=             -0.1399   XZ=            -20.8147   YZ=              0.9971
 Octapole moment (field-independent basis, Debye-Ang**2):
  XXX=           2328.0781  YYY=            -19.6967  ZZZ=            153.2314  XYY=            341.3132
  XXY=            -78.4468  XXZ=            246.2985  XZZ=            412.8223  YZZ=             -0.7176
  YYZ=             54.6220  XYZ=            -13.1354
 Hexadecapole moment (field-independent basis, Debye-Ang**3):
 XXXX=         -81130.0540 YYYY=          -2092.8844 ZZZZ=          -5824.6714 XXXY=           -127.2405
 XXXZ=          -5489.4688 YYYX=           -746.5481 YYYZ=             26.6467 ZZZX=          -2212.0595
 ZZZY=             25.2298 XXYY=         -12808.7831 XXZZ=         -13437.2014 YYZZ=          -1337.2321
 XXYZ=            107.9041 YYXZ=           -753.0883 ZZXY=           -230.2966
 N-N= 4.220519519003D+03 E-N=-1.324273026144D+04  KE= 2.034214154521D+03
 Leave Link  601 at Sat Nov  5 11:57:57 2022, MaxMem=   402653184 cpu:               2.2 elap:               0.4
 (Enter /home/wykgroup/appl/g16/l9999.exe)
 Electronic transition elements 
                 1             2             3             4 
      1  -0.205157D+04 -0.205156D+04 -0.205154D+04 -0.205152D+04
      2   0.000000D+00  0.000000D+00 -0.233110D-02  0.137853D-03
      3   0.000000D+00  0.000000D+00  0.119334D-04 -0.353107D-03
      4   0.000000D+00  0.000000D+00 -0.196004D-03 -0.796496D-04
      5   0.000000D+00  0.000000D+00  0.358011D-03 -0.152798D-04
      6   0.000000D+00  0.000000D+00 -0.679514D-05  0.610526D-04
      7   0.000000D+00  0.000000D+00  0.210738D-04  0.119361D-04
      8   0.000000D+00  0.000000D+00 -0.233341D-03  0.192239D-03
      9   0.000000D+00  0.000000D+00  0.214657D-02  0.275540D-03
     10   0.000000D+00  0.000000D+00  0.197573D-03 -0.814129D-03
     11   0.000000D+00  0.000000D+00 -0.253733D-02 -0.221161D-03
     12   0.000000D+00  0.000000D+00 -0.579003D-04  0.152040D-04
     13   0.000000D+00  0.000000D+00  0.462484D-04  0.535829D-04
     14   0.000000D+00  0.000000D+00  0.238458D-03 -0.809983D-03
     15   0.000000D+00  0.000000D+00 -0.123275D-02 -0.223880D-03
     16   0.000000D+00  0.000000D+00 -0.168873D-04 -0.720572D-04
 1\1\GINC-NODE43\SP\RB3LYP TD-FC\6-31G(d)\C31H35F7O2\WYKGROUP\05-Nov-20
 22\0\\#p b3lyp/6-31g(d) 6D 10F nosymm GFInput td=(50-50,nstate=2) SCF=
 XQC\\Gaussian input prepared by ASE\\0,1\C,0,9.4175413386,-0.512948678
 ,-4.502061563\C,0,9.9869111071,0.475785223,-3.4803763875\C,0,9.3687292
 044,0.3403593179,-2.0942983133\O,0,7.9807356071,0.6504861435,-2.197838
 9483\C,0,7.2045521682,0.5754570863,-1.075752485\C,0,5.8465958419,0.882
 5360721,-1.2496857583\C,0,4.9741279458,0.8357516577,-0.1706180621\C,0,
 5.4150735989,0.4873800985,1.1192540934\C,0,4.4684750353,0.4289793589,2
 .3073877019\C,0,3.428443242,-0.7136034324,2.1666812237\C,0,2.312229058
 1,-0.5633621394,3.2083713475\C,0,1.4526246166,0.706678337,2.9689855893
 \C,0,0.1344803853,0.4926896602,2.2546772783\C,0,-0.3084402408,-0.61754
 50468,1.6573035022\C,0,-1.6189655323,-0.7969396468,0.9246065574\C,0,-2
 .4898327453,0.4653064752,0.8292831252\C,0,-3.7945986002,0.2095620943,0
 .0602226981\C,0,-4.5983892872,-0.9451489247,0.6869751182\C,0,-5.887691
 0398,-1.213918588,-0.0758406522\F,0,-6.5720182576,-2.2630684525,0.4797
 037867\F,0,-5.6284103276,-1.587801872,-1.3690162876\O,0,-6.6845786103,
 -0.0817449563,-0.0636288888\C,0,-7.9138227874,-0.042450519,-0.68539064
 94\C,0,-8.5693160411,1.187339999,-0.5730123764\C,0,-9.8116502317,1.329
 010334,-1.1621897571\F,0,-10.436835059,2.5115306661,-1.0517900621\C,0,
 -10.4520248985,0.3019811494,-1.8689918337\C,0,-11.8078305713,0.5632982
 51,-2.4732448434\F,0,-12.7017745652,0.9135977992,-1.5217500501\F,0,-11
 .7540654431,1.5833920132,-3.3585413002\F,0,-12.3073727276,-0.502973940
 7,-3.1197568827\C,0,-9.752521839,-0.9050905625,-1.9502991343\F,0,-10.2
 837839888,-1.9468020419,-2.6062463979\C,0,-8.5004521489,-1.1025885846,
 -1.3762761678\C,0,-3.7413210438,-2.2212317883,0.7877249916\C,0,-2.4359
 826534,-1.9520421416,1.5489635153\C,0,2.2720180419,1.7874278358,2.2029
 079681\C,0,3.75157345,1.7877016099,2.61075439\C,0,6.7707803658,0.18667
 30925,1.2693835322\C,0,7.6672998286,0.224851361,0.1958456853\H,0,8.338
 4098416,-0.3746203348,-4.6170781445\H,0,9.5921475228,-1.5496373752,-4.
 1882426587\H,0,9.8860749427,-0.3771825731,-5.4829036008\H,0,11.0705923
 266,0.3313250762,-3.3763923073\H,0,9.837784253,1.5056649265,-3.8282730
 367\H,0,9.852150235,1.0278388004,-1.3848523358\H,0,9.494865256,-0.6843
 036543,-1.7124669079\H,0,5.5001614706,1.1539196459,-2.2424091886\H,0,3
 .9272209976,1.0765852593,-0.3379847317\H,0,5.0820653876,0.1874606957,3
 .1853514389\H,0,2.9975528489,-0.7065148212,1.1571988429\H,0,3.93599228
 01,-1.6797025843,2.2748076742\H,0,2.7740277685,-0.4961769236,4.2026091
 792\H,0,1.6806969897,-1.4574252907,3.2371473277\H,0,1.2096622014,1.134
 0487553,3.9540355832\H,0,-0.482195875,1.3916948881,2.2098588298\H,0,0.
 305037863,-1.5190084032,1.685063077\H,0,-1.3747097771,-1.1062866954,-0
 .1069774869\H,0,-1.9324944973,1.2733493389,0.340241586\H,0,-2.72918724
 6,0.8182569999,1.8428774607\H,0,-3.5654963497,-0.0452003895,-0.9830195
 661\H,0,-4.4023882353,1.1202676301,0.0382920171\H,0,-4.9129445265,-0.6
 501971461,1.6974687263\H,0,-8.1165707215,2.0121619296,-0.0369511849\H,
 0,-8.0261331698,-2.0664036856,-1.4838454547\H,0,-3.5116112326,-2.57490
 10741,-0.2261971076\H,0,-4.310395569,-3.0166166351,1.2804639407\H,0,-2
 .6609781865,-1.6996313149,2.595232339\H,0,-1.8315549128,-2.8675991675,
 1.573917308\H,0,1.8302740568,2.7767613098,2.3765031934\H,0,2.186283766
 4,1.6032756263,1.1244853202\H,0,3.8165234896,1.9954072988,3.6873288693
 \H,0,4.2790966254,2.6067046622,2.1095217682\H,0,7.1489242994,-0.085820
 0406,2.252709955\H,0,8.7106026805,-0.0160100538,0.3653069724\\Version=
 ES64L-G16RevB.01\HF=-2051.707282\RMSD=4.384e-09\PG=C01 [X(C31H35F7O2)]
 \\@


 WHERE THERE IS MUCH DESIRE TO LEARN, THERE OF NECESSITY WILL BE
 MUCH ARGUING, MUCH WRITING, MANY OPINIONS; FOR OPINION IN GOOD MEN
 IS BUT KNOWLEDGE IN THE MAKING. -- JOHN MILTON.
 Job cpu time:       0 days  1 hours 35 minutes 59.9 seconds.
 Elapsed time:       0 days  0 hours  9 minutes 23.1 seconds.
 File lengths (MBytes):  RWF=   2698 Int=      0 D2E=      0 Chk=     95 Scr=      1
 Normal termination of Gaussian 16 at Sat Nov  5 11:57:57 2022.
