 Entering Gaussian System, Link 0=/home/wykgroup/appl/g16/g16
 Input=calculation/no_transfer_pubchem_sampling_3_b3lyp/126599885_rwf.com
 Output=calculation/no_transfer_pubchem_sampling_3_b3lyp/126599885_rwf.log
 Initial command:
 /home/wykgroup/appl/g16/l1.exe "/userdata/scratch/wykgroup/khs/calculation/no_transfer_pubchem_sampling_3_b3lyp/126599885_rwf/Gau-14715.inp" -scrdir="/userdata/scratch/wykgroup/khs/calculation/no_transfer_pubchem_sampling_3_b3lyp/126599885_rwf/"
 Entering Link 1 = /home/wykgroup/appl/g16/l1.exe PID=     14722.
  
 Copyright (c) 1988-2017, Gaussian, Inc.  All Rights Reserved.
  
 This is part of the Gaussian(R) 16 program.  It is based on
 the Gaussian(R) 09 system (copyright 2009, Gaussian, Inc.),
 the Gaussian(R) 03 system (copyright 2003, Gaussian, Inc.),
 the Gaussian(R) 98 system (copyright 1998, Gaussian, Inc.),
 the Gaussian(R) 94 system (copyright 1995, Gaussian, Inc.),
 the Gaussian 92(TM) system (copyright 1992, Gaussian, Inc.),
 the Gaussian 90(TM) system (copyright 1990, Gaussian, Inc.),
 the Gaussian 88(TM) system (copyright 1988, Gaussian, Inc.),
 the Gaussian 86(TM) system (copyright 1986, Carnegie Mellon
 University), and the Gaussian 82(TM) system (copyright 1983,
 Carnegie Mellon University). Gaussian is a federally registered
 trademark of Gaussian, Inc.
  
 This software contains proprietary and confidential information,
 including trade secrets, belonging to Gaussian, Inc.
  
 This software is provided under written license and may be
 used, copied, transmitted, or stored only in accord with that
 written license.
  
 The following legend is applicable only to US Government
 contracts under FAR:
  
                    RESTRICTED RIGHTS LEGEND
  
 Use, reproduction and disclosure by the US Government is
 subject to restrictions as set forth in subparagraphs (a)
 and (c) of the Commercial Computer Software - Restricted
 Rights clause in FAR 52.227-19.
  
 Gaussian, Inc.
 340 Quinnipiac St., Bldg. 40, Wallingford CT 06492
  
  
 ---------------------------------------------------------------
 Warning -- This program may not be used in any manner that
 competes with the business of Gaussian, Inc. or will provide
 assistance to any competitor of Gaussian, Inc.  The licensee
 of this program is prohibited from giving any competitor of
 Gaussian, Inc. access to this program.  By using this program,
 the user acknowledges that Gaussian, Inc. is engaged in the
 business of creating and licensing software in the field of
 computational chemistry and represents and warrants to the
 licensee that it is not a competitor of Gaussian, Inc. and that
 it will not use this program in any manner prohibited above.
 ---------------------------------------------------------------
  

 Cite this work as:
 Gaussian 16, Revision B.01,
 M. J. Frisch, G. W. Trucks, H. B. Schlegel, G. E. Scuseria, 
 M. A. Robb, J. R. Cheeseman, G. Scalmani, V. Barone, 
 G. A. Petersson, H. Nakatsuji, X. Li, M. Caricato, A. V. Marenich, 
 J. Bloino, B. G. Janesko, R. Gomperts, B. Mennucci, H. P. Hratchian, 
 J. V. Ortiz, A. F. Izmaylov, J. L. Sonnenberg, D. Williams-Young, 
 F. Ding, F. Lipparini, F. Egidi, J. Goings, B. Peng, A. Petrone, 
 T. Henderson, D. Ranasinghe, V. G. Zakrzewski, J. Gao, N. Rega, 
 G. Zheng, W. Liang, M. Hada, M. Ehara, K. Toyota, R. Fukuda, 
 J. Hasegawa, M. Ishida, T. Nakajima, Y. Honda, O. Kitao, H. Nakai, 
 T. Vreven, K. Throssell, J. A. Montgomery, Jr., J. E. Peralta, 
 F. Ogliaro, M. J. Bearpark, J. J. Heyd, E. N. Brothers, K. N. Kudin, 
 V. N. Staroverov, T. A. Keith, R. Kobayashi, J. Normand, 
 K. Raghavachari, A. P. Rendell, J. C. Burant, S. S. Iyengar, 
 J. Tomasi, M. Cossi, J. M. Millam, M. Klene, C. Adamo, R. Cammi, 
 J. W. Ochterski, R. L. Martin, K. Morokuma, O. Farkas, 
 J. B. Foresman, and D. J. Fox, Gaussian, Inc., Wallingford CT, 2016.
 
 ******************************************
 Gaussian 16:  ES64L-G16RevB.01 20-Dec-2017
                 5-Nov-2022 
 ******************************************
 %chk=calculation/no_transfer_pubchem_sampling_3_b3lyp/126599885_rwf.chk
 %rwf=calculation/no_transfer_pubchem_sampling_3_b3lyp/126599885_rwf.rwf
 %nprocshared=14
 Will use up to   14 processors via shared memory.
 %mem=3GB
 -------------------------------------------------------------------
 #p b3lyp/6-31g(d) 6D 10F nosymm GFInput td=(50-50,nstate=2) SCF=XQC
 -------------------------------------------------------------------
 1/38=1,172=1/1;
 2/12=2,15=1,17=6,18=5,40=1/2;
 3/5=1,6=6,7=1,8=22,11=9,24=10,25=1,30=1,74=-5/1,2,3,8;
 4//1;
 5/5=2,8=3,13=1,38=5/2,8;
 8/6=1,10=2,108=2/1;
 9/41=2,42=1,48=2,70=2/14;
 6/7=2,8=2,9=2,10=2/1;
 99/5=1,9=1/99;
 Leave Link    1 at Sat Nov  5 11:48:49 2022, MaxMem=   402653184 cpu:               6.9 elap:               0.7
 (Enter /home/wykgroup/appl/g16/l101.exe)
 ------------------------------
 Gaussian input prepared by ASE
 ------------------------------
 Symbolic Z-matrix:
 Charge =  0 Multiplicity = 1
 C                    -2.21742   1.28082  -2.09433 
 O                    -3.47917   1.33014  -1.41065 
 C                    -3.55247   0.7012   -0.21959 
 N                    -2.481     0.10054   0.2604 
 C                    -2.54769  -0.52265   1.45045 
 C                    -1.29326  -1.18113   1.92959 
 N                    -0.14869  -0.69385   1.64015 
 C                     1.0507   -1.37855   2.16044 
 C                     1.75971  -2.12105   1.05378 
 C                     1.57407  -3.42727   0.66948 
 N                     2.40498  -3.74617  -0.38903 
 C                     2.49791  -5.034    -1.04308 
 C                     3.14589  -2.62496  -0.71316 
 C                     4.11885  -2.43563  -1.69848 
 C                     4.70096  -1.17628  -1.79343 
 C                     4.34133  -0.10911  -0.93753 
 C                     5.00592   1.24787  -1.11071 
 C                     4.01571   2.36774  -1.49293 
 C                     4.79068   3.65978  -1.83896 
 O                     6.08097   3.71012  -1.23401 
 C                     6.05554   3.2258    0.1018 
 C                     5.80715   1.70102   0.13823 
 C                     3.36878  -0.32108   0.04093 
 C                     2.76082  -1.57924   0.16945 
 C                     0.70193  -2.2611    3.36465 
 O                    -0.40452  -3.10398   3.02872 
 N                    -1.54113  -2.26516   2.80406 
 C                    -3.7221   -0.5512    2.20245 
 C                    -4.85624   0.0851    1.69022 
 C                    -4.80455   0.72143   0.45551 
 N                    -5.95267   1.3281   -0.0994 
 C                    -6.04043   2.50781  -0.81 
 N                    -7.27857   2.82663  -1.09186 
 C                    -8.06149   1.81798  -0.55214 
 C                    -9.55071   1.82623  -0.69559 
 C                    -7.26625   0.89264   0.06967 
 H                    -1.9375    0.2478   -2.31724 
 H                    -1.42836   1.73398  -1.48894 
 H                    -2.37461   1.84476  -3.01466 
 H                     1.72377  -0.58325   2.5105 
 H                     0.89888  -4.16923   1.07255 
 H                     2.26691  -4.94942  -2.11179 
 H                     3.50262  -5.46115  -0.93626 
 H                     1.77931  -5.71769  -0.58589 
 H                     4.41482  -3.23706  -2.36988 
 H                     5.46006  -1.00324  -2.55272 
 H                     5.7207    1.16157  -1.93856 
 H                     3.39785   2.06305  -2.34521 
 H                     3.32581   2.54287  -0.65736 
 H                     4.97859   3.72255  -2.9161 
 H                     4.20574   4.54841  -1.54724 
 H                     5.2823    3.75987   0.67983 
 H                     7.02493   3.48434   0.53819 
 H                     6.75596   1.15321   0.17369 
 H                     5.26023   1.44294   1.05363 
 H                     3.06904   0.49097   0.69931 
 H                     1.51097  -2.94583   3.62874 
 H                     0.43818  -1.64804   4.23737 
 H                    -2.2569   -2.90123   2.46221 
 H                    -3.74467  -1.02112   3.17912 
 H                    -5.77884   0.10636   2.26137 
 H                    -5.16042   3.07092  -1.07861 
 H                    -9.98138   2.73316  -0.25471 
 H                    -10.00164   0.95849  -0.20353 
 H                    -9.84387   1.81223  -1.75205 
 H                    -7.49202  -0.03872   0.56602 
 
 ITRead=  0  0  0  0  0  0  0  0  0  0  0  0  0  0  0  0  0  0  0  0
 ITRead=  0  0  0  0  0  0  0  0  0  0  0  0  0  0  0  0  0  0  0  0
 ITRead=  0  0  0  0  0  0  0  0  0  0  0  0  0  0  0  0  0  0  0  0
 ITRead=  0  0  0  0  0  0
 MicOpt= -1 -1 -1 -1 -1 -1 -1 -1 -1 -1 -1 -1 -1 -1 -1 -1 -1 -1 -1 -1
 MicOpt= -1 -1 -1 -1 -1 -1 -1 -1 -1 -1 -1 -1 -1 -1 -1 -1 -1 -1 -1 -1
 MicOpt= -1 -1 -1 -1 -1 -1 -1 -1 -1 -1 -1 -1 -1 -1 -1 -1 -1 -1 -1 -1
 MicOpt= -1 -1 -1 -1 -1 -1
 NAtoms=     66 NQM=       66 NQMF=       0 NMMI=      0 NMMIF=      0
                NMic=       0 NMicF=      0.
                    Isotopes and Nuclear Properties:
 (Nuclear quadrupole moments (NQMom) in fm**2, nuclear magnetic moments (NMagM)
  in nuclear magnetons)

  Atom         1           2           3           4           5           6           7           8           9          10
 IAtWgt=          12          16          12          14          12          12          14          12          12          12
 AtmWgt=  12.0000000  15.9949146  12.0000000  14.0030740  12.0000000  12.0000000  14.0030740  12.0000000  12.0000000  12.0000000
 NucSpn=           0           0           0           2           0           0           2           0           0           0
 AtZEff=  -0.0000000  -0.0000000  -0.0000000  -0.0000000  -0.0000000  -0.0000000  -0.0000000  -0.0000000  -0.0000000  -0.0000000
 NQMom=    0.0000000   0.0000000   0.0000000   2.0440000   0.0000000   0.0000000   2.0440000   0.0000000   0.0000000   0.0000000
 NMagM=    0.0000000   0.0000000   0.0000000   0.4037610   0.0000000   0.0000000   0.4037610   0.0000000   0.0000000   0.0000000
 AtZNuc=   6.0000000   8.0000000   6.0000000   7.0000000   6.0000000   6.0000000   7.0000000   6.0000000   6.0000000   6.0000000

  Atom        11          12          13          14          15          16          17          18          19          20
 IAtWgt=          14          12          12          12          12          12          12          12          12          16
 AtmWgt=  14.0030740  12.0000000  12.0000000  12.0000000  12.0000000  12.0000000  12.0000000  12.0000000  12.0000000  15.9949146
 NucSpn=           2           0           0           0           0           0           0           0           0           0
 AtZEff=  -0.0000000  -0.0000000  -0.0000000  -0.0000000  -0.0000000  -0.0000000  -0.0000000  -0.0000000  -0.0000000  -0.0000000
 NQMom=    2.0440000   0.0000000   0.0000000   0.0000000   0.0000000   0.0000000   0.0000000   0.0000000   0.0000000   0.0000000
 NMagM=    0.4037610   0.0000000   0.0000000   0.0000000   0.0000000   0.0000000   0.0000000   0.0000000   0.0000000   0.0000000
 AtZNuc=   7.0000000   6.0000000   6.0000000   6.0000000   6.0000000   6.0000000   6.0000000   6.0000000   6.0000000   8.0000000

  Atom        21          22          23          24          25          26          27          28          29          30
 IAtWgt=          12          12          12          12          12          16          14          12          12          12
 AtmWgt=  12.0000000  12.0000000  12.0000000  12.0000000  12.0000000  15.9949146  14.0030740  12.0000000  12.0000000  12.0000000
 NucSpn=           0           0           0           0           0           0           2           0           0           0
 AtZEff=  -0.0000000  -0.0000000  -0.0000000  -0.0000000  -0.0000000  -0.0000000  -0.0000000  -0.0000000  -0.0000000  -0.0000000
 NQMom=    0.0000000   0.0000000   0.0000000   0.0000000   0.0000000   0.0000000   2.0440000   0.0000000   0.0000000   0.0000000
 NMagM=    0.0000000   0.0000000   0.0000000   0.0000000   0.0000000   0.0000000   0.4037610   0.0000000   0.0000000   0.0000000
 AtZNuc=   6.0000000   6.0000000   6.0000000   6.0000000   6.0000000   8.0000000   7.0000000   6.0000000   6.0000000   6.0000000

  Atom        31          32          33          34          35          36          37          38          39          40
 IAtWgt=          14          12          14          12          12          12           1           1           1           1
 AtmWgt=  14.0030740  12.0000000  14.0030740  12.0000000  12.0000000  12.0000000   1.0078250   1.0078250   1.0078250   1.0078250
 NucSpn=           2           0           2           0           0           0           1           1           1           1
 AtZEff=  -0.0000000  -0.0000000  -0.0000000  -0.0000000  -0.0000000  -0.0000000  -0.0000000  -0.0000000  -0.0000000  -0.0000000
 NQMom=    2.0440000   0.0000000   2.0440000   0.0000000   0.0000000   0.0000000   0.0000000   0.0000000   0.0000000   0.0000000
 NMagM=    0.4037610   0.0000000   0.4037610   0.0000000   0.0000000   0.0000000   2.7928460   2.7928460   2.7928460   2.7928460
 AtZNuc=   7.0000000   6.0000000   7.0000000   6.0000000   6.0000000   6.0000000   1.0000000   1.0000000   1.0000000   1.0000000

  Atom        41          42          43          44          45          46          47          48          49          50
 IAtWgt=           1           1           1           1           1           1           1           1           1           1
 AtmWgt=   1.0078250   1.0078250   1.0078250   1.0078250   1.0078250   1.0078250   1.0078250   1.0078250   1.0078250   1.0078250
 NucSpn=           1           1           1           1           1           1           1           1           1           1
 AtZEff=  -0.0000000  -0.0000000  -0.0000000  -0.0000000  -0.0000000  -0.0000000  -0.0000000  -0.0000000  -0.0000000  -0.0000000
 NQMom=    0.0000000   0.0000000   0.0000000   0.0000000   0.0000000   0.0000000   0.0000000   0.0000000   0.0000000   0.0000000
 NMagM=    2.7928460   2.7928460   2.7928460   2.7928460   2.7928460   2.7928460   2.7928460   2.7928460   2.7928460   2.7928460
 AtZNuc=   1.0000000   1.0000000   1.0000000   1.0000000   1.0000000   1.0000000   1.0000000   1.0000000   1.0000000   1.0000000

  Atom        51          52          53          54          55          56          57          58          59          60
 IAtWgt=           1           1           1           1           1           1           1           1           1           1
 AtmWgt=   1.0078250   1.0078250   1.0078250   1.0078250   1.0078250   1.0078250   1.0078250   1.0078250   1.0078250   1.0078250
 NucSpn=           1           1           1           1           1           1           1           1           1           1
 AtZEff=  -0.0000000  -0.0000000  -0.0000000  -0.0000000  -0.0000000  -0.0000000  -0.0000000  -0.0000000  -0.0000000  -0.0000000
 NQMom=    0.0000000   0.0000000   0.0000000   0.0000000   0.0000000   0.0000000   0.0000000   0.0000000   0.0000000   0.0000000
 NMagM=    2.7928460   2.7928460   2.7928460   2.7928460   2.7928460   2.7928460   2.7928460   2.7928460   2.7928460   2.7928460
 AtZNuc=   1.0000000   1.0000000   1.0000000   1.0000000   1.0000000   1.0000000   1.0000000   1.0000000   1.0000000   1.0000000

  Atom        61          62          63          64          65          66
 IAtWgt=           1           1           1           1           1           1
 AtmWgt=   1.0078250   1.0078250   1.0078250   1.0078250   1.0078250   1.0078250
 NucSpn=           1           1           1           1           1           1
 AtZEff=  -0.0000000  -0.0000000  -0.0000000  -0.0000000  -0.0000000  -0.0000000
 NQMom=    0.0000000   0.0000000   0.0000000   0.0000000   0.0000000   0.0000000
 NMagM=    2.7928460   2.7928460   2.7928460   2.7928460   2.7928460   2.7928460
 AtZNuc=   1.0000000   1.0000000   1.0000000   1.0000000   1.0000000   1.0000000
 Leave Link  101 at Sat Nov  5 11:48:49 2022, MaxMem=   402653184 cpu:               1.8 elap:               0.2
 (Enter /home/wykgroup/appl/g16/l202.exe)
 Symmetry turned off by external request.
 Stoichiometry    C27H30N6O3
 Framework group  C1[X(C27H30N6O3)]
 Deg. of freedom   192
 Full point group                 C1      NOp   1
                          Input orientation:                          
 ---------------------------------------------------------------------
 Center     Atomic      Atomic             Coordinates (Angstroms)
 Number     Number       Type             X           Y           Z
 ---------------------------------------------------------------------
      1          6           0       -2.217422    1.280821   -2.094333
      2          8           0       -3.479170    1.330136   -1.410653
      3          6           0       -3.552467    0.701198   -0.219586
      4          7           0       -2.481005    0.100541    0.260397
      5          6           0       -2.547687   -0.522647    1.450453
      6          6           0       -1.293256   -1.181134    1.929589
      7          7           0       -0.148691   -0.693851    1.640153
      8          6           0        1.050704   -1.378552    2.160438
      9          6           0        1.759711   -2.121051    1.053778
     10          6           0        1.574070   -3.427273    0.669483
     11          7           0        2.404981   -3.746174   -0.389028
     12          6           0        2.497908   -5.034001   -1.043083
     13          6           0        3.145891   -2.624958   -0.713158
     14          6           0        4.118845   -2.435628   -1.698479
     15          6           0        4.700958   -1.176283   -1.793428
     16          6           0        4.341326   -0.109113   -0.937527
     17          6           0        5.005923    1.247866   -1.110708
     18          6           0        4.015713    2.367742   -1.492931
     19          6           0        4.790676    3.659775   -1.838965
     20          8           0        6.080969    3.710119   -1.234009
     21          6           0        6.055543    3.225796    0.101801
     22          6           0        5.807150    1.701017    0.138228
     23          6           0        3.368776   -0.321078    0.040931
     24          6           0        2.760819   -1.579243    0.169452
     25          6           0        0.701928   -2.261097    3.364649
     26          8           0       -0.404516   -3.103982    3.028717
     27          7           0       -1.541126   -2.265163    2.804058
     28          6           0       -3.722102   -0.551195    2.202449
     29          6           0       -4.856242    0.085100    1.690216
     30          6           0       -4.804546    0.721433    0.455510
     31          7           0       -5.952667    1.328098   -0.099398
     32          6           0       -6.040431    2.507805   -0.810002
     33          7           0       -7.278574    2.826633   -1.091865
     34          6           0       -8.061491    1.817978   -0.552141
     35          6           0       -9.550711    1.826232   -0.695592
     36          6           0       -7.266249    0.892637    0.069674
     37          1           0       -1.937496    0.247800   -2.317237
     38          1           0       -1.428356    1.733980   -1.488941
     39          1           0       -2.374607    1.844765   -3.014658
     40          1           0        1.723770   -0.583249    2.510498
     41          1           0        0.898878   -4.169230    1.072549
     42          1           0        2.266914   -4.949416   -2.111793
     43          1           0        3.502617   -5.461152   -0.936258
     44          1           0        1.779306   -5.717687   -0.585891
     45          1           0        4.414821   -3.237056   -2.369877
     46          1           0        5.460055   -1.003245   -2.552716
     47          1           0        5.720704    1.161573   -1.938562
     48          1           0        3.397848    2.063055   -2.345205
     49          1           0        3.325807    2.542865   -0.657360
     50          1           0        4.978588    3.722551   -2.916098
     51          1           0        4.205740    4.548411   -1.547241
     52          1           0        5.282305    3.759868    0.679835
     53          1           0        7.024927    3.484338    0.538191
     54          1           0        6.755963    1.153212    0.173686
     55          1           0        5.260231    1.442940    1.053627
     56          1           0        3.069036    0.490965    0.699308
     57          1           0        1.510966   -2.945833    3.628744
     58          1           0        0.438178   -1.648041    4.237369
     59          1           0       -2.256900   -2.901233    2.462211
     60          1           0       -3.744666   -1.021119    3.179122
     61          1           0       -5.778839    0.106359    2.261371
     62          1           0       -5.160419    3.070918   -1.078612
     63          1           0       -9.981380    2.733156   -0.254710
     64          1           0      -10.001637    0.958494   -0.203529
     65          1           0       -9.843874    1.812227   -1.752054
     66          1           0       -7.492020   -0.038720    0.566016
 ---------------------------------------------------------------------
 Rotational constants (GHZ):           0.1452818           0.0475885           0.0400906
 Leave Link  202 at Sat Nov  5 11:48:49 2022, MaxMem=   402653184 cpu:               0.1 elap:               0.0
 (Enter /home/wykgroup/appl/g16/l301.exe)
 Standard basis: 6-31G(d) (6D, 10F)
 Ernie: Thresh=  0.10000D-02 Tol=  0.10000D-05 Strict=F.
 AO basis set in the form of general basis input (Overlap normalization):
      1 0
 S   6 1.00       0.000000000000
      0.3047524880D+04  0.1834737132D-02
      0.4573695180D+03  0.1403732281D-01
      0.1039486850D+03  0.6884262226D-01
      0.2921015530D+02  0.2321844432D+00
      0.9286662960D+01  0.4679413484D+00
      0.3163926960D+01  0.3623119853D+00
 SP   3 1.00       0.000000000000
      0.7868272350D+01 -0.1193324198D+00  0.6899906659D-01
      0.1881288540D+01 -0.1608541517D+00  0.3164239610D+00
      0.5442492580D+00  0.1143456438D+01  0.7443082909D+00
 SP   1 1.00       0.000000000000
      0.1687144782D+00  0.1000000000D+01  0.1000000000D+01
 D   1 1.00       0.000000000000
      0.8000000000D+00  0.1000000000D+01
 ****
      2 0
 S   6 1.00       0.000000000000
      0.5484671660D+04  0.1831074430D-02
      0.8252349460D+03  0.1395017220D-01
      0.1880469580D+03  0.6844507810D-01
      0.5296450000D+02  0.2327143360D+00
      0.1689757040D+02  0.4701928980D+00
      0.5799635340D+01  0.3585208530D+00
 SP   3 1.00       0.000000000000
      0.1553961625D+02 -0.1107775495D+00  0.7087426823D-01
      0.3599933586D+01 -0.1480262627D+00  0.3397528391D+00
      0.1013761750D+01  0.1130767015D+01  0.7271585773D+00
 SP   1 1.00       0.000000000000
      0.2700058226D+00  0.1000000000D+01  0.1000000000D+01
 D   1 1.00       0.000000000000
      0.8000000000D+00  0.1000000000D+01
 ****
      3 0
 S   6 1.00       0.000000000000
      0.3047524880D+04  0.1834737132D-02
      0.4573695180D+03  0.1403732281D-01
      0.1039486850D+03  0.6884262226D-01
      0.2921015530D+02  0.2321844432D+00
      0.9286662960D+01  0.4679413484D+00
      0.3163926960D+01  0.3623119853D+00
 SP   3 1.00       0.000000000000
      0.7868272350D+01 -0.1193324198D+00  0.6899906659D-01
      0.1881288540D+01 -0.1608541517D+00  0.3164239610D+00
      0.5442492580D+00  0.1143456438D+01  0.7443082909D+00
 SP   1 1.00       0.000000000000
      0.1687144782D+00  0.1000000000D+01  0.1000000000D+01
 D   1 1.00       0.000000000000
      0.8000000000D+00  0.1000000000D+01
 ****
      4 0
 S   6 1.00       0.000000000000
      0.4173511460D+04  0.1834772160D-02
      0.6274579110D+03  0.1399462700D-01
      0.1429020930D+03  0.6858655181D-01
      0.4023432930D+02  0.2322408730D+00
      0.1282021290D+02  0.4690699481D+00
      0.4390437010D+01  0.3604551991D+00
 SP   3 1.00       0.000000000000
      0.1162636186D+02 -0.1149611817D+00  0.6757974388D-01
      0.2716279807D+01 -0.1691174786D+00  0.3239072959D+00
      0.7722183966D+00  0.1145851947D+01  0.7408951398D+00
 SP   1 1.00       0.000000000000
      0.2120314975D+00  0.1000000000D+01  0.1000000000D+01
 D   1 1.00       0.000000000000
      0.8000000000D+00  0.1000000000D+01
 ****
      5 0
 S   6 1.00       0.000000000000
      0.3047524880D+04  0.1834737132D-02
      0.4573695180D+03  0.1403732281D-01
      0.1039486850D+03  0.6884262226D-01
      0.2921015530D+02  0.2321844432D+00
      0.9286662960D+01  0.4679413484D+00
      0.3163926960D+01  0.3623119853D+00
 SP   3 1.00       0.000000000000
      0.7868272350D+01 -0.1193324198D+00  0.6899906659D-01
      0.1881288540D+01 -0.1608541517D+00  0.3164239610D+00
      0.5442492580D+00  0.1143456438D+01  0.7443082909D+00
 SP   1 1.00       0.000000000000
      0.1687144782D+00  0.1000000000D+01  0.1000000000D+01
 D   1 1.00       0.000000000000
      0.8000000000D+00  0.1000000000D+01
 ****
      6 0
 S   6 1.00       0.000000000000
      0.3047524880D+04  0.1834737132D-02
      0.4573695180D+03  0.1403732281D-01
      0.1039486850D+03  0.6884262226D-01
      0.2921015530D+02  0.2321844432D+00
      0.9286662960D+01  0.4679413484D+00
      0.3163926960D+01  0.3623119853D+00
 SP   3 1.00       0.000000000000
      0.7868272350D+01 -0.1193324198D+00  0.6899906659D-01
      0.1881288540D+01 -0.1608541517D+00  0.3164239610D+00
      0.5442492580D+00  0.1143456438D+01  0.7443082909D+00
 SP   1 1.00       0.000000000000
      0.1687144782D+00  0.1000000000D+01  0.1000000000D+01
 D   1 1.00       0.000000000000
      0.8000000000D+00  0.1000000000D+01
 ****
      7 0
 S   6 1.00       0.000000000000
      0.4173511460D+04  0.1834772160D-02
      0.6274579110D+03  0.1399462700D-01
      0.1429020930D+03  0.6858655181D-01
      0.4023432930D+02  0.2322408730D+00
      0.1282021290D+02  0.4690699481D+00
      0.4390437010D+01  0.3604551991D+00
 SP   3 1.00       0.000000000000
      0.1162636186D+02 -0.1149611817D+00  0.6757974388D-01
      0.2716279807D+01 -0.1691174786D+00  0.3239072959D+00
      0.7722183966D+00  0.1145851947D+01  0.7408951398D+00
 SP   1 1.00       0.000000000000
      0.2120314975D+00  0.1000000000D+01  0.1000000000D+01
 D   1 1.00       0.000000000000
      0.8000000000D+00  0.1000000000D+01
 ****
      8 0
 S   6 1.00       0.000000000000
      0.3047524880D+04  0.1834737132D-02
      0.4573695180D+03  0.1403732281D-01
      0.1039486850D+03  0.6884262226D-01
      0.2921015530D+02  0.2321844432D+00
      0.9286662960D+01  0.4679413484D+00
      0.3163926960D+01  0.3623119853D+00
 SP   3 1.00       0.000000000000
      0.7868272350D+01 -0.1193324198D+00  0.6899906659D-01
      0.1881288540D+01 -0.1608541517D+00  0.3164239610D+00
      0.5442492580D+00  0.1143456438D+01  0.7443082909D+00
 SP   1 1.00       0.000000000000
      0.1687144782D+00  0.1000000000D+01  0.1000000000D+01
 D   1 1.00       0.000000000000
      0.8000000000D+00  0.1000000000D+01
 ****
      9 0
 S   6 1.00       0.000000000000
      0.3047524880D+04  0.1834737132D-02
      0.4573695180D+03  0.1403732281D-01
      0.1039486850D+03  0.6884262226D-01
      0.2921015530D+02  0.2321844432D+00
      0.9286662960D+01  0.4679413484D+00
      0.3163926960D+01  0.3623119853D+00
 SP   3 1.00       0.000000000000
      0.7868272350D+01 -0.1193324198D+00  0.6899906659D-01
      0.1881288540D+01 -0.1608541517D+00  0.3164239610D+00
      0.5442492580D+00  0.1143456438D+01  0.7443082909D+00
 SP   1 1.00       0.000000000000
      0.1687144782D+00  0.1000000000D+01  0.1000000000D+01
 D   1 1.00       0.000000000000
      0.8000000000D+00  0.1000000000D+01
 ****
     10 0
 S   6 1.00       0.000000000000
      0.3047524880D+04  0.1834737132D-02
      0.4573695180D+03  0.1403732281D-01
      0.1039486850D+03  0.6884262226D-01
      0.2921015530D+02  0.2321844432D+00
      0.9286662960D+01  0.4679413484D+00
      0.3163926960D+01  0.3623119853D+00
 SP   3 1.00       0.000000000000
      0.7868272350D+01 -0.1193324198D+00  0.6899906659D-01
      0.1881288540D+01 -0.1608541517D+00  0.3164239610D+00
      0.5442492580D+00  0.1143456438D+01  0.7443082909D+00
 SP   1 1.00       0.000000000000
      0.1687144782D+00  0.1000000000D+01  0.1000000000D+01
 D   1 1.00       0.000000000000
      0.8000000000D+00  0.1000000000D+01
 ****
     11 0
 S   6 1.00       0.000000000000
      0.4173511460D+04  0.1834772160D-02
      0.6274579110D+03  0.1399462700D-01
      0.1429020930D+03  0.6858655181D-01
      0.4023432930D+02  0.2322408730D+00
      0.1282021290D+02  0.4690699481D+00
      0.4390437010D+01  0.3604551991D+00
 SP   3 1.00       0.000000000000
      0.1162636186D+02 -0.1149611817D+00  0.6757974388D-01
      0.2716279807D+01 -0.1691174786D+00  0.3239072959D+00
      0.7722183966D+00  0.1145851947D+01  0.7408951398D+00
 SP   1 1.00       0.000000000000
      0.2120314975D+00  0.1000000000D+01  0.1000000000D+01
 D   1 1.00       0.000000000000
      0.8000000000D+00  0.1000000000D+01
 ****
     12 0
 S   6 1.00       0.000000000000
      0.3047524880D+04  0.1834737132D-02
      0.4573695180D+03  0.1403732281D-01
      0.1039486850D+03  0.6884262226D-01
      0.2921015530D+02  0.2321844432D+00
      0.9286662960D+01  0.4679413484D+00
      0.3163926960D+01  0.3623119853D+00
 SP   3 1.00       0.000000000000
      0.7868272350D+01 -0.1193324198D+00  0.6899906659D-01
      0.1881288540D+01 -0.1608541517D+00  0.3164239610D+00
      0.5442492580D+00  0.1143456438D+01  0.7443082909D+00
 SP   1 1.00       0.000000000000
      0.1687144782D+00  0.1000000000D+01  0.1000000000D+01
 D   1 1.00       0.000000000000
      0.8000000000D+00  0.1000000000D+01
 ****
     13 0
 S   6 1.00       0.000000000000
      0.3047524880D+04  0.1834737132D-02
      0.4573695180D+03  0.1403732281D-01
      0.1039486850D+03  0.6884262226D-01
      0.2921015530D+02  0.2321844432D+00
      0.9286662960D+01  0.4679413484D+00
      0.3163926960D+01  0.3623119853D+00
 SP   3 1.00       0.000000000000
      0.7868272350D+01 -0.1193324198D+00  0.6899906659D-01
      0.1881288540D+01 -0.1608541517D+00  0.3164239610D+00
      0.5442492580D+00  0.1143456438D+01  0.7443082909D+00
 SP   1 1.00       0.000000000000
      0.1687144782D+00  0.1000000000D+01  0.1000000000D+01
 D   1 1.00       0.000000000000
      0.8000000000D+00  0.1000000000D+01
 ****
     14 0
 S   6 1.00       0.000000000000
      0.3047524880D+04  0.1834737132D-02
      0.4573695180D+03  0.1403732281D-01
      0.1039486850D+03  0.6884262226D-01
      0.2921015530D+02  0.2321844432D+00
      0.9286662960D+01  0.4679413484D+00
      0.3163926960D+01  0.3623119853D+00
 SP   3 1.00       0.000000000000
      0.7868272350D+01 -0.1193324198D+00  0.6899906659D-01
      0.1881288540D+01 -0.1608541517D+00  0.3164239610D+00
      0.5442492580D+00  0.1143456438D+01  0.7443082909D+00
 SP   1 1.00       0.000000000000
      0.1687144782D+00  0.1000000000D+01  0.1000000000D+01
 D   1 1.00       0.000000000000
      0.8000000000D+00  0.1000000000D+01
 ****
     15 0
 S   6 1.00       0.000000000000
      0.3047524880D+04  0.1834737132D-02
      0.4573695180D+03  0.1403732281D-01
      0.1039486850D+03  0.6884262226D-01
      0.2921015530D+02  0.2321844432D+00
      0.9286662960D+01  0.4679413484D+00
      0.3163926960D+01  0.3623119853D+00
 SP   3 1.00       0.000000000000
      0.7868272350D+01 -0.1193324198D+00  0.6899906659D-01
      0.1881288540D+01 -0.1608541517D+00  0.3164239610D+00
      0.5442492580D+00  0.1143456438D+01  0.7443082909D+00
 SP   1 1.00       0.000000000000
      0.1687144782D+00  0.1000000000D+01  0.1000000000D+01
 D   1 1.00       0.000000000000
      0.8000000000D+00  0.1000000000D+01
 ****
     16 0
 S   6 1.00       0.000000000000
      0.3047524880D+04  0.1834737132D-02
      0.4573695180D+03  0.1403732281D-01
      0.1039486850D+03  0.6884262226D-01
      0.2921015530D+02  0.2321844432D+00
      0.9286662960D+01  0.4679413484D+00
      0.3163926960D+01  0.3623119853D+00
 SP   3 1.00       0.000000000000
      0.7868272350D+01 -0.1193324198D+00  0.6899906659D-01
      0.1881288540D+01 -0.1608541517D+00  0.3164239610D+00
      0.5442492580D+00  0.1143456438D+01  0.7443082909D+00
 SP   1 1.00       0.000000000000
      0.1687144782D+00  0.1000000000D+01  0.1000000000D+01
 D   1 1.00       0.000000000000
      0.8000000000D+00  0.1000000000D+01
 ****
     17 0
 S   6 1.00       0.000000000000
      0.3047524880D+04  0.1834737132D-02
      0.4573695180D+03  0.1403732281D-01
      0.1039486850D+03  0.6884262226D-01
      0.2921015530D+02  0.2321844432D+00
      0.9286662960D+01  0.4679413484D+00
      0.3163926960D+01  0.3623119853D+00
 SP   3 1.00       0.000000000000
      0.7868272350D+01 -0.1193324198D+00  0.6899906659D-01
      0.1881288540D+01 -0.1608541517D+00  0.3164239610D+00
      0.5442492580D+00  0.1143456438D+01  0.7443082909D+00
 SP   1 1.00       0.000000000000
      0.1687144782D+00  0.1000000000D+01  0.1000000000D+01
 D   1 1.00       0.000000000000
      0.8000000000D+00  0.1000000000D+01
 ****
     18 0
 S   6 1.00       0.000000000000
      0.3047524880D+04  0.1834737132D-02
      0.4573695180D+03  0.1403732281D-01
      0.1039486850D+03  0.6884262226D-01
      0.2921015530D+02  0.2321844432D+00
      0.9286662960D+01  0.4679413484D+00
      0.3163926960D+01  0.3623119853D+00
 SP   3 1.00       0.000000000000
      0.7868272350D+01 -0.1193324198D+00  0.6899906659D-01
      0.1881288540D+01 -0.1608541517D+00  0.3164239610D+00
      0.5442492580D+00  0.1143456438D+01  0.7443082909D+00
 SP   1 1.00       0.000000000000
      0.1687144782D+00  0.1000000000D+01  0.1000000000D+01
 D   1 1.00       0.000000000000
      0.8000000000D+00  0.1000000000D+01
 ****
     19 0
 S   6 1.00       0.000000000000
      0.3047524880D+04  0.1834737132D-02
      0.4573695180D+03  0.1403732281D-01
      0.1039486850D+03  0.6884262226D-01
      0.2921015530D+02  0.2321844432D+00
      0.9286662960D+01  0.4679413484D+00
      0.3163926960D+01  0.3623119853D+00
 SP   3 1.00       0.000000000000
      0.7868272350D+01 -0.1193324198D+00  0.6899906659D-01
      0.1881288540D+01 -0.1608541517D+00  0.3164239610D+00
      0.5442492580D+00  0.1143456438D+01  0.7443082909D+00
 SP   1 1.00       0.000000000000
      0.1687144782D+00  0.1000000000D+01  0.1000000000D+01
 D   1 1.00       0.000000000000
      0.8000000000D+00  0.1000000000D+01
 ****
     20 0
 S   6 1.00       0.000000000000
      0.5484671660D+04  0.1831074430D-02
      0.8252349460D+03  0.1395017220D-01
      0.1880469580D+03  0.6844507810D-01
      0.5296450000D+02  0.2327143360D+00
      0.1689757040D+02  0.4701928980D+00
      0.5799635340D+01  0.3585208530D+00
 SP   3 1.00       0.000000000000
      0.1553961625D+02 -0.1107775495D+00  0.7087426823D-01
      0.3599933586D+01 -0.1480262627D+00  0.3397528391D+00
      0.1013761750D+01  0.1130767015D+01  0.7271585773D+00
 SP   1 1.00       0.000000000000
      0.2700058226D+00  0.1000000000D+01  0.1000000000D+01
 D   1 1.00       0.000000000000
      0.8000000000D+00  0.1000000000D+01
 ****
     21 0
 S   6 1.00       0.000000000000
      0.3047524880D+04  0.1834737132D-02
      0.4573695180D+03  0.1403732281D-01
      0.1039486850D+03  0.6884262226D-01
      0.2921015530D+02  0.2321844432D+00
      0.9286662960D+01  0.4679413484D+00
      0.3163926960D+01  0.3623119853D+00
 SP   3 1.00       0.000000000000
      0.7868272350D+01 -0.1193324198D+00  0.6899906659D-01
      0.1881288540D+01 -0.1608541517D+00  0.3164239610D+00
      0.5442492580D+00  0.1143456438D+01  0.7443082909D+00
 SP   1 1.00       0.000000000000
      0.1687144782D+00  0.1000000000D+01  0.1000000000D+01
 D   1 1.00       0.000000000000
      0.8000000000D+00  0.1000000000D+01
 ****
     22 0
 S   6 1.00       0.000000000000
      0.3047524880D+04  0.1834737132D-02
      0.4573695180D+03  0.1403732281D-01
      0.1039486850D+03  0.6884262226D-01
      0.2921015530D+02  0.2321844432D+00
      0.9286662960D+01  0.4679413484D+00
      0.3163926960D+01  0.3623119853D+00
 SP   3 1.00       0.000000000000
      0.7868272350D+01 -0.1193324198D+00  0.6899906659D-01
      0.1881288540D+01 -0.1608541517D+00  0.3164239610D+00
      0.5442492580D+00  0.1143456438D+01  0.7443082909D+00
 SP   1 1.00       0.000000000000
      0.1687144782D+00  0.1000000000D+01  0.1000000000D+01
 D   1 1.00       0.000000000000
      0.8000000000D+00  0.1000000000D+01
 ****
     23 0
 S   6 1.00       0.000000000000
      0.3047524880D+04  0.1834737132D-02
      0.4573695180D+03  0.1403732281D-01
      0.1039486850D+03  0.6884262226D-01
      0.2921015530D+02  0.2321844432D+00
      0.9286662960D+01  0.4679413484D+00
      0.3163926960D+01  0.3623119853D+00
 SP   3 1.00       0.000000000000
      0.7868272350D+01 -0.1193324198D+00  0.6899906659D-01
      0.1881288540D+01 -0.1608541517D+00  0.3164239610D+00
      0.5442492580D+00  0.1143456438D+01  0.7443082909D+00
 SP   1 1.00       0.000000000000
      0.1687144782D+00  0.1000000000D+01  0.1000000000D+01
 D   1 1.00       0.000000000000
      0.8000000000D+00  0.1000000000D+01
 ****
     24 0
 S   6 1.00       0.000000000000
      0.3047524880D+04  0.1834737132D-02
      0.4573695180D+03  0.1403732281D-01
      0.1039486850D+03  0.6884262226D-01
      0.2921015530D+02  0.2321844432D+00
      0.9286662960D+01  0.4679413484D+00
      0.3163926960D+01  0.3623119853D+00
 SP   3 1.00       0.000000000000
      0.7868272350D+01 -0.1193324198D+00  0.6899906659D-01
      0.1881288540D+01 -0.1608541517D+00  0.3164239610D+00
      0.5442492580D+00  0.1143456438D+01  0.7443082909D+00
 SP   1 1.00       0.000000000000
      0.1687144782D+00  0.1000000000D+01  0.1000000000D+01
 D   1 1.00       0.000000000000
      0.8000000000D+00  0.1000000000D+01
 ****
     25 0
 S   6 1.00       0.000000000000
      0.3047524880D+04  0.1834737132D-02
      0.4573695180D+03  0.1403732281D-01
      0.1039486850D+03  0.6884262226D-01
      0.2921015530D+02  0.2321844432D+00
      0.9286662960D+01  0.4679413484D+00
      0.3163926960D+01  0.3623119853D+00
 SP   3 1.00       0.000000000000
      0.7868272350D+01 -0.1193324198D+00  0.6899906659D-01
      0.1881288540D+01 -0.1608541517D+00  0.3164239610D+00
      0.5442492580D+00  0.1143456438D+01  0.7443082909D+00
 SP   1 1.00       0.000000000000
      0.1687144782D+00  0.1000000000D+01  0.1000000000D+01
 D   1 1.00       0.000000000000
      0.8000000000D+00  0.1000000000D+01
 ****
     26 0
 S   6 1.00       0.000000000000
      0.5484671660D+04  0.1831074430D-02
      0.8252349460D+03  0.1395017220D-01
      0.1880469580D+03  0.6844507810D-01
      0.5296450000D+02  0.2327143360D+00
      0.1689757040D+02  0.4701928980D+00
      0.5799635340D+01  0.3585208530D+00
 SP   3 1.00       0.000000000000
      0.1553961625D+02 -0.1107775495D+00  0.7087426823D-01
      0.3599933586D+01 -0.1480262627D+00  0.3397528391D+00
      0.1013761750D+01  0.1130767015D+01  0.7271585773D+00
 SP   1 1.00       0.000000000000
      0.2700058226D+00  0.1000000000D+01  0.1000000000D+01
 D   1 1.00       0.000000000000
      0.8000000000D+00  0.1000000000D+01
 ****
     27 0
 S   6 1.00       0.000000000000
      0.4173511460D+04  0.1834772160D-02
      0.6274579110D+03  0.1399462700D-01
      0.1429020930D+03  0.6858655181D-01
      0.4023432930D+02  0.2322408730D+00
      0.1282021290D+02  0.4690699481D+00
      0.4390437010D+01  0.3604551991D+00
 SP   3 1.00       0.000000000000
      0.1162636186D+02 -0.1149611817D+00  0.6757974388D-01
      0.2716279807D+01 -0.1691174786D+00  0.3239072959D+00
      0.7722183966D+00  0.1145851947D+01  0.7408951398D+00
 SP   1 1.00       0.000000000000
      0.2120314975D+00  0.1000000000D+01  0.1000000000D+01
 D   1 1.00       0.000000000000
      0.8000000000D+00  0.1000000000D+01
 ****
     28 0
 S   6 1.00       0.000000000000
      0.3047524880D+04  0.1834737132D-02
      0.4573695180D+03  0.1403732281D-01
      0.1039486850D+03  0.6884262226D-01
      0.2921015530D+02  0.2321844432D+00
      0.9286662960D+01  0.4679413484D+00
      0.3163926960D+01  0.3623119853D+00
 SP   3 1.00       0.000000000000
      0.7868272350D+01 -0.1193324198D+00  0.6899906659D-01
      0.1881288540D+01 -0.1608541517D+00  0.3164239610D+00
      0.5442492580D+00  0.1143456438D+01  0.7443082909D+00
 SP   1 1.00       0.000000000000
      0.1687144782D+00  0.1000000000D+01  0.1000000000D+01
 D   1 1.00       0.000000000000
      0.8000000000D+00  0.1000000000D+01
 ****
     29 0
 S   6 1.00       0.000000000000
      0.3047524880D+04  0.1834737132D-02
      0.4573695180D+03  0.1403732281D-01
      0.1039486850D+03  0.6884262226D-01
      0.2921015530D+02  0.2321844432D+00
      0.9286662960D+01  0.4679413484D+00
      0.3163926960D+01  0.3623119853D+00
 SP   3 1.00       0.000000000000
      0.7868272350D+01 -0.1193324198D+00  0.6899906659D-01
      0.1881288540D+01 -0.1608541517D+00  0.3164239610D+00
      0.5442492580D+00  0.1143456438D+01  0.7443082909D+00
 SP   1 1.00       0.000000000000
      0.1687144782D+00  0.1000000000D+01  0.1000000000D+01
 D   1 1.00       0.000000000000
      0.8000000000D+00  0.1000000000D+01
 ****
     30 0
 S   6 1.00       0.000000000000
      0.3047524880D+04  0.1834737132D-02
      0.4573695180D+03  0.1403732281D-01
      0.1039486850D+03  0.6884262226D-01
      0.2921015530D+02  0.2321844432D+00
      0.9286662960D+01  0.4679413484D+00
      0.3163926960D+01  0.3623119853D+00
 SP   3 1.00       0.000000000000
      0.7868272350D+01 -0.1193324198D+00  0.6899906659D-01
      0.1881288540D+01 -0.1608541517D+00  0.3164239610D+00
      0.5442492580D+00  0.1143456438D+01  0.7443082909D+00
 SP   1 1.00       0.000000000000
      0.1687144782D+00  0.1000000000D+01  0.1000000000D+01
 D   1 1.00       0.000000000000
      0.8000000000D+00  0.1000000000D+01
 ****
     31 0
 S   6 1.00       0.000000000000
      0.4173511460D+04  0.1834772160D-02
      0.6274579110D+03  0.1399462700D-01
      0.1429020930D+03  0.6858655181D-01
      0.4023432930D+02  0.2322408730D+00
      0.1282021290D+02  0.4690699481D+00
      0.4390437010D+01  0.3604551991D+00
 SP   3 1.00       0.000000000000
      0.1162636186D+02 -0.1149611817D+00  0.6757974388D-01
      0.2716279807D+01 -0.1691174786D+00  0.3239072959D+00
      0.7722183966D+00  0.1145851947D+01  0.7408951398D+00
 SP   1 1.00       0.000000000000
      0.2120314975D+00  0.1000000000D+01  0.1000000000D+01
 D   1 1.00       0.000000000000
      0.8000000000D+00  0.1000000000D+01
 ****
     32 0
 S   6 1.00       0.000000000000
      0.3047524880D+04  0.1834737132D-02
      0.4573695180D+03  0.1403732281D-01
      0.1039486850D+03  0.6884262226D-01
      0.2921015530D+02  0.2321844432D+00
      0.9286662960D+01  0.4679413484D+00
      0.3163926960D+01  0.3623119853D+00
 SP   3 1.00       0.000000000000
      0.7868272350D+01 -0.1193324198D+00  0.6899906659D-01
      0.1881288540D+01 -0.1608541517D+00  0.3164239610D+00
      0.5442492580D+00  0.1143456438D+01  0.7443082909D+00
 SP   1 1.00       0.000000000000
      0.1687144782D+00  0.1000000000D+01  0.1000000000D+01
 D   1 1.00       0.000000000000
      0.8000000000D+00  0.1000000000D+01
 ****
     33 0
 S   6 1.00       0.000000000000
      0.4173511460D+04  0.1834772160D-02
      0.6274579110D+03  0.1399462700D-01
      0.1429020930D+03  0.6858655181D-01
      0.4023432930D+02  0.2322408730D+00
      0.1282021290D+02  0.4690699481D+00
      0.4390437010D+01  0.3604551991D+00
 SP   3 1.00       0.000000000000
      0.1162636186D+02 -0.1149611817D+00  0.6757974388D-01
      0.2716279807D+01 -0.1691174786D+00  0.3239072959D+00
      0.7722183966D+00  0.1145851947D+01  0.7408951398D+00
 SP   1 1.00       0.000000000000
      0.2120314975D+00  0.1000000000D+01  0.1000000000D+01
 D   1 1.00       0.000000000000
      0.8000000000D+00  0.1000000000D+01
 ****
     34 0
 S   6 1.00       0.000000000000
      0.3047524880D+04  0.1834737132D-02
      0.4573695180D+03  0.1403732281D-01
      0.1039486850D+03  0.6884262226D-01
      0.2921015530D+02  0.2321844432D+00
      0.9286662960D+01  0.4679413484D+00
      0.3163926960D+01  0.3623119853D+00
 SP   3 1.00       0.000000000000
      0.7868272350D+01 -0.1193324198D+00  0.6899906659D-01
      0.1881288540D+01 -0.1608541517D+00  0.3164239610D+00
      0.5442492580D+00  0.1143456438D+01  0.7443082909D+00
 SP   1 1.00       0.000000000000
      0.1687144782D+00  0.1000000000D+01  0.1000000000D+01
 D   1 1.00       0.000000000000
      0.8000000000D+00  0.1000000000D+01
 ****
     35 0
 S   6 1.00       0.000000000000
      0.3047524880D+04  0.1834737132D-02
      0.4573695180D+03  0.1403732281D-01
      0.1039486850D+03  0.6884262226D-01
      0.2921015530D+02  0.2321844432D+00
      0.9286662960D+01  0.4679413484D+00
      0.3163926960D+01  0.3623119853D+00
 SP   3 1.00       0.000000000000
      0.7868272350D+01 -0.1193324198D+00  0.6899906659D-01
      0.1881288540D+01 -0.1608541517D+00  0.3164239610D+00
      0.5442492580D+00  0.1143456438D+01  0.7443082909D+00
 SP   1 1.00       0.000000000000
      0.1687144782D+00  0.1000000000D+01  0.1000000000D+01
 D   1 1.00       0.000000000000
      0.8000000000D+00  0.1000000000D+01
 ****
     36 0
 S   6 1.00       0.000000000000
      0.3047524880D+04  0.1834737132D-02
      0.4573695180D+03  0.1403732281D-01
      0.1039486850D+03  0.6884262226D-01
      0.2921015530D+02  0.2321844432D+00
      0.9286662960D+01  0.4679413484D+00
      0.3163926960D+01  0.3623119853D+00
 SP   3 1.00       0.000000000000
      0.7868272350D+01 -0.1193324198D+00  0.6899906659D-01
      0.1881288540D+01 -0.1608541517D+00  0.3164239610D+00
      0.5442492580D+00  0.1143456438D+01  0.7443082909D+00
 SP   1 1.00       0.000000000000
      0.1687144782D+00  0.1000000000D+01  0.1000000000D+01
 D   1 1.00       0.000000000000
      0.8000000000D+00  0.1000000000D+01
 ****
     37 0
 S   3 1.00       0.000000000000
      0.1873113696D+02  0.3349460434D-01
      0.2825394365D+01  0.2347269535D+00
      0.6401216923D+00  0.8137573261D+00
 S   1 1.00       0.000000000000
      0.1612777588D+00  0.1000000000D+01
 ****
     38 0
 S   3 1.00       0.000000000000
      0.1873113696D+02  0.3349460434D-01
      0.2825394365D+01  0.2347269535D+00
      0.6401216923D+00  0.8137573261D+00
 S   1 1.00       0.000000000000
      0.1612777588D+00  0.1000000000D+01
 ****
     39 0
 S   3 1.00       0.000000000000
      0.1873113696D+02  0.3349460434D-01
      0.2825394365D+01  0.2347269535D+00
      0.6401216923D+00  0.8137573261D+00
 S   1 1.00       0.000000000000
      0.1612777588D+00  0.1000000000D+01
 ****
     40 0
 S   3 1.00       0.000000000000
      0.1873113696D+02  0.3349460434D-01
      0.2825394365D+01  0.2347269535D+00
      0.6401216923D+00  0.8137573261D+00
 S   1 1.00       0.000000000000
      0.1612777588D+00  0.1000000000D+01
 ****
     41 0
 S   3 1.00       0.000000000000
      0.1873113696D+02  0.3349460434D-01
      0.2825394365D+01  0.2347269535D+00
      0.6401216923D+00  0.8137573261D+00
 S   1 1.00       0.000000000000
      0.1612777588D+00  0.1000000000D+01
 ****
     42 0
 S   3 1.00       0.000000000000
      0.1873113696D+02  0.3349460434D-01
      0.2825394365D+01  0.2347269535D+00
      0.6401216923D+00  0.8137573261D+00
 S   1 1.00       0.000000000000
      0.1612777588D+00  0.1000000000D+01
 ****
     43 0
 S   3 1.00       0.000000000000
      0.1873113696D+02  0.3349460434D-01
      0.2825394365D+01  0.2347269535D+00
      0.6401216923D+00  0.8137573261D+00
 S   1 1.00       0.000000000000
      0.1612777588D+00  0.1000000000D+01
 ****
     44 0
 S   3 1.00       0.000000000000
      0.1873113696D+02  0.3349460434D-01
      0.2825394365D+01  0.2347269535D+00
      0.6401216923D+00  0.8137573261D+00
 S   1 1.00       0.000000000000
      0.1612777588D+00  0.1000000000D+01
 ****
     45 0
 S   3 1.00       0.000000000000
      0.1873113696D+02  0.3349460434D-01
      0.2825394365D+01  0.2347269535D+00
      0.6401216923D+00  0.8137573261D+00
 S   1 1.00       0.000000000000
      0.1612777588D+00  0.1000000000D+01
 ****
     46 0
 S   3 1.00       0.000000000000
      0.1873113696D+02  0.3349460434D-01
      0.2825394365D+01  0.2347269535D+00
      0.6401216923D+00  0.8137573261D+00
 S   1 1.00       0.000000000000
      0.1612777588D+00  0.1000000000D+01
 ****
     47 0
 S   3 1.00       0.000000000000
      0.1873113696D+02  0.3349460434D-01
      0.2825394365D+01  0.2347269535D+00
      0.6401216923D+00  0.8137573261D+00
 S   1 1.00       0.000000000000
      0.1612777588D+00  0.1000000000D+01
 ****
     48 0
 S   3 1.00       0.000000000000
      0.1873113696D+02  0.3349460434D-01
      0.2825394365D+01  0.2347269535D+00
      0.6401216923D+00  0.8137573261D+00
 S   1 1.00       0.000000000000
      0.1612777588D+00  0.1000000000D+01
 ****
     49 0
 S   3 1.00       0.000000000000
      0.1873113696D+02  0.3349460434D-01
      0.2825394365D+01  0.2347269535D+00
      0.6401216923D+00  0.8137573261D+00
 S   1 1.00       0.000000000000
      0.1612777588D+00  0.1000000000D+01
 ****
     50 0
 S   3 1.00       0.000000000000
      0.1873113696D+02  0.3349460434D-01
      0.2825394365D+01  0.2347269535D+00
      0.6401216923D+00  0.8137573261D+00
 S   1 1.00       0.000000000000
      0.1612777588D+00  0.1000000000D+01
 ****
     51 0
 S   3 1.00       0.000000000000
      0.1873113696D+02  0.3349460434D-01
      0.2825394365D+01  0.2347269535D+00
      0.6401216923D+00  0.8137573261D+00
 S   1 1.00       0.000000000000
      0.1612777588D+00  0.1000000000D+01
 ****
     52 0
 S   3 1.00       0.000000000000
      0.1873113696D+02  0.3349460434D-01
      0.2825394365D+01  0.2347269535D+00
      0.6401216923D+00  0.8137573261D+00
 S   1 1.00       0.000000000000
      0.1612777588D+00  0.1000000000D+01
 ****
     53 0
 S   3 1.00       0.000000000000
      0.1873113696D+02  0.3349460434D-01
      0.2825394365D+01  0.2347269535D+00
      0.6401216923D+00  0.8137573261D+00
 S   1 1.00       0.000000000000
      0.1612777588D+00  0.1000000000D+01
 ****
     54 0
 S   3 1.00       0.000000000000
      0.1873113696D+02  0.3349460434D-01
      0.2825394365D+01  0.2347269535D+00
      0.6401216923D+00  0.8137573261D+00
 S   1 1.00       0.000000000000
      0.1612777588D+00  0.1000000000D+01
 ****
     55 0
 S   3 1.00       0.000000000000
      0.1873113696D+02  0.3349460434D-01
      0.2825394365D+01  0.2347269535D+00
      0.6401216923D+00  0.8137573261D+00
 S   1 1.00       0.000000000000
      0.1612777588D+00  0.1000000000D+01
 ****
     56 0
 S   3 1.00       0.000000000000
      0.1873113696D+02  0.3349460434D-01
      0.2825394365D+01  0.2347269535D+00
      0.6401216923D+00  0.8137573261D+00
 S   1 1.00       0.000000000000
      0.1612777588D+00  0.1000000000D+01
 ****
     57 0
 S   3 1.00       0.000000000000
      0.1873113696D+02  0.3349460434D-01
      0.2825394365D+01  0.2347269535D+00
      0.6401216923D+00  0.8137573261D+00
 S   1 1.00       0.000000000000
      0.1612777588D+00  0.1000000000D+01
 ****
     58 0
 S   3 1.00       0.000000000000
      0.1873113696D+02  0.3349460434D-01
      0.2825394365D+01  0.2347269535D+00
      0.6401216923D+00  0.8137573261D+00
 S   1 1.00       0.000000000000
      0.1612777588D+00  0.1000000000D+01
 ****
     59 0
 S   3 1.00       0.000000000000
      0.1873113696D+02  0.3349460434D-01
      0.2825394365D+01  0.2347269535D+00
      0.6401216923D+00  0.8137573261D+00
 S   1 1.00       0.000000000000
      0.1612777588D+00  0.1000000000D+01
 ****
     60 0
 S   3 1.00       0.000000000000
      0.1873113696D+02  0.3349460434D-01
      0.2825394365D+01  0.2347269535D+00
      0.6401216923D+00  0.8137573261D+00
 S   1 1.00       0.000000000000
      0.1612777588D+00  0.1000000000D+01
 ****
     61 0
 S   3 1.00       0.000000000000
      0.1873113696D+02  0.3349460434D-01
      0.2825394365D+01  0.2347269535D+00
      0.6401216923D+00  0.8137573261D+00
 S   1 1.00       0.000000000000
      0.1612777588D+00  0.1000000000D+01
 ****
     62 0
 S   3 1.00       0.000000000000
      0.1873113696D+02  0.3349460434D-01
      0.2825394365D+01  0.2347269535D+00
      0.6401216923D+00  0.8137573261D+00
 S   1 1.00       0.000000000000
      0.1612777588D+00  0.1000000000D+01
 ****
     63 0
 S   3 1.00       0.000000000000
      0.1873113696D+02  0.3349460434D-01
      0.2825394365D+01  0.2347269535D+00
      0.6401216923D+00  0.8137573261D+00
 S   1 1.00       0.000000000000
      0.1612777588D+00  0.1000000000D+01
 ****
     64 0
 S   3 1.00       0.000000000000
      0.1873113696D+02  0.3349460434D-01
      0.2825394365D+01  0.2347269535D+00
      0.6401216923D+00  0.8137573261D+00
 S   1 1.00       0.000000000000
      0.1612777588D+00  0.1000000000D+01
 ****
     65 0
 S   3 1.00       0.000000000000
      0.1873113696D+02  0.3349460434D-01
      0.2825394365D+01  0.2347269535D+00
      0.6401216923D+00  0.8137573261D+00
 S   1 1.00       0.000000000000
      0.1612777588D+00  0.1000000000D+01
 ****
     66 0
 S   3 1.00       0.000000000000
      0.1873113696D+02  0.3349460434D-01
      0.2825394365D+01  0.2347269535D+00
      0.6401216923D+00  0.8137573261D+00
 S   1 1.00       0.000000000000
      0.1612777588D+00  0.1000000000D+01
 ****

   600 basis functions,  1128 primitive gaussians,   600 cartesian basis functions
   129 alpha electrons      129 beta electrons
       nuclear repulsion energy      3649.8268446124 Hartrees.
 IExCor=  402 DFT=T Ex+Corr=B3LYP ExCW=0 ScaHFX=  0.200000
 ScaDFX=  0.800000  0.720000  1.000000  0.810000 ScalE2=  1.000000  1.000000
 IRadAn=      5 IRanWt=     -1 IRanGd=            0 ICorTp=0 IEmpDi=  4
 NAtoms=   66 NActive=   66 NUniq=   66 SFac= 1.00D+00 NAtFMM=   60 NAOKFM=T Big=T
 Integral buffers will be    131072 words long.
 Regular integral format.
 Two-electron integral symmetry is turned off.
 Leave Link  301 at Sat Nov  5 11:48:49 2022, MaxMem=   402653184 cpu:               0.8 elap:               0.1
 (Enter /home/wykgroup/appl/g16/l302.exe)
 NPDir=0 NMtPBC=     1 NCelOv=     1 NCel=       1 NClECP=     1 NCelD=      1
         NCelK=      1 NCelE2=     1 NClLst=     1 CellRange=     0.0.
 One-electron integrals computed using PRISM.
 NBasis=   600 RedAO= T EigKep=  3.27D-04  NBF=   600
 NBsUse=   600 1.00D-06 EigRej= -1.00D+00 NBFU=   600
 Precomputing XC quadrature grid using
 IXCGrd= 4 IRadAn=           5 IRanWt=          -1 IRanGd=           0 AccXCQ= 0.00D+00.
 Generated NRdTot=       0 NPtTot=           0 NUsed=           0 NTot=          32
 NSgBfM=   586   583   585   586   586 MxSgAt=    66 MxSgA2=    66.
 Leave Link  302 at Sat Nov  5 11:48:50 2022, MaxMem=   402653184 cpu:              12.7 elap:               1.0
 (Enter /home/wykgroup/appl/g16/l303.exe)
 DipDrv:  MaxL=1.
 Leave Link  303 at Sat Nov  5 11:48:50 2022, MaxMem=   402653184 cpu:               0.8 elap:               0.1
 (Enter /home/wykgroup/appl/g16/l308.exe)
 Leave Link  308 at Sat Nov  5 11:48:51 2022, MaxMem=   402653184 cpu:               2.7 elap:               0.6
 (Enter /home/wykgroup/appl/g16/l401.exe)
 ExpMin= 1.61D-01 ExpMax= 5.48D+03 ExpMxC= 8.25D+02 IAcc=3 IRadAn=         5 AccDes= 0.00D+00
 Harris functional with IExCor=  402 and IRadAn=       5 diagonalized for initial guess.
 HarFok:  IExCor=  402 AccDes= 0.00D+00 IRadAn=         5 IDoV= 1 UseB2=F ITyADJ=14
 ICtDFT=  3500011 ScaDFX=  1.000000  1.000000  1.000000  1.000000
 FoFCou: FMM=F IPFlag=           0 FMFlag=      100000 FMFlg1=        2001
         NFxFlg=           0 DoJE=T BraDBF=F KetDBF=T FulRan=T
         wScrn=  0.000000 ICntrl=       500 IOpCl=  0 I1Cent=   200000004 NGrid=           0
         NMat0=    1 NMatS0=      1 NMatT0=    0 NMatD0=    1 NMtDS0=    0 NMtDT0=    0
 Symmetry not used in FoFCou.
 Harris En= -1600.93564440962    
 JPrj=0 DoOrth=F DoCkMO=F.
 Leave Link  401 at Sat Nov  5 11:48:56 2022, MaxMem=   402653184 cpu:              47.1 elap:               4.8
 (Enter /home/wykgroup/appl/g16/l502.exe)
 Two-electron integral symmetry not used.
 Closed shell SCF:
 Using DIIS extrapolation, IDIIS=  1040.
 NGot=   402653184 LenX=   401919572 LenY=   401558972
 Requested convergence on RMS density matrix=1.00D-08 within  32 cycles.
 Requested convergence on MAX density matrix=1.00D-06.
 Requested convergence on             energy=1.00D-06.
 No special actions if energy rises.
 Fock matrices will be formed incrementally for  20 cycles.
 Integral accuracy reduced to 1.0D-05 until final iterations.

 Cycle   1  Pass 0  IDiag  1:
 FoFJK:  IHMeth= 1 ICntrl=       0 DoSepK=F KAlg= 0 I1Cent=           0 FoldK=F
 IRaf= 790000000 NMat=       1 IRICut=       1 DoRegI=T DoRafI=F ISym2E= 0 IDoP0=0 IntGTp=1.
 FoFCou: FMM=T IPFlag=           0 FMFlag=      100000 FMFlg1=        2001
         NFxFlg=           0 DoJE=F BraDBF=F KetDBF=F FulRan=T
         wScrn=  0.000000 ICntrl=         0 IOpCl=  0 I1Cent=           0 NGrid=           0
         NMat0=    1 NMatS0=      1 NMatT0=    0 NMatD0=    1 NMtDS0=    0 NMtDT0=    0
 Symmetry not used in FoFCou.
 FMM levels:  10  Number of levels for PrismC:   9
 E= -1600.31685827835    
 DIIS: error= 1.87D-02 at cycle   1 NSaved=   1.
 NSaved= 1 IEnMin= 1 EnMin= -1600.31685827835     IErMin= 1 ErrMin= 1.87D-02
 ErrMax= 1.87D-02  0.00D+00 EMaxC= 1.00D-01 BMatC= 6.95D-01 BMatP= 6.95D-01
 IDIUse=3 WtCom= 8.13D-01 WtEn= 1.87D-01
 Coeff-Com:  0.100D+01
 Coeff-En:   0.100D+01
 Coeff:      0.100D+01
 Gap=     0.175 Goal=   None    Shift=    0.000
 GapD=    0.175 DampG=1.000 DampE=0.500 DampFc=0.5000 IDamp=-1.
 Damping current iteration by 5.00D-01
 RMSDP=3.63D-03 MaxDP=1.62D-01              OVMax= 2.45D-01

 Cycle   2  Pass 0  IDiag  1:
 RMSU=  1.79D-03    CP:  9.80D-01
 E= -1600.58056896913     Delta-E=       -0.263710690779 Rises=F Damp=T
 DIIS: error= 7.58D-03 at cycle   2 NSaved=   2.
 NSaved= 2 IEnMin= 2 EnMin= -1600.58056896913     IErMin= 2 ErrMin= 7.58D-03
 ErrMax= 7.58D-03  0.00D+00 EMaxC= 1.00D-01 BMatC= 9.30D-02 BMatP= 6.95D-01
 IDIUse=3 WtCom= 9.24D-01 WtEn= 7.58D-02
 Coeff-Com:  0.130D+00 0.870D+00
 Coeff-En:   0.219D+00 0.781D+00
 Coeff:      0.137D+00 0.863D+00
 Gap=     0.171 Goal=   None    Shift=    0.000
 RMSDP=1.34D-03 MaxDP=8.88D-02 DE=-2.64D-01 OVMax= 2.70D-01

 Cycle   3  Pass 0  IDiag  1:
 RMSU=  1.24D-03    CP:  9.67D-01  7.29D-01
 E= -1600.89096239377     Delta-E=       -0.310393424648 Rises=F Damp=F
 DIIS: error= 9.76D-03 at cycle   3 NSaved=   3.
 NSaved= 3 IEnMin= 3 EnMin= -1600.89096239377     IErMin= 2 ErrMin= 7.58D-03
 ErrMax= 9.76D-03  0.00D+00 EMaxC= 1.00D-01 BMatC= 1.41D-01 BMatP= 9.30D-02
 IDIUse=3 WtCom= 9.19D-02 WtEn= 9.08D-01
 Coeff-Com: -0.793D-02 0.562D+00 0.446D+00
 Coeff-En:   0.000D+00 0.000D+00 0.100D+01
 Coeff:     -0.729D-03 0.517D-01 0.949D+00
 Gap=     0.127 Goal=   None    Shift=    0.000
 RMSDP=2.12D-03 MaxDP=1.47D-01 DE=-3.10D-01 OVMax= 2.92D-01

 Cycle   4  Pass 0  IDiag  1:
 RMSU=  1.06D-03    CP:  9.72D-01  1.28D+00 -2.55D-01
 E= -1600.35126277725     Delta-E=        0.539699616522 Rises=F Damp=F
 DIIS: error= 2.37D-02 at cycle   4 NSaved=   4.
 NSaved= 4 IEnMin= 3 EnMin= -1600.89096239377     IErMin= 2 ErrMin= 7.58D-03
 ErrMax= 2.37D-02  0.00D+00 EMaxC= 1.00D-01 BMatC= 6.94D-01 BMatP= 9.30D-02
 IDIUse=2 WtCom= 0.00D+00 WtEn= 1.00D+00
 Coeff-En:   0.000D+00 0.000D+00 0.770D+00 0.230D+00
 Coeff:      0.000D+00 0.000D+00 0.770D+00 0.230D+00
 Gap=     0.166 Goal=   None    Shift=    0.000
 RMSDP=1.15D-03 MaxDP=7.58D-02 DE= 5.40D-01 OVMax= 1.49D-01

 Cycle   5  Pass 0  IDiag  1:
 RMSU=  2.17D-04    CP:  9.71D-01  9.51D-01  3.79D-01  4.79D-01
 E= -1600.98105055197     Delta-E=       -0.629787774717 Rises=F Damp=F
 DIIS: error= 6.35D-03 at cycle   5 NSaved=   5.
 NSaved= 5 IEnMin= 5 EnMin= -1600.98105055197     IErMin= 5 ErrMin= 6.35D-03
 ErrMax= 6.35D-03  0.00D+00 EMaxC= 1.00D-01 BMatC= 4.93D-02 BMatP= 9.30D-02
 IDIUse=3 WtCom= 9.36D-01 WtEn= 6.35D-02
 Coeff-Com:  0.366D-02 0.479D-02 0.306D+00-0.637D-01 0.750D+00
 Coeff-En:   0.000D+00 0.000D+00 0.311D+00 0.000D+00 0.689D+00
 Coeff:      0.342D-02 0.449D-02 0.306D+00-0.597D-01 0.746D+00
 Gap=     0.139 Goal=   None    Shift=    0.000
 RMSDP=3.87D-04 MaxDP=2.52D-02 DE=-6.30D-01 OVMax= 5.13D-02

 Cycle   6  Pass 0  IDiag  1:
 RMSU=  8.27D-05    CP:  9.70D-01  8.61D-01  6.05D-01  3.01D-01  7.13D-01
 E= -1601.02782151640     Delta-E=       -0.046770964429 Rises=F Damp=F
 DIIS: error= 7.44D-04 at cycle   6 NSaved=   6.
 NSaved= 6 IEnMin= 6 EnMin= -1601.02782151640     IErMin= 6 ErrMin= 7.44D-04
 ErrMax= 7.44D-04  0.00D+00 EMaxC= 1.00D-01 BMatC= 5.97D-04 BMatP= 4.93D-02
 IDIUse=3 WtCom= 9.93D-01 WtEn= 7.44D-03
 Coeff-Com: -0.626D-03 0.525D-02 0.155D+00-0.635D-01 0.490D+00 0.414D+00
 Coeff-En:   0.000D+00 0.000D+00 0.000D+00 0.000D+00 0.000D+00 0.100D+01
 Coeff:     -0.622D-03 0.521D-02 0.154D+00-0.630D-01 0.487D+00 0.418D+00
 Gap=     0.140 Goal=   None    Shift=    0.000
 RMSDP=5.18D-05 MaxDP=2.69D-03 DE=-4.68D-02 OVMax= 6.95D-03

 Cycle   7  Pass 0  IDiag  1:
 RMSU=  1.92D-05    CP:  9.70D-01  8.62D-01  6.04D-01  3.00D-01  7.99D-01
                    CP:  4.65D-01
 E= -1601.02844424985     Delta-E=       -0.000622733455 Rises=F Damp=F
 DIIS: error= 1.67D-04 at cycle   7 NSaved=   7.
 NSaved= 7 IEnMin= 7 EnMin= -1601.02844424985     IErMin= 7 ErrMin= 1.67D-04
 ErrMax= 1.67D-04  0.00D+00 EMaxC= 1.00D-01 BMatC= 3.00D-05 BMatP= 5.97D-04
 IDIUse=3 WtCom= 9.98D-01 WtEn= 1.67D-03
 Coeff-Com: -0.270D-03 0.195D-02 0.602D-01-0.290D-01 0.200D+00 0.214D+00
 Coeff-Com:  0.553D+00
 Coeff-En:   0.000D+00 0.000D+00 0.000D+00 0.000D+00 0.000D+00 0.000D+00
 Coeff-En:   0.100D+01
 Coeff:     -0.269D-03 0.194D-02 0.601D-01-0.290D-01 0.200D+00 0.214D+00
 Coeff:      0.553D+00
 Gap=     0.141 Goal=   None    Shift=    0.000
 RMSDP=1.18D-05 MaxDP=7.42D-04 DE=-6.23D-04 OVMax= 1.31D-03

 Cycle   8  Pass 0  IDiag  1:
 RMSU=  7.71D-06    CP:  9.69D-01  8.60D-01  6.06D-01  2.99D-01  7.98D-01
                    CP:  4.96D-01  6.18D-01
 E= -1601.02846832887     Delta-E=       -0.000024079014 Rises=F Damp=F
 DIIS: error= 6.06D-05 at cycle   8 NSaved=   8.
 NSaved= 8 IEnMin= 8 EnMin= -1601.02846832887     IErMin= 8 ErrMin= 6.06D-05
 ErrMax= 6.06D-05  0.00D+00 EMaxC= 1.00D-01 BMatC= 6.10D-06 BMatP= 3.00D-05
 IDIUse=1 WtCom= 1.00D+00 WtEn= 0.00D+00
 Coeff-Com:  0.250D-03-0.494D-03 0.111D-01-0.561D-02 0.334D-01 0.528D-01
 Coeff-Com:  0.344D+00 0.564D+00
 Coeff:      0.250D-03-0.494D-03 0.111D-01-0.561D-02 0.334D-01 0.528D-01
 Coeff:      0.344D+00 0.564D+00
 Gap=     0.141 Goal=   None    Shift=    0.000
 RMSDP=4.96D-06 MaxDP=3.87D-04 DE=-2.41D-05 OVMax= 6.39D-04

 Initial convergence to 1.0D-05 achieved.  Increase integral accuracy.
 Cycle   9  Pass 1  IDiag  1:
 E= -1601.02847060130     Delta-E=       -0.000002272429 Rises=F Damp=F
 DIIS: error= 2.20D-04 at cycle   1 NSaved=   1.
 NSaved= 1 IEnMin= 1 EnMin= -1601.02847060130     IErMin= 1 ErrMin= 2.20D-04
 ErrMax= 2.20D-04  0.00D+00 EMaxC= 1.00D-01 BMatC= 8.25D-06 BMatP= 8.25D-06
 IDIUse=3 WtCom= 9.98D-01 WtEn= 2.20D-03
 Coeff-Com:  0.100D+01
 Coeff-En:   0.100D+01
 Coeff:      0.100D+01
 Gap=     0.141 Goal=   None    Shift=    0.000
 RMSDP=4.96D-06 MaxDP=3.87D-04 DE=-2.27D-06 OVMax= 6.53D-04

 Cycle  10  Pass 1  IDiag  1:
 RMSU=  9.25D-05    CP:  1.00D+00
 E= -1601.02847419580     Delta-E=       -0.000003594507 Rises=F Damp=F
 DIIS: error= 6.17D-05 at cycle   2 NSaved=   2.
 NSaved= 2 IEnMin= 2 EnMin= -1601.02847419580     IErMin= 2 ErrMin= 6.17D-05
 ErrMax= 6.17D-05  0.00D+00 EMaxC= 1.00D-01 BMatC= 4.41D-06 BMatP= 8.25D-06
 IDIUse=1 WtCom= 1.00D+00 WtEn= 0.00D+00
 Coeff-Com:  0.383D+00 0.617D+00
 Coeff:      0.383D+00 0.617D+00
 Gap=     0.141 Goal=   None    Shift=    0.000
 RMSDP=7.22D-06 MaxDP=4.55D-04 DE=-3.59D-06 OVMax= 9.26D-04

 Cycle  11  Pass 1  IDiag  1:
 RMSU=  7.22D-06    CP:  1.00D+00  1.00D+00
 E= -1601.02847366262     Delta-E=        0.000000533184 Rises=F Damp=F
 DIIS: error= 6.77D-05 at cycle   3 NSaved=   3.
 NSaved= 3 IEnMin= 2 EnMin= -1601.02847419580     IErMin= 2 ErrMin= 6.17D-05
 ErrMax= 6.77D-05  0.00D+00 EMaxC= 1.00D-01 BMatC= 4.94D-06 BMatP= 4.41D-06
 IDIUse=1 WtCom= 1.00D+00 WtEn= 0.00D+00
 Coeff-Com:  0.572D-02 0.512D+00 0.482D+00
 Coeff:      0.572D-02 0.512D+00 0.482D+00
 Gap=     0.141 Goal=   None    Shift=    0.000
 RMSDP=3.91D-06 MaxDP=2.70D-04 DE= 5.33D-07 OVMax= 5.37D-04

 Cycle  12  Pass 1  IDiag  1:
 RMSU=  9.25D-07    CP:  1.00D+00  1.01D+00  4.84D-01
 E= -1601.02847831503     Delta-E=       -0.000004652408 Rises=F Damp=F
 DIIS: error= 6.82D-06 at cycle   4 NSaved=   4.
 NSaved= 4 IEnMin= 4 EnMin= -1601.02847831503     IErMin= 4 ErrMin= 6.82D-06
 ErrMax= 6.82D-06  0.00D+00 EMaxC= 1.00D-01 BMatC= 8.62D-08 BMatP= 4.41D-06
 IDIUse=1 WtCom= 1.00D+00 WtEn= 0.00D+00
 Coeff-Com: -0.342D-02 0.306D+00 0.299D+00 0.399D+00
 Coeff:     -0.342D-02 0.306D+00 0.299D+00 0.399D+00
 Gap=     0.141 Goal=   None    Shift=    0.000
 RMSDP=5.60D-07 MaxDP=2.53D-05 DE=-4.65D-06 OVMax= 6.19D-05

 Cycle  13  Pass 1  IDiag  1:
 RMSU=  2.27D-07    CP:  1.00D+00  1.01D+00  4.93D-01  4.52D-01
 E= -1601.02847839626     Delta-E=       -0.000000081232 Rises=F Damp=F
 DIIS: error= 1.12D-06 at cycle   5 NSaved=   5.
 NSaved= 5 IEnMin= 5 EnMin= -1601.02847839626     IErMin= 5 ErrMin= 1.12D-06
 ErrMax= 1.12D-06  0.00D+00 EMaxC= 1.00D-01 BMatC= 2.22D-09 BMatP= 8.62D-08
 IDIUse=1 WtCom= 1.00D+00 WtEn= 0.00D+00
 Coeff-Com: -0.224D-02 0.173D+00 0.169D+00 0.245D+00 0.415D+00
 Coeff:     -0.224D-02 0.173D+00 0.169D+00 0.245D+00 0.415D+00
 Gap=     0.141 Goal=   None    Shift=    0.000
 RMSDP=1.08D-07 MaxDP=3.94D-06 DE=-8.12D-08 OVMax= 1.40D-05

 Cycle  14  Pass 1  IDiag  1:
 RMSU=  7.35D-08    CP:  1.00D+00  1.01D+00  4.93D-01  4.63D-01  6.54D-01
 E= -1601.02847839853     Delta-E=       -0.000000002273 Rises=F Damp=F
 DIIS: error= 1.82D-07 at cycle   6 NSaved=   6.
 NSaved= 6 IEnMin= 6 EnMin= -1601.02847839853     IErMin= 6 ErrMin= 1.82D-07
 ErrMax= 1.82D-07  0.00D+00 EMaxC= 1.00D-01 BMatC= 8.79D-11 BMatP= 2.22D-09
 IDIUse=1 WtCom= 1.00D+00 WtEn= 0.00D+00
 Coeff-Com: -0.979D-03 0.724D-01 0.709D-01 0.105D+00 0.224D+00 0.529D+00
 Coeff:     -0.979D-03 0.724D-01 0.709D-01 0.105D+00 0.224D+00 0.529D+00
 Gap=     0.141 Goal=   None    Shift=    0.000
 RMSDP=2.32D-08 MaxDP=1.04D-06 DE=-2.27D-09 OVMax= 3.59D-06

 Cycle  15  Pass 1  IDiag  1:
 RMSU=  1.90D-08    CP:  1.00D+00  1.01D+00  4.93D-01  4.63D-01  6.85D-01
                    CP:  8.53D-01
 E= -1601.02847839861     Delta-E=       -0.000000000074 Rises=F Damp=F
 DIIS: error= 8.56D-08 at cycle   7 NSaved=   7.
 NSaved= 7 IEnMin= 7 EnMin= -1601.02847839861     IErMin= 7 ErrMin= 8.56D-08
 ErrMax= 8.56D-08  0.00D+00 EMaxC= 1.00D-01 BMatC= 1.54D-11 BMatP= 8.79D-11
 IDIUse=1 WtCom= 1.00D+00 WtEn= 0.00D+00
 Coeff-Com: -0.294D-03 0.209D-01 0.204D-01 0.313D-01 0.816D-01 0.327D+00
 Coeff-Com:  0.519D+00
 Coeff:     -0.294D-03 0.209D-01 0.204D-01 0.313D-01 0.816D-01 0.327D+00
 Coeff:      0.519D+00
 Gap=     0.141 Goal=   None    Shift=    0.000
 RMSDP=1.01D-08 MaxDP=6.42D-07 DE=-7.37D-11 OVMax= 1.39D-06

 Cycle  16  Pass 1  IDiag  1:
 RMSU=  7.87D-09    CP:  1.00D+00  1.01D+00  4.93D-01  4.64D-01  6.85D-01
                    CP:  9.02D-01  7.49D-01
 E= -1601.02847839861     Delta-E=       -0.000000000007 Rises=F Damp=F
 DIIS: error= 3.82D-08 at cycle   8 NSaved=   8.
 NSaved= 8 IEnMin= 8 EnMin= -1601.02847839861     IErMin= 8 ErrMin= 3.82D-08
 ErrMax= 3.82D-08  0.00D+00 EMaxC= 1.00D-01 BMatC= 3.31D-12 BMatP= 1.54D-11
 IDIUse=1 WtCom= 1.00D+00 WtEn= 0.00D+00
 Coeff-Com: -0.116D-04 0.243D-03 0.203D-03 0.956D-03 0.118D-01 0.120D+00
 Coeff-Com:  0.356D+00 0.511D+00
 Coeff:     -0.116D-04 0.243D-03 0.203D-03 0.956D-03 0.118D-01 0.120D+00
 Coeff:      0.356D+00 0.511D+00
 Gap=     0.141 Goal=   None    Shift=    0.000
 RMSDP=3.85D-09 MaxDP=3.24D-07 DE=-7.28D-12 OVMax= 4.59D-07

 SCF Done:  E(RB3LYP) =  -1601.02847840     A.U. after   16 cycles
            NFock= 16  Conv=0.38D-08     -V/T= 2.0094
 KE= 1.586112775795D+03 PE=-1.102143815357D+04 EE= 4.184470054768D+03
 Leave Link  502 at Sat Nov  5 11:50:45 2022, MaxMem=   402653184 cpu:            1075.2 elap:             109.0
 (Enter /home/wykgroup/appl/g16/l508.exe)
 QCSCF skips out because SCF is already converged.
 Leave Link  508 at Sat Nov  5 11:50:45 2022, MaxMem=   402653184 cpu:               0.4 elap:               0.1
 (Enter /home/wykgroup/appl/g16/l801.exe)
 DoSCS=F DFT=T ScalE2(SS,OS)=  1.000000  1.000000
 ExpMin= 1.61D-01 ExpMax= 5.48D+03 ExpMxC= 8.25D+02 IAcc=3 IRadAn=         5 AccDes= 0.00D+00
 HarFok:  IExCor=  205 AccDes= 0.00D+00 IRadAn=         5 IDoV=-2 UseB2=F ITyADJ=14
 ICtDFT= 12500011 ScaDFX=  1.000000  1.000000  1.000000  1.000000
 GSVD:  LWork=       -1584 too small for GESVD, short by        7020 words or        7020 for optimal perf.
 Largest valence mixing into a core orbital is  5.76D-05
 Largest core mixing into a valence orbital is  1.42D-05
 Range of M.O.s used for correlation:    37   600
 NBasis=   600 NAE=   129 NBE=   129 NFC=    36 NFV=     0
 NROrb=    564 NOA=    93 NOB=    93 NVA=   471 NVB=   471
 Leave Link  801 at Sat Nov  5 11:50:46 2022, MaxMem=   402653184 cpu:               6.7 elap:               0.8
 (Enter /home/wykgroup/appl/g16/l914.exe)
 RHF ground state
 Two-electron integral symmetry not used.
 MDV=   402653184 DFT=T DoStab=F Mixed=T DoRPA=T DoScal=F NonHer=T
 Making orbital integer symmetry assigments:
    16 initial guesses have been made.
 Convergence on wavefunction:    0.001000000000000
 Davidson Disk Diagonalization:  ConvIn= 1.00D-03 SkipCon=T Conv= 1.00D-03.
 Max sub-space:  2000 roots to seek:    16 dimension of matrix:        87606
 Iteration     1 Dimension    16 NMult     0 NNew     16
 CISAX will form    16 AO SS matrices at one time.
 NMat=    16 NSing=     8 JSym2X= 0.
 FoFJK:  IHMeth= 1 ICntrl=       0 DoSepK=F KAlg= 0 I1Cent=           0 FoldK=F
 IRaf= 790000000 NMat=      32 IRICut=       1 DoRegI=T DoRafI=F ISym2E= 0 IDoP0=0 IntGTp=1.
 FoFCou: FMM=T IPFlag=           0 FMFlag=      100000 FMFlg1=        2001
         NFxFlg=           0 DoJE=F BraDBF=F KetDBF=F FulRan=T
         wScrn=  0.000000 ICntrl=         0 IOpCl=  0 I1Cent=           0 NGrid=           0
         NMat0=   32 NMatS0=      8 NMatT0=    8 NMatD0=   32 NMtDS0=    0 NMtDT0=    0
 Symmetry not used in FoFCou.
 FMM levels:  10  Number of levels for PrismC:   9
 New state      1 was old state      2
 New state      2 was old state      1
 New state      3 was old state      6
 New state      4 was old state     14
 New state      5 was old state     10
 New state      6 was old state      4
 New state      7 was old state      3
 New state      8 was old state     12
 Excitation Energies [eV] at current iteration:
 Root      1 :     3.180278623029777
 Root      2 :     3.395280889707701
 Root      3 :     3.418792191221773
 Root      4 :     3.607471391890497
 Root      5 :     3.825023798061837
 Root      6 :     3.940150609696076
 Root      7 :     3.941958727751794
 Root      8 :     3.950182363123107
 Root      9 :     4.145443300060968
 Root     10 :     4.231486133044896
 Root     11 :     4.251242358263085
 Root     12 :     4.340725459594316
 Root     13 :     4.787450377841831
 Root     14 :     4.787532702920163
 Root     15 :     5.106652042053875
 Root     16 :     5.482816617826432
 Vector   4 SDiff=7.02D-02 TDiff=7.50D+00 assumed to be singlet.
 Vector   8 SDiff=5.15D-02 TDiff=6.83D+00 assumed to be singlet.
 Iteration     2 Dimension    24 NMult    16 NNew      8
 CISAX will form     8 AO SS matrices at one time.
 NMat=     8 NSing=     4 JSym2X= 0.
 Root      1 not converged, maximum delta is    0.146434756344861
 New state      2 was old state      3
 Root      2 not converged, maximum delta is    0.169174737230898
 New state      3 was old state      2
 Root      3 not converged, maximum delta is    0.077514781791798
 New state      4 was old state      7
 Root      4 not converged, maximum delta is    0.064163217571127
 Excitation Energies [eV] at current iteration:
 Root      1 :     2.968269205105973   Change is   -0.212009417923804
 Root      2 :     3.204743630437064   Change is   -0.214048560784710
 Root      3 :     3.328837296717527   Change is   -0.066443592990174
 Root      4 :     3.928275969071524   Change is   -0.013682758680270
 Iteration     3 Dimension    32 NMult    24 NNew      8
 CISAX will form     8 AO SS matrices at one time.
 NMat=     8 NSing=     4 JSym2X= 0.
 Root      1 not converged, maximum delta is    0.029388347680436
 Root      2 not converged, maximum delta is    0.109477191595833
 Root      3 not converged, maximum delta is    0.008354229527343
 Root      4 not converged, maximum delta is    0.059181571470647
 Excitation Energies [eV] at current iteration:
 Root      1 :     2.932805979759682   Change is   -0.035463225346291
 Root      2 :     3.159033934744499   Change is   -0.045709695692565
 Root      3 :     3.322425451037964   Change is   -0.006411845679563
 Root      4 :     3.918864231500867   Change is   -0.009411737570656
 Iteration     4 Dimension    40 NMult    32 NNew      8
 CISAX will form     8 AO SS matrices at one time.
 NMat=     8 NSing=     4 JSym2X= 0.
 Root      1 not converged, maximum delta is    0.013585621199681
 Root      2 not converged, maximum delta is    0.098841498529297
 Root      3 not converged, maximum delta is    0.002544354006390
 Root      4 not converged, maximum delta is    0.050150658887896
 Excitation Energies [eV] at current iteration:
 Root      1 :     2.928645821357704   Change is   -0.004160158401978
 Root      2 :     3.139485514572366   Change is   -0.019548420172133
 Root      3 :     3.321324928054121   Change is   -0.001100522983844
 Root      4 :     3.915950318065417   Change is   -0.002913913435450
 Iteration     5 Dimension    48 NMult    40 NNew      8
 CISAX will form     8 AO SS matrices at one time.
 NMat=     8 NSing=     4 JSym2X= 0.
 Root      1 not converged, maximum delta is    0.002964585053009
 Root      2 not converged, maximum delta is    0.087652299892234
 Root      3 not converged, maximum delta is    0.001620047454108
 Root      4 not converged, maximum delta is    0.082781853702530
 Excitation Energies [eV] at current iteration:
 Root      1 :     2.928237040091986   Change is   -0.000408781265718
 Root      2 :     3.125900719327635   Change is   -0.013584795244731
 Root      3 :     3.321115642723056   Change is   -0.000209285331065
 Root      4 :     3.914103550650280   Change is   -0.001846767415137
 Iteration     6 Dimension    56 NMult    48 NNew      8
 CISAX will form     8 AO SS matrices at one time.
 NMat=     8 NSing=     4 JSym2X= 0.
 Root      1 has converged.
 Root      2 not converged, maximum delta is    0.035614307737509
 Root      3 has converged.
 Root      4 not converged, maximum delta is    0.143606708660745
 Excitation Energies [eV] at current iteration:
 Root      1 :     2.928198836190890   Change is   -0.000038203901096
 Root      2 :     3.120921132723535   Change is   -0.004979586604100
 Root      3 :     3.321089449408045   Change is   -0.000026193315011
 Root      4 :     3.911707955589315   Change is   -0.002395595060965
 Iteration     7 Dimension    60 NMult    56 NNew      4
 CISAX will form     4 AO SS matrices at one time.
 NMat=     4 NSing=     2 JSym2X= 0.
 Root      1 has converged.
 Root      2 not converged, maximum delta is    0.006759531014596
 Root      3 has converged.
 Root      4 not converged, maximum delta is    0.110421704225247
 Excitation Energies [eV] at current iteration:
 Root      1 :     2.928198442689001   Change is   -0.000000393501890
 Root      2 :     3.120132384423668   Change is   -0.000788748299867
 Root      3 :     3.321089424326838   Change is   -0.000000025081207
 Root      4 :     3.909690475542102   Change is   -0.002017480047213
 Iteration     8 Dimension    64 NMult    60 NNew      4
 CISAX will form     4 AO SS matrices at one time.
 NMat=     4 NSing=     2 JSym2X= 0.
 Root      1 has converged.
 Root      2 not converged, maximum delta is    0.001554602868291
 Root      3 has converged.
 Root      4 not converged, maximum delta is    0.033104591732501
 Excitation Energies [eV] at current iteration:
 Root      1 :     2.928198437532036   Change is   -0.000000005156965
 Root      2 :     3.120013841706468   Change is   -0.000118542717200
 Root      3 :     3.321089113475679   Change is   -0.000000310851159
 Root      4 :     3.908995696734534   Change is   -0.000694778807568
 Iteration     9 Dimension    68 NMult    64 NNew      4
 CISAX will form     4 AO SS matrices at one time.
 NMat=     4 NSing=     2 JSym2X= 0.
 Root      1 has converged.
 Root      2 has converged.
 Root      3 has converged.
 Root      4 not converged, maximum delta is    0.007403764473883
 Excitation Energies [eV] at current iteration:
 Root      1 :     2.928198293001473   Change is   -0.000000144530563
 Root      2 :     3.119993196612322   Change is   -0.000020645094146
 Root      3 :     3.321089093559988   Change is   -0.000000019915691
 Root      4 :     3.908842990852772   Change is   -0.000152705881762
 Iteration    10 Dimension    70 NMult    68 NNew      2
 CISAX will form     2 AO SS matrices at one time.
 NMat=     2 NSing=     2 JSym2X= 0.
 Root      1 has converged.
 Root      2 has converged.
 Root      3 has converged.
 Root      4 not converged, maximum delta is    0.001944575718386
 Excitation Energies [eV] at current iteration:
 Root      1 :     2.928198293001333   Change is   -0.000000000000140
 Root      2 :     3.119993196612296   Change is   -0.000000000000026
 Root      3 :     3.321089030405219   Change is   -0.000000063154769
 Root      4 :     3.908813624730236   Change is   -0.000029366122536
 Iteration    11 Dimension    72 NMult    70 NNew      2
 CISAX will form     2 AO SS matrices at one time.
 NMat=     2 NSing=     2 JSym2X= 0.
 Root      1 has converged.
 Root      2 has converged.
 Root      3 has converged.
 Root      4 has converged.
 Excitation Energies [eV] at current iteration:
 Root      1 :     2.928198293001417   Change is    0.000000000000084
 Root      2 :     3.119993196612374   Change is    0.000000000000079
 Root      3 :     3.321088944975186   Change is   -0.000000085430034
 Root      4 :     3.908808460917174   Change is   -0.000005163813062
 Convergence achieved on expansion vectors.
 ***********************************************************************
 Excited states from <AA,BB:AA,BB> singles matrix:
 ***********************************************************************
 
 1PDM for each excited state written to RWF  633
 Ground to excited state transition densities written to RWF  633
 Ground to excited state transition electric dipole moments (Au):
       state          X           Y           Z        Dip. S.      Osc.
         1        -0.0000      0.0000      0.0000      0.0000      0.0000
         2         0.0000     -0.0000     -0.0000      0.0000      0.0000
         3        -0.7803      0.1992      0.1776      0.6802      0.0553
         4         0.9451     -0.5307      0.2964      1.2628      0.1209
 Ground to excited state transition velocity dipole moments (Au):
       state          X           Y           Z        Dip. S.      Osc.
         1         0.0000      0.0000     -0.0000      0.0000      0.0000
         2         0.0000      0.0000      0.0000      0.0000      0.0000
         3         0.0914     -0.0242     -0.0180      0.0093      0.0506
         4        -0.1324      0.0747     -0.0385      0.0246      0.1142
 Ground to excited state transition magnetic dipole moments (Au):
       state          X           Y           Z
         1         0.0000     -0.0000     -0.0000
         2         0.0000      0.0000      0.0000
         3         0.3853      0.4702      0.2360
         4        -0.1704     -0.8377     -0.8193
[...]
     129 ->130         0.45066
     129 ->132         0.11554
 This state for optimization and/or second-order correction.
 Total Energy, E(TD-HF/TD-DFT) =  -1600.92086909    
 Copying the excited state density for this state as the 1-particle RhoCI density.
 
 Excited state symmetry could not be determined.
 Excited State   2:      Triplet-?Sym    3.1200 eV  397.39 nm  f=0.0000  <S**2>=2.000
     125 ->130        -0.15383
     126 ->132        -0.12184
     127 ->130         0.27144
     128 ->134        -0.13507
     129 ->130         0.13634
     129 ->132         0.55798
 
 Excited state symmetry could not be determined.
 Excited State   3:      Singlet-?Sym    3.3211 eV  373.32 nm  f=0.0553  <S**2>=0.000
     129 ->130         0.69912
 
 Excited state symmetry could not be determined.
 Excited State   4:      Singlet-?Sym    3.9088 eV  317.19 nm  f=0.1209  <S**2>=0.000
     126 ->130         0.18554
     127 ->130         0.51623
     128 ->130        -0.42872
 SavETr:  write IOETrn=   770 NScale= 10 NData=  16 NLR=1 NState=    4 LETran=      82.
 Leave Link  914 at Sat Nov  5 12:04:18 2022, MaxMem=   402653184 cpu:            8603.3 elap:             812.6
 (Enter /home/wykgroup/appl/g16/l601.exe)
 Copying SCF densities to generalized density rwf, IOpCl= 0 IROHF=0.

 **********************************************************************

            Population analysis using the SCF Density.

 **********************************************************************

 Alpha  occ. eigenvalues --  -19.19775 -19.19258 -19.13391 -14.40568 -14.39901
 Alpha  occ. eigenvalues --  -14.37952 -14.33917 -14.31458 -14.30474 -10.29530
 Alpha  occ. eigenvalues --  -10.26239 -10.25521 -10.24511 -10.24046 -10.23748
 Alpha  occ. eigenvalues --  -10.23435 -10.23325 -10.22194 -10.22172 -10.22117
 Alpha  occ. eigenvalues --  -10.22075 -10.21200 -10.20883 -10.20823 -10.20720
 Alpha  occ. eigenvalues --  -10.20159 -10.18561 -10.18382 -10.17952 -10.17760
 Alpha  occ. eigenvalues --  -10.17702 -10.17683 -10.17667 -10.17629 -10.17588
 Alpha  occ. eigenvalues --  -10.17458  -1.09456  -1.08726  -1.01893  -1.01525
 Alpha  occ. eigenvalues --   -0.98297  -0.95826  -0.92119  -0.89215  -0.87128
 Alpha  occ. eigenvalues --   -0.84280  -0.81031  -0.80481  -0.78776  -0.77921
 Alpha  occ. eigenvalues --   -0.75998  -0.74886  -0.74130  -0.72962  -0.71994
 Alpha  occ. eigenvalues --   -0.71462  -0.70006  -0.68497  -0.67271  -0.64637
 Alpha  occ. eigenvalues --   -0.63524  -0.62890  -0.62730  -0.60603  -0.59369
 Alpha  occ. eigenvalues --   -0.57818  -0.57058  -0.56645  -0.55919  -0.54487
 Alpha  occ. eigenvalues --   -0.54079  -0.53188  -0.53038  -0.51551  -0.50555
 Alpha  occ. eigenvalues --   -0.49420  -0.49063  -0.48760  -0.47896  -0.47640
 Alpha  occ. eigenvalues --   -0.47120  -0.46661  -0.46107  -0.46006  -0.45146
 Alpha  occ. eigenvalues --   -0.44208  -0.43870  -0.43696  -0.43528  -0.43076
 Alpha  occ. eigenvalues --   -0.42169  -0.42090  -0.42014  -0.41329  -0.40870
 Alpha  occ. eigenvalues --   -0.40642  -0.40453  -0.40227  -0.39334  -0.38934
 Alpha  occ. eigenvalues --   -0.38696  -0.38567  -0.38488  -0.37485  -0.37355
 Alpha  occ. eigenvalues --   -0.37160  -0.36169  -0.35652  -0.35253  -0.34344
 Alpha  occ. eigenvalues --   -0.33952  -0.33446  -0.32907  -0.31966  -0.31559
 Alpha  occ. eigenvalues --   -0.30518  -0.29087  -0.28663  -0.27934  -0.27112
 Alpha  occ. eigenvalues --   -0.26568  -0.26226  -0.25632  -0.23772  -0.23378
 Alpha  occ. eigenvalues --   -0.22486  -0.21494  -0.21088  -0.19153
 Alpha virt. eigenvalues --   -0.05099  -0.01886  -0.00654   0.02243   0.02913
 Alpha virt. eigenvalues --    0.04824   0.06529   0.06854   0.07944   0.08668
 Alpha virt. eigenvalues --    0.08769   0.08908   0.10210   0.10615   0.10892
 Alpha virt. eigenvalues --    0.11427   0.11953   0.12299   0.12468   0.12810
 Alpha virt. eigenvalues --    0.13262   0.13636   0.13794   0.14254   0.14996
 Alpha virt. eigenvalues --    0.15233   0.15335   0.15707   0.15772   0.15929
 Alpha virt. eigenvalues --    0.16227   0.16382   0.16689   0.16919   0.17429
 Alpha virt. eigenvalues --    0.17689   0.17927   0.18055   0.18542   0.18557
 Alpha virt. eigenvalues --    0.19450   0.19618   0.20190   0.20721   0.21335
 Alpha virt. eigenvalues --    0.21879   0.22165   0.22776   0.23076   0.23848
 Alpha virt. eigenvalues --    0.24603   0.25091   0.25848   0.26262   0.26783
 Alpha virt. eigenvalues --    0.27096   0.27699   0.28080   0.28282   0.29109
 Alpha virt. eigenvalues --    0.29521   0.30037   0.30906   0.32414   0.33342
 Alpha virt. eigenvalues --    0.34019   0.35774   0.37030   0.37227   0.37378
 Alpha virt. eigenvalues --    0.37548   0.38672   0.40648   0.41227   0.41587
 Alpha virt. eigenvalues --    0.44332   0.44815   0.46196   0.46679   0.48626
 Alpha virt. eigenvalues --    0.49609   0.50206   0.50442   0.50963   0.51833
 Alpha virt. eigenvalues --    0.52100   0.52365   0.52653   0.52862   0.53339
 Alpha virt. eigenvalues --    0.54009   0.54192   0.54496   0.54889   0.55261
 Alpha virt. eigenvalues --    0.55422   0.55625   0.55795   0.56252   0.56530
 Alpha virt. eigenvalues --    0.57034   0.57335   0.57630   0.58004   0.58329
 Alpha virt. eigenvalues --    0.58748   0.59080   0.59171   0.59428   0.59583
 Alpha virt. eigenvalues --    0.60517   0.61244   0.61941   0.62127   0.62566
 Alpha virt. eigenvalues --    0.62727   0.62941   0.63723   0.64347   0.64520
 Alpha virt. eigenvalues --    0.64853   0.65080   0.65341   0.66689   0.66865
 Alpha virt. eigenvalues --    0.67095   0.67547   0.68336   0.69710   0.70091
 Alpha virt. eigenvalues --    0.70709   0.71297   0.71825   0.72854   0.73140
 Alpha virt. eigenvalues --    0.73576   0.74060   0.74443   0.74849   0.75557
 Alpha virt. eigenvalues --    0.76746   0.77233   0.77565   0.78479   0.79482
 Alpha virt. eigenvalues --    0.79588   0.79791   0.80376   0.80708   0.81022
 Alpha virt. eigenvalues --    0.82024   0.82512   0.82722   0.83179   0.83640
 Alpha virt. eigenvalues --    0.84045   0.84115   0.84186   0.84582   0.84721
 Alpha virt. eigenvalues --    0.85371   0.85779   0.86147   0.86518   0.86765
 Alpha virt. eigenvalues --    0.87084   0.87670   0.88005   0.88281   0.88392
 Alpha virt. eigenvalues --    0.88780   0.89141   0.89614   0.90207   0.90339
 Alpha virt. eigenvalues --    0.91228   0.91651   0.92159   0.92287   0.92618
 Alpha virt. eigenvalues --    0.92813   0.93426   0.93705   0.93910   0.94903
 Alpha virt. eigenvalues --    0.95224   0.95613   0.95996   0.96542   0.96950
 Alpha virt. eigenvalues --    0.97488   0.98249   0.98778   0.99136   1.00248
 Alpha virt. eigenvalues --    1.00678   1.00994   1.01670   1.02423   1.03348
 Alpha virt. eigenvalues --    1.04021   1.04684   1.04772   1.06421   1.06996
 Alpha virt. eigenvalues --    1.07982   1.09257   1.09824   1.11019   1.12178
 Alpha virt. eigenvalues --    1.12889   1.14004   1.14307   1.16426   1.16884
 Alpha virt. eigenvalues --    1.17852   1.19607   1.20492   1.21225   1.22474
 Alpha virt. eigenvalues --    1.22715   1.23720   1.24674   1.25200   1.25954
 Alpha virt. eigenvalues --    1.27119   1.29358   1.29603   1.30127   1.31594
 Alpha virt. eigenvalues --    1.32846   1.32976   1.34155   1.34313   1.35260
 Alpha virt. eigenvalues --    1.35712   1.37353   1.37570   1.37904   1.39064
 Alpha virt. eigenvalues --    1.39953   1.41234   1.41980   1.42090   1.42489
 Alpha virt. eigenvalues --    1.44175   1.44865   1.45235   1.45827   1.46232
 Alpha virt. eigenvalues --    1.46958   1.47868   1.49100   1.50125   1.50760
 Alpha virt. eigenvalues --    1.51775   1.51888   1.53071   1.54601   1.55143
 Alpha virt. eigenvalues --    1.56233   1.56983   1.57688   1.58351   1.58916
 Alpha virt. eigenvalues --    1.60207   1.61956   1.62464   1.63929   1.65189
 Alpha virt. eigenvalues --    1.65612   1.67270   1.68340   1.69008   1.69443
 Alpha virt. eigenvalues --    1.71800   1.73730   1.74859   1.75210   1.75795
 Alpha virt. eigenvalues --    1.76745   1.77921   1.77953   1.78447   1.79494
 Alpha virt. eigenvalues --    1.80572   1.80923   1.81465   1.82814   1.83174
 Alpha virt. eigenvalues --    1.84188   1.84818   1.85009   1.85378   1.85852
 Alpha virt. eigenvalues --    1.86942   1.87437   1.87849   1.90539   1.90724
 Alpha virt. eigenvalues --    1.90995   1.91221   1.91814   1.91985   1.92649
 Alpha virt. eigenvalues --    1.93491   1.93766   1.94563   1.94974   1.95437
 Alpha virt. eigenvalues --    1.95885   1.97899   1.98709   1.99721   2.00481
 Alpha virt. eigenvalues --    2.00732   2.01380   2.02137   2.04144   2.04687
 Alpha virt. eigenvalues --    2.05321   2.05996   2.06679   2.07475   2.07994
 Alpha virt. eigenvalues --    2.08108   2.09713   2.10099   2.10689   2.11168
 Alpha virt. eigenvalues --    2.11966   2.12774   2.13544   2.14545   2.14654
 Alpha virt. eigenvalues --    2.15539   2.15899   2.16891   2.17340   2.17689
 Alpha virt. eigenvalues --    2.18398   2.20271   2.20811   2.21875   2.22274
 Alpha virt. eigenvalues --    2.23043   2.23769   2.24210   2.25046   2.25337
 Alpha virt. eigenvalues --    2.26058   2.26254   2.27022   2.27759   2.28111
 Alpha virt. eigenvalues --    2.29383   2.29584   2.30018   2.30357   2.31557
 Alpha virt. eigenvalues --    2.32886   2.33042   2.35035   2.35151   2.36011
 Alpha virt. eigenvalues --    2.37308   2.38561   2.39041   2.39470   2.41525
 Alpha virt. eigenvalues --    2.41735   2.42385   2.43496   2.44035   2.44606
 Alpha virt. eigenvalues --    2.45619   2.45982   2.46407   2.46906   2.48352
 Alpha virt. eigenvalues --    2.49572   2.50196   2.51556   2.54048   2.54160
 Alpha virt. eigenvalues --    2.55274   2.56546   2.57344   2.58390   2.58926
 Alpha virt. eigenvalues --    2.59393   2.60455   2.61857   2.63798   2.64839
 Alpha virt. eigenvalues --    2.66813   2.67629   2.68022   2.69169   2.69450
 Alpha virt. eigenvalues --    2.70870   2.71739   2.73709   2.74122   2.74745
 Alpha virt. eigenvalues --    2.76415   2.77220   2.78548   2.79278   2.79702
 Alpha virt. eigenvalues --    2.80250   2.81019   2.82403   2.82632   2.84182
 Alpha virt. eigenvalues --    2.86671   2.91267   2.93521   2.94431   2.95726
 Alpha virt. eigenvalues --    2.97694   2.98457   2.98981   2.99688   3.05107
 Alpha virt. eigenvalues --    3.07357   3.08344   3.11344   3.14214   3.17708
 Alpha virt. eigenvalues --    3.20899   3.29616   3.33547   3.46054   3.46916
 Alpha virt. eigenvalues --    3.86224   3.98545   3.99994   4.01379   4.05202
 Alpha virt. eigenvalues --    4.05435   4.07399   4.11019   4.11939   4.12838
 Alpha virt. eigenvalues --    4.13901   4.15362   4.16983   4.20036   4.22003
 Alpha virt. eigenvalues --    4.23364   4.24831   4.25585   4.26040   4.26107
 Alpha virt. eigenvalues --    4.30286   4.34043   4.35152   4.39871   4.40751
 Alpha virt. eigenvalues --    4.42459   4.43157   4.49442   4.50894   4.53408
 Alpha virt. eigenvalues --    4.55878   4.61885   4.67750   4.70871   4.77217
 Alpha virt. eigenvalues --    4.84984
          Condensed to atoms (all electrons):
 Mulliken charges:
               1
     1  C   -0.210174
     2  O   -0.500727
     3  C    0.548024
     4  N   -0.547264
     5  C    0.240934
     6  C    0.426114
     7  N   -0.422863
     8  C   -0.093002
     9  C    0.075801
    10  C   -0.015786
    11  N   -0.506898
    12  C   -0.321325
    13  C    0.307063
    14  C   -0.166597
    15  C   -0.221874
    16  C    0.179872
    17  C   -0.166053
    18  C   -0.313029
    19  C   -0.016479
    20  O   -0.474503
    21  C   -0.034604
    22  C   -0.283626
    23  C   -0.278011
    24  C    0.078489
    25  C   -0.061230
    26  O   -0.390643
    27  N   -0.370385
    28  C   -0.195492
    29  C   -0.136962
    30  C    0.269466
    31  N   -0.515964
    32  C    0.218137
    33  N   -0.477466
    34  C    0.225629
    35  C   -0.514064
    36  C   -0.023887
    37  H    0.171653
    38  H    0.180068
    39  H    0.164344
    40  H    0.138448
    41  H    0.157783
    42  H    0.171169
    43  H    0.170488
    44  H    0.169056
    45  H    0.121943
    46  H    0.117851
    47  H    0.137959
    48  H    0.145673
    49  H    0.141714
    50  H    0.141537
    51  H    0.121132
    52  H    0.118302
    53  H    0.144418
    54  H    0.141868
    55  H    0.134976
    56  H    0.126788
    57  H    0.163589
    58  H    0.152317
    59  H    0.338846
    60  H    0.158439
    61  H    0.159159
    62  H    0.171850
    63  H    0.166285
    64  H    0.144620
    65  H    0.166722
    66  H    0.150382
 Sum of Mulliken charges =  -0.00000
 Mulliken charges with hydrogens summed into heavy atoms:
               1
     1  C    0.305891
     2  O   -0.500727
     3  C    0.548024
     4  N   -0.547264
     5  C    0.240934
     6  C    0.426114
     7  N   -0.422863
     8  C    0.045446
     9  C    0.075801
    10  C    0.141997
    11  N   -0.506898
    12  C    0.189388
    13  C    0.307063
    14  C   -0.044654
    15  C   -0.104024
    16  C    0.179872
    17  C   -0.028094
    18  C   -0.025642
    19  C    0.246190
    20  O   -0.474503
    21  C    0.228115
    22  C   -0.006781
    23  C   -0.151223
    24  C    0.078489
    25  C    0.254677
    26  O   -0.390643
    27  N   -0.031539
    28  C   -0.037053
    29  C    0.022196
    30  C    0.269466
    31  N   -0.515964
    32  C    0.389988
    33  N   -0.477466
    34  C    0.225629
    35  C   -0.036437
    36  C    0.126495
 Electronic spatial extent (au):  <R**2>=          26416.5041
 Charge=              0.0000 electrons
 Dipole moment (field-independent basis, Debye):
    X=             -0.2267    Y=             -5.6853    Z=              1.5856  Tot=              5.9066
 Quadrupole moment (field-independent basis, Debye-Ang):
   XX=           -227.3117   YY=           -200.8284   ZZ=           -201.0861
   XY=              7.8153   XZ=            -10.2532   YZ=              7.1316
 Traceless Quadrupole moment (field-independent basis, Debye-Ang):
   XX=            -17.5696   YY=              8.9137   ZZ=              8.6560
   XY=              7.8153   XZ=            -10.2532   YZ=              7.1316
 Octapole moment (field-independent basis, Debye-Ang**2):
  XXX=            101.9763  YYY=           -117.7932  ZZZ=            -59.2185  XYY=            106.0705
  XXY=           -213.9838  XXZ=            116.2522  XZZ=             72.1653  YZZ=              6.5261
  YYZ=            -23.5967  XYZ=             18.9220
 Hexadecapole moment (field-independent basis, Debye-Ang**3):
 XXXX=         -26601.6857 YYYY=          -6264.4556 ZZZZ=          -3060.0339 XXXY=           1567.0845
 XXXZ=            269.2881 YYYX=            871.2703 YYYZ=           1067.8554 ZZZX=            679.1462
 ZZZY=            858.4653 XXYY=          -6148.9104 XXZZ=          -4836.2840 YYZZ=          -1628.2490
 XXYZ=            684.2345 YYXZ=            166.4913 ZZXY=            358.0281
 N-N= 3.649826844612D+03 E-N=-1.102143817311D+04  KE= 1.586112775795D+03
 Leave Link  601 at Sat Nov  5 12:04:19 2022, MaxMem=   402653184 cpu:               1.7 elap:               0.3
 (Enter /home/wykgroup/appl/g16/l9999.exe)
 Electronic transition elements 
                 1             2             3             4 
      1  -0.160092D+04 -0.160091D+04 -0.160091D+04 -0.160088D+04
      2   0.000000D+00  0.000000D+00 -0.780345D+00  0.945133D+00
      3   0.000000D+00  0.000000D+00  0.199210D+00 -0.530730D+00
      4   0.000000D+00  0.000000D+00  0.177615D+00  0.296367D+00
      5   0.000000D+00  0.000000D+00  0.914413D-01 -0.132444D+00
      6   0.000000D+00  0.000000D+00 -0.241673D-01  0.746670D-01
      7   0.000000D+00  0.000000D+00 -0.180500D-01 -0.384693D-01
      8   0.000000D+00  0.000000D+00  0.385337D+00 -0.170409D+00
      9   0.000000D+00  0.000000D+00  0.470243D+00 -0.837707D+00
     10   0.000000D+00  0.000000D+00  0.235972D+00 -0.819257D+00
     11   0.000000D+00  0.000000D+00 -0.315723D+00  0.164074D+01
     12   0.000000D+00  0.000000D+00  0.172420D+00  0.366093D-01
     13   0.000000D+00  0.000000D+00 -0.937262D-01 -0.185136D+00
     14   0.000000D+00  0.000000D+00  0.127627D-01 -0.667735D+00
     15   0.000000D+00  0.000000D+00 -0.820430D-01  0.379717D+00
     16   0.000000D+00  0.000000D+00  0.142670D+00  0.400410D-01
 1\1\GINC-NODE18\SP\RB3LYP TD-FC\6-31G(d)\C27H30N6O3\WYKGROUP\05-Nov-20
 22\0\\#p b3lyp/6-31g(d) 6D 10F nosymm GFInput td=(50-50,nstate=2) SCF=
 XQC\\Gaussian input prepared by ASE\\0,1\C,0,-2.2174219398,1.280821156
 1,-2.0943328809\O,0,-3.4791700466,1.3301364907,-1.410652948\C,0,-3.552
 4666556,0.7011977852,-0.219585737\N,0,-2.4810048742,0.1005408739,0.260
 3966943\C,0,-2.5476869111,-0.5226473239,1.4504528444\C,0,-1.2932564505
 ,-1.1811342989,1.9295886764\N,0,-0.1486909007,-0.693851353,1.640152804
 4\C,0,1.05070395,-1.3785519417,2.1604379575\C,0,1.7597110554,-2.121051
 3073,1.0537780866\C,0,1.5740696599,-3.4272726152,0.6694826862\N,0,2.40
 49812072,-3.7461743937,-0.3890276806\C,0,2.4979077481,-5.034001417,-1.
 0430826466\C,0,3.1458909561,-2.6249577333,-0.7131583125\C,0,4.11884531
 79,-2.4356280285,-1.6984794097\C,0,4.7009579367,-1.1762827275,-1.79342
 8369\C,0,4.3413257771,-0.1091129766,-0.937527276\C,0,5.0059229352,1.24
 7865544,-1.1107081254\C,0,4.0157130845,2.367741576,-1.4929309413\C,0,4
 .7906760972,3.6597752189,-1.8389649189\O,0,6.0809691017,3.7101191429,-
 1.2340088078\C,0,6.055543141,3.2257957468,0.1018010228\C,0,5.807149822
 8,1.7010166129,0.1382284646\C,0,3.368776122,-0.3210778362,0.0409306582
 \C,0,2.7608193117,-1.5792429652,0.1694518416\C,0,0.7019283252,-2.26109
 69317,3.3646492781\O,0,-0.4045157477,-3.1039822098,3.0287169018\N,0,-1
 .5411258894,-2.2651626397,2.804058293\C,0,-3.7221018371,-0.551195046,2
 .2024494483\C,0,-4.8562420501,0.0850996391,1.6902157835\C,0,-4.8045462
 702,0.7214328852,0.4555103326\N,0,-5.9526674885,1.328097763,-0.0993978
 256\C,0,-6.0404306177,2.5078051121,-0.8100015536\N,0,-7.2785735409,2.8
 266325275,-1.0918647021\C,0,-8.0614906656,1.8179784423,-0.5521413772\C
 ,0,-9.5507109674,1.8262320362,-0.6955918564\C,0,-7.2662488563,0.892637
 1072,0.069674493\H,0,-1.9374955503,0.2478004536,-2.3172372805\H,0,-1.4
 283564172,1.7339803587,-1.4889405534\H,0,-2.374607428,1.8447649977,-3.
 0146575286\H,0,1.7237697271,-0.583249498,2.5104982403\H,0,0.8988780088
 ,-4.1692299636,1.0725491759\H,0,2.2669141483,-4.9494160119,-2.11179266
 32\H,0,3.502617265,-5.461152329,-0.9362577302\H,0,1.7793060542,-5.7176
 870686,-0.5858911444\H,0,4.4148208747,-3.2370561573,-2.3698770221\H,0,
 5.4600550831,-1.0032447555,-2.5527158985\H,0,5.720704348,1.1615727103,
 -1.9385621928\H,0,3.3978483803,2.0630547382,-2.3452054362\H,0,3.325807
 1521,2.5428652754,-0.6573604854\H,0,4.9785876616,3.7225512342,-2.91609
 75452\H,0,4.2057399424,4.5484112431,-1.5472412063\H,0,5.2823047481,3.7
 598680162,0.6798345288\H,0,7.0249269326,3.4843384821,0.53819134\H,0,6.
 7559634065,1.1532120989,0.1736856294\H,0,5.2602308815,1.4429401579,1.0
 53627173\H,0,3.0690360232,0.4909654484,0.6993083917\H,0,1.5109663693,-
 2.9458328823,3.6287442173\H,0,0.4381782654,-1.6480406911,4.2373689562\
 H,0,-2.2569004331,-2.901233106,2.4622114026\H,0,-3.7446656888,-1.02111
 94064,3.179122171\H,0,-5.778838954,0.1063591828,2.261371205\H,0,-5.160
 4191691,3.0709180634,-1.0786118825\H,0,-9.9813801096,2.7331559048,-0.2
 547097925\H,0,-10.0016371206,0.9584940364,-0.2035286994\H,0,-9.8438744
 576,1.8122265326,-1.7520544394\H,0,-7.4920197844,-0.0387199803,0.56601
 61704\\Version=ES64L-G16RevB.01\HF=-1601.0284784\RMSD=3.847e-09\PG=C01
  [X(C27H30N6O3)]\\@


 THE WHOLE OF SCIENCE IS NOTHING MORE THAN A REFINEMENT OF EVERYDAY THINKING.
                                                              -- A. EINSTEIN
 Job cpu time:       0 days  2 hours 42 minutes 42.0 seconds.
 Elapsed time:       0 days  0 hours 15 minutes 30.5 seconds.
 File lengths (MBytes):  RWF=   2149 Int=      0 D2E=      0 Chk=     75 Scr=      1
 Normal termination of Gaussian 16 at Sat Nov  5 12:04:20 2022.
