 Entering Gaussian System, Link 0=/home/wykgroup/appl/g16/g16
 Input=calculation/no_transfer_pubchem_sampling_3_b3lyp/144733944_rwf.com
 Output=calculation/no_transfer_pubchem_sampling_3_b3lyp/144733944_rwf.log
 Initial command:
 /home/wykgroup/appl/g16/l1.exe "/userdata/scratch/wykgroup/khs/calculation/no_transfer_pubchem_sampling_3_b3lyp/144733944_rwf/Gau-18705.inp" -scrdir="/userdata/scratch/wykgroup/khs/calculation/no_transfer_pubchem_sampling_3_b3lyp/144733944_rwf/"
 Entering Link 1 = /home/wykgroup/appl/g16/l1.exe PID=     18706.
  
 Copyright (c) 1988-2017, Gaussian, Inc.  All Rights Reserved.
  
 This is part of the Gaussian(R) 16 program.  It is based on
 the Gaussian(R) 09 system (copyright 2009, Gaussian, Inc.),
 the Gaussian(R) 03 system (copyright 2003, Gaussian, Inc.),
 the Gaussian(R) 98 system (copyright 1998, Gaussian, Inc.),
 the Gaussian(R) 94 system (copyright 1995, Gaussian, Inc.),
 the Gaussian 92(TM) system (copyright 1992, Gaussian, Inc.),
 the Gaussian 90(TM) system (copyright 1990, Gaussian, Inc.),
 the Gaussian 88(TM) system (copyright 1988, Gaussian, Inc.),
 the Gaussian 86(TM) system (copyright 1986, Carnegie Mellon
 University), and the Gaussian 82(TM) system (copyright 1983,
 Carnegie Mellon University). Gaussian is a federally registered
 trademark of Gaussian, Inc.
  
 This software contains proprietary and confidential information,
 including trade secrets, belonging to Gaussian, Inc.
  
 This software is provided under written license and may be
 used, copied, transmitted, or stored only in accord with that
 written license.
  
 The following legend is applicable only to US Government
 contracts under FAR:
  
                    RESTRICTED RIGHTS LEGEND
  
 Use, reproduction and disclosure by the US Government is
 subject to restrictions as set forth in subparagraphs (a)
 and (c) of the Commercial Computer Software - Restricted
 Rights clause in FAR 52.227-19.
  
 Gaussian, Inc.
 340 Quinnipiac St., Bldg. 40, Wallingford CT 06492
  
  
 ---------------------------------------------------------------
 Warning -- This program may not be used in any manner that
 competes with the business of Gaussian, Inc. or will provide
 assistance to any competitor of Gaussian, Inc.  The licensee
 of this program is prohibited from giving any competitor of
 Gaussian, Inc. access to this program.  By using this program,
 the user acknowledges that Gaussian, Inc. is engaged in the
 business of creating and licensing software in the field of
 computational chemistry and represents and warrants to the
 licensee that it is not a competitor of Gaussian, Inc. and that
 it will not use this program in any manner prohibited above.
 ---------------------------------------------------------------
  

 Cite this work as:
 Gaussian 16, Revision B.01,
 M. J. Frisch, G. W. Trucks, H. B. Schlegel, G. E. Scuseria, 
 M. A. Robb, J. R. Cheeseman, G. Scalmani, V. Barone, 
 G. A. Petersson, H. Nakatsuji, X. Li, M. Caricato, A. V. Marenich, 
 J. Bloino, B. G. Janesko, R. Gomperts, B. Mennucci, H. P. Hratchian, 
 J. V. Ortiz, A. F. Izmaylov, J. L. Sonnenberg, D. Williams-Young, 
 F. Ding, F. Lipparini, F. Egidi, J. Goings, B. Peng, A. Petrone, 
 T. Henderson, D. Ranasinghe, V. G. Zakrzewski, J. Gao, N. Rega, 
 G. Zheng, W. Liang, M. Hada, M. Ehara, K. Toyota, R. Fukuda, 
 J. Hasegawa, M. Ishida, T. Nakajima, Y. Honda, O. Kitao, H. Nakai, 
 T. Vreven, K. Throssell, J. A. Montgomery, Jr., J. E. Peralta, 
 F. Ogliaro, M. J. Bearpark, J. J. Heyd, E. N. Brothers, K. N. Kudin, 
 V. N. Staroverov, T. A. Keith, R. Kobayashi, J. Normand, 
 K. Raghavachari, A. P. Rendell, J. C. Burant, S. S. Iyengar, 
 J. Tomasi, M. Cossi, J. M. Millam, M. Klene, C. Adamo, R. Cammi, 
 J. W. Ochterski, R. L. Martin, K. Morokuma, O. Farkas, 
 J. B. Foresman, and D. J. Fox, Gaussian, Inc., Wallingford CT, 2016.
 
 ******************************************
 Gaussian 16:  ES64L-G16RevB.01 20-Dec-2017
                 5-Nov-2022 
 ******************************************
 %chk=calculation/no_transfer_pubchem_sampling_3_b3lyp/144733944_rwf.chk
 %rwf=calculation/no_transfer_pubchem_sampling_3_b3lyp/144733944_rwf.rwf
 %nprocshared=14
 Will use up to   14 processors via shared memory.
 %mem=3GB
 -------------------------------------------------------------------
 #p b3lyp/6-31g(d) 6D 10F nosymm GFInput td=(50-50,nstate=2) SCF=XQC
 -------------------------------------------------------------------
 1/38=1,172=1/1;
 2/12=2,15=1,17=6,18=5,40=1/2;
 3/5=1,6=6,7=1,8=22,11=9,24=10,25=1,30=1,74=-5/1,2,3,8;
 4//1;
 5/5=2,8=3,13=1,38=5/2,8;
 8/6=1,10=2,108=2/1;
 9/41=2,42=1,48=2,70=2/14;
 6/7=2,8=2,9=2,10=2/1;
 99/5=1,9=1/99;
 Leave Link    1 at Sat Nov  5 12:06:28 2022, MaxMem=   402653184 cpu:               3.1 elap:               0.5
 (Enter /home/wykgroup/appl/g16/l101.exe)
 ------------------------------
 Gaussian input prepared by ASE
 ------------------------------
 Symbolic Z-matrix:
 Charge =  0 Multiplicity = 1
 C                     8.51196  -2.50695   0.05783 
 C                     7.31159  -2.62671   0.62226 
 C                     6.30158  -1.52122   0.67887 
 O                     5.06375  -2.03245   0.17326 
 C                     3.97579  -1.21668   0.20236 
 C                     3.95573   0.11563   0.62965 
 C                     2.76947   0.85758   0.59836 
 C                     1.59331   0.26131   0.16032 
 C                     1.59724  -1.06867  -0.26429 
 F                     0.46203  -1.6525   -0.68332 
 C                     2.77773  -1.79688  -0.25032 
 F                     2.76591  -3.07472  -0.65793 
 O                     0.41819   0.96867   0.08399 
 C                     0.1585    1.93913   1.05041 
 C                    -1.15008   2.26674   1.21627 
 F                    -1.3838    3.26362   2.11482 
 C                    -2.38297   1.73314   0.63106 
 C                    -3.56431   2.13803   1.13413 
 C                    -2.34049   0.77513  -0.55947 
 C                    -1.96509   1.51487  -1.85358 
 O                    -3.63434   0.18696  -0.70226 
 C                    -3.61838  -1.12417  -1.24794 
 C                    -5.04899  -1.61841  -1.47799 
 C                    -5.8276   -0.68486  -2.42709 
 C                    -5.84436  -1.89085  -0.21916 
 C                    -5.52198  -1.57107   1.03478 
 C                     1.32392   2.5335    1.72859 
 C                     1.29151   3.20181   2.89364 
 C                     2.64446   2.30573   1.00441 
 H                     9.2315   -3.32055   0.07009 
 H                     8.82483  -1.58913  -0.4358 
 H                     7.01357  -3.5572    1.10281 
 H                     6.1533   -1.18457   1.71707 
 H                     6.631    -0.65786   0.08424 
 H                     4.86363   0.59261   0.98024 
 H                    -4.48875   1.75019   0.72672 
 H                    -3.62295   2.84074   1.95594 
 H                    -1.60945  -0.0164   -0.3683 
 H                    -0.98163   1.98523  -1.77341 
 H                    -2.7131    2.28669  -2.06153 
 H                    -1.93757   0.81825  -2.69858 
 H                    -3.08443  -1.13179  -2.21147 
 H                    -3.08528  -1.80893  -0.56932 
 H                    -4.93667  -2.58641  -1.99417 
 H                    -5.92605   0.31091  -1.98679 
 H                    -6.83239  -1.07589  -2.62355 
 H                    -5.31022  -0.58575  -3.38898 
 H                    -6.78977  -2.40732  -0.39858 
 H                    -6.1762   -1.82945   1.86377 
 H                    -4.61282  -1.03086   1.27868 
 H                     2.21039   3.59938   3.3155 
 H                     0.3808    3.37281   3.45003 
 H                     2.67771   2.93826   0.10297 
 H                     3.48024   2.61129   1.64041 
 
 ITRead=  0  0  0  0  0  0  0  0  0  0  0  0  0  0  0  0  0  0  0  0
 ITRead=  0  0  0  0  0  0  0  0  0  0  0  0  0  0  0  0  0  0  0  0
 ITRead=  0  0  0  0  0  0  0  0  0  0  0  0  0  0
 MicOpt= -1 -1 -1 -1 -1 -1 -1 -1 -1 -1 -1 -1 -1 -1 -1 -1 -1 -1 -1 -1
 MicOpt= -1 -1 -1 -1 -1 -1 -1 -1 -1 -1 -1 -1 -1 -1 -1 -1 -1 -1 -1 -1
 MicOpt= -1 -1 -1 -1 -1 -1 -1 -1 -1 -1 -1 -1 -1 -1
 NAtoms=     54 NQM=       54 NQMF=       0 NMMI=      0 NMMIF=      0
                NMic=       0 NMicF=      0.
                    Isotopes and Nuclear Properties:
 (Nuclear quadrupole moments (NQMom) in fm**2, nuclear magnetic moments (NMagM)
  in nuclear magnetons)

  Atom         1           2           3           4           5           6           7           8           9          10
 IAtWgt=          12          12          12          16          12          12          12          12          12          19
 AtmWgt=  12.0000000  12.0000000  12.0000000  15.9949146  12.0000000  12.0000000  12.0000000  12.0000000  12.0000000  18.9984032
 NucSpn=           0           0           0           0           0           0           0           0           0           1
 AtZEff=  -0.0000000  -0.0000000  -0.0000000  -0.0000000  -0.0000000  -0.0000000  -0.0000000  -0.0000000  -0.0000000  -0.0000000
 NQMom=    0.0000000   0.0000000   0.0000000   0.0000000   0.0000000   0.0000000   0.0000000   0.0000000   0.0000000   0.0000000
 NMagM=    0.0000000   0.0000000   0.0000000   0.0000000   0.0000000   0.0000000   0.0000000   0.0000000   0.0000000   2.6288670
 AtZNuc=   6.0000000   6.0000000   6.0000000   8.0000000   6.0000000   6.0000000   6.0000000   6.0000000   6.0000000   9.0000000

  Atom        11          12          13          14          15          16          17          18          19          20
 IAtWgt=          12          19          16          12          12          19          12          12          12          12
 AtmWgt=  12.0000000  18.9984032  15.9949146  12.0000000  12.0000000  18.9984032  12.0000000  12.0000000  12.0000000  12.0000000
 NucSpn=           0           1           0           0           0           1           0           0           0           0
 AtZEff=  -0.0000000  -0.0000000  -0.0000000  -0.0000000  -0.0000000  -0.0000000  -0.0000000  -0.0000000  -0.0000000  -0.0000000
 NQMom=    0.0000000   0.0000000   0.0000000   0.0000000   0.0000000   0.0000000   0.0000000   0.0000000   0.0000000   0.0000000
 NMagM=    0.0000000   2.6288670   0.0000000   0.0000000   0.0000000   2.6288670   0.0000000   0.0000000   0.0000000   0.0000000
 AtZNuc=   6.0000000   9.0000000   8.0000000   6.0000000   6.0000000   9.0000000   6.0000000   6.0000000   6.0000000   6.0000000

  Atom        21          22          23          24          25          26          27          28          29          30
 IAtWgt=          16          12          12          12          12          12          12          12          12           1
 AtmWgt=  15.9949146  12.0000000  12.0000000  12.0000000  12.0000000  12.0000000  12.0000000  12.0000000  12.0000000   1.0078250
 NucSpn=           0           0           0           0           0           0           0           0           0           1
 AtZEff=  -0.0000000  -0.0000000  -0.0000000  -0.0000000  -0.0000000  -0.0000000  -0.0000000  -0.0000000  -0.0000000  -0.0000000
 NQMom=    0.0000000   0.0000000   0.0000000   0.0000000   0.0000000   0.0000000   0.0000000   0.0000000   0.0000000   0.0000000
 NMagM=    0.0000000   0.0000000   0.0000000   0.0000000   0.0000000   0.0000000   0.0000000   0.0000000   0.0000000   2.7928460
 AtZNuc=   8.0000000   6.0000000   6.0000000   6.0000000   6.0000000   6.0000000   6.0000000   6.0000000   6.0000000   1.0000000

  Atom        31          32          33          34          35          36          37          38          39          40
 IAtWgt=           1           1           1           1           1           1           1           1           1           1
 AtmWgt=   1.0078250   1.0078250   1.0078250   1.0078250   1.0078250   1.0078250   1.0078250   1.0078250   1.0078250   1.0078250
 NucSpn=           1           1           1           1           1           1           1           1           1           1
 AtZEff=  -0.0000000  -0.0000000  -0.0000000  -0.0000000  -0.0000000  -0.0000000  -0.0000000  -0.0000000  -0.0000000  -0.0000000
 NQMom=    0.0000000   0.0000000   0.0000000   0.0000000   0.0000000   0.0000000   0.0000000   0.0000000   0.0000000   0.0000000
 NMagM=    2.7928460   2.7928460   2.7928460   2.7928460   2.7928460   2.7928460   2.7928460   2.7928460   2.7928460   2.7928460
 AtZNuc=   1.0000000   1.0000000   1.0000000   1.0000000   1.0000000   1.0000000   1.0000000   1.0000000   1.0000000   1.0000000

  Atom        41          42          43          44          45          46          47          48          49          50
 IAtWgt=           1           1           1           1           1           1           1           1           1           1
 AtmWgt=   1.0078250   1.0078250   1.0078250   1.0078250   1.0078250   1.0078250   1.0078250   1.0078250   1.0078250   1.0078250
 NucSpn=           1           1           1           1           1           1           1           1           1           1
 AtZEff=  -0.0000000  -0.0000000  -0.0000000  -0.0000000  -0.0000000  -0.0000000  -0.0000000  -0.0000000  -0.0000000  -0.0000000
 NQMom=    0.0000000   0.0000000   0.0000000   0.0000000   0.0000000   0.0000000   0.0000000   0.0000000   0.0000000   0.0000000
 NMagM=    2.7928460   2.7928460   2.7928460   2.7928460   2.7928460   2.7928460   2.7928460   2.7928460   2.7928460   2.7928460
 AtZNuc=   1.0000000   1.0000000   1.0000000   1.0000000   1.0000000   1.0000000   1.0000000   1.0000000   1.0000000   1.0000000

  Atom        51          52          53          54
 IAtWgt=           1           1           1           1
 AtmWgt=   1.0078250   1.0078250   1.0078250   1.0078250
 NucSpn=           1           1           1           1
 AtZEff=  -0.0000000  -0.0000000  -0.0000000  -0.0000000
 NQMom=    0.0000000   0.0000000   0.0000000   0.0000000
 NMagM=    2.7928460   2.7928460   2.7928460   2.7928460
 AtZNuc=   1.0000000   1.0000000   1.0000000   1.0000000
 Leave Link  101 at Sat Nov  5 12:06:28 2022, MaxMem=   402653184 cpu:               1.6 elap:               0.3
 (Enter /home/wykgroup/appl/g16/l202.exe)
 Symmetry turned off by external request.
 Stoichiometry    C23H25F3O3
 Framework group  C1[X(C23H25F3O3)]
 Deg. of freedom   156
 Full point group                 C1      NOp   1
                          Input orientation:                          
 ---------------------------------------------------------------------
 Center     Atomic      Atomic             Coordinates (Angstroms)
 Number     Number       Type             X           Y           Z
 ---------------------------------------------------------------------
      1          6           0        8.511955   -2.506946    0.057833
      2          6           0        7.311591   -2.626709    0.622259
      3          6           0        6.301581   -1.521221    0.678871
      4          8           0        5.063749   -2.032446    0.173265
      5          6           0        3.975786   -1.216676    0.202360
      6          6           0        3.955727    0.115628    0.629653
      7          6           0        2.769467    0.857585    0.598362
      8          6           0        1.593314    0.261307    0.160315
      9          6           0        1.597236   -1.068670   -0.264292
     10          9           0        0.462028   -1.652496   -0.683321
     11          6           0        2.777731   -1.796882   -0.250316
     12          9           0        2.765913   -3.074719   -0.657934
     13          8           0        0.418185    0.968675    0.083991
     14          6           0        0.158505    1.939135    1.050411
     15          6           0       -1.150078    2.266739    1.216273
     16          9           0       -1.383797    3.263625    2.114815
     17          6           0       -2.382969    1.733139    0.631059
     18          6           0       -3.564306    2.138032    1.134132
     19          6           0       -2.340485    0.775131   -0.559474
     20          6           0       -1.965095    1.514871   -1.853581
     21          8           0       -3.634337    0.186964   -0.702262
     22          6           0       -3.618379   -1.124168   -1.247940
     23          6           0       -5.048990   -1.618407   -1.477989
     24          6           0       -5.827598   -0.684865   -2.427095
     25          6           0       -5.844358   -1.890854   -0.219159
     26          6           0       -5.521982   -1.571072    1.034780
     27          6           0        1.323918    2.533501    1.728591
     28          6           0        1.291511    3.201814    2.893641
     29          6           0        2.644463    2.305735    1.004414
     30          1           0        9.231504   -3.320551    0.070087
     31          1           0        8.824826   -1.589132   -0.435796
     32          1           0        7.013572   -3.557198    1.102805
     33          1           0        6.153300   -1.184568    1.717073
     34          1           0        6.631003   -0.657865    0.084240
     35          1           0        4.863633    0.592608    0.980235
     36          1           0       -4.488748    1.750189    0.726723
     37          1           0       -3.622951    2.840743    1.955939
     38          1           0       -1.609449   -0.016402   -0.368301
     39          1           0       -0.981628    1.985234   -1.773414
     40          1           0       -2.713097    2.286687   -2.061535
     41          1           0       -1.937571    0.818255   -2.698580
     42          1           0       -3.084427   -1.131785   -2.211469
     43          1           0       -3.085276   -1.808931   -0.569321
     44          1           0       -4.936666   -2.586415   -1.994166
     45          1           0       -5.926046    0.310910   -1.986791
     46          1           0       -6.832389   -1.075889   -2.623550
     47          1           0       -5.310219   -0.585755   -3.388985
     48          1           0       -6.789775   -2.407323   -0.398577
     49          1           0       -6.176203   -1.829447    1.863770
     50          1           0       -4.612825   -1.030859    1.278680
     51          1           0        2.210390    3.599378    3.315499
     52          1           0        0.380803    3.372814    3.450030
     53          1           0        2.677711    2.938262    0.102975
     54          1           0        3.480239    2.611293    1.640410
 ---------------------------------------------------------------------
 Rotational constants (GHZ):           0.2610894           0.0769965           0.0632496
 Leave Link  202 at Sat Nov  5 12:06:29 2022, MaxMem=   402653184 cpu:               1.1 elap:               0.2
 (Enter /home/wykgroup/appl/g16/l301.exe)
 Standard basis: 6-31G(d) (6D, 10F)
 Ernie: Thresh=  0.10000D-02 Tol=  0.10000D-05 Strict=F.
 AO basis set in the form of general basis input (Overlap normalization):
      1 0
 S   6 1.00       0.000000000000
      0.3047524880D+04  0.1834737132D-02
      0.4573695180D+03  0.1403732281D-01
      0.1039486850D+03  0.6884262226D-01
      0.2921015530D+02  0.2321844432D+00
      0.9286662960D+01  0.4679413484D+00
      0.3163926960D+01  0.3623119853D+00
 SP   3 1.00       0.000000000000
      0.7868272350D+01 -0.1193324198D+00  0.6899906659D-01
      0.1881288540D+01 -0.1608541517D+00  0.3164239610D+00
      0.5442492580D+00  0.1143456438D+01  0.7443082909D+00
 SP   1 1.00       0.000000000000
      0.1687144782D+00  0.1000000000D+01  0.1000000000D+01
 D   1 1.00       0.000000000000
      0.8000000000D+00  0.1000000000D+01
 ****
      2 0
 S   6 1.00       0.000000000000
      0.3047524880D+04  0.1834737132D-02
      0.4573695180D+03  0.1403732281D-01
      0.1039486850D+03  0.6884262226D-01
      0.2921015530D+02  0.2321844432D+00
      0.9286662960D+01  0.4679413484D+00
      0.3163926960D+01  0.3623119853D+00
 SP   3 1.00       0.000000000000
      0.7868272350D+01 -0.1193324198D+00  0.6899906659D-01
      0.1881288540D+01 -0.1608541517D+00  0.3164239610D+00
      0.5442492580D+00  0.1143456438D+01  0.7443082909D+00
 SP   1 1.00       0.000000000000
      0.1687144782D+00  0.1000000000D+01  0.1000000000D+01
 D   1 1.00       0.000000000000
      0.8000000000D+00  0.1000000000D+01
 ****
      3 0
 S   6 1.00       0.000000000000
      0.3047524880D+04  0.1834737132D-02
      0.4573695180D+03  0.1403732281D-01
      0.1039486850D+03  0.6884262226D-01
      0.2921015530D+02  0.2321844432D+00
      0.9286662960D+01  0.4679413484D+00
      0.3163926960D+01  0.3623119853D+00
 SP   3 1.00       0.000000000000
      0.7868272350D+01 -0.1193324198D+00  0.6899906659D-01
      0.1881288540D+01 -0.1608541517D+00  0.3164239610D+00
      0.5442492580D+00  0.1143456438D+01  0.7443082909D+00
 SP   1 1.00       0.000000000000
      0.1687144782D+00  0.1000000000D+01  0.1000000000D+01
 D   1 1.00       0.000000000000
      0.8000000000D+00  0.1000000000D+01
 ****
      4 0
 S   6 1.00       0.000000000000
      0.5484671660D+04  0.1831074430D-02
      0.8252349460D+03  0.1395017220D-01
      0.1880469580D+03  0.6844507810D-01
      0.5296450000D+02  0.2327143360D+00
      0.1689757040D+02  0.4701928980D+00
      0.5799635340D+01  0.3585208530D+00
 SP   3 1.00       0.000000000000
      0.1553961625D+02 -0.1107775495D+00  0.7087426823D-01
      0.3599933586D+01 -0.1480262627D+00  0.3397528391D+00
      0.1013761750D+01  0.1130767015D+01  0.7271585773D+00
 SP   1 1.00       0.000000000000
      0.2700058226D+00  0.1000000000D+01  0.1000000000D+01
 D   1 1.00       0.000000000000
      0.8000000000D+00  0.1000000000D+01
 ****
      5 0
 S   6 1.00       0.000000000000
      0.3047524880D+04  0.1834737132D-02
      0.4573695180D+03  0.1403732281D-01
      0.1039486850D+03  0.6884262226D-01
      0.2921015530D+02  0.2321844432D+00
      0.9286662960D+01  0.4679413484D+00
      0.3163926960D+01  0.3623119853D+00
 SP   3 1.00       0.000000000000
      0.7868272350D+01 -0.1193324198D+00  0.6899906659D-01
      0.1881288540D+01 -0.1608541517D+00  0.3164239610D+00
      0.5442492580D+00  0.1143456438D+01  0.7443082909D+00
 SP   1 1.00       0.000000000000
      0.1687144782D+00  0.1000000000D+01  0.1000000000D+01
 D   1 1.00       0.000000000000
      0.8000000000D+00  0.1000000000D+01
 ****
      6 0
 S   6 1.00       0.000000000000
      0.3047524880D+04  0.1834737132D-02
      0.4573695180D+03  0.1403732281D-01
      0.1039486850D+03  0.6884262226D-01
      0.2921015530D+02  0.2321844432D+00
      0.9286662960D+01  0.4679413484D+00
      0.3163926960D+01  0.3623119853D+00
 SP   3 1.00       0.000000000000
      0.7868272350D+01 -0.1193324198D+00  0.6899906659D-01
      0.1881288540D+01 -0.1608541517D+00  0.3164239610D+00
      0.5442492580D+00  0.1143456438D+01  0.7443082909D+00
 SP   1 1.00       0.000000000000
      0.1687144782D+00  0.1000000000D+01  0.1000000000D+01
 D   1 1.00       0.000000000000
      0.8000000000D+00  0.1000000000D+01
 ****
      7 0
 S   6 1.00       0.000000000000
      0.3047524880D+04  0.1834737132D-02
      0.4573695180D+03  0.1403732281D-01
      0.1039486850D+03  0.6884262226D-01
      0.2921015530D+02  0.2321844432D+00
      0.9286662960D+01  0.4679413484D+00
      0.3163926960D+01  0.3623119853D+00
 SP   3 1.00       0.000000000000
      0.7868272350D+01 -0.1193324198D+00  0.6899906659D-01
      0.1881288540D+01 -0.1608541517D+00  0.3164239610D+00
      0.5442492580D+00  0.1143456438D+01  0.7443082909D+00
 SP   1 1.00       0.000000000000
      0.1687144782D+00  0.1000000000D+01  0.1000000000D+01
 D   1 1.00       0.000000000000
      0.8000000000D+00  0.1000000000D+01
 ****
      8 0
 S   6 1.00       0.000000000000
      0.3047524880D+04  0.1834737132D-02
      0.4573695180D+03  0.1403732281D-01
      0.1039486850D+03  0.6884262226D-01
      0.2921015530D+02  0.2321844432D+00
      0.9286662960D+01  0.4679413484D+00
      0.3163926960D+01  0.3623119853D+00
 SP   3 1.00       0.000000000000
      0.7868272350D+01 -0.1193324198D+00  0.6899906659D-01
      0.1881288540D+01 -0.1608541517D+00  0.3164239610D+00
      0.5442492580D+00  0.1143456438D+01  0.7443082909D+00
 SP   1 1.00       0.000000000000
      0.1687144782D+00  0.1000000000D+01  0.1000000000D+01
 D   1 1.00       0.000000000000
      0.8000000000D+00  0.1000000000D+01
 ****
      9 0
 S   6 1.00       0.000000000000
      0.3047524880D+04  0.1834737132D-02
      0.4573695180D+03  0.1403732281D-01
      0.1039486850D+03  0.6884262226D-01
      0.2921015530D+02  0.2321844432D+00
      0.9286662960D+01  0.4679413484D+00
      0.3163926960D+01  0.3623119853D+00
 SP   3 1.00       0.000000000000
      0.7868272350D+01 -0.1193324198D+00  0.6899906659D-01
      0.1881288540D+01 -0.1608541517D+00  0.3164239610D+00
      0.5442492580D+00  0.1143456438D+01  0.7443082909D+00
 SP   1 1.00       0.000000000000
      0.1687144782D+00  0.1000000000D+01  0.1000000000D+01
 D   1 1.00       0.000000000000
      0.8000000000D+00  0.1000000000D+01
 ****
     10 0
 S   6 1.00       0.000000000000
      0.7001713090D+04  0.1819616901D-02
      0.1051366090D+04  0.1391607961D-01
      0.2392856900D+03  0.6840532453D-01
      0.6739744530D+02  0.2331857601D+00
      0.2151995730D+02  0.4712674392D+00
      0.7403101300D+01  0.3566185462D+00
 SP   3 1.00       0.000000000000
      0.2084795280D+02 -0.1085069751D+00  0.7162872424D-01
      0.4808308340D+01 -0.1464516581D+00  0.3459121027D+00
      0.1344069860D+01  0.1128688581D+01  0.7224699564D+00
 SP   1 1.00       0.000000000000
      0.3581513930D+00  0.1000000000D+01  0.1000000000D+01
 D   1 1.00       0.000000000000
      0.8000000000D+00  0.1000000000D+01
 ****
     11 0
 S   6 1.00       0.000000000000
      0.3047524880D+04  0.1834737132D-02
      0.4573695180D+03  0.1403732281D-01
      0.1039486850D+03  0.6884262226D-01
      0.2921015530D+02  0.2321844432D+00
      0.9286662960D+01  0.4679413484D+00
      0.3163926960D+01  0.3623119853D+00
 SP   3 1.00       0.000000000000
      0.7868272350D+01 -0.1193324198D+00  0.6899906659D-01
      0.1881288540D+01 -0.1608541517D+00  0.3164239610D+00
      0.5442492580D+00  0.1143456438D+01  0.7443082909D+00
 SP   1 1.00       0.000000000000
      0.1687144782D+00  0.1000000000D+01  0.1000000000D+01
 D   1 1.00       0.000000000000
      0.8000000000D+00  0.1000000000D+01
 ****
     12 0
 S   6 1.00       0.000000000000
      0.7001713090D+04  0.1819616901D-02
      0.1051366090D+04  0.1391607961D-01
      0.2392856900D+03  0.6840532453D-01
      0.6739744530D+02  0.2331857601D+00
      0.2151995730D+02  0.4712674392D+00
      0.7403101300D+01  0.3566185462D+00
 SP   3 1.00       0.000000000000
      0.2084795280D+02 -0.1085069751D+00  0.7162872424D-01
      0.4808308340D+01 -0.1464516581D+00  0.3459121027D+00
      0.1344069860D+01  0.1128688581D+01  0.7224699564D+00
 SP   1 1.00       0.000000000000
      0.3581513930D+00  0.1000000000D+01  0.1000000000D+01
 D   1 1.00       0.000000000000
      0.8000000000D+00  0.1000000000D+01
 ****
     13 0
 S   6 1.00       0.000000000000
      0.5484671660D+04  0.1831074430D-02
      0.8252349460D+03  0.1395017220D-01
      0.1880469580D+03  0.6844507810D-01
      0.5296450000D+02  0.2327143360D+00
      0.1689757040D+02  0.4701928980D+00
      0.5799635340D+01  0.3585208530D+00
 SP   3 1.00       0.000000000000
      0.1553961625D+02 -0.1107775495D+00  0.7087426823D-01
      0.3599933586D+01 -0.1480262627D+00  0.3397528391D+00
      0.1013761750D+01  0.1130767015D+01  0.7271585773D+00
 SP   1 1.00       0.000000000000
      0.2700058226D+00  0.1000000000D+01  0.1000000000D+01
 D   1 1.00       0.000000000000
      0.8000000000D+00  0.1000000000D+01
 ****
     14 0
 S   6 1.00       0.000000000000
      0.3047524880D+04  0.1834737132D-02
      0.4573695180D+03  0.1403732281D-01
      0.1039486850D+03  0.6884262226D-01
      0.2921015530D+02  0.2321844432D+00
      0.9286662960D+01  0.4679413484D+00
      0.3163926960D+01  0.3623119853D+00
 SP   3 1.00       0.000000000000
      0.7868272350D+01 -0.1193324198D+00  0.6899906659D-01
      0.1881288540D+01 -0.1608541517D+00  0.3164239610D+00
      0.5442492580D+00  0.1143456438D+01  0.7443082909D+00
 SP   1 1.00       0.000000000000
      0.1687144782D+00  0.1000000000D+01  0.1000000000D+01
 D   1 1.00       0.000000000000
      0.8000000000D+00  0.1000000000D+01
 ****
     15 0
 S   6 1.00       0.000000000000
      0.3047524880D+04  0.1834737132D-02
      0.4573695180D+03  0.1403732281D-01
      0.1039486850D+03  0.6884262226D-01
      0.2921015530D+02  0.2321844432D+00
      0.9286662960D+01  0.4679413484D+00
      0.3163926960D+01  0.3623119853D+00
 SP   3 1.00       0.000000000000
      0.7868272350D+01 -0.1193324198D+00  0.6899906659D-01
      0.1881288540D+01 -0.1608541517D+00  0.3164239610D+00
      0.5442492580D+00  0.1143456438D+01  0.7443082909D+00
 SP   1 1.00       0.000000000000
      0.1687144782D+00  0.1000000000D+01  0.1000000000D+01
 D   1 1.00       0.000000000000
      0.8000000000D+00  0.1000000000D+01
 ****
     16 0
 S   6 1.00       0.000000000000
      0.7001713090D+04  0.1819616901D-02
      0.1051366090D+04  0.1391607961D-01
      0.2392856900D+03  0.6840532453D-01
      0.6739744530D+02  0.2331857601D+00
      0.2151995730D+02  0.4712674392D+00
      0.7403101300D+01  0.3566185462D+00
 SP   3 1.00       0.000000000000
      0.2084795280D+02 -0.1085069751D+00  0.7162872424D-01
      0.4808308340D+01 -0.1464516581D+00  0.3459121027D+00
      0.1344069860D+01  0.1128688581D+01  0.7224699564D+00
 SP   1 1.00       0.000000000000
      0.3581513930D+00  0.1000000000D+01  0.1000000000D+01
 D   1 1.00       0.000000000000
      0.8000000000D+00  0.1000000000D+01
 ****
     17 0
 S   6 1.00       0.000000000000
      0.3047524880D+04  0.1834737132D-02
      0.4573695180D+03  0.1403732281D-01
      0.1039486850D+03  0.6884262226D-01
      0.2921015530D+02  0.2321844432D+00
      0.9286662960D+01  0.4679413484D+00
      0.3163926960D+01  0.3623119853D+00
 SP   3 1.00       0.000000000000
      0.7868272350D+01 -0.1193324198D+00  0.6899906659D-01
      0.1881288540D+01 -0.1608541517D+00  0.3164239610D+00
      0.5442492580D+00  0.1143456438D+01  0.7443082909D+00
 SP   1 1.00       0.000000000000
      0.1687144782D+00  0.1000000000D+01  0.1000000000D+01
 D   1 1.00       0.000000000000
      0.8000000000D+00  0.1000000000D+01
 ****
     18 0
 S   6 1.00       0.000000000000
      0.3047524880D+04  0.1834737132D-02
      0.4573695180D+03  0.1403732281D-01
      0.1039486850D+03  0.6884262226D-01
      0.2921015530D+02  0.2321844432D+00
      0.9286662960D+01  0.4679413484D+00
      0.3163926960D+01  0.3623119853D+00
 SP   3 1.00       0.000000000000
      0.7868272350D+01 -0.1193324198D+00  0.6899906659D-01
      0.1881288540D+01 -0.1608541517D+00  0.3164239610D+00
      0.5442492580D+00  0.1143456438D+01  0.7443082909D+00
 SP   1 1.00       0.000000000000
      0.1687144782D+00  0.1000000000D+01  0.1000000000D+01
 D   1 1.00       0.000000000000
      0.8000000000D+00  0.1000000000D+01
 ****
     19 0
 S   6 1.00       0.000000000000
      0.3047524880D+04  0.1834737132D-02
      0.4573695180D+03  0.1403732281D-01
      0.1039486850D+03  0.6884262226D-01
      0.2921015530D+02  0.2321844432D+00
      0.9286662960D+01  0.4679413484D+00
      0.3163926960D+01  0.3623119853D+00
 SP   3 1.00       0.000000000000
      0.7868272350D+01 -0.1193324198D+00  0.6899906659D-01
      0.1881288540D+01 -0.1608541517D+00  0.3164239610D+00
      0.5442492580D+00  0.1143456438D+01  0.7443082909D+00
 SP   1 1.00       0.000000000000
      0.1687144782D+00  0.1000000000D+01  0.1000000000D+01
 D   1 1.00       0.000000000000
      0.8000000000D+00  0.1000000000D+01
 ****
     20 0
 S   6 1.00       0.000000000000
      0.3047524880D+04  0.1834737132D-02
      0.4573695180D+03  0.1403732281D-01
      0.1039486850D+03  0.6884262226D-01
      0.2921015530D+02  0.2321844432D+00
      0.9286662960D+01  0.4679413484D+00
      0.3163926960D+01  0.3623119853D+00
 SP   3 1.00       0.000000000000
      0.7868272350D+01 -0.1193324198D+00  0.6899906659D-01
      0.1881288540D+01 -0.1608541517D+00  0.3164239610D+00
      0.5442492580D+00  0.1143456438D+01  0.7443082909D+00
 SP   1 1.00       0.000000000000
      0.1687144782D+00  0.1000000000D+01  0.1000000000D+01
 D   1 1.00       0.000000000000
      0.8000000000D+00  0.1000000000D+01
 ****
     21 0
 S   6 1.00       0.000000000000
      0.5484671660D+04  0.1831074430D-02
      0.8252349460D+03  0.1395017220D-01
      0.1880469580D+03  0.6844507810D-01
      0.5296450000D+02  0.2327143360D+00
      0.1689757040D+02  0.4701928980D+00
      0.5799635340D+01  0.3585208530D+00
 SP   3 1.00       0.000000000000
      0.1553961625D+02 -0.1107775495D+00  0.7087426823D-01
      0.3599933586D+01 -0.1480262627D+00  0.3397528391D+00
      0.1013761750D+01  0.1130767015D+01  0.7271585773D+00
 SP   1 1.00       0.000000000000
      0.2700058226D+00  0.1000000000D+01  0.1000000000D+01
 D   1 1.00       0.000000000000
      0.8000000000D+00  0.1000000000D+01
 ****
     22 0
 S   6 1.00       0.000000000000
      0.3047524880D+04  0.1834737132D-02
      0.4573695180D+03  0.1403732281D-01
      0.1039486850D+03  0.6884262226D-01
      0.2921015530D+02  0.2321844432D+00
      0.9286662960D+01  0.4679413484D+00
      0.3163926960D+01  0.3623119853D+00
 SP   3 1.00       0.000000000000
      0.7868272350D+01 -0.1193324198D+00  0.6899906659D-01
      0.1881288540D+01 -0.1608541517D+00  0.3164239610D+00
      0.5442492580D+00  0.1143456438D+01  0.7443082909D+00
 SP   1 1.00       0.000000000000
      0.1687144782D+00  0.1000000000D+01  0.1000000000D+01
 D   1 1.00       0.000000000000
      0.8000000000D+00  0.1000000000D+01
 ****
     23 0
 S   6 1.00       0.000000000000
      0.3047524880D+04  0.1834737132D-02
      0.4573695180D+03  0.1403732281D-01
      0.1039486850D+03  0.6884262226D-01
      0.2921015530D+02  0.2321844432D+00
      0.9286662960D+01  0.4679413484D+00
      0.3163926960D+01  0.3623119853D+00
 SP   3 1.00       0.000000000000
      0.7868272350D+01 -0.1193324198D+00  0.6899906659D-01
      0.1881288540D+01 -0.1608541517D+00  0.3164239610D+00
      0.5442492580D+00  0.1143456438D+01  0.7443082909D+00
 SP   1 1.00       0.000000000000
      0.1687144782D+00  0.1000000000D+01  0.1000000000D+01
 D   1 1.00       0.000000000000
      0.8000000000D+00  0.1000000000D+01
 ****
     24 0
 S   6 1.00       0.000000000000
      0.3047524880D+04  0.1834737132D-02
      0.4573695180D+03  0.1403732281D-01
      0.1039486850D+03  0.6884262226D-01
      0.2921015530D+02  0.2321844432D+00
      0.9286662960D+01  0.4679413484D+00
      0.3163926960D+01  0.3623119853D+00
 SP   3 1.00       0.000000000000
      0.7868272350D+01 -0.1193324198D+00  0.6899906659D-01
      0.1881288540D+01 -0.1608541517D+00  0.3164239610D+00
      0.5442492580D+00  0.1143456438D+01  0.7443082909D+00
 SP   1 1.00       0.000000000000
      0.1687144782D+00  0.1000000000D+01  0.1000000000D+01
 D   1 1.00       0.000000000000
      0.8000000000D+00  0.1000000000D+01
 ****
     25 0
 S   6 1.00       0.000000000000
      0.3047524880D+04  0.1834737132D-02
      0.4573695180D+03  0.1403732281D-01
      0.1039486850D+03  0.6884262226D-01
      0.2921015530D+02  0.2321844432D+00
      0.9286662960D+01  0.4679413484D+00
      0.3163926960D+01  0.3623119853D+00
 SP   3 1.00       0.000000000000
      0.7868272350D+01 -0.1193324198D+00  0.6899906659D-01
      0.1881288540D+01 -0.1608541517D+00  0.3164239610D+00
      0.5442492580D+00  0.1143456438D+01  0.7443082909D+00
 SP   1 1.00       0.000000000000
      0.1687144782D+00  0.1000000000D+01  0.1000000000D+01
 D   1 1.00       0.000000000000
      0.8000000000D+00  0.1000000000D+01
 ****
     26 0
 S   6 1.00       0.000000000000
      0.3047524880D+04  0.1834737132D-02
      0.4573695180D+03  0.1403732281D-01
      0.1039486850D+03  0.6884262226D-01
      0.2921015530D+02  0.2321844432D+00
      0.9286662960D+01  0.4679413484D+00
      0.3163926960D+01  0.3623119853D+00
 SP   3 1.00       0.000000000000
      0.7868272350D+01 -0.1193324198D+00  0.6899906659D-01
      0.1881288540D+01 -0.1608541517D+00  0.3164239610D+00
      0.5442492580D+00  0.1143456438D+01  0.7443082909D+00
 SP   1 1.00       0.000000000000
      0.1687144782D+00  0.1000000000D+01  0.1000000000D+01
 D   1 1.00       0.000000000000
      0.8000000000D+00  0.1000000000D+01
 ****
     27 0
 S   6 1.00       0.000000000000
      0.3047524880D+04  0.1834737132D-02
      0.4573695180D+03  0.1403732281D-01
      0.1039486850D+03  0.6884262226D-01
      0.2921015530D+02  0.2321844432D+00
      0.9286662960D+01  0.4679413484D+00
      0.3163926960D+01  0.3623119853D+00
 SP   3 1.00       0.000000000000
      0.7868272350D+01 -0.1193324198D+00  0.6899906659D-01
      0.1881288540D+01 -0.1608541517D+00  0.3164239610D+00
      0.5442492580D+00  0.1143456438D+01  0.7443082909D+00
 SP   1 1.00       0.000000000000
      0.1687144782D+00  0.1000000000D+01  0.1000000000D+01
 D   1 1.00       0.000000000000
      0.8000000000D+00  0.1000000000D+01
 ****
     28 0
 S   6 1.00       0.000000000000
      0.3047524880D+04  0.1834737132D-02
      0.4573695180D+03  0.1403732281D-01
      0.1039486850D+03  0.6884262226D-01
      0.2921015530D+02  0.2321844432D+00
      0.9286662960D+01  0.4679413484D+00
      0.3163926960D+01  0.3623119853D+00
 SP   3 1.00       0.000000000000
      0.7868272350D+01 -0.1193324198D+00  0.6899906659D-01
      0.1881288540D+01 -0.1608541517D+00  0.3164239610D+00
      0.5442492580D+00  0.1143456438D+01  0.7443082909D+00
 SP   1 1.00       0.000000000000
      0.1687144782D+00  0.1000000000D+01  0.1000000000D+01
 D   1 1.00       0.000000000000
      0.8000000000D+00  0.1000000000D+01
 ****
     29 0
 S   6 1.00       0.000000000000
      0.3047524880D+04  0.1834737132D-02
      0.4573695180D+03  0.1403732281D-01
      0.1039486850D+03  0.6884262226D-01
      0.2921015530D+02  0.2321844432D+00
      0.9286662960D+01  0.4679413484D+00
      0.3163926960D+01  0.3623119853D+00
 SP   3 1.00       0.000000000000
      0.7868272350D+01 -0.1193324198D+00  0.6899906659D-01
      0.1881288540D+01 -0.1608541517D+00  0.3164239610D+00
      0.5442492580D+00  0.1143456438D+01  0.7443082909D+00
 SP   1 1.00       0.000000000000
      0.1687144782D+00  0.1000000000D+01  0.1000000000D+01
 D   1 1.00       0.000000000000
      0.8000000000D+00  0.1000000000D+01
 ****
     30 0
 S   3 1.00       0.000000000000
      0.1873113696D+02  0.3349460434D-01
      0.2825394365D+01  0.2347269535D+00
      0.6401216923D+00  0.8137573261D+00
 S   1 1.00       0.000000000000
      0.1612777588D+00  0.1000000000D+01
 ****
     31 0
 S   3 1.00       0.000000000000
      0.1873113696D+02  0.3349460434D-01
      0.2825394365D+01  0.2347269535D+00
      0.6401216923D+00  0.8137573261D+00
 S   1 1.00       0.000000000000
      0.1612777588D+00  0.1000000000D+01
 ****
     32 0
 S   3 1.00       0.000000000000
      0.1873113696D+02  0.3349460434D-01
      0.2825394365D+01  0.2347269535D+00
      0.6401216923D+00  0.8137573261D+00
 S   1 1.00       0.000000000000
      0.1612777588D+00  0.1000000000D+01
 ****
     33 0
 S   3 1.00       0.000000000000
      0.1873113696D+02  0.3349460434D-01
      0.2825394365D+01  0.2347269535D+00
      0.6401216923D+00  0.8137573261D+00
 S   1 1.00       0.000000000000
      0.1612777588D+00  0.1000000000D+01
 ****
     34 0
 S   3 1.00       0.000000000000
      0.1873113696D+02  0.3349460434D-01
      0.2825394365D+01  0.2347269535D+00
      0.6401216923D+00  0.8137573261D+00
 S   1 1.00       0.000000000000
      0.1612777588D+00  0.1000000000D+01
 ****
     35 0
 S   3 1.00       0.000000000000
      0.1873113696D+02  0.3349460434D-01
      0.2825394365D+01  0.2347269535D+00
      0.6401216923D+00  0.8137573261D+00
 S   1 1.00       0.000000000000
      0.1612777588D+00  0.1000000000D+01
 ****
     36 0
 S   3 1.00       0.000000000000
      0.1873113696D+02  0.3349460434D-01
      0.2825394365D+01  0.2347269535D+00
      0.6401216923D+00  0.8137573261D+00
 S   1 1.00       0.000000000000
      0.1612777588D+00  0.1000000000D+01
 ****
     37 0
 S   3 1.00       0.000000000000
      0.1873113696D+02  0.3349460434D-01
      0.2825394365D+01  0.2347269535D+00
      0.6401216923D+00  0.8137573261D+00
 S   1 1.00       0.000000000000
      0.1612777588D+00  0.1000000000D+01
 ****
     38 0
 S   3 1.00       0.000000000000
      0.1873113696D+02  0.3349460434D-01
      0.2825394365D+01  0.2347269535D+00
      0.6401216923D+00  0.8137573261D+00
 S   1 1.00       0.000000000000
      0.1612777588D+00  0.1000000000D+01
 ****
     39 0
 S   3 1.00       0.000000000000
      0.1873113696D+02  0.3349460434D-01
      0.2825394365D+01  0.2347269535D+00
      0.6401216923D+00  0.8137573261D+00
 S   1 1.00       0.000000000000
      0.1612777588D+00  0.1000000000D+01
 ****
     40 0
 S   3 1.00       0.000000000000
      0.1873113696D+02  0.3349460434D-01
      0.2825394365D+01  0.2347269535D+00
      0.6401216923D+00  0.8137573261D+00
 S   1 1.00       0.000000000000
      0.1612777588D+00  0.1000000000D+01
 ****
     41 0
 S   3 1.00       0.000000000000
      0.1873113696D+02  0.3349460434D-01
      0.2825394365D+01  0.2347269535D+00
      0.6401216923D+00  0.8137573261D+00
 S   1 1.00       0.000000000000
      0.1612777588D+00  0.1000000000D+01
 ****
     42 0
 S   3 1.00       0.000000000000
      0.1873113696D+02  0.3349460434D-01
      0.2825394365D+01  0.2347269535D+00
      0.6401216923D+00  0.8137573261D+00
 S   1 1.00       0.000000000000
      0.1612777588D+00  0.1000000000D+01
 ****
     43 0
 S   3 1.00       0.000000000000
      0.1873113696D+02  0.3349460434D-01
      0.2825394365D+01  0.2347269535D+00
      0.6401216923D+00  0.8137573261D+00
 S   1 1.00       0.000000000000
      0.1612777588D+00  0.1000000000D+01
 ****
     44 0
 S   3 1.00       0.000000000000
      0.1873113696D+02  0.3349460434D-01
      0.2825394365D+01  0.2347269535D+00
      0.6401216923D+00  0.8137573261D+00
 S   1 1.00       0.000000000000
      0.1612777588D+00  0.1000000000D+01
 ****
     45 0
 S   3 1.00       0.000000000000
      0.1873113696D+02  0.3349460434D-01
      0.2825394365D+01  0.2347269535D+00
      0.6401216923D+00  0.8137573261D+00
 S   1 1.00       0.000000000000
      0.1612777588D+00  0.1000000000D+01
 ****
     46 0
 S   3 1.00       0.000000000000
      0.1873113696D+02  0.3349460434D-01
      0.2825394365D+01  0.2347269535D+00
      0.6401216923D+00  0.8137573261D+00
 S   1 1.00       0.000000000000
      0.1612777588D+00  0.1000000000D+01
 ****
     47 0
 S   3 1.00       0.000000000000
      0.1873113696D+02  0.3349460434D-01
      0.2825394365D+01  0.2347269535D+00
      0.6401216923D+00  0.8137573261D+00
 S   1 1.00       0.000000000000
      0.1612777588D+00  0.1000000000D+01
 ****
     48 0
 S   3 1.00       0.000000000000
      0.1873113696D+02  0.3349460434D-01
      0.2825394365D+01  0.2347269535D+00
      0.6401216923D+00  0.8137573261D+00
 S   1 1.00       0.000000000000
      0.1612777588D+00  0.1000000000D+01
 ****
     49 0
 S   3 1.00       0.000000000000
      0.1873113696D+02  0.3349460434D-01
      0.2825394365D+01  0.2347269535D+00
      0.6401216923D+00  0.8137573261D+00
 S   1 1.00       0.000000000000
      0.1612777588D+00  0.1000000000D+01
 ****
     50 0
 S   3 1.00       0.000000000000
      0.1873113696D+02  0.3349460434D-01
      0.2825394365D+01  0.2347269535D+00
      0.6401216923D+00  0.8137573261D+00
 S   1 1.00       0.000000000000
      0.1612777588D+00  0.1000000000D+01
 ****
     51 0
 S   3 1.00       0.000000000000
      0.1873113696D+02  0.3349460434D-01
      0.2825394365D+01  0.2347269535D+00
      0.6401216923D+00  0.8137573261D+00
 S   1 1.00       0.000000000000
      0.1612777588D+00  0.1000000000D+01
 ****
     52 0
 S   3 1.00       0.000000000000
      0.1873113696D+02  0.3349460434D-01
      0.2825394365D+01  0.2347269535D+00
      0.6401216923D+00  0.8137573261D+00
 S   1 1.00       0.000000000000
      0.1612777588D+00  0.1000000000D+01
 ****
     53 0
 S   3 1.00       0.000000000000
      0.1873113696D+02  0.3349460434D-01
      0.2825394365D+01  0.2347269535D+00
      0.6401216923D+00  0.8137573261D+00
 S   1 1.00       0.000000000000
      0.1612777588D+00  0.1000000000D+01
 ****
     54 0
 S   3 1.00       0.000000000000
      0.1873113696D+02  0.3349460434D-01
      0.2825394365D+01  0.2347269535D+00
      0.6401216923D+00  0.8137573261D+00
 S   1 1.00       0.000000000000
      0.1612777588D+00  0.1000000000D+01
 ****

   485 basis functions,   912 primitive gaussians,   485 cartesian basis functions
   107 alpha electrons      107 beta electrons
       nuclear repulsion energy      2770.5127975707 Hartrees.
 IExCor=  402 DFT=T Ex+Corr=B3LYP ExCW=0 ScaHFX=  0.200000
 ScaDFX=  0.800000  0.720000  1.000000  0.810000 ScalE2=  1.000000  1.000000
 IRadAn=      5 IRanWt=     -1 IRanGd=            0 ICorTp=0 IEmpDi=  4
 NAtoms=   54 NActive=   54 NUniq=   54 SFac= 1.00D+00 NAtFMM=   60 NAOKFM=F Big=F
 Integral buffers will be    131072 words long.
 Regular integral format.
 Two-electron integral symmetry is turned off.
 Leave Link  301 at Sat Nov  5 12:06:29 2022, MaxMem=   402653184 cpu:               1.2 elap:               0.3
 (Enter /home/wykgroup/appl/g16/l302.exe)
 NPDir=0 NMtPBC=     1 NCelOv=     1 NCel=       1 NClECP=     1 NCelD=      1
         NCelK=      1 NCelE2=     1 NClLst=     1 CellRange=     0.0.
 One-electron integrals computed using PRISM.
 NBasis=   485 RedAO= T EigKep=  3.09D-04  NBF=   485
 NBsUse=   485 1.00D-06 EigRej= -1.00D+00 NBFU=   485
 Precomputing XC quadrature grid using
 IXCGrd= 4 IRadAn=           5 IRanWt=          -1 IRanGd=           0 AccXCQ= 0.00D+00.
 Generated NRdTot=       0 NPtTot=           0 NUsed=           0 NTot=          32
 NSgBfM=   470   470   470   470   470 MxSgAt=    54 MxSgA2=    54.
 Leave Link  302 at Sat Nov  5 12:06:37 2022, MaxMem=   402653184 cpu:              50.2 elap:               7.7
 (Enter /home/wykgroup/appl/g16/l303.exe)
 DipDrv:  MaxL=1.
 Leave Link  303 at Sat Nov  5 12:06:37 2022, MaxMem=   402653184 cpu:               2.6 elap:               0.5
 (Enter /home/wykgroup/appl/g16/l308.exe)
 Leave Link  308 at Sat Nov  5 12:06:38 2022, MaxMem=   402653184 cpu:               2.1 elap:               0.4
 (Enter /home/wykgroup/appl/g16/l401.exe)
 ExpMin= 1.61D-01 ExpMax= 7.00D+03 ExpMxC= 1.05D+03 IAcc=3 IRadAn=         5 AccDes= 0.00D+00
 Harris functional with IExCor=  402 and IRadAn=       5 diagonalized for initial guess.
 HarFok:  IExCor=  402 AccDes= 0.00D+00 IRadAn=         5 IDoV= 1 UseB2=F ITyADJ=14
 ICtDFT=  3500011 ScaDFX=  1.000000  1.000000  1.000000  1.000000
 FoFCou: FMM=F IPFlag=           0 FMFlag=      100000 FMFlg1=           0
         NFxFlg=           0 DoJE=T BraDBF=F KetDBF=T FulRan=T
         wScrn=  0.000000 ICntrl=       500 IOpCl=  0 I1Cent=   200000004 NGrid=           0
         NMat0=    1 NMatS0=      1 NMatT0=    0 NMatD0=    1 NMtDS0=    0 NMtDT0=    0
 Symmetry not used in FoFCou.
 Harris En= -1416.53958137429    
 JPrj=0 DoOrth=F DoCkMO=F.
 Leave Link  401 at Sat Nov  5 12:06:45 2022, MaxMem=   402653184 cpu:              48.8 elap:               7.5
 (Enter /home/wykgroup/appl/g16/l502.exe)
 Two-electron integral symmetry not used.
 Closed shell SCF:
 Using DIIS extrapolation, IDIIS=  1040.
 NGot=   402653184 LenX=   402171679 LenY=   401935969
 Requested convergence on RMS density matrix=1.00D-08 within  32 cycles.
 Requested convergence on MAX density matrix=1.00D-06.
 Requested convergence on             energy=1.00D-06.
 No special actions if energy rises.
 Fock matrices will be formed incrementally for  20 cycles.
 Integral accuracy reduced to 1.0D-05 until final iterations.

 Cycle   1  Pass 0  IDiag  1:
 FoFJK:  IHMeth= 1 ICntrl=       0 DoSepK=F KAlg= 0 I1Cent=           0 FoldK=F
 IRaf= 620000000 NMat=       1 IRICut=       1 DoRegI=T DoRafI=F ISym2E= 0 IDoP0=0 IntGTp=1.
 FoFCou: FMM=F IPFlag=           0 FMFlag=      100000 FMFlg1=           0
         NFxFlg=           0 DoJE=F BraDBF=F KetDBF=F FulRan=T
         wScrn=  0.000000 ICntrl=         0 IOpCl=  0 I1Cent=           0 NGrid=           0
         NMat0=    1 NMatS0=      1 NMatT0=    0 NMatD0=    1 NMtDS0=    0 NMtDT0=    0
 Symmetry not used in FoFCou.
 E= -1415.91661917406    
 DIIS: error= 2.21D-02 at cycle   1 NSaved=   1.
 NSaved= 1 IEnMin= 1 EnMin= -1415.91661917406     IErMin= 1 ErrMin= 2.21D-02
 ErrMax= 2.21D-02  0.00D+00 EMaxC= 1.00D-01 BMatC= 5.97D-01 BMatP= 5.97D-01
 IDIUse=3 WtCom= 7.79D-01 WtEn= 2.21D-01
 Coeff-Com:  0.100D+01
 Coeff-En:   0.100D+01
 Coeff:      0.100D+01
 Gap=     0.194 Goal=   None    Shift=    0.000
 GapD=    0.194 DampG=1.000 DampE=0.500 DampFc=0.5000 IDamp=-1.
 Damping current iteration by 5.00D-01
 RMSDP=3.57D-03 MaxDP=1.40D-01              OVMax= 2.45D-01

 Cycle   2  Pass 0  IDiag  1:
 RMSU=  1.76D-03    CP:  9.83D-01
 E= -1416.18351924413     Delta-E=       -0.266900070070 Rises=F Damp=T
 DIIS: error= 6.70D-03 at cycle   2 NSaved=   2.
 NSaved= 2 IEnMin= 2 EnMin= -1416.18351924413     IErMin= 2 ErrMin= 6.70D-03
 ErrMax= 6.70D-03  0.00D+00 EMaxC= 1.00D-01 BMatC= 4.54D-02 BMatP= 5.97D-01
 IDIUse=3 WtCom= 9.33D-01 WtEn= 6.70D-02
 Coeff-Com:  0.596D-01 0.940D+00
 Coeff-En:   0.118D+00 0.882D+00
 Coeff:      0.635D-01 0.936D+00
 Gap=     0.214 Goal=   None    Shift=    0.000
 RMSDP=1.13D-03 MaxDP=4.84D-02 DE=-2.67D-01 OVMax= 2.17D-01

 Cycle   3  Pass 0  IDiag  1:
 RMSU=  1.08D-03    CP:  9.77D-01  8.08D-01
 E= -1416.47821803155     Delta-E=       -0.294698787424 Rises=F Damp=F
 DIIS: error= 5.36D-03 at cycle   3 NSaved=   3.
 NSaved= 3 IEnMin= 3 EnMin= -1416.47821803155     IErMin= 3 ErrMin= 5.36D-03
 ErrMax= 5.36D-03  0.00D+00 EMaxC= 1.00D-01 BMatC= 4.97D-02 BMatP= 4.54D-02
 IDIUse=3 WtCom= 9.46D-01 WtEn= 5.36D-02
 Coeff-Com: -0.245D-01 0.522D+00 0.503D+00
 Coeff-En:   0.000D+00 0.000D+00 0.100D+01
 Coeff:     -0.232D-01 0.494D+00 0.529D+00
 Gap=     0.155 Goal=   None    Shift=    0.000
 RMSDP=7.73D-04 MaxDP=3.01D-02 DE=-2.95D-01 OVMax= 1.11D-01

 Cycle   4  Pass 0  IDiag  1:
 RMSU=  4.82D-04    CP:  9.78D-01  9.27D-01  4.73D-01
 E= -1416.51993152510     Delta-E=       -0.041713493551 Rises=F Damp=F
 DIIS: error= 2.48D-03 at cycle   4 NSaved=   4.
 NSaved= 4 IEnMin= 4 EnMin= -1416.51993152510     IErMin= 4 ErrMin= 2.48D-03
 ErrMax= 2.48D-03  0.00D+00 EMaxC= 1.00D-01 BMatC= 1.14D-02 BMatP= 4.54D-02
 IDIUse=3 WtCom= 9.75D-01 WtEn= 2.48D-02
 Coeff-Com: -0.179D-01 0.130D+00 0.338D+00 0.550D+00
 Coeff-En:   0.000D+00 0.000D+00 0.215D+00 0.785D+00
 Coeff:     -0.175D-01 0.127D+00 0.335D+00 0.556D+00
 Gap=     0.150 Goal=   None    Shift=    0.000
 RMSDP=2.85D-04 MaxDP=1.36D-02 DE=-4.17D-02 OVMax= 4.32D-02

 Cycle   5  Pass 0  IDiag  1:
 RMSU=  1.38D-04    CP:  9.77D-01  9.12D-01  5.98D-01  5.68D-01
 E= -1416.53079363733     Delta-E=       -0.010862112224 Rises=F Damp=F
 DIIS: error= 7.86D-04 at cycle   5 NSaved=   5.
 NSaved= 5 IEnMin= 5 EnMin= -1416.53079363733     IErMin= 5 ErrMin= 7.86D-04
 ErrMax= 7.86D-04  0.00D+00 EMaxC= 1.00D-01 BMatC= 1.14D-03 BMatP= 1.14D-02
 IDIUse=3 WtCom= 9.92D-01 WtEn= 7.86D-03
 Coeff-Com: -0.804D-02 0.346D-01 0.163D+00 0.338D+00 0.472D+00
 Coeff-En:   0.000D+00 0.000D+00 0.000D+00 0.107D-01 0.989D+00
 Coeff:     -0.797D-02 0.343D-01 0.161D+00 0.336D+00 0.476D+00
 Gap=     0.150 Goal=   None    Shift=    0.000
 RMSDP=9.44D-05 MaxDP=4.02D-03 DE=-1.09D-02 OVMax= 1.73D-02

 Cycle   6  Pass 0  IDiag  1:
 RMSU=  4.72D-05    CP:  9.77D-01  9.10D-01  6.10D-01  6.26D-01  4.53D-01
 E= -1416.53175558499     Delta-E=       -0.000961947660 Rises=F Damp=F
 DIIS: error= 3.18D-04 at cycle   6 NSaved=   6.
 NSaved= 6 IEnMin= 6 EnMin= -1416.53175558499     IErMin= 6 ErrMin= 3.18D-04
 ErrMax= 3.18D-04  0.00D+00 EMaxC= 1.00D-01 BMatC= 1.38D-04 BMatP= 1.14D-03
 IDIUse=3 WtCom= 9.97D-01 WtEn= 3.18D-03
 Coeff-Com: -0.287D-02 0.642D-02 0.635D-01 0.149D+00 0.302D+00 0.482D+00
 Coeff-En:   0.000D+00 0.000D+00 0.000D+00 0.000D+00 0.105D+00 0.895D+00
 Coeff:     -0.286D-02 0.640D-02 0.633D-01 0.148D+00 0.302D+00 0.483D+00
 Gap=     0.150 Goal=   None    Shift=    0.000
 RMSDP=3.25D-05 MaxDP=1.62D-03 DE=-9.62D-04 OVMax= 5.92D-03

 Cycle   7  Pass 0  IDiag  1:
 RMSU=  1.69D-05    CP:  9.77D-01  9.08D-01  6.10D-01  6.18D-01  5.53D-01
                    CP:  4.98D-01
 E= -1416.53189205490     Delta-E=       -0.000136469911 Rises=F Damp=F
 DIIS: error= 7.63D-05 at cycle   7 NSaved=   7.
 NSaved= 7 IEnMin= 7 EnMin= -1416.53189205490     IErMin= 7 ErrMin= 7.63D-05
 ErrMax= 7.63D-05  0.00D+00 EMaxC= 1.00D-01 BMatC= 1.05D-05 BMatP= 1.38D-04
 IDIUse=1 WtCom= 1.00D+00 WtEn= 0.00D+00
 Coeff-Com: -0.715D-03-0.745D-04 0.184D-01 0.480D-01 0.120D+00 0.279D+00
 Coeff-Com:  0.536D+00
 Coeff:     -0.715D-03-0.745D-04 0.184D-01 0.480D-01 0.120D+00 0.279D+00
 Coeff:      0.536D+00
 Gap=     0.150 Goal=   None    Shift=    0.000
 RMSDP=9.33D-06 MaxDP=4.35D-04 DE=-1.36D-04 OVMax= 1.10D-03

 Initial convergence to 1.0D-05 achieved.  Increase integral accuracy.
 Cycle   8  Pass 1  IDiag  1:
 E= -1416.53191203869     Delta-E=       -0.000019983789 Rises=F Damp=F
 DIIS: error= 5.60D-05 at cycle   1 NSaved=   1.
 NSaved= 1 IEnMin= 1 EnMin= -1416.53191203869     IErMin= 1 ErrMin= 5.60D-05
 ErrMax= 5.60D-05  0.00D+00 EMaxC= 1.00D-01 BMatC= 2.33D-06 BMatP= 2.33D-06
 IDIUse=1 WtCom= 1.00D+00 WtEn= 0.00D+00
 Coeff-Com:  0.100D+01
 Coeff:      0.100D+01
 Gap=     0.150 Goal=   None    Shift=    0.000
 RMSDP=9.33D-06 MaxDP=4.35D-04 DE=-2.00D-05 OVMax= 5.56D-04

 Cycle   9  Pass 1  IDiag  1:
 RMSU=  3.30D-05    CP:  1.00D+00
 E= -1416.53191099694     Delta-E=        0.000001041749 Rises=F Damp=F
 DIIS: error= 3.81D-05 at cycle   2 NSaved=   2.
 NSaved= 2 IEnMin= 1 EnMin= -1416.53191203869     IErMin= 2 ErrMin= 3.81D-05
 ErrMax= 3.81D-05  0.00D+00 EMaxC= 1.00D-01 BMatC= 3.46D-06 BMatP= 2.33D-06
 IDIUse=1 WtCom= 1.00D+00 WtEn= 0.00D+00
 Coeff-Com:  0.559D+00 0.441D+00
 Coeff:      0.559D+00 0.441D+00
 Gap=     0.150 Goal=   None    Shift=    0.000
 RMSDP=4.82D-06 MaxDP=2.73D-04 DE= 1.04D-06 OVMax= 4.95D-04

 Cycle  10  Pass 1  IDiag  1:
 RMSU=  4.77D-06    CP:  1.00D+00  9.81D-01
 E= -1416.53191364426     Delta-E=       -0.000002647320 Rises=F Damp=F
 DIIS: error= 1.42D-05 at cycle   3 NSaved=   3.
 NSaved= 3 IEnMin= 3 EnMin= -1416.53191364426     IErMin= 3 ErrMin= 1.42D-05
 ErrMax= 1.42D-05  0.00D+00 EMaxC= 1.00D-01 BMatC= 3.45D-07 BMatP= 2.33D-06
 IDIUse=1 WtCom= 1.00D+00 WtEn= 0.00D+00
 Coeff-Com:  0.575D-01 0.241D+00 0.702D+00
 Coeff:      0.575D-01 0.241D+00 0.702D+00
 Gap=     0.150 Goal=   None    Shift=    0.000
 RMSDP=1.82D-06 MaxDP=8.49D-05 DE=-2.65D-06 OVMax= 2.35D-04

 Cycle  11  Pass 1  IDiag  1:
 RMSU=  1.09D-06    CP:  1.00D+00  9.93D-01  7.08D-01
 E= -1416.53191388753     Delta-E=       -0.000000243270 Rises=F Damp=F
 DIIS: error= 7.70D-06 at cycle   4 NSaved=   4.
 NSaved= 4 IEnMin= 4 EnMin= -1416.53191388753     IErMin= 4 ErrMin= 7.70D-06
 ErrMax= 7.70D-06  0.00D+00 EMaxC= 1.00D-01 BMatC= 9.34D-08 BMatP= 3.45D-07
 IDIUse=1 WtCom= 1.00D+00 WtEn= 0.00D+00
 Coeff-Com:  0.139D-02 0.133D+00 0.479D+00 0.387D+00
 Coeff:      0.139D-02 0.133D+00 0.479D+00 0.387D+00
 Gap=     0.150 Goal=   None    Shift=    0.000
 RMSDP=7.48D-07 MaxDP=3.03D-05 DE=-2.43D-07 OVMax= 1.21D-04

 Cycle  12  Pass 1  IDiag  1:
 RMSU=  2.24D-07    CP:  1.00D+00  9.93D-01  7.63D-01  3.92D-01
 E= -1416.53191398123     Delta-E=       -0.000000093702 Rises=F Damp=F
 DIIS: error= 1.19D-06 at cycle   5 NSaved=   5.
 NSaved= 5 IEnMin= 5 EnMin= -1416.53191398123     IErMin= 5 ErrMin= 1.19D-06
 ErrMax= 1.19D-06  0.00D+00 EMaxC= 1.00D-01 BMatC= 2.84D-09 BMatP= 9.34D-08
 IDIUse=1 WtCom= 1.00D+00 WtEn= 0.00D+00
 Coeff-Com: -0.195D-02 0.699D-01 0.263D+00 0.237D+00 0.432D+00
 Coeff:     -0.195D-02 0.699D-01 0.263D+00 0.237D+00 0.432D+00
 Gap=     0.150 Goal=   None    Shift=    0.000
 RMSDP=1.28D-07 MaxDP=7.26D-06 DE=-9.37D-08 OVMax= 2.05D-05

 Cycle  13  Pass 1  IDiag  1:
 RMSU=  6.00D-08    CP:  1.00D+00  9.93D-01  7.61D-01  4.19D-01  5.12D-01
 E= -1416.53191398394     Delta-E=       -0.000000002716 Rises=F Damp=F
 DIIS: error= 2.86D-07 at cycle   6 NSaved=   6.
 NSaved= 6 IEnMin= 6 EnMin= -1416.53191398394     IErMin= 6 ErrMin= 2.86D-07
 ErrMax= 2.86D-07  0.00D+00 EMaxC= 1.00D-01 BMatC= 1.07D-10 BMatP= 2.84D-09
 IDIUse=1 WtCom= 1.00D+00 WtEn= 0.00D+00
 Coeff-Com: -0.113D-02 0.336D-01 0.128D+00 0.116D+00 0.247D+00 0.477D+00
 Coeff:     -0.113D-02 0.336D-01 0.128D+00 0.116D+00 0.247D+00 0.477D+00
 Gap=     0.150 Goal=   None    Shift=    0.000
 RMSDP=3.19D-08 MaxDP=1.48D-06 DE=-2.72D-09 OVMax= 5.61D-06

 Cycle  14  Pass 1  IDiag  1:
 RMSU=  2.45D-08    CP:  1.00D+00  9.93D-01  7.61D-01  4.15D-01  5.34D-01
                    CP:  6.78D-01
 E= -1416.53191398404     Delta-E=       -0.000000000094 Rises=F Damp=F
 DIIS: error= 9.43D-08 at cycle   7 NSaved=   7.
 NSaved= 7 IEnMin= 7 EnMin= -1416.53191398404     IErMin= 7 ErrMin= 9.43D-08
 ErrMax= 9.43D-08  0.00D+00 EMaxC= 1.00D-01 BMatC= 1.06D-11 BMatP= 1.07D-10
 IDIUse=1 WtCom= 1.00D+00 WtEn= 0.00D+00
 Coeff-Com: -0.320D-03 0.762D-02 0.296D-01 0.274D-01 0.655D-01 0.268D+00
 Coeff-Com:  0.602D+00
 Coeff:     -0.320D-03 0.762D-02 0.296D-01 0.274D-01 0.655D-01 0.268D+00
 Coeff:      0.602D+00
 Gap=     0.150 Goal=   None    Shift=    0.000
 RMSDP=8.68D-09 MaxDP=4.20D-07 DE=-9.37D-11 OVMax= 1.26D-06

 SCF Done:  E(RB3LYP) =  -1416.53191398     A.U. after   14 cycles
            NFock= 14  Conv=0.87D-08     -V/T= 2.0089
 KE= 1.404040554080D+03 PE=-8.849689679438D+03 EE= 3.258604413803D+03
 Leave Link  502 at Sat Nov  5 12:09:19 2022, MaxMem=   402653184 cpu:            1053.2 elap:             154.2
 (Enter /home/wykgroup/appl/g16/l508.exe)
 QCSCF skips out because SCF is already converged.
 Leave Link  508 at Sat Nov  5 12:09:20 2022, MaxMem=   402653184 cpu:               0.5 elap:               0.1
 (Enter /home/wykgroup/appl/g16/l801.exe)
 DoSCS=F DFT=T ScalE2(SS,OS)=  1.000000  1.000000
 ExpMin= 1.61D-01 ExpMax= 7.00D+03 ExpMxC= 1.05D+03 IAcc=3 IRadAn=         5 AccDes= 0.00D+00
 HarFok:  IExCor=  205 AccDes= 0.00D+00 IRadAn=         5 IDoV=-2 UseB2=F ITyADJ=14
 ICtDFT= 12500011 ScaDFX=  1.000000  1.000000  1.000000  1.000000
 GSVD:  LWork=       -1073 too small for GESVD, short by        4640 words or        4640 for optimal perf.
 Largest valence mixing into a core orbital is  5.88D-05
 Largest core mixing into a valence orbital is  1.20D-05
 Range of M.O.s used for correlation:    30   485
 NBasis=   485 NAE=   107 NBE=   107 NFC=    29 NFV=     0
 NROrb=    456 NOA=    78 NOB=    78 NVA=   378 NVB=   378

 **** Warning!!: The largest alpha MO coefficient is  0.12376653D+02

 Leave Link  801 at Sat Nov  5 12:09:24 2022, MaxMem=   402653184 cpu:              29.0 elap:               4.5
 (Enter /home/wykgroup/appl/g16/l914.exe)
 RHF ground state
 Two-electron integral symmetry not used.
 MDV=   402653184 DFT=T DoStab=F Mixed=T DoRPA=T DoScal=F NonHer=T
 Making orbital integer symmetry assigments:
    16 initial guesses have been made.
 Convergence on wavefunction:    0.001000000000000
 Davidson Disk Diagonalization:  ConvIn= 1.00D-03 SkipCon=T Conv= 1.00D-03.
 Max sub-space:  2000 roots to seek:    16 dimension of matrix:        58968
 Iteration     1 Dimension    16 NMult     0 NNew     16
 CISAX will form    16 AO SS matrices at one time.
 NMat=    16 NSing=     8 JSym2X= 0.
 FoFJK:  IHMeth= 1 ICntrl=       0 DoSepK=F KAlg= 0 I1Cent=           0 FoldK=F
 IRaf= 620000000 NMat=      32 IRICut=       1 DoRegI=T DoRafI=F ISym2E= 0 IDoP0=0 IntGTp=1.
 FoFCou: FMM=F IPFlag=           0 FMFlag=      100000 FMFlg1=           0
         NFxFlg=           0 DoJE=F BraDBF=F KetDBF=F FulRan=T
         wScrn=  0.000000 ICntrl=         0 IOpCl=  0 I1Cent=           0 NGrid=           0
         NMat0=   32 NMatS0=      8 NMatT0=    8 NMatD0=   32 NMtDS0=    0 NMtDT0=    0
 Symmetry not used in FoFCou.
 New state      1 was old state      2
 New state      2 was old state      4
 New state      4 was old state      6
 New state      5 was old state     14
 New state      6 was old state      8
 New state      8 was old state      5
 Excitation Energies [eV] at current iteration:
 Root      1 :     2.466656303914402
 Root      2 :     4.061677199887849
 Root      3 :     4.128229153650483
 Root      4 :     4.337363310876570
 Root      5 :     4.526399674507728
 Root      6 :     4.618325233451646
 Root      7 :     4.657306587208979
 Root      8 :     4.706167959707450
 Root      9 :     4.833493293949429
 Root     10 :     4.919584779671974
 Root     11 :     4.945053430665983
 Root     12 :     4.951698553340096
 Root     13 :     4.958730644318703
 Root     14 :     5.023193181008981
 Root     15 :     5.184895333424124
 Root     16 :     5.479896669477933
 Vector   4 SDiff=6.71D+00 TDiff=1.23D+00 assumed to be triplet.
 Vector   8 SDiff=6.85D+00 TDiff=1.10D+00 assumed to be triplet.
 Iteration     2 Dimension    24 NMult    16 NNew      8
 CISAX will form     8 AO SS matrices at one time.
 NMat=     8 NSing=     2 JSym2X= 0.
 Root      1 not converged, maximum delta is    0.155894266426710
 Root      2 not converged, maximum delta is    0.251503527690460
 Root      3 not converged, maximum delta is    0.095797965072960
 New state      4 was old state      8
 Root      4 not converged, maximum delta is    0.249694248337192
 Excitation Energies [eV] at current iteration:
 Root      1 :     2.017914528128978   Change is   -0.448741775785423
 Root      2 :     3.810311917189324   Change is   -0.251365282698525
 Root      3 :     3.942060392397198   Change is   -0.186168761253285
 Root      4 :     4.614918561667047   Change is   -0.091249398040403
 Iteration     3 Dimension    32 NMult    24 NNew      8
 CISAX will form     8 AO SS matrices at one time.
 NMat=     8 NSing=     4 JSym2X= 0.
 Root      1 not converged, maximum delta is    0.008728548092646
 Root      2 not converged, maximum delta is    0.196590055882873
 Root      3 not converged, maximum delta is    0.071554039827212
 Root      4 not converged, maximum delta is    0.097785536046946
 Excitation Energies [eV] at current iteration:
 Root      1 :     2.001379477174051   Change is   -0.016535050954927
 Root      2 :     3.663561376768024   Change is   -0.146750540421300
 Root      3 :     3.889363694705932   Change is   -0.052696697691266
 Root      4 :     4.486161239325999   Change is   -0.128757322341048
 Iteration     4 Dimension    40 NMult    32 NNew      8
 CISAX will form     8 AO SS matrices at one time.
 NMat=     8 NSing=     4 JSym2X= 0.
 Root      1 not converged, maximum delta is    0.002784590297098
 Root      2 not converged, maximum delta is    0.118303248711878
 Root      3 not converged, maximum delta is    0.033028351976109
 Root      4 not converged, maximum delta is    0.054573748075124
 Excitation Energies [eV] at current iteration:
 Root      1 :     2.000670969988107   Change is   -0.000708507185945
 Root      2 :     3.583134407239926   Change is   -0.080426969528098
 Root      3 :     3.874709129900427   Change is   -0.014654564805505
 Root      4 :     4.468375332353191   Change is   -0.017785906972808
 Iteration     5 Dimension    48 NMult    40 NNew      8
 CISAX will form     8 AO SS matrices at one time.
 NMat=     8 NSing=     4 JSym2X= 0.
 Root      1 has converged.
 Root      2 not converged, maximum delta is    0.027354110461441
 Root      3 not converged, maximum delta is    0.004506990683196
 Root      4 not converged, maximum delta is    0.022861701311097
 Excitation Energies [eV] at current iteration:
 Root      1 :     2.000635972387580   Change is   -0.000034997600527
 Root      2 :     3.567878953038716   Change is   -0.015255454201210
 Root      3 :     3.872644788020490   Change is   -0.002064341879938
 Root      4 :     4.464640472469944   Change is   -0.003734859883247
 Iteration     6 Dimension    54 NMult    48 NNew      6
 CISAX will form     6 AO SS matrices at one time.
 NMat=     6 NSing=     4 JSym2X= 0.
 Root      1 has converged.
 Root      2 not converged, maximum delta is    0.008685951347645
 Root      3 not converged, maximum delta is    0.001235698380333
 Root      4 not converged, maximum delta is    0.003438813246654
 Excitation Energies [eV] at current iteration:
 Root      1 :     2.000635891383279   Change is   -0.000000081004301
 Root      2 :     3.566555928466088   Change is   -0.001323024572628
 Root      3 :     3.872355037438219   Change is   -0.000289750582270
 Root      4 :     4.464077933163672   Change is   -0.000562539306272
 Iteration     7 Dimension    60 NMult    54 NNew      6
 CISAX will form     6 AO SS matrices at one time.
 NMat=     6 NSing=     4 JSym2X= 0.
 Root      1 has converged.
 Root      2 not converged, maximum delta is    0.016104871856386
 Root      3 has converged.
 Root      4 not converged, maximum delta is    0.001244717833229
 Excitation Energies [eV] at current iteration:
 Root      1 :     2.000635352457026   Change is   -0.000000538926252
 Root      2 :     3.566153541205703   Change is   -0.000402387260385
 Root      3 :     3.872316850451210   Change is   -0.000038186987009
 Root      4 :     4.463969044702221   Change is   -0.000108888461451
 Iteration     8 Dimension    64 NMult    60 NNew      4
 CISAX will form     4 AO SS matrices at one time.
 NMat=     4 NSing=     2 JSym2X= 0.
 Root      1 has converged.
 Root      2 not converged, maximum delta is    0.015373507437304
 Root      3 has converged.
 Root      4 has converged.
 Excitation Energies [eV] at current iteration:
 Root      1 :     2.000634994146710   Change is   -0.000000358310317
 Root      2 :     3.565907038524599   Change is   -0.000246502681104
 Root      3 :     3.872315160071922   Change is   -0.000001690379289
 Root      4 :     4.463949923773842   Change is   -0.000019120928379
 Iteration     9 Dimension    66 NMult    64 NNew      2
 CISAX will form     2 AO SS matrices at one time.
 NMat=     2 NSing=     0 JSym2X= 0.
 Root      1 has converged.
 Root      2 not converged, maximum delta is    0.004853565918939
 Root      3 has converged.
 Root      4 has converged.
 Excitation Energies [eV] at current iteration:
 Root      1 :     2.000634843463777   Change is   -0.000000150682933
 Root      2 :     3.565847712172927   Change is   -0.000059326351673
 Root      3 :     3.872315160072006   Change is    0.000000000000085
 Root      4 :     4.463949923773898   Change is    0.000000000000056
 Iteration    10 Dimension    68 NMult    66 NNew      2
 CISAX will form     2 AO SS matrices at one time.
 NMat=     2 NSing=     0 JSym2X= 0.
 Root      1 has converged.
 Root      2 has converged.
 Root      3 has converged.
 Root      4 has converged.
 Excitation Energies [eV] at current iteration:
 Root      1 :     2.000634820616024   Change is   -0.000000022847753
 Root      2 :     3.565841100679836   Change is   -0.000006611493090
 Root      3 :     3.872315160072006   Change is    0.000000000000000
 Root      4 :     4.463949923773842   Change is   -0.000000000000056
 Convergence achieved on expansion vectors.
 ***********************************************************************
 Excited states from <AA,BB:AA,BB> singles matrix:
 ***********************************************************************
 
 1PDM for each excited state written to RWF  633
 Ground to excited state transition densities written to RWF  633
 Ground to excited state transition electric dipole moments (Au):
       state          X           Y           Z        Dip. S.      Osc.
         1         0.0000     -0.0000     -0.0000      0.0000      0.0000
         2         0.0000      0.0000      0.0000      0.0000      0.0000
         3        -1.6648     -0.0229     -0.3033      2.8641      0.2717
         4         0.9266      0.2169      0.3721      1.0441      0.1142
 Ground to excited state transition velocity dipole moments (Au):
       state          X           Y           Z        Dip. S.      Osc.
         1        -0.0000      0.0000      0.0000      0.0000      0.0000
         2         0.0000      0.0000      0.0000      0.0000      0.0000
         3         0.2315      0.0056      0.0396      0.0552      0.2586
         4        -0.1463     -0.0374     -0.0626      0.0267      0.1086
 Ground to excited state transition magnetic dipole moments (Au):
       state          X           Y           Z
         1         0.0000      0.0000     -0.0000
         2         0.0000     -0.0000     -0.0000
         3         0.0798      0.2991     -0.6270
         4        -0.1324     -0.1947      0.4784
 Ground to excited state transition velocity quadrupole moments (Au):
       state          XX          YY          ZZ          XY          XZ          YZ
         1         0.0000      0.0000      0.0000     -0.0000     -0.0000      0.0000
         2        -0.0000      0.0000      0.0000      0.0000      0.0000      0.0000
         3        -0.2386      0.1669      0.2675      0.6313      0.4733      0.2368
         4         0.4825     -0.2525     -0.4128     -0.5634     -0.4032     -0.4003
 <0|del|b> * <b|rxdel|0> + <0|del|b> * <b|delr+rdel|0>
 Rotatory Strengths (R) in cgs (10**-40 erg-esu-cm/Gauss)
       state          XX          YY          ZZ    R(velocity)    E-M Angle
         1         0.0000      0.0000      0.0000      0.0000       90.00
         2        -0.0000      0.0000     -0.0000      0.0000       90.00
         3        -2.0069     58.4051    -79.4837     -7.6952       91.62
         4        -5.3386     27.3742    -36.2602     -4.7415       92.17
 1/2[<0|r|b>*<b|rxdel|0> + (<0|rxdel|b>*<b|r|0>)*]
 Rotatory Strengths (R) in cgs (10**-40 erg-esu-cm/Gauss)
       state          XX          YY          ZZ     R(length)
         1        -0.0000      0.0000     -0.0000      0.0000
         2        -0.0000      0.0000      0.0000     -0.0000
         3        94.0012      4.8446   -134.4788    -11.8777
         4        86.7604     29.8634   -125.8756     -3.0839
  1/2[<0|del|b>*<b|r|0> + (<0|r|b>*<b|del|0>)*] (Au)
       state          X           Y           Z        Dip. S.   Osc.(frdel)
         1        -0.0000     -0.0000     -0.0000      0.0000      0.0000
         2         0.0000      0.0000      0.0000     -0.0000     -0.0000
         3        -0.3854     -0.0001     -0.0120      0.3976      0.2650
         4        -0.1356     -0.0081     -0.0233      0.1670      0.1113

 Excitation energies and oscillator strengths:
 
 Excited state symmetry could not be determined.
 Excited State   1:      Triplet-?Sym    2.0006 eV  619.72 nm  f=0.0000  <S**2>=2.000
     102 ->112         0.10581
     106 ->108        -0.22443
     107 ->108         0.66271
     107 <-108         0.13810
 This state for optimization and/or second-order correction.
 Total Energy, E(TD-HF/TD-DFT) =  -1416.45839201    
 Copying the excited state density for this state as the 1-particle RhoCI density.
 
 Excited state symmetry could not be determined.
 Excited State   2:      Triplet-?Sym    3.5658 eV  347.70 nm  f=0.0000  <S**2>=2.000
     103 ->109        -0.31113
     106 ->108        -0.26389
     106 ->109         0.17558
     106 ->111         0.34460
     107 ->111         0.34457
 
 Excited state symmetry could not be determined.
 Excited State   3:      Singlet-?Sym    3.8723 eV  320.18 nm  f=0.2717  <S**2>=0.000
     106 ->108         0.28607
     107 ->108         0.64037
 
 Excited state symmetry could not be determined.
 Excited State   4:      Singlet-?Sym    4.4639 eV  277.75 nm  f=0.1142  <S**2>=0.000
     106 ->108         0.50632
     107 ->108        -0.18162
     107 ->109         0.43725
 SavETr:  write IOETrn=   770 NScale= 10 NData=  16 NLR=1 NState=    4 LETran=      82.
 Leave Link  914 at Sat Nov  5 12:25:38 2022, MaxMem=   402653184 cpu:            6664.1 elap:             973.5
 (Enter /home/wykgroup/appl/g16/l601.exe)
 Copying SCF densities to generalized density rwf, IOpCl= 0 IROHF=0.

 **********************************************************************

            Population analysis using the SCF Density.

 **********************************************************************

 Alpha  occ. eigenvalues --  -24.72258 -24.71417 -24.70616 -19.20637 -19.19067
 Alpha  occ. eigenvalues --  -19.13968 -10.28615 -10.28112 -10.27462 -10.26676
 Alpha  occ. eigenvalues --  -10.26175 -10.26107 -10.25968 -10.23528 -10.22351
 Alpha  occ. eigenvalues --  -10.21706 -10.21531 -10.21240 -10.20741 -10.20569
 Alpha  occ. eigenvalues --  -10.20105 -10.19862 -10.18959 -10.18899 -10.17725
 Alpha  occ. eigenvalues --  -10.17570 -10.16897 -10.16819 -10.16412  -1.23757
 Alpha  occ. eigenvalues --   -1.22253  -1.21612  -1.09610  -1.07776  -1.02497
 Alpha  occ. eigenvalues --   -0.87971  -0.83690  -0.82142  -0.81009  -0.79766
 Alpha  occ. eigenvalues --   -0.77965  -0.76401  -0.73740  -0.72547  -0.72025
 Alpha  occ. eigenvalues --   -0.70643  -0.69419  -0.67261  -0.63999  -0.63488
 Alpha  occ. eigenvalues --   -0.62316  -0.61712  -0.59604  -0.58359  -0.57447
 Alpha  occ. eigenvalues --   -0.56661  -0.55589  -0.53895  -0.53008  -0.52506
 Alpha  occ. eigenvalues --   -0.51527  -0.50703  -0.49985  -0.49375  -0.48968
 Alpha  occ. eigenvalues --   -0.48585  -0.48301  -0.47096  -0.46310  -0.45964
 Alpha  occ. eigenvalues --   -0.45881  -0.44982  -0.44740  -0.44260  -0.43392
 Alpha  occ. eigenvalues --   -0.42936  -0.42556  -0.42431  -0.41814  -0.41193
 Alpha  occ. eigenvalues --   -0.40508  -0.40373  -0.39754  -0.39543  -0.38451
 Alpha  occ. eigenvalues --   -0.38238  -0.37701  -0.37234  -0.37101  -0.37031
 Alpha  occ. eigenvalues --   -0.36435  -0.35695  -0.34992  -0.34418  -0.33745
 Alpha  occ. eigenvalues --   -0.32673  -0.32582  -0.32163  -0.29862  -0.29365
 Alpha  occ. eigenvalues --   -0.27806  -0.27427  -0.25020  -0.24999  -0.23938
 Alpha  occ. eigenvalues --   -0.22838  -0.19868
 Alpha virt. eigenvalues --   -0.04835  -0.00941  -0.00234   0.00298   0.02992
 Alpha virt. eigenvalues --    0.03357   0.04853   0.08404   0.08699   0.09889
 Alpha virt. eigenvalues --    0.10289   0.10632   0.11117   0.12175   0.12542
 Alpha virt. eigenvalues --    0.12954   0.13180   0.13552   0.14536   0.14928
 Alpha virt. eigenvalues --    0.15331   0.15788   0.15874   0.16272   0.16904
 Alpha virt. eigenvalues --    0.17074   0.17378   0.17469   0.18157   0.18703
 Alpha virt. eigenvalues --    0.18774   0.19226   0.19503   0.19964   0.21191
 Alpha virt. eigenvalues --    0.21330   0.21683   0.22847   0.23139   0.23330
 Alpha virt. eigenvalues --    0.24039   0.24954   0.25239   0.25317   0.26589
 Alpha virt. eigenvalues --    0.27684   0.27801   0.30329   0.30526   0.31850
 Alpha virt. eigenvalues --    0.33028   0.34396   0.34927   0.35523   0.36562
 Alpha virt. eigenvalues --    0.36916   0.37314   0.39279   0.40472   0.42594
 Alpha virt. eigenvalues --    0.45346   0.47911   0.48155   0.49002   0.49324
 Alpha virt. eigenvalues --    0.49860   0.50195   0.51383   0.51552   0.52366
 Alpha virt. eigenvalues --    0.52763   0.53312   0.53480   0.53826   0.54144
 Alpha virt. eigenvalues --    0.54429   0.54782   0.55014   0.56260   0.56589
 Alpha virt. eigenvalues --    0.57415   0.58091   0.58727   0.59359   0.59516
 Alpha virt. eigenvalues --    0.59782   0.60094   0.60277   0.60697   0.61967
 Alpha virt. eigenvalues --    0.62301   0.62949   0.63100   0.63748   0.64169
 Alpha virt. eigenvalues --    0.64618   0.65605   0.65963   0.66170   0.66406
 Alpha virt. eigenvalues --    0.67415   0.68176   0.68357   0.68612   0.69713
 Alpha virt. eigenvalues --    0.70038   0.71178   0.71930   0.73035   0.73735
 Alpha virt. eigenvalues --    0.74513   0.75954   0.76135   0.77401   0.78145
 Alpha virt. eigenvalues --    0.79462   0.80542   0.81272   0.82538   0.82780
 Alpha virt. eigenvalues --    0.83286   0.83489   0.84331   0.84780   0.85629
 Alpha virt. eigenvalues --    0.85940   0.86147   0.87336   0.87503   0.87966
 Alpha virt. eigenvalues --    0.88221   0.88874   0.89426   0.89777   0.90586
 Alpha virt. eigenvalues --    0.90815   0.91098   0.91810   0.92115   0.93129
 Alpha virt. eigenvalues --    0.93561   0.93742   0.94088   0.94756   0.95608
 Alpha virt. eigenvalues --    0.97071   0.97267   0.97654   0.98240   0.99318
 Alpha virt. eigenvalues --    1.00239   1.00927   1.01803   1.02550   1.04789
 Alpha virt. eigenvalues --    1.04947   1.06336   1.07946   1.09250   1.09619
 Alpha virt. eigenvalues --    1.10494   1.11748   1.12228   1.13001   1.14826
 Alpha virt. eigenvalues --    1.15243   1.16213   1.17131   1.18441   1.19218
 Alpha virt. eigenvalues --    1.19447   1.20843   1.21068   1.22549   1.22941
 Alpha virt. eigenvalues --    1.24127   1.24508   1.25159   1.27280   1.28287
 Alpha virt. eigenvalues --    1.29551   1.29933   1.31026   1.32618   1.34132
 Alpha virt. eigenvalues --    1.35008   1.35337   1.36686   1.37584   1.38834
 Alpha virt. eigenvalues --    1.39823   1.40794   1.42023   1.43642   1.44013
 Alpha virt. eigenvalues --    1.45081   1.46522   1.47090   1.48177   1.49711
 Alpha virt. eigenvalues --    1.50365   1.51851   1.52680   1.53009   1.55008
 Alpha virt. eigenvalues --    1.55944   1.57951   1.59166   1.62152   1.63559
 Alpha virt. eigenvalues --    1.64666   1.64989   1.65790   1.66272   1.67723
 Alpha virt. eigenvalues --    1.68407   1.68859   1.69646   1.70849   1.72703
 Alpha virt. eigenvalues --    1.73180   1.74360   1.75115   1.75318   1.76387
 Alpha virt. eigenvalues --    1.78113   1.78750   1.79102   1.79574   1.80395
 Alpha virt. eigenvalues --    1.80693   1.81369   1.82102   1.82277   1.83751
 Alpha virt. eigenvalues --    1.84261   1.84782   1.85865   1.86402   1.87201
 Alpha virt. eigenvalues --    1.87709   1.88402   1.89239   1.90075   1.90889
 Alpha virt. eigenvalues --    1.91437   1.92882   1.93128   1.93863   1.94696
 Alpha virt. eigenvalues --    1.95188   1.96860   1.98050   1.98435   1.99307
 Alpha virt. eigenvalues --    2.00157   2.01362   2.01799   2.02346   2.02558
 Alpha virt. eigenvalues --    2.04231   2.04350   2.05621   2.06806   2.08605
 Alpha virt. eigenvalues --    2.09696   2.10971   2.11862   2.12043   2.12640
 Alpha virt. eigenvalues --    2.14154   2.15176   2.16732   2.16945   2.18201
 Alpha virt. eigenvalues --    2.18377   2.19085   2.21406   2.21746   2.22464
 Alpha virt. eigenvalues --    2.23727   2.23927   2.24538   2.26265   2.26660
 Alpha virt. eigenvalues --    2.27553   2.28284   2.28871   2.29819   2.30744
 Alpha virt. eigenvalues --    2.31058   2.32662   2.32908   2.33661   2.34033
 Alpha virt. eigenvalues --    2.36287   2.37463   2.38404   2.40790   2.41141
 Alpha virt. eigenvalues --    2.42893   2.43195   2.43903   2.44692   2.45517
 Alpha virt. eigenvalues --    2.46779   2.48555   2.50622   2.51006   2.52425
 Alpha virt. eigenvalues --    2.54054   2.54417   2.54721   2.55653   2.57740
 Alpha virt. eigenvalues --    2.59638   2.61893   2.63746   2.64482   2.65631
 Alpha virt. eigenvalues --    2.67042   2.67274   2.68901   2.71520   2.72221
 Alpha virt. eigenvalues --    2.73172   2.74982   2.78136   2.80009   2.82224
 Alpha virt. eigenvalues --    2.83294   2.84936   2.86402   2.88702   2.91428
 Alpha virt. eigenvalues --    2.93112   2.94404   2.98307   2.98951   3.00062
 Alpha virt. eigenvalues --    3.03654   3.05612   3.08808   3.12788   3.17080
 Alpha virt. eigenvalues --    3.25312   3.31230   3.38675   3.48353   3.99137
 Alpha virt. eigenvalues --    4.02044   4.07851   4.08913   4.09594   4.11492
 Alpha virt. eigenvalues --    4.12477   4.12789   4.15407   4.20161   4.21863
 Alpha virt. eigenvalues --    4.24069   4.24688   4.27704   4.31408   4.35097
 Alpha virt. eigenvalues --    4.36363   4.37607   4.40765   4.45907   4.47248
 Alpha virt. eigenvalues --    4.56208   4.58073   4.61559   4.71545   4.79123
 Alpha virt. eigenvalues --    5.28743   5.31373   6.44858
          Condensed to atoms (all electrons):
 Mulliken charges:
               1
     1  C   -0.331664
     2  C   -0.052323
     3  C   -0.084102
     4  O   -0.517604
     5  C    0.335277
     6  C   -0.279183
     7  C    0.130803
     8  C    0.260267
     9  C    0.259361
    10  F   -0.273636
    11  C    0.259898
    12  F   -0.272520
    13  O   -0.575180
    14  C    0.236335
    15  C    0.264852
    16  F   -0.293704
    17  C    0.105969
    18  C   -0.391349
    19  C    0.100924
    20  C   -0.451631
    21  O   -0.501683
    22  C   -0.023990
    23  C   -0.131730
    24  C   -0.442530
    25  C   -0.059162
    26  C   -0.340669
    27  C    0.172383
    28  C   -0.408785
    29  C   -0.409020
    30  H    0.153864
    31  H    0.144870
    32  H    0.152022
    33  H    0.152392
    34  H    0.148456
    35  H    0.141866
    36  H    0.179998
    37  H    0.154828
    38  H    0.149880
    39  H    0.155359
    40  H    0.153416
    41  H    0.146302
    42  H    0.121005
    43  H    0.133089
    44  H    0.132645
    45  H    0.169301
    46  H    0.138650
    47  H    0.136912
    48  H    0.117638
    49  H    0.130312
    50  H    0.155324
    51  H    0.138602
    52  H    0.168983
    53  H    0.180462
    54  H    0.158220
 Sum of Mulliken charges =  -0.00000
 Mulliken charges with hydrogens summed into heavy atoms:
               1
     1  C   -0.032930
     2  C    0.099699
     3  C    0.216747
     4  O   -0.517604
     5  C    0.335277
     6  C   -0.137317
     7  C    0.130803
     8  C    0.260267
     9  C    0.259361
    10  F   -0.273636
    11  C    0.259898
    12  F   -0.272520
    13  O   -0.575180
    14  C    0.236335
    15  C    0.264852
    16  F   -0.293704
    17  C    0.105969
    18  C   -0.056523
    19  C    0.250804
    20  C    0.003447
    21  O   -0.501683
    22  C    0.230104
    23  C    0.000914
    24  C    0.002333
    25  C    0.058476
    26  C   -0.055033
    27  C    0.172383
    28  C   -0.101201
    29  C   -0.070339
 Electronic spatial extent (au):  <R**2>=          16616.9119
 Charge=             -0.0000 electrons
 Dipole moment (field-independent basis, Debye):
    X=              4.3907    Y=              1.0471    Z=              0.5278  Tot=              4.5445
 Quadrupole moment (field-independent basis, Debye-Ang):
   XX=           -141.2708   YY=           -171.3769   ZZ=           -165.1973
   XY=              7.9333   XZ=              8.9903   YZ=              0.0723
 Traceless Quadrupole moment (field-independent basis, Debye-Ang):
   XX=             18.0109   YY=            -12.0952   ZZ=             -5.9156
   XY=              7.9333   XZ=              8.9903   YZ=              0.0723
 Octapole moment (field-independent basis, Debye-Ang**2):
  XXX=             88.6170  YYY=              1.9124  ZZZ=            -80.6345  XYY=            -34.8167
  XXY=            -33.0048  XXZ=             -9.3059  XZZ=            -54.1749  YZZ=              3.6898
  YYZ=            -18.4515  XYZ=            -14.7441
 Hexadecapole moment (field-independent basis, Debye-Ang**3):
 XXXX=         -14737.9742 YYYY=          -3825.2087 ZZZZ=          -1714.2203 XXXY=            608.0955
 XXXZ=           -732.8126 YYYX=            818.7137 YYYZ=           -590.0891 ZZZX=           -820.4021
 ZZZY=           -529.3427 XXYY=          -3202.5615 XXZZ=          -3041.3261 YYZZ=           -882.8775
 XXYZ=           -182.6364 YYXZ=           -184.0125 ZZXY=            318.2310
 N-N= 2.770512797571D+03 E-N=-8.849689685325D+03  KE= 1.404040554080D+03
 Leave Link  601 at Sat Nov  5 12:25:38 2022, MaxMem=   402653184 cpu:               2.3 elap:               0.5
 (Enter /home/wykgroup/appl/g16/l9999.exe)
 Electronic transition elements 
                 1             2             3             4 
      1  -0.141646D+04 -0.141640D+04 -0.141639D+04 -0.141637D+04
      2   0.000000D+00  0.000000D+00 -0.166480D+01  0.926602D+00
      3   0.000000D+00  0.000000D+00 -0.229017D-01  0.216857D+00
      4   0.000000D+00  0.000000D+00 -0.303291D+00  0.372111D+00
      5   0.000000D+00  0.000000D+00  0.231523D+00 -0.146299D+00
      6   0.000000D+00  0.000000D+00  0.561790D-02 -0.374168D-01
      7   0.000000D+00  0.000000D+00  0.395723D-01 -0.626254D-01
      8   0.000000D+00  0.000000D+00  0.798457D-01 -0.132406D+00
      9   0.000000D+00  0.000000D+00  0.299136D+00 -0.194735D+00
     10   0.000000D+00  0.000000D+00 -0.627009D+00  0.478353D+00
     11   0.000000D+00  0.000000D+00 -0.238588D+00  0.482492D+00
     12   0.000000D+00  0.000000D+00  0.166851D+00 -0.252508D+00
     13   0.000000D+00  0.000000D+00  0.267518D+00 -0.412840D+00
     14   0.000000D+00  0.000000D+00  0.631328D+00 -0.563371D+00
     15   0.000000D+00  0.000000D+00  0.473338D+00 -0.403230D+00
     16   0.000000D+00  0.000000D+00  0.236760D+00 -0.400329D+00
 1\1\GINC-NODE101\SP\RB3LYP TD-FC\6-31G(d)\C23H25F3O3\WYKGROUP\05-Nov-2
 022\0\\#p b3lyp/6-31g(d) 6D 10F nosymm GFInput td=(50-50,nstate=2) SCF
 =XQC\\Gaussian input prepared by ASE\\0,1\C,0,8.5119550358,-2.50694583
 48,0.0578331406\C,0,7.3115907845,-2.6267090911,0.6222594436\C,0,6.3015
 806831,-1.5212208201,0.6788713764\O,0,5.0637485049,-2.0324464309,0.173
 2646481\C,0,3.9757862644,-1.2166760716,0.2023595215\C,0,3.9557268912,0
 .1156279523,0.6296531563\C,0,2.7694672179,0.8575849282,0.5983617953\C,
 0,1.5933144835,0.2613069589,0.1603151856\C,0,1.5972358923,-1.068669543
 4,-0.2642922832\F,0,0.4620275582,-1.6524958684,-0.6833208149\C,0,2.777
 7309159,-1.7968822533,-0.2503159951\F,0,2.7659128727,-3.0747189414,-0.
 6579343378\O,0,0.4181853639,0.9686749829,0.0839914995\C,0,0.1585048664
 ,1.9391345136,1.0504107897\C,0,-1.1500782871,2.2667385551,1.2162730374
 \F,0,-1.3837968075,3.2636249499,2.1148153927\C,0,-2.3829689338,1.73313
 88477,0.6310594754\C,0,-3.5643062091,2.1380319933,1.1341315549\C,0,-2.
 3404850951,0.77513132,-0.5594737421\C,0,-1.9650947464,1.5148708882,-1.
 8535810343\O,0,-3.634336922,0.1869644979,-0.7022619374\C,0,-3.61837861
 48,-1.1241681627,-1.2479397075\C,0,-5.0489900837,-1.6184069266,-1.4779
 890711\C,0,-5.8275975973,-0.6848645826,-2.4270949026\C,0,-5.8443576282
 ,-1.8908542284,-0.2191594162\C,0,-5.5219823704,-1.5710719276,1.0347796
 258\C,0,1.3239176913,2.5335006113,1.7285910376\C,0,1.2915107648,3.2018
 140276,2.8936414876\C,0,2.6444627161,2.3057345717,1.0044135341\H,0,9.2
 315044724,-3.3205509747,0.0700867915\H,0,8.8248261134,-1.5891322112,-0
 .435796144\H,0,7.0135722962,-3.5571978243,1.1028051596\H,0,6.153299840
 2,-1.1845683223,1.7170734346\H,0,6.6310031491,-0.6578647943,0.08423975
 1\H,0,4.8636330059,0.5926080168,0.9802354226\H,0,-4.488747936,1.750188
 8931,0.7267226769\H,0,-3.6229507905,2.8407432447,1.9559390587\H,0,-1.6
 09449017,-0.0164020093,-0.3683007377\H,0,-0.9816277853,1.9852335509,-1
 .7734138708\H,0,-2.7130971322,2.286687331,-2.0615349266\H,0,-1.9375713
 363,0.8182548774,-2.6985798992\H,0,-3.0844267959,-1.1317851775,-2.2114
 686624\H,0,-3.0852764704,-1.8089312408,-0.5693209023\H,0,-4.9366663561
 ,-2.5864148378,-1.9941660868\H,0,-5.9260455827,0.3109101997,-1.9867909
 718\H,0,-6.8323887201,-1.0758891438,-2.6235500068\H,0,-5.3102186083,-0
 .585754885,-3.38898457\H,0,-6.7897749269,-2.4073232145,-0.3985770807\H
 ,0,-6.1762030819,-1.8294474493,1.8637695717\H,0,-4.6128247301,-1.03085
 89861,1.2786795355\H,0,2.2103902539,3.5993782157,3.3154993797\H,0,0.38
 08027271,3.3728137505,3.4500301437\H,0,2.6777110914,2.9382622369,0.102
 9747159\H,0,3.4802391079,2.6112928384,1.6404097578\\Version=ES64L-G16R
 evB.01\HF=-1416.531914\RMSD=8.680e-09\PG=C01 [X(C23H25F3O3)]\\@


 ONE THORN OF EXPERIENCE IS WORTH A WHOLE WILDERNESS OF
 WARNING....  LOWELL - AMONG MY BOOKS
 Job cpu time:       0 days  2 hours 11 minutes  1.6 seconds.
 Elapsed time:       0 days  0 hours 19 minutes 10.5 seconds.
 File lengths (MBytes):  RWF=   1414 Int=      0 D2E=      0 Chk=     50 Scr=      1
 Normal termination of Gaussian 16 at Sat Nov  5 12:25:39 2022.
