 Entering Gaussian System, Link 0=/home/wykgroup/appl/g16/g16
 Input=./calculation/no_transfer_pubchem_sampling_3_b3lyp/154262499.com
 Output=./calculation/no_transfer_pubchem_sampling_3_b3lyp/154262499.log
 Initial command:
 /home/wykgroup/appl/g16/l1.exe "/userdata/scratch/wykgroup/khs/./calculation/no_transfer_pubchem_sampling_3_b3lyp/154262499/Gau-5608.inp" -scrdir="/userdata/scratch/wykgroup/khs/./calculation/no_transfer_pubchem_sampling_3_b3lyp/154262499/"
 Entering Link 1 = /home/wykgroup/appl/g16/l1.exe PID=      5609.
  
 Copyright (c) 1988-2017, Gaussian, Inc.  All Rights Reserved.
  
 This is part of the Gaussian(R) 16 program.  It is based on
 the Gaussian(R) 09 system (copyright 2009, Gaussian, Inc.),
 the Gaussian(R) 03 system (copyright 2003, Gaussian, Inc.),
 the Gaussian(R) 98 system (copyright 1998, Gaussian, Inc.),
 the Gaussian(R) 94 system (copyright 1995, Gaussian, Inc.),
 the Gaussian 92(TM) system (copyright 1992, Gaussian, Inc.),
 the Gaussian 90(TM) system (copyright 1990, Gaussian, Inc.),
 the Gaussian 88(TM) system (copyright 1988, Gaussian, Inc.),
 the Gaussian 86(TM) system (copyright 1986, Carnegie Mellon
 University), and the Gaussian 82(TM) system (copyright 1983,
 Carnegie Mellon University). Gaussian is a federally registered
 trademark of Gaussian, Inc.
  
 This software contains proprietary and confidential information,
 including trade secrets, belonging to Gaussian, Inc.
  
 This software is provided under written license and may be
 used, copied, transmitted, or stored only in accord with that
 written license.
  
 The following legend is applicable only to US Government
 contracts under FAR:
  
                    RESTRICTED RIGHTS LEGEND
  
 Use, reproduction and disclosure by the US Government is
 subject to restrictions as set forth in subparagraphs (a)
 and (c) of the Commercial Computer Software - Restricted
 Rights clause in FAR 52.227-19.
  
 Gaussian, Inc.
 340 Quinnipiac St., Bldg. 40, Wallingford CT 06492
  
  
 ---------------------------------------------------------------
 Warning -- This program may not be used in any manner that
 competes with the business of Gaussian, Inc. or will provide
 assistance to any competitor of Gaussian, Inc.  The licensee
 of this program is prohibited from giving any competitor of
 Gaussian, Inc. access to this program.  By using this program,
 the user acknowledges that Gaussian, Inc. is engaged in the
 business of creating and licensing software in the field of
 computational chemistry and represents and warrants to the
 licensee that it is not a competitor of Gaussian, Inc. and that
 it will not use this program in any manner prohibited above.
 ---------------------------------------------------------------
  

 Cite this work as:
 Gaussian 16, Revision B.01,
 M. J. Frisch, G. W. Trucks, H. B. Schlegel, G. E. Scuseria, 
 M. A. Robb, J. R. Cheeseman, G. Scalmani, V. Barone, 
 G. A. Petersson, H. Nakatsuji, X. Li, M. Caricato, A. V. Marenich, 
 J. Bloino, B. G. Janesko, R. Gomperts, B. Mennucci, H. P. Hratchian, 
 J. V. Ortiz, A. F. Izmaylov, J. L. Sonnenberg, D. Williams-Young, 
 F. Ding, F. Lipparini, F. Egidi, J. Goings, B. Peng, A. Petrone, 
 T. Henderson, D. Ranasinghe, V. G. Zakrzewski, J. Gao, N. Rega, 
 G. Zheng, W. Liang, M. Hada, M. Ehara, K. Toyota, R. Fukuda, 
 J. Hasegawa, M. Ishida, T. Nakajima, Y. Honda, O. Kitao, H. Nakai, 
 T. Vreven, K. Throssell, J. A. Montgomery, Jr., J. E. Peralta, 
 F. Ogliaro, M. J. Bearpark, J. J. Heyd, E. N. Brothers, K. N. Kudin, 
 V. N. Staroverov, T. A. Keith, R. Kobayashi, J. Normand, 
 K. Raghavachari, A. P. Rendell, J. C. Burant, S. S. Iyengar, 
 J. Tomasi, M. Cossi, J. M. Millam, M. Klene, C. Adamo, R. Cammi, 
 J. W. Ochterski, R. L. Martin, K. Morokuma, O. Farkas, 
 J. B. Foresman, and D. J. Fox, Gaussian, Inc., Wallingford CT, 2016.
 
 ******************************************
 Gaussian 16:  ES64L-G16RevB.01 20-Dec-2017
                 4-Nov-2022 
 ******************************************
 %chk=./calculation/no_transfer_pubchem_sampling_3_b3lyp/154262499.chk
 %nprocshared=7
 Will use up to    7 processors via shared memory.
 %mem=6GB
 -----------------------------
 #p b3lyp/6-31g(d) opt SCF=XQC
 -----------------------------
 1/18=20,19=15,26=3,38=1/1,3;
 2/9=110,12=2,17=6,18=5,40=1/2;
 3/5=1,6=6,7=1,11=2,25=1,30=1,71=1,74=-5/1,2,3;
 4//1;
 5/5=2,8=3,13=1,38=5/2,8;
 6/7=2,8=2,9=2,10=2,28=1/1;
 7//1,2,3,16;
 1/18=20,19=15,26=3/3(2);
 2/9=110/2;
 99//99;
 2/9=110/2;
 3/5=1,6=6,7=1,11=2,25=1,30=1,71=1,74=-5/1,2,3;
 4/5=5,16=3,69=1/1;
 5/5=2,8=3,13=1,38=5/2,8;
 7//1,2,3,16;
 1/18=20,19=15,26=3/3(-5);
 2/9=110/2;
 6/7=2,8=2,9=2,10=2,19=2,28=1/1;
 99/9=1/99;
 Leave Link    1 at Fri Nov  4 19:53:55 2022, MaxMem=   805306368 cpu:               0.6 elap:               0.1
 (Enter /home/wykgroup/appl/g16/l101.exe)
 ------------------------------
 Gaussian input prepared by ASE
 ------------------------------
 Symbolic Z-matrix:
 Charge =  0 Multiplicity = 1
 C                    -7.60208   0.86776  -1.37383 
 N                    -6.75629   0.29007  -0.35095 
 C                    -7.35853   0.403     0.96034 
 C                    -6.38029  -1.07943  -0.63834 
 C                    -5.46625  -1.1829   -1.86807 
 O                    -4.46668  -0.18885  -1.89416 
 C                    -3.49067  -0.1854   -0.95518 
 C                    -3.15535  -1.25639  -0.13013 
 C                    -2.11421  -1.13697   0.77118 
 C                    -1.36586   0.03054   0.85113 
 C                    -0.31503   0.14219   1.89547 
 O                    -0.55141  -0.08737   3.06146 
 N                     0.95458   0.54045   1.48015 
 C                     1.84926   0.86594   2.45276 
 C                     3.20071   1.01508   2.38634 
 C                     3.76878   1.45635   3.67612 
 O                     3.11698   1.89202   4.59548 
 O                     5.11016   1.32544   3.80643 
 C                     4.05277   0.72413   1.25049 
 N                     5.34563   1.17931   1.19269 
 C                     5.93681   0.74285   0.05267 
 C                     7.23512   0.95725  -0.39269 
 C                     7.59737   0.40415  -1.59905 
 C                     6.67919  -0.34497  -2.33913 
 C                     5.392    -0.55734  -1.90222 
 C                     4.9813   -0.01012  -0.67978 
 C                     3.78486  -0.00892   0.10245 
 C                     2.43633  -0.60581  -0.18567 
 C                     2.26667  -1.02763  -1.64659 
 C                     2.19655  -1.8343    0.70211 
 C                     1.36348   0.48425   0.09907 
 C                    -1.70488   1.10547   0.02809 
 C                    -2.75172   0.99796  -0.85864 
 H                    -7.86764   1.88087  -1.07789 
 H                    -8.52951   0.29326  -1.53156 
 H                    -7.0537    0.92224  -2.31132 
 H                    -7.56758   1.45176   1.16332 
 H                    -8.29768  -0.1662    1.04956 
 H                    -6.65802   0.04099   1.71188 
 H                    -7.25686  -1.73298  -0.81154 
 H                    -5.84758  -1.45381   0.23906 
 H                    -5.03241  -2.19033  -1.91785 
 H                    -6.03562  -1.01605  -2.78516 
 H                    -3.69506  -2.18886  -0.17998 
 H                    -1.86802  -1.96312   1.4215 
 H                     1.3854    1.02662   3.41952 
 H                     5.3555    1.58516   4.70829 
 H                     5.8061    1.68005   1.93245 
 H                     7.93023   1.53679   0.19681 
 H                     8.59785   0.54542  -1.97982 
 H                     6.99278  -0.76953  -3.28188 
 H                     4.72752  -1.14381  -2.5129 
 H                     2.49849  -0.2045   -2.31746 
 H                     1.23887  -1.34106  -1.82357 
 H                     2.91107  -1.87047  -1.87456 
 H                     1.17793  -2.1985    0.57728 
 H                     2.35932  -1.60664   1.75202 
 H                     2.88641  -2.62606   0.41988 
 H                     1.76151   1.45981  -0.19542 
 H                     0.48117   0.27252  -0.50372 
 H                    -1.15938   2.03475   0.10475 
 H                    -3.03036   1.82387  -1.49306 
 
 ITRead=  0  0  0  0  0  0  0  0  0  0  0  0  0  0  0  0  0  0  0  0
 ITRead=  0  0  0  0  0  0  0  0  0  0  0  0  0  0  0  0  0  0  0  0
 ITRead=  0  0  0  0  0  0  0  0  0  0  0  0  0  0  0  0  0  0  0  0
 ITRead=  0  0
 MicOpt= -1 -1 -1 -1 -1 -1 -1 -1 -1 -1 -1 -1 -1 -1 -1 -1 -1 -1 -1 -1
 MicOpt= -1 -1 -1 -1 -1 -1 -1 -1 -1 -1 -1 -1 -1 -1 -1 -1 -1 -1 -1 -1
 MicOpt= -1 -1 -1 -1 -1 -1 -1 -1 -1 -1 -1 -1 -1 -1 -1 -1 -1 -1 -1 -1
 MicOpt= -1 -1
 NAtoms=     62 NQM=       62 NQMF=       0 NMMI=      0 NMMIF=      0
                NMic=       0 NMicF=      0.
                    Isotopes and Nuclear Properties:
 (Nuclear quadrupole moments (NQMom) in fm**2, nuclear magnetic moments (NMagM)
  in nuclear magnetons)

  Atom         1           2           3           4           5           6           7           8           9          10
 IAtWgt=          12          14          12          12          12          16          12          12          12          12
 AtmWgt=  12.0000000  14.0030740  12.0000000  12.0000000  12.0000000  15.9949146  12.0000000  12.0000000  12.0000000  12.0000000
 NucSpn=           0           2           0           0           0           0           0           0           0           0
 AtZEff=  -0.0000000  -0.0000000  -0.0000000  -0.0000000  -0.0000000  -0.0000000  -0.0000000  -0.0000000  -0.0000000  -0.0000000
 NQMom=    0.0000000   2.0440000   0.0000000   0.0000000   0.0000000   0.0000000   0.0000000   0.0000000   0.0000000   0.0000000
 NMagM=    0.0000000   0.4037610   0.0000000   0.0000000   0.0000000   0.0000000   0.0000000   0.0000000   0.0000000   0.0000000
 AtZNuc=   6.0000000   7.0000000   6.0000000   6.0000000   6.0000000   8.0000000   6.0000000   6.0000000   6.0000000   6.0000000

  Atom        11          12          13          14          15          16          17          18          19          20
 IAtWgt=          12          16          14          12          12          12          16          16          12          14
 AtmWgt=  12.0000000  15.9949146  14.0030740  12.0000000  12.0000000  12.0000000  15.9949146  15.9949146  12.0000000  14.0030740
 NucSpn=           0           0           2           0           0           0           0           0           0           2
 AtZEff=  -0.0000000  -0.0000000  -0.0000000  -0.0000000  -0.0000000  -0.0000000  -0.0000000  -0.0000000  -0.0000000  -0.0000000
 NQMom=    0.0000000   0.0000000   2.0440000   0.0000000   0.0000000   0.0000000   0.0000000   0.0000000   0.0000000   2.0440000
 NMagM=    0.0000000   0.0000000   0.4037610   0.0000000   0.0000000   0.0000000   0.0000000   0.0000000   0.0000000   0.4037610
 AtZNuc=   6.0000000   8.0000000   7.0000000   6.0000000   6.0000000   6.0000000   8.0000000   8.0000000   6.0000000   7.0000000

  Atom        21          22          23          24          25          26          27          28          29          30
 IAtWgt=          12          12          12          12          12          12          12          12          12          12
 AtmWgt=  12.0000000  12.0000000  12.0000000  12.0000000  12.0000000  12.0000000  12.0000000  12.0000000  12.0000000  12.0000000
 NucSpn=           0           0           0           0           0           0           0           0           0           0
 AtZEff=  -0.0000000  -0.0000000  -0.0000000  -0.0000000  -0.0000000  -0.0000000  -0.0000000  -0.0000000  -0.0000000  -0.0000000
 NQMom=    0.0000000   0.0000000   0.0000000   0.0000000   0.0000000   0.0000000   0.0000000   0.0000000   0.0000000   0.0000000
 NMagM=    0.0000000   0.0000000   0.0000000   0.0000000   0.0000000   0.0000000   0.0000000   0.0000000   0.0000000   0.0000000
 AtZNuc=   6.0000000   6.0000000   6.0000000   6.0000000   6.0000000   6.0000000   6.0000000   6.0000000   6.0000000   6.0000000

  Atom        31          32          33          34          35          36          37          38          39          40
 IAtWgt=          12          12          12           1           1           1           1           1           1           1
 AtmWgt=  12.0000000  12.0000000  12.0000000   1.0078250   1.0078250   1.0078250   1.0078250   1.0078250   1.0078250   1.0078250
 NucSpn=           0           0           0           1           1           1           1           1           1           1
 AtZEff=  -0.0000000  -0.0000000  -0.0000000  -0.0000000  -0.0000000  -0.0000000  -0.0000000  -0.0000000  -0.0000000  -0.0000000
 NQMom=    0.0000000   0.0000000   0.0000000   0.0000000   0.0000000   0.0000000   0.0000000   0.0000000   0.0000000   0.0000000
 NMagM=    0.0000000   0.0000000   0.0000000   2.7928460   2.7928460   2.7928460   2.7928460   2.7928460   2.7928460   2.7928460
 AtZNuc=   6.0000000   6.0000000   6.0000000   1.0000000   1.0000000   1.0000000   1.0000000   1.0000000   1.0000000   1.0000000

  Atom        41          42          43          44          45          46          47          48          49          50
 IAtWgt=           1           1           1           1           1           1           1           1           1           1
 AtmWgt=   1.0078250   1.0078250   1.0078250   1.0078250   1.0078250   1.0078250   1.0078250   1.0078250   1.0078250   1.0078250
 NucSpn=           1           1           1           1           1           1           1           1           1           1
 AtZEff=  -0.0000000  -0.0000000  -0.0000000  -0.0000000  -0.0000000  -0.0000000  -0.0000000  -0.0000000  -0.0000000  -0.0000000
 NQMom=    0.0000000   0.0000000   0.0000000   0.0000000   0.0000000   0.0000000   0.0000000   0.0000000   0.0000000   0.0000000
 NMagM=    2.7928460   2.7928460   2.7928460   2.7928460   2.7928460   2.7928460   2.7928460   2.7928460   2.7928460   2.7928460
 AtZNuc=   1.0000000   1.0000000   1.0000000   1.0000000   1.0000000   1.0000000   1.0000000   1.0000000   1.0000000   1.0000000

  Atom        51          52          53          54          55          56          57          58          59          60
 IAtWgt=           1           1           1           1           1           1           1           1           1           1
 AtmWgt=   1.0078250   1.0078250   1.0078250   1.0078250   1.0078250   1.0078250   1.0078250   1.0078250   1.0078250   1.0078250
 NucSpn=           1           1           1           1           1           1           1           1           1           1
 AtZEff=  -0.0000000  -0.0000000  -0.0000000  -0.0000000  -0.0000000  -0.0000000  -0.0000000  -0.0000000  -0.0000000  -0.0000000
 NQMom=    0.0000000   0.0000000   0.0000000   0.0000000   0.0000000   0.0000000   0.0000000   0.0000000   0.0000000   0.0000000
 NMagM=    2.7928460   2.7928460   2.7928460   2.7928460   2.7928460   2.7928460   2.7928460   2.7928460   2.7928460   2.7928460
 AtZNuc=   1.0000000   1.0000000   1.0000000   1.0000000   1.0000000   1.0000000   1.0000000   1.0000000   1.0000000   1.0000000

  Atom        61          62
 IAtWgt=           1           1
 AtmWgt=   1.0078250   1.0078250
 NucSpn=           1           1
 AtZEff=  -0.0000000  -0.0000000
 NQMom=    0.0000000   0.0000000
 NMagM=    2.7928460   2.7928460
 AtZNuc=   1.0000000   1.0000000
 Leave Link  101 at Fri Nov  4 19:53:55 2022, MaxMem=   805306368 cpu:               1.4 elap:               0.2
 (Enter /home/wykgroup/appl/g16/l103.exe)

 GradGradGradGradGradGradGradGradGradGradGradGradGradGradGradGradGradGrad
 Berny optimization.
 Initialization pass.
                           ----------------------------
                           !    Initial Parameters    !
                           ! (Angstroms and Degrees)  !
 --------------------------                            --------------------------
 ! Name  Definition              Value          Derivative Info.                !
 --------------------------------------------------------------------------------
 ! R1    R(1,2)                  1.4475         estimate D2E/DX2                !
 ! R2    R(1,34)                 1.0883         estimate D2E/DX2                !
 ! R3    R(1,35)                 1.1023         estimate D2E/DX2                !
 ! R4    R(1,36)                 1.0875         estimate D2E/DX2                !
 ! R5    R(2,3)                  1.4474         estimate D2E/DX2                !
 ! R6    R(2,4)                  1.449          estimate D2E/DX2                !
 ! R7    R(3,37)                 1.0885         estimate D2E/DX2                !
 ! R8    R(3,38)                 1.1018         estimate D2E/DX2                !
 ! R9    R(3,39)                 1.0893         estimate D2E/DX2                !
 ! R10   R(4,5)                  1.5357         estimate D2E/DX2                !
 ! R11   R(4,40)                 1.107          estimate D2E/DX2                !
 ! R12   R(4,41)                 1.0926         estimate D2E/DX2                !
 ! R13   R(5,6)                  1.4099         estimate D2E/DX2                !
 ! R14   R(5,42)                 1.098          estimate D2E/DX2                !
 ! R15   R(5,43)                 1.0923         estimate D2E/DX2                !
 ! R16   R(6,7)                  1.3544         estimate D2E/DX2                !
 ! R17   R(7,8)                  1.3929         estimate D2E/DX2                !
 ! R18   R(7,33)                 1.3985         estimate D2E/DX2                !
 ! R19   R(8,9)                  1.3822         estimate D2E/DX2                !
 ! R20   R(8,44)                 1.0785         estimate D2E/DX2                !
 ! R21   R(9,10)                 1.3891         estimate D2E/DX2                !
 ! R22   R(9,45)                 1.0798         estimate D2E/DX2                !
 ! R23   R(10,11)                1.4857         estimate D2E/DX2                !
 ! R24   R(10,32)                1.3956         estimate D2E/DX2                !
 ! R25   R(11,12)                1.2117         estimate D2E/DX2                !
 ! R26   R(11,13)                1.3939         estimate D2E/DX2                !
 ! R27   R(13,14)                1.361          estimate D2E/DX2                !
 ! R28   R(13,31)                1.4414         estimate D2E/DX2                !
 ! R29   R(14,15)                1.3613         estimate D2E/DX2                !
 ! R30   R(14,46)                1.0843         estimate D2E/DX2                !
 ! R31   R(15,16)                1.4768         estimate D2E/DX2                !
 ! R32   R(15,19)                1.4494         estimate D2E/DX2                !
 ! R33   R(16,17)                1.2083         estimate D2E/DX2                !
 ! R34   R(16,18)                1.354          estimate D2E/DX2                !
 ! R35   R(18,47)                0.9701         estimate D2E/DX2                !
 ! R36   R(19,20)                1.3719         estimate D2E/DX2                !
 ! R37   R(19,27)                1.3882         estimate D2E/DX2                !
 ! R38   R(20,21)                1.3563         estimate D2E/DX2                !
 ! R39   R(20,48)                1.005          estimate D2E/DX2                !
 ! R40   R(21,22)                1.3892         estimate D2E/DX2                !
 ! R41   R(21,26)                1.42           estimate D2E/DX2                !
 ! R42   R(22,23)                1.3757         estimate D2E/DX2                !
 ! R43   R(22,49)                1.0801         estimate D2E/DX2                !
 ! R44   R(23,24)                1.3971         estimate D2E/DX2                !
 ! R45   R(23,50)                1.0798         estimate D2E/DX2                !
 ! R46   R(24,25)                1.3758         estimate D2E/DX2                !
 ! R47   R(24,51)                1.0804         estimate D2E/DX2                !
 ! R48   R(25,26)                1.4009         estimate D2E/DX2                !
 ! R49   R(25,52)                1.0763         estimate D2E/DX2                !
 ! R50   R(26,27)                1.4295         estimate D2E/DX2                !
 ! R51   R(27,28)                1.5026         estimate D2E/DX2                !
 ! R52   R(28,29)                1.53           estimate D2E/DX2                !
 ! R53   R(28,30)                1.5345         estimate D2E/DX2                !
 ! R54   R(28,31)                1.5557         estimate D2E/DX2                !
 ! R55   R(29,53)                1.0869         estimate D2E/DX2                !
 ! R56   R(29,54)                1.089          estimate D2E/DX2                !
 ! R57   R(29,55)                1.0852         estimate D2E/DX2                !
 ! R58   R(30,56)                1.0889         estimate D2E/DX2                !
 ! R59   R(30,57)                1.0866         estimate D2E/DX2                !
 ! R60   R(30,58)                1.0874         estimate D2E/DX2                !
 ! R61   R(31,59)                1.094          estimate D2E/DX2                !
 ! R62   R(31,60)                1.0893         estimate D2E/DX2                !
 ! R63   R(32,33)                1.3761         estimate D2E/DX2                !
 ! R64   R(32,61)                1.0803         estimate D2E/DX2                !
 ! R65   R(33,62)                1.0781         estimate D2E/DX2                !
 ! A1    A(2,1,34)             108.7791         estimate D2E/DX2                !
 ! A2    A(2,1,35)             112.6268         estimate D2E/DX2                !
 ! A3    A(2,1,36)             109.5437         estimate D2E/DX2                !
 ! A4    A(34,1,35)            108.5884         estimate D2E/DX2                !
 ! A5    A(34,1,36)            108.109          estimate D2E/DX2                !
 ! A6    A(35,1,36)            109.0888         estimate D2E/DX2                !
 ! A7    A(1,2,3)              111.4649         estimate D2E/DX2                !
 ! A8    A(1,2,4)              112.8712         estimate D2E/DX2                !
 ! A9    A(3,2,4)              111.187          estimate D2E/DX2                !
 ! A10   A(2,3,37)             108.9072         estimate D2E/DX2                !
 ! A11   A(2,3,38)             112.8126         estimate D2E/DX2                !
 ! A12   A(2,3,39)             109.3626         estimate D2E/DX2                !
 ! A13   A(37,3,38)            108.5996         estimate D2E/DX2                !
 ! A14   A(37,3,39)            108.3642         estimate D2E/DX2                !
 ! A15   A(38,3,39)            108.6989         estimate D2E/DX2                !
 ! A16   A(2,4,5)              112.1455         estimate D2E/DX2                !
 ! A17   A(2,4,40)             112.5536         estimate D2E/DX2                !
 ! A18   A(2,4,41)             106.9238         estimate D2E/DX2                !
 ! A19   A(5,4,40)             107.8317         estimate D2E/DX2                !
 ! A20   A(5,4,41)             109.2545         estimate D2E/DX2                !
 ! A21   A(40,4,41)            108.0238         estimate D2E/DX2                !
 ! A22   A(4,5,6)              112.9088         estimate D2E/DX2                !
 ! A23   A(4,5,42)             109.469          estimate D2E/DX2                !
 ! A24   A(4,5,43)             110.5963         estimate D2E/DX2                !
 ! A25   A(6,5,42)             111.464          estimate D2E/DX2                !
 ! A26   A(6,5,43)             104.2594         estimate D2E/DX2                !
 ! A27   A(42,5,43)            107.9417         estimate D2E/DX2                !
 ! A28   A(5,6,7)              119.9905         estimate D2E/DX2                !
 ! A29   A(6,7,8)              125.6045         estimate D2E/DX2                !
 ! A30   A(6,7,33)             115.5183         estimate D2E/DX2                !
 ! A31   A(8,7,33)             118.8511         estimate D2E/DX2                !
 ! A32   A(7,8,9)              120.0746         estimate D2E/DX2                !
 ! A33   A(7,8,44)             121.1252         estimate D2E/DX2                !
 ! A34   A(9,8,44)             118.8002         estimate D2E/DX2                !
 ! A35   A(8,9,10)             121.061          estimate D2E/DX2                !
 ! A36   A(8,9,45)             119.8892         estimate D2E/DX2                !
 ! A37   A(10,9,45)            119.0482         estimate D2E/DX2                !
 ! A38   A(9,10,11)            118.991          estimate D2E/DX2                !
 ! A39   A(9,10,32)            118.8518         estimate D2E/DX2                !
 ! A40   A(11,10,32)           121.9013         estimate D2E/DX2                !
 ! A41   A(10,11,12)           121.6148         estimate D2E/DX2                !
 ! A42   A(10,11,13)           117.145          estimate D2E/DX2                !
 ! A43   A(12,11,13)           121.2349         estimate D2E/DX2                !
 ! A44   A(11,13,14)           117.0098         estimate D2E/DX2                !
 ! A45   A(11,13,31)           122.1891         estimate D2E/DX2                !
 ! A46   A(14,13,31)           120.5003         estimate D2E/DX2                !
 ! A47   A(13,14,15)           130.0871         estimate D2E/DX2                !
 ! A48   A(13,14,46)           113.0405         estimate D2E/DX2                !
 ! A49   A(15,14,46)           116.8723         estimate D2E/DX2                !
 ! A50   A(14,15,16)           111.8396         estimate D2E/DX2                !
 ! A51   A(14,15,19)           126.8604         estimate D2E/DX2                !
 ! A52   A(16,15,19)           121.2157         estimate D2E/DX2                !
 ! A53   A(15,16,17)           124.386          estimate D2E/DX2                !
 ! A54   A(15,16,18)           115.8639         estimate D2E/DX2                !
 ! A55   A(17,16,18)           119.7387         estimate D2E/DX2                !
 ! A56   A(16,18,47)           108.3094         estimate D2E/DX2                !
 ! A57   A(15,19,20)           121.3607         estimate D2E/DX2                !
 ! A58   A(15,19,27)           129.8384         estimate D2E/DX2                !
 ! A59   A(20,19,27)           108.7983         estimate D2E/DX2                !
 ! A60   A(19,20,21)           109.8408         estimate D2E/DX2                !
 ! A61   A(19,20,48)           124.4783         estimate D2E/DX2                !
 ! A62   A(21,20,48)           125.4029         estimate D2E/DX2                !
 ! A63   A(20,21,22)           128.8392         estimate D2E/DX2                !
 ! A64   A(20,21,26)           108.1124         estimate D2E/DX2                !
 ! A65   A(22,21,26)           123.0476         estimate D2E/DX2                !
 ! A66   A(21,22,23)           117.7217         estimate D2E/DX2                !
 ! A67   A(21,22,49)           120.6173         estimate D2E/DX2                !
 ! A68   A(23,22,49)           121.6606         estimate D2E/DX2                !
 ! A69   A(22,23,24)           120.4671         estimate D2E/DX2                !
 ! A70   A(22,23,50)           120.0418         estimate D2E/DX2                !
 ! A71   A(24,23,50)           119.4909         estimate D2E/DX2                !
 ! A72   A(23,24,25)           121.9655         estimate D2E/DX2                !
 ! A73   A(23,24,51)           118.8264         estimate D2E/DX2                !
 ! A74   A(25,24,51)           119.208          estimate D2E/DX2                !
 ! A75   A(24,25,26)           119.4133         estimate D2E/DX2                !
 ! A76   A(24,25,52)           118.786          estimate D2E/DX2                !
 ! A77   A(26,25,52)           121.8007         estimate D2E/DX2                !
 ! A78   A(21,26,25)           117.3841         estimate D2E/DX2                !
 ! A79   A(21,26,27)           106.2902         estimate D2E/DX2                !
 ! A80   A(25,26,27)           136.3212         estimate D2E/DX2                !
 ! A81   A(19,27,26)           106.9452         estimate D2E/DX2                !
 ! A82   A(19,27,28)           122.7882         estimate D2E/DX2                !
 ! A83   A(26,27,28)           130.2337         estimate D2E/DX2                !
 ! A84   A(27,28,29)           113.086          estimate D2E/DX2                !
 ! A85   A(27,28,30)           110.3234         estimate D2E/DX2                !
 ! A86   A(27,28,31)           107.7863         estimate D2E/DX2                !
 ! A87   A(29,28,30)           108.3222         estimate D2E/DX2                !
 ! A88   A(29,28,31)           106.9454         estimate D2E/DX2                !
 ! A89   A(30,28,31)           110.3215         estimate D2E/DX2                !
 ! A90   A(28,29,53)           110.9105         estimate D2E/DX2                !
 ! A91   A(28,29,54)           109.8268         estimate D2E/DX2                !
 ! A92   A(28,29,55)           110.4185         estimate D2E/DX2                !
 ! A93   A(53,29,54)           108.5996         estimate D2E/DX2                !
 ! A94   A(53,29,55)           109.3827         estimate D2E/DX2                !
 ! A95   A(54,29,55)           107.6239         estimate D2E/DX2                !
 ! A96   A(28,30,56)           110.3397         estimate D2E/DX2                !
 ! A97   A(28,30,57)           111.5841         estimate D2E/DX2                !
 ! A98   A(28,30,58)           109.4883         estimate D2E/DX2                !
 ! A99   A(56,30,57)           108.7217         estimate D2E/DX2                !
 ! A100  A(56,30,58)           108.6731         estimate D2E/DX2                !
 ! A101  A(57,30,58)           107.9575         estimate D2E/DX2                !
 ! A102  A(13,31,28)           113.4721         estimate D2E/DX2                !
 ! A103  A(13,31,59)           109.0473         estimate D2E/DX2                !
 ! A104  A(13,31,60)           107.9389         estimate D2E/DX2                !
 ! A105  A(28,31,59)           108.9438         estimate D2E/DX2                !
 ! A106  A(28,31,60)           108.7284         estimate D2E/DX2                !
 ! A107  A(59,31,60)           108.6057         estimate D2E/DX2                !
 ! A108  A(10,32,33)           120.3061         estimate D2E/DX2                !
 ! A109  A(10,32,61)           119.8703         estimate D2E/DX2                !
 ! A110  A(33,32,61)           119.8054         estimate D2E/DX2                !
 ! A111  A(7,33,32)            120.8335         estimate D2E/DX2                !
 ! A112  A(7,33,62)            118.1035         estimate D2E/DX2                !
 ! A113  A(32,33,62)           121.0615         estimate D2E/DX2                !
 ! D1    D(34,1,2,3)            52.3417         estimate D2E/DX2                !
 ! D2    D(34,1,2,4)           178.3107         estimate D2E/DX2                !
 ! D3    D(35,1,2,3)           -68.0885         estimate D2E/DX2                !
 ! D4    D(35,1,2,4)            57.8804         estimate D2E/DX2                !
 ! D5    D(36,1,2,3)           170.3158         estimate D2E/DX2                !
 ! D6    D(36,1,2,4)           -63.7152         estimate D2E/DX2                !
 ! D7    D(1,2,3,37)           -56.6875         estimate D2E/DX2                !
 ! D8    D(1,2,3,38)            63.9646         estimate D2E/DX2                !
 ! D9    D(1,2,3,39)          -174.94           estimate D2E/DX2                !
 ! D10   D(4,2,3,37)           176.4202         estimate D2E/DX2                !
 ! D11   D(4,2,3,38)           -62.9277         estimate D2E/DX2                !
 ! D12   D(4,2,3,39)            58.1677         estimate D2E/DX2                !
 ! D13   D(1,2,4,5)             66.6904         estimate D2E/DX2                !
 ! D14   D(1,2,4,40)           -55.1135         estimate D2E/DX2                !
 ! D15   D(1,2,4,41)          -173.5751         estimate D2E/DX2                !
 ! D16   D(3,2,4,5)           -167.1916         estimate D2E/DX2                !
 ! D17   D(3,2,4,40)            71.0045         estimate D2E/DX2                !
 ! D18   D(3,2,4,41)           -47.4571         estimate D2E/DX2                !
 ! D19   D(2,4,5,6)             42.853          estimate D2E/DX2                !
 ! D20   D(2,4,5,42)           167.6544         estimate D2E/DX2                !
 ! D21   D(2,4,5,43)           -73.5367         estimate D2E/DX2                !
 ! D22   D(40,4,5,6)           167.3185         estimate D2E/DX2                !
 ! D23   D(40,4,5,42)          -67.8802         estimate D2E/DX2                !
 ! D24   D(40,4,5,43)           50.9287         estimate D2E/DX2                !
 ! D25   D(41,4,5,6)           -75.5106         estimate D2E/DX2                !
 ! D26   D(41,4,5,42)           49.2907         estimate D2E/DX2                !
 ! D27   D(41,4,5,43)          168.0996         estimate D2E/DX2                !
 ! D28   D(4,5,6,7)             66.2746         estimate D2E/DX2                !
 ! D29   D(42,5,6,7)           -57.4333         estimate D2E/DX2                !
 ! D30   D(43,5,6,7)          -173.6299         estimate D2E/DX2                !
 ! D31   D(5,6,7,8)             17.0074         estimate D2E/DX2                !
 ! D32   D(5,6,7,33)          -164.883          estimate D2E/DX2                !
 ! D33   D(6,7,8,9)            178.4937         estimate D2E/DX2                !
 ! D34   D(6,7,8,44)            -1.409          estimate D2E/DX2                !
 ! D35   D(33,7,8,9)             0.4415         estimate D2E/DX2                !
 ! D36   D(33,7,8,44)         -179.4612         estimate D2E/DX2                !
 ! D37   D(6,7,33,32)         -177.8293         estimate D2E/DX2                !
 ! D38   D(6,7,33,62)            2.5963         estimate D2E/DX2                !
 ! D39   D(8,7,33,32)            0.4159         estimate D2E/DX2                !
 ! D40   D(8,7,33,62)         -179.1585         estimate D2E/DX2                !
 ! D41   D(7,8,9,10)            -1.553          estimate D2E/DX2                !
 ! D42   D(7,8,9,45)           178.9238         estimate D2E/DX2                !
 ! D43   D(44,8,9,10)          178.3519         estimate D2E/DX2                !
 ! D44   D(44,8,9,45)           -1.1713         estimate D2E/DX2                !
 ! D45   D(8,9,10,11)          176.0728         estimate D2E/DX2                !
 ! D46   D(8,9,10,32)            1.7727         estimate D2E/DX2                !
 ! D47   D(45,9,10,11)          -4.4            estimate D2E/DX2                !
 ! D48   D(45,9,10,32)        -178.7002         estimate D2E/DX2                !
 ! D49   D(9,10,11,12)         -51.5662         estimate D2E/DX2                !
 ! D50   D(9,10,11,13)         129.2592         estimate D2E/DX2                !
 ! D51   D(32,10,11,12)        122.5526         estimate D2E/DX2                !
 ! D52   D(32,10,11,13)        -56.622          estimate D2E/DX2                !
 ! D53   D(9,10,32,33)          -0.9006         estimate D2E/DX2                !
 ! D54   D(9,10,32,61)         177.5448         estimate D2E/DX2                !
 ! D55   D(11,10,32,33)       -175.0274         estimate D2E/DX2                !
 ! D56   D(11,10,32,61)          3.418          estimate D2E/DX2                !
 ! D57   D(10,11,13,14)        168.9272         estimate D2E/DX2                !
 ! D58   D(10,11,13,31)        -17.3469         estimate D2E/DX2                !
 ! D59   D(12,11,13,14)        -10.2508         estimate D2E/DX2                !
 ! D60   D(12,11,13,31)        163.4752         estimate D2E/DX2                !
 ! D61   D(11,13,14,15)        164.7572         estimate D2E/DX2                !
 ! D62   D(11,13,14,46)        -15.3168         estimate D2E/DX2                !
 ! D63   D(31,13,14,15)         -9.0808         estimate D2E/DX2                !
 ! D64   D(31,13,14,46)        170.8452         estimate D2E/DX2                !
 ! D65   D(11,13,31,28)       -110.3753         estimate D2E/DX2                !
 ! D66   D(11,13,31,59)        128.0004         estimate D2E/DX2                !
 ! D67   D(11,13,31,60)         10.1896         estimate D2E/DX2                !
 ! D68   D(14,13,31,28)         63.1364         estimate D2E/DX2                !
 ! D69   D(14,13,31,59)        -58.4879         estimate D2E/DX2                !
 ! D70   D(14,13,31,60)       -176.2986         estimate D2E/DX2                !
 ! D71   D(13,14,15,16)        176.5681         estimate D2E/DX2                !
 ! D72   D(13,14,15,19)         -6.7668         estimate D2E/DX2                !
 ! D73   D(46,14,15,16)         -3.3556         estimate D2E/DX2                !
 ! D74   D(46,14,15,19)        173.3096         estimate D2E/DX2                !
 ! D75   D(14,15,16,17)        -13.9947         estimate D2E/DX2                !
 ! D76   D(14,15,16,18)        164.7734         estimate D2E/DX2                !
 ! D77   D(19,15,16,17)        169.1249         estimate D2E/DX2                !
 ! D78   D(19,15,16,18)        -12.107          estimate D2E/DX2                !
 ! D79   D(14,15,19,20)        165.6277         estimate D2E/DX2                !
 ! D80   D(14,15,19,27)        -15.0125         estimate D2E/DX2                !
 ! D81   D(16,15,19,20)        -17.9922         estimate D2E/DX2                !
 ! D82   D(16,15,19,27)        161.3677         estimate D2E/DX2                !
 ! D83   D(15,16,18,47)       -176.0121         estimate D2E/DX2                !
 ! D84   D(17,16,18,47)          2.817          estimate D2E/DX2                !
 ! D85   D(15,19,20,21)        178.3057         estimate D2E/DX2                !
 ! D86   D(15,19,20,48)          4.0906         estimate D2E/DX2                !
 ! D87   D(27,19,20,21)         -1.1751         estimate D2E/DX2                !
 ! D88   D(27,19,20,48)       -175.3902         estimate D2E/DX2                !
 ! D89   D(15,19,27,26)       -178.6835         estimate D2E/DX2                !
 ! D90   D(15,19,27,28)          3.2091         estimate D2E/DX2                !
 ! D91   D(20,19,27,26)          0.7391         estimate D2E/DX2                !
 ! D92   D(20,19,27,28)       -177.3684         estimate D2E/DX2                !
 ! D93   D(19,20,21,22)       -179.1933         estimate D2E/DX2                !
 ! D94   D(19,20,21,26)          1.1225         estimate D2E/DX2                !
 ! D95   D(48,20,21,22)         -5.044          estimate D2E/DX2                !
 ! D96   D(48,20,21,26)        175.2718         estimate D2E/DX2                !
 ! D97   D(20,21,22,23)       -179.8548         estimate D2E/DX2                !
 ! D98   D(20,21,22,49)          0.3598         estimate D2E/DX2                !
 ! D99   D(26,21,22,23)         -0.2128         estimate D2E/DX2                !
 ! D100  D(26,21,22,49)       -179.9982         estimate D2E/DX2                !
 ! D101  D(20,21,26,25)       -179.9921         estimate D2E/DX2                !
 ! D102  D(20,21,26,27)         -0.6395         estimate D2E/DX2                !
 ! D103  D(22,21,26,25)          0.3013         estimate D2E/DX2                !
 ! D104  D(22,21,26,27)        179.6539         estimate D2E/DX2                !
 ! D105  D(21,22,23,24)          0.0035         estimate D2E/DX2                !
 ! D106  D(21,22,23,50)       -179.8645         estimate D2E/DX2                !
 ! D107  D(49,22,23,24)        179.7865         estimate D2E/DX2                !
 ! D108  D(49,22,23,50)         -0.0814         estimate D2E/DX2                !
 ! D109  D(22,23,24,25)          0.1109         estimate D2E/DX2                !
 ! D110  D(22,23,24,51)       -179.8346         estimate D2E/DX2                !
 ! D111  D(50,23,24,25)        179.9796         estimate D2E/DX2                !
 ! D112  D(50,23,24,51)          0.0341         estimate D2E/DX2                !
 ! D113  D(23,24,25,26)         -0.0173         estimate D2E/DX2                !
 ! D114  D(23,24,25,52)       -179.9152         estimate D2E/DX2                !
 ! D115  D(51,24,25,26)        179.928          estimate D2E/DX2                !
 ! D116  D(51,24,25,52)          0.0301         estimate D2E/DX2                !
 ! D117  D(24,25,26,21)         -0.1785         estimate D2E/DX2                !
 ! D118  D(24,25,26,27)       -179.2787         estimate D2E/DX2                !
 ! D119  D(52,25,26,21)        179.7162         estimate D2E/DX2                !
 ! D120  D(52,25,26,27)          0.6159         estimate D2E/DX2                !
 ! D121  D(21,26,27,19)         -0.0636         estimate D2E/DX2                !
 ! D122  D(21,26,27,28)        177.8522         estimate D2E/DX2                !
 ! D123  D(25,26,27,19)        179.104          estimate D2E/DX2                !
 ! D124  D(25,26,27,28)         -2.9802         estimate D2E/DX2                !
 ! D125  D(19,27,28,29)        164.238          estimate D2E/DX2                !
 ! D126  D(19,27,28,30)        -74.2764         estimate D2E/DX2                !
 ! D127  D(19,27,28,31)         46.2376         estimate D2E/DX2                !
 ! D128  D(26,27,28,29)        -13.3903         estimate D2E/DX2                !
 ! D129  D(26,27,28,30)        108.0953         estimate D2E/DX2                !
 ! D130  D(26,27,28,31)       -131.3907         estimate D2E/DX2                !
 ! D131  D(27,28,29,53)        -53.2752         estimate D2E/DX2                !
 ! D132  D(27,28,29,54)       -173.3224         estimate D2E/DX2                !
 ! D133  D(27,28,29,55)         68.1461         estimate D2E/DX2                !
 ! D134  D(30,28,29,53)       -175.8818         estimate D2E/DX2                !
 ! D135  D(30,28,29,54)         64.0711         estimate D2E/DX2                !
 ! D136  D(30,28,29,55)        -54.4605         estimate D2E/DX2                !
 ! D137  D(31,28,29,53)         65.2147         estimate D2E/DX2                !
 ! D138  D(31,28,29,54)        -54.8324         estimate D2E/DX2                !
 ! D139  D(31,28,29,55)       -173.364          estimate D2E/DX2                !
 ! D140  D(27,28,30,56)        173.493          estimate D2E/DX2                !
 ! D141  D(27,28,30,57)         52.5102         estimate D2E/DX2                !
 ! D142  D(27,28,30,58)        -66.943          estimate D2E/DX2                !
 ! D143  D(29,28,30,56)        -62.235          estimate D2E/DX2                !
 ! D144  D(29,28,30,57)        176.7821         estimate D2E/DX2                !
 ! D145  D(29,28,30,58)         57.329          estimate D2E/DX2                !
 ! D146  D(31,28,30,56)         54.5113         estimate D2E/DX2                !
 ! D147  D(31,28,30,57)        -66.4716         estimate D2E/DX2                !
 ! D148  D(31,28,30,58)        174.0753         estimate D2E/DX2                !
 ! D149  D(27,28,31,13)        -85.6476         estimate D2E/DX2                !
 ! D150  D(27,28,31,59)         36.0345         estimate D2E/DX2                !
 ! D151  D(27,28,31,60)        154.2344         estimate D2E/DX2                !
 ! D152  D(29,28,31,13)        152.4664         estimate D2E/DX2                !
 ! D153  D(29,28,31,59)        -85.8515         estimate D2E/DX2                !
 ! D154  D(29,28,31,60)         32.3484         estimate D2E/DX2                !
 ! D155  D(30,28,31,13)         34.8675         estimate D2E/DX2                !
 ! D156  D(30,28,31,59)        156.5496         estimate D2E/DX2                !
 ! D157  D(30,28,31,60)        -85.2504         estimate D2E/DX2                !
 ! D158  D(10,32,33,7)          -0.1803         estimate D2E/DX2                !
 ! D159  D(10,32,33,62)        179.3815         estimate D2E/DX2                !
 ! D160  D(61,32,33,7)        -178.6267         estimate D2E/DX2                !
 ! D161  D(61,32,33,62)          0.9351         estimate D2E/DX2                !
 --------------------------------------------------------------------------------
 Trust Radius=3.00D-01 FncErr=1.00D-07 GrdErr=1.00D-06 EigMax=2.50D+02 EigMin=1.00D-04
 Number of steps in this run=    349 maximum allowed number of steps=    372.
 GradGradGradGradGradGradGradGradGradGradGradGradGradGradGradGradGradGrad

 Leave Link  103 at Fri Nov  4 19:53:55 2022, MaxMem=   805306368 cpu:               0.1 elap:               0.0
 (Enter /home/wykgroup/appl/g16/l202.exe)
 Stoichiometry    C26H29N3O4
 Framework group  C1[X(C26H29N3O4)]
 Deg. of freedom   180
 Full point group                 C1      NOp   1
 Largest Abelian subgroup         C1      NOp   1
 Largest concise Abelian subgroup C1      NOp   1
                         Standard orientation:                         
 ---------------------------------------------------------------------
 Center     Atomic      Atomic             Coordinates (Angstroms)
 Number     Number       Type             X           Y           Z
 ---------------------------------------------------------------------
      1          6           0       -8.203087   -0.557179   -1.415154
      2          7           0       -7.296465    0.157468   -0.541828
      3          6           0       -7.759238    1.504820   -0.286071
      4          6           0       -7.032014   -0.549080    0.695244
      5          6           0       -6.250931   -1.850742    0.462888
      6          8           0       -5.201842   -1.702686   -0.467406
      7          6           0       -4.139801   -0.916363   -0.170644
      8          6           0       -3.788847   -0.474213    1.102741
      9          6           0       -2.658964    0.302141    1.279459
     10          6           0       -1.838775    0.628594    0.206979
     11          6           0       -0.685673    1.537805    0.432933
     12          8           0       -0.819488    2.608362    0.984387
     13          7           0        0.558268    1.115165   -0.032890
     14          6           0        1.561829    2.034528   -0.036683
     15          6           0        2.906644    1.863742   -0.160629
     16          6           0        3.623742    3.154373   -0.192268
     17          8           0        3.092274    4.226364   -0.360402
     18          8           0        4.961351    3.091977    0.008492
     19          6           0        3.624321    0.604778   -0.188145
     20          7           0        4.929849    0.536128   -0.603968
     21          6           0        5.379363   -0.739389   -0.500853
     22          6           0        6.638015   -1.246327   -0.798718
     23          6           0        6.846708   -2.592871   -0.609739
     24          6           0        5.817644   -3.409301   -0.133882
     25          6           0        4.569328   -2.911060    0.159908
     26          6           0        4.313738   -1.545500   -0.020142
     27          6           0        3.202107   -0.667643    0.172171
     28          6           0        1.798929   -0.962554    0.621545
     29          6           0        1.461957   -2.454803    0.596100
     30          6           0        1.575443   -0.441789    2.047621
     31          6           0        0.825462   -0.260929   -0.368610
     32          6           0       -2.192981    0.189900   -1.069692
     33          6           0       -3.326392   -0.568539   -1.253745
     34          1           0       -8.378025    0.043426   -2.305749
     35          1           0       -9.173810   -0.768380   -0.937514
     36          1           0       -7.747209   -1.494913   -1.724034
     37          1           0       -7.885065    2.020846   -1.236166
     38          1           0       -8.717031    1.531498    0.257875
     39          1           0       -7.010879    2.038935    0.298092
     40          1           0       -7.958404   -0.803238    1.245443
     41          1           0       -6.438710    0.119959    1.323064
     42          1           0       -5.884302   -2.234113    1.424252
     43          1           0       -6.896800   -2.612760    0.021026
     44          1           0       -4.384928   -0.728066    1.965003
     45          1           0       -2.399259    0.657811    2.265416
     46          1           0        1.205485    3.052195    0.077259
     47          1           0        5.309017    3.997357    0.028807
     48          1           0        5.489519    1.332157   -0.855201
     49          1           0        7.420672   -0.596885   -1.162366
     50          1           0        7.811522   -3.026126   -0.827279
     51          1           0        6.011481   -4.462792    0.007323
     52          1           0        3.814612   -3.586041    0.524900
     53          1           0        1.674922   -2.884007   -0.379495
     54          1           0        0.405038   -2.598597    0.815615
     55          1           0        2.029961   -2.984169    1.354214
     56          1           0        0.529775   -0.551467    2.331094
     57          1           0        1.853733    0.604536    2.139259
     58          1           0        2.186298   -1.013261    2.742404
     59          1           0        1.249521   -0.306792   -1.376056
     60          1           0       -0.122752   -0.797153   -0.365904
     61          1           0       -1.588699    0.467712   -1.920966
     62          1           0       -3.616776   -0.905537   -2.235764
 ---------------------------------------------------------------------
 Rotational constants (GHZ):           0.2776163           0.0531455           0.0468489
 Leave Link  202 at Fri Nov  4 19:53:55 2022, MaxMem=   805306368 cpu:               0.1 elap:               0.0
 (Enter /home/wykgroup/appl/g16/l301.exe)
 Standard basis: 6-31G(d) (6D, 7F)
 Ernie: Thresh=  0.10000D-02 Tol=  0.10000D-05 Strict=F.
 There are   553 symmetry adapted cartesian basis functions of A   symmetry.
 There are   553 symmetry adapted basis functions of A   symmetry.
   553 basis functions,  1040 primitive gaussians,   553 cartesian basis functions
   119 alpha electrons      119 beta electrons
       nuclear repulsion energy      3307.1427389032 Hartrees.
 IExCor=  402 DFT=T Ex+Corr=B3LYP ExCW=0 ScaHFX=  0.200000
 ScaDFX=  0.800000  0.720000  1.000000  0.810000 ScalE2=  1.000000  1.000000
 IRadAn=      5 IRanWt=     -1 IRanGd=            0 ICorTp=0 IEmpDi=  4
 NAtoms=   62 NActive=   62 NUniq=   62 SFac= 1.00D+00 NAtFMM=   60 NAOKFM=T Big=T
 Integral buffers will be    131072 words long.
 Raffenetti 2 integral format.
 Two-electron integral symmetry is turned on.
 Leave Link  301 at Fri Nov  4 19:53:55 2022, MaxMem=   805306368 cpu:               0.3 elap:               0.1
 (Enter /home/wykgroup/appl/g16/l302.exe)
 NPDir=0 NMtPBC=     1 NCelOv=     1 NCel=       1 NClECP=     1 NCelD=      1
         NCelK=      1 NCelE2=     1 NClLst=     1 CellRange=     0.0.
 One-electron integrals computed using PRISM.
 One-electron integral symmetry used in STVInt
 NBasis=   553 RedAO= T EigKep=  2.89D-04  NBF=   553
 NBsUse=   553 1.00D-06 EigRej= -1.00D+00 NBFU=   553
 Precomputing XC quadrature grid using
 IXCGrd= 4 IRadAn=           5 IRanWt=          -1 IRanGd=           0 AccXCQ= 0.00D+00.
 Generated NRdTot=       0 NPtTot=           0 NUsed=           0 NTot=          32
 NSgBfM=   537   536   536   536   537 MxSgAt=    62 MxSgA2=    62.
 Leave Link  302 at Fri Nov  4 19:53:56 2022, MaxMem=   805306368 cpu:               7.8 elap:               1.1
 (Enter /home/wykgroup/appl/g16/l303.exe)
 DipDrv:  MaxL=1.
 Leave Link  303 at Fri Nov  4 19:53:57 2022, MaxMem=   805306368 cpu:               0.5 elap:               0.1
 (Enter /home/wykgroup/appl/g16/l401.exe)
 ExpMin= 1.61D-01 ExpMax= 5.48D+03 ExpMxC= 8.25D+02 IAcc=3 IRadAn=         5 AccDes= 0.00D+00
 Harris functional with IExCor=  402 and IRadAn=       5 diagonalized for initial guess.
 HarFok:  IExCor=  402 AccDes= 0.00D+00 IRadAn=         5 IDoV= 1 UseB2=F ITyADJ=14
 ICtDFT=  3500011 ScaDFX=  1.000000  1.000000  1.000000  1.000000
 FoFCou: FMM=F IPFlag=           0 FMFlag=      100000 FMFlg1=        2001
         NFxFlg=           0 DoJE=T BraDBF=F KetDBF=T FulRan=T
         wScrn=  0.000000 ICntrl=       500 IOpCl=  0 I1Cent=   200000004 NGrid=           0
         NMat0=    1 NMatS0=      1 NMatT0=    0 NMatD0=    1 NMtDS0=    0 NMtDT0=    0
 Petite list used in FoFCou.
 Harris En= -1473.39835781809    
 JPrj=0 DoOrth=F DoCkMO=F.
 Leave Link  401 at Fri Nov  4 19:54:01 2022, MaxMem=   805306368 cpu:              34.5 elap:               5.0
 (Enter /home/wykgroup/appl/g16/l502.exe)
 Integral symmetry usage will be decided dynamically.
 Closed shell SCF:
 Using DIIS extrapolation, IDIIS=  1040.
 NGot=   805306368 LenX=   804684730 LenY=   804378368
 Requested convergence on RMS density matrix=1.00D-08 within  32 cycles.
 Requested convergence on MAX density matrix=1.00D-06.
 Requested convergence on             energy=1.00D-06.
 No special actions if energy rises.
 Fock matrices will be formed incrementally for  20 cycles.
 Integral accuracy reduced to 1.0D-05 until final iterations.

 Cycle   1  Pass 0  IDiag  1:
 FoFJK:  IHMeth= 1 ICntrl=       0 DoSepK=F KAlg= 0 I1Cent=           0 FoldK=F
 IRaf= 860000000 NMat=       1 IRICut=       1 DoRegI=T DoRafI=F ISym2E= 0 IDoP0=0 IntGTp=1.
 FoFCou: FMM=T IPFlag=           0 FMFlag=      100000 FMFlg1=        2001
         NFxFlg=           0 DoJE=F BraDBF=F KetDBF=F FulRan=T
         wScrn=  0.000000 ICntrl=         0 IOpCl=  0 I1Cent=           0 NGrid=           0
         NMat0=    1 NMatS0=      1 NMatT0=    0 NMatD0=    1 NMtDS0=    0 NMtDT0=    0
 Symmetry not used in FoFCou.
 FMM levels:  10  Number of levels for PrismC:   9
 E= -1472.55845017447    
 DIIS: error= 3.08D-02 at cycle   1 NSaved=   1.
 NSaved= 1 IEnMin= 1 EnMin= -1472.55845017447     IErMin= 1 ErrMin= 3.08D-02
 ErrMax= 3.08D-02  0.00D+00 EMaxC= 1.00D-01 BMatC= 8.40D-01 BMatP= 8.40D-01
 IDIUse=3 WtCom= 6.92D-01 WtEn= 3.08D-01
 Coeff-Com:  0.100D+01
 Coeff-En:   0.100D+01
 Coeff:      0.100D+01
 Gap=     0.114 Goal=   None    Shift=    0.000
 GapD=    0.114 DampG=1.000 DampE=0.500 DampFc=0.5000 IDamp=-1.
 Damping current iteration by 5.00D-01
 RMSDP=4.40D-03 MaxDP=2.47D-01              OVMax= 2.89D-01

 Cycle   2  Pass 0  IDiag  1:
 RMSU=  2.17D-03    CP:  9.76D-01
 E= -1472.83844600349     Delta-E=       -0.279995829023 Rises=F Damp=T
 DIIS: error= 9.05D-03 at cycle   2 NSaved=   2.
 NSaved= 2 IEnMin= 2 EnMin= -1472.83844600349     IErMin= 2 ErrMin= 9.05D-03
 ErrMax= 9.05D-03  0.00D+00 EMaxC= 1.00D-01 BMatC= 1.16D-01 BMatP= 8.40D-01
 IDIUse=3 WtCom= 9.09D-01 WtEn= 9.05D-02
 Coeff-Com:  0.170D+00 0.830D+00
 Coeff-En:   0.263D+00 0.737D+00
 Coeff:      0.178D+00 0.822D+00
 Gap=     0.142 Goal=   None    Shift=    0.000
 RMSDP=1.57D-03 MaxDP=1.30D-01 DE=-2.80D-01 OVMax= 3.46D-01

 Cycle   3  Pass 0  IDiag  1:
 RMSU=  1.44D-03    CP:  9.58D-01  7.33D-01
 E= -1473.24109187415     Delta-E=       -0.402645870658 Rises=F Damp=F
 DIIS: error= 1.41D-02 at cycle   3 NSaved=   3.
 NSaved= 3 IEnMin= 3 EnMin= -1473.24109187415     IErMin= 2 ErrMin= 9.05D-03
 ErrMax= 1.41D-02  0.00D+00 EMaxC= 1.00D-01 BMatC= 1.52D-01 BMatP= 1.16D-01
 IDIUse=2 WtCom= 0.00D+00 WtEn= 1.00D+00
 Coeff-En:   0.000D+00 0.000D+00 0.100D+01
 Coeff:      0.000D+00 0.000D+00 0.100D+01
 Gap=     0.129 Goal=   None    Shift=    0.000
 RMSDP=2.57D-03 MaxDP=2.49D-01 DE=-4.03D-01 OVMax= 2.55D-01

 Cycle   4  Pass 0  IDiag  1:
 RMSU=  1.42D-03    CP:  9.68D-01  1.27D+00 -2.51D-01
 E= -1472.54834519837     Delta-E=        0.692746675773 Rises=F Damp=F
 DIIS: error= 3.63D-02 at cycle   4 NSaved=   4.
 NSaved= 4 IEnMin= 3 EnMin= -1473.24109187415     IErMin= 2 ErrMin= 9.05D-03
 ErrMax= 3.63D-02  0.00D+00 EMaxC= 1.00D-01 BMatC= 9.78D-01 BMatP= 1.16D-01
 IDIUse=2 WtCom= 0.00D+00 WtEn= 1.00D+00
 Coeff-En:   0.000D+00 0.000D+00 0.804D+00 0.196D+00
 Coeff:      0.000D+00 0.000D+00 0.804D+00 0.196D+00
 Gap=     0.173 Goal=   None    Shift=    0.000
 RMSDP=1.41D-03 MaxDP=1.57D-01 DE= 6.93D-01 OVMax= 1.74D-01

 Cycle   5  Pass 0  IDiag  1:
 RMSU=  2.79D-04    CP:  9.65D-01  9.29D-01  3.80D-01  4.77D-01
 E= -1473.31275403053     Delta-E=       -0.764408832152 Rises=F Damp=F
 DIIS: error= 9.78D-03 at cycle   5 NSaved=   5.
 NSaved= 5 IEnMin= 5 EnMin= -1473.31275403053     IErMin= 2 ErrMin= 9.05D-03
 ErrMax= 9.78D-03  0.00D+00 EMaxC= 1.00D-01 BMatC= 7.27D-02 BMatP= 1.16D-01
 IDIUse=3 WtCom= 9.02D-01 WtEn= 9.78D-02
 Coeff-Com: -0.681D-03 0.325D-01 0.337D+00-0.683D-01 0.699D+00
 Coeff-En:   0.000D+00 0.000D+00 0.362D+00 0.000D+00 0.638D+00
 Coeff:     -0.614D-03 0.293D-01 0.340D+00-0.616D-01 0.693D+00
 Gap=     0.132 Goal=   None    Shift=    0.000
 RMSDP=5.34D-04 MaxDP=4.25D-02 DE=-7.64D-01 OVMax= 9.07D-02

 Cycle   6  Pass 0  IDiag  1:
 RMSU=  1.06D-04    CP:  9.62D-01  8.33D-01  6.39D-01  2.74D-01  6.72D-01
 E= -1473.37533786015     Delta-E=       -0.062583829627 Rises=F Damp=F
 DIIS: error= 1.16D-03 at cycle   6 NSaved=   6.
 NSaved= 6 IEnMin= 6 EnMin= -1473.37533786015     IErMin= 6 ErrMin= 1.16D-03
 ErrMax= 1.16D-03  0.00D+00 EMaxC= 1.00D-01 BMatC= 9.62D-04 BMatP= 7.27D-02
 IDIUse=3 WtCom= 9.88D-01 WtEn= 1.16D-02
 Coeff-Com: -0.419D-02 0.180D-01 0.171D+00-0.648D-01 0.464D+00 0.415D+00
 Coeff-En:   0.000D+00 0.000D+00 0.000D+00 0.000D+00 0.000D+00 0.100D+01
 Coeff:     -0.414D-02 0.178D-01 0.169D+00-0.640D-01 0.459D+00 0.422D+00
 Gap=     0.130 Goal=   None    Shift=    0.000
 RMSDP=7.34D-05 MaxDP=4.84D-03 DE=-6.26D-02 OVMax= 1.61D-02

 Cycle   7  Pass 0  IDiag  1:
 RMSU=  2.81D-05    CP:  9.62D-01  8.42D-01  6.26D-01  2.76D-01  7.74D-01
                    CP:  4.86D-01
 E= -1473.37625302679     Delta-E=       -0.000915166642 Rises=F Damp=F
 DIIS: error= 2.28D-04 at cycle   7 NSaved=   7.
 NSaved= 7 IEnMin= 7 EnMin= -1473.37625302679     IErMin= 7 ErrMin= 2.28D-04
 ErrMax= 2.28D-04  0.00D+00 EMaxC= 1.00D-01 BMatC= 4.52D-05 BMatP= 9.62D-04
 IDIUse=3 WtCom= 9.98D-01 WtEn= 2.28D-03
 Coeff-Com: -0.128D-02 0.472D-02 0.582D-01-0.248D-01 0.161D+00 0.200D+00
 Coeff-Com:  0.602D+00
 Coeff-En:   0.000D+00 0.000D+00 0.000D+00 0.000D+00 0.000D+00 0.000D+00
 Coeff-En:   0.100D+01
 Coeff:     -0.128D-02 0.471D-02 0.581D-01-0.248D-01 0.161D+00 0.200D+00
 Coeff:      0.603D+00
 Gap=     0.131 Goal=   None    Shift=    0.000
 RMSDP=1.81D-05 MaxDP=9.59D-04 DE=-9.15D-04 OVMax= 2.94D-03

 Cycle   8  Pass 0  IDiag  1:
 RMSU=  1.10D-05    CP:  9.62D-01  8.41D-01  6.30D-01  2.75D-01  7.68D-01
                    CP:  5.36D-01  5.90D-01
 E= -1473.37628984316     Delta-E=       -0.000036816360 Rises=F Damp=F
 DIIS: error= 9.52D-05 at cycle   8 NSaved=   8.
 NSaved= 8 IEnMin= 8 EnMin= -1473.37628984316     IErMin= 8 ErrMin= 9.52D-05
 ErrMax= 9.52D-05  0.00D+00 EMaxC= 1.00D-01 BMatC= 1.19D-05 BMatP= 4.52D-05
 IDIUse=1 WtCom= 1.00D+00 WtEn= 0.00D+00
 Coeff-Com:  0.945D-04-0.559D-03 0.125D-01-0.537D-02 0.307D-01 0.627D-01
 Coeff-Com:  0.406D+00 0.494D+00
 Coeff:      0.945D-04-0.559D-03 0.125D-01-0.537D-02 0.307D-01 0.627D-01
 Coeff:      0.406D+00 0.494D+00
 Gap=     0.131 Goal=   None    Shift=    0.000
 RMSDP=7.75D-06 MaxDP=6.83D-04 DE=-3.68D-05 OVMax= 1.16D-03

 Initial convergence to 1.0D-05 achieved.  Increase integral accuracy.
 Cycle   9  Pass 1  IDiag  1:
 E= -1473.37628077489     Delta-E=        0.000009068262 Rises=F Damp=F
 DIIS: error= 2.23D-04 at cycle   1 NSaved=   1.
 NSaved= 1 IEnMin= 1 EnMin= -1473.37628077489     IErMin= 1 ErrMin= 2.23D-04
 ErrMax= 2.23D-04  0.00D+00 EMaxC= 1.00D-01 BMatC= 9.02D-06 BMatP= 9.02D-06
 IDIUse=3 WtCom= 9.98D-01 WtEn= 2.23D-03
 Coeff-Com:  0.100D+01
 Coeff-En:   0.100D+01
 Coeff:      0.100D+01
 Gap=     0.131 Goal=   None    Shift=    0.000
 RMSDP=7.75D-06 MaxDP=6.83D-04 DE= 9.07D-06 OVMax= 5.06D-04

 Cycle  10  Pass 1  IDiag  1:
 RMSU=  1.11D-04    CP:  1.00D+00
 E= -1473.37628632511     Delta-E=       -0.000005550222 Rises=F Damp=F
 DIIS: error= 7.47D-05 at cycle   2 NSaved=   2.
 NSaved= 2 IEnMin= 2 EnMin= -1473.37628632511     IErMin= 2 ErrMin= 7.47D-05
 ErrMax= 7.47D-05  0.00D+00 EMaxC= 1.00D-01 BMatC= 3.03D-06 BMatP= 9.02D-06
 IDIUse=1 WtCom= 1.00D+00 WtEn= 0.00D+00
 Coeff-Com:  0.297D+00 0.703D+00
 Coeff:      0.297D+00 0.703D+00
 Gap=     0.131 Goal=   None    Shift=    0.000
 RMSDP=7.16D-06 MaxDP=5.39D-04 DE=-5.55D-06 OVMax= 7.76D-04

 Cycle  11  Pass 1  IDiag  1:
 RMSU=  7.14D-06    CP:  1.00D+00  1.00D+00
 E= -1473.37628471589     Delta-E=        0.000001609227 Rises=F Damp=F
 DIIS: error= 1.04D-04 at cycle   3 NSaved=   3.
 NSaved= 3 IEnMin= 2 EnMin= -1473.37628632511     IErMin= 2 ErrMin= 7.47D-05
 ErrMax= 1.04D-04  0.00D+00 EMaxC= 1.00D-01 BMatC= 4.88D-06 BMatP= 3.03D-06
 IDIUse=3 WtCom= 4.96D-01 WtEn= 5.04D-01
 Coeff-Com:  0.438D-02 0.558D+00 0.438D+00
 Coeff-En:   0.000D+00 0.586D+00 0.414D+00
 Coeff:      0.217D-02 0.572D+00 0.425D+00
 Gap=     0.131 Goal=   None    Shift=    0.000
 RMSDP=3.99D-06 MaxDP=2.95D-04 DE= 1.61D-06 OVMax= 4.15D-04

 Cycle  12  Pass 1  IDiag  1:
 RMSU=  8.95D-07    CP:  1.00D+00  1.01D+00  4.62D-01
 E= -1473.37628889792     Delta-E=       -0.000004182037 Rises=F Damp=F
 DIIS: error= 5.95D-06 at cycle   4 NSaved=   4.
 NSaved= 4 IEnMin= 4 EnMin= -1473.37628889792     IErMin= 4 ErrMin= 5.95D-06
 ErrMax= 5.95D-06  0.00D+00 EMaxC= 1.00D-01 BMatC= 8.89D-08 BMatP= 3.03D-06
 IDIUse=1 WtCom= 1.00D+00 WtEn= 0.00D+00
 Coeff-Com: -0.342D-02 0.345D+00 0.261D+00 0.397D+00
 Coeff:     -0.342D-02 0.345D+00 0.261D+00 0.397D+00
 Gap=     0.131 Goal=   None    Shift=    0.000
 RMSDP=5.66D-07 MaxDP=3.38D-05 DE=-4.18D-06 OVMax= 8.51D-05

 Cycle  13  Pass 1  IDiag  1:
 RMSU=  2.15D-07    CP:  1.00D+00  1.01D+00  4.44D-01  4.34D-01
 E= -1473.37628897612     Delta-E=       -0.000000078191 Rises=F Damp=F
 DIIS: error= 1.17D-06 at cycle   5 NSaved=   5.
 NSaved= 5 IEnMin= 5 EnMin= -1473.37628897612     IErMin= 5 ErrMin= 1.17D-06
 ErrMax= 1.17D-06  0.00D+00 EMaxC= 1.00D-01 BMatC= 1.50D-09 BMatP= 8.89D-08
 IDIUse=1 WtCom= 1.00D+00 WtEn= 0.00D+00
 Coeff-Com: -0.212D-02 0.192D+00 0.145D+00 0.235D+00 0.430D+00
 Coeff:     -0.212D-02 0.192D+00 0.145D+00 0.235D+00 0.430D+00
 Gap=     0.131 Goal=   None    Shift=    0.000
 RMSDP=9.11D-08 MaxDP=5.51D-06 DE=-7.82D-08 OVMax= 1.16D-05

 Cycle  14  Pass 1  IDiag  1:
 RMSU=  6.95D-08    CP:  1.00D+00  1.01D+00  4.44D-01  4.51D-01  7.36D-01
 E= -1473.37628897746     Delta-E=       -0.000000001342 Rises=F Damp=F
 DIIS: error= 3.22D-07 at cycle   6 NSaved=   6.
 NSaved= 6 IEnMin= 6 EnMin= -1473.37628897746     IErMin= 6 ErrMin= 3.22D-07
 ErrMax= 3.22D-07  0.00D+00 EMaxC= 1.00D-01 BMatC= 6.95D-11 BMatP= 1.50D-09
 IDIUse=1 WtCom= 1.00D+00 WtEn= 0.00D+00
 Coeff-Com: -0.858D-03 0.747D-01 0.567D-01 0.937D-01 0.226D+00 0.550D+00
 Coeff:     -0.858D-03 0.747D-01 0.567D-01 0.937D-01 0.226D+00 0.550D+00
 Gap=     0.131 Goal=   None    Shift=    0.000
 RMSDP=2.07D-08 MaxDP=1.29D-06 DE=-1.34D-09 OVMax= 1.71D-06

 Cycle  15  Pass 1  IDiag  1:
 RMSU=  1.89D-08    CP:  1.00D+00  1.01D+00  4.45D-01  4.51D-01  7.45D-01
                    CP:  9.05D-01
 E= -1473.37628897752     Delta-E=       -0.000000000058 Rises=F Damp=F
 DIIS: error= 1.78D-07 at cycle   7 NSaved=   7.
 NSaved= 7 IEnMin= 7 EnMin= -1473.37628897752     IErMin= 7 ErrMin= 1.78D-07
 ErrMax= 1.78D-07  0.00D+00 EMaxC= 1.00D-01 BMatC= 1.30D-11 BMatP= 6.95D-11
 IDIUse=1 WtCom= 1.00D+00 WtEn= 0.00D+00
 Coeff-Com: -0.204D-03 0.166D-01 0.127D-01 0.216D-01 0.695D-01 0.331D+00
 Coeff-Com:  0.549D+00
 Coeff:     -0.204D-03 0.166D-01 0.127D-01 0.216D-01 0.695D-01 0.331D+00
 Coeff:      0.549D+00
 Gap=     0.131 Goal=   None    Shift=    0.000
 RMSDP=9.41D-09 MaxDP=6.82D-07 DE=-5.82D-11 OVMax= 8.78D-07

 SCF Done:  E(RB3LYP) =  -1473.37628898     A.U. after   15 cycles
            NFock= 15  Conv=0.94D-08     -V/T= 2.0086
 KE= 1.460804754256D+03 PE=-1.004090799210D+04 EE= 3.799584209966D+03
 Leave Link  502 at Fri Nov  4 19:55:56 2022, MaxMem=   805306368 cpu:             803.2 elap:             114.9
 (Enter /home/wykgroup/appl/g16/l508.exe)
 QCSCF skips out because SCF is already converged.
 Leave Link  508 at Fri Nov  4 19:55:56 2022, MaxMem=   805306368 cpu:               0.0 elap:               0.0
 (Enter /home/wykgroup/appl/g16/l601.exe)
 Copying SCF densities to generalized density rwf, IOpCl= 0 IROHF=0.

 **********************************************************************

            Population analysis using the SCF Density.

 **********************************************************************

 Orbital symmetries:
       Occupied  (A) (A) (A) (A) (A) (A) (A) (A) (A) (A) (A) (A)
                 (A) (A) (A) (A) (A) (A) (A) (A) (A) (A) (A) (A)
                 (A) (A) (A) (A) (A) (A) (A) (A) (A) (A) (A) (A)
                 (A) (A) (A) (A) (A) (A) (A) (A) (A) (A) (A) (A)
                 (A) (A) (A) (A) (A) (A) (A) (A) (A) (A) (A) (A)
                 (A) (A) (A) (A) (A) (A) (A) (A) (A) (A) (A) (A)
                 (A) (A) (A) (A) (A) (A) (A) (A) (A) (A) (A) (A)
                 (A) (A) (A) (A) (A) (A) (A) (A) (A) (A) (A) (A)
                 (A) (A) (A) (A) (A) (A) (A) (A) (A) (A) (A) (A)
                 (A) (A) (A) (A) (A) (A) (A) (A) (A) (A) (A)
       Virtual   (A) (A) (A) (A) (A) (A) (A) (A) (A) (A) (A) (A)
                 (A) (A) (A) (A) (A) (A) (A) (A) (A) (A) (A) (A)
                 (A) (A) (A) (A) (A) (A) (A) (A) (A) (A) (A) (A)
                 (A) (A) (A) (A) (A) (A) (A) (A) (A) (A) (A) (A)
                 (A) (A) (A) (A) (A) (A) (A) (A) (A) (A) (A) (A)
                 (A) (A) (A) (A) (A) (A) (A) (A) (A) (A) (A) (A)
                 (A) (A) (A) (A) (A) (A) (A) (A) (A) (A) (A) (A)
                 (A) (A) (A) (A) (A) (A) (A) (A) (A) (A) (A) (A)
                 (A) (A) (A) (A) (A) (A) (A) (A) (A) (A) (A) (A)
                 (A) (A) (A) (A) (A) (A) (A) (A) (A) (A) (A) (A)
                 (A) (A) (A) (A) (A) (A) (A) (A) (A) (A) (A) (A)
                 (A) (A) (A) (A) (A) (A) (A) (A) (A) (A) (A) (A)
                 (A) (A) (A) (A) (A) (A) (A) (A) (A) (A) (A) (A)
                 (A) (A) (A) (A) (A) (A) (A) (A) (A) (A) (A) (A)
                 (A) (A) (A) (A) (A) (A) (A) (A) (A) (A) (A) (A)
                 (A) (A) (A) (A) (A) (A) (A) (A) (A) (A) (A) (A)
                 (A) (A) (A) (A) (A) (A) (A) (A) (A) (A) (A) (A)
                 (A) (A) (A) (A) (A) (A) (A) (A) (A) (A) (A) (A)
                 (A) (A) (A) (A) (A) (A) (A) (A) (A) (A) (A) (A)
                 (A) (A) (A) (A) (A) (A) (A) (A) (A) (A) (A) (A)
                 (A) (A) (A) (A) (A) (A) (A) (A) (A) (A) (A) (A)
                 (A) (A) (A) (A) (A) (A) (A) (A) (A) (A) (A) (A)
                 (A) (A) (A) (A) (A) (A) (A) (A) (A) (A) (A) (A)
                 (A) (A) (A) (A) (A) (A) (A) (A) (A) (A) (A) (A)
                 (A) (A) (A) (A) (A) (A) (A) (A) (A) (A) (A) (A)
                 (A) (A) (A) (A) (A) (A) (A) (A) (A) (A) (A) (A)
                 (A) (A) (A) (A) (A) (A) (A) (A) (A) (A) (A) (A)
                 (A) (A) (A) (A) (A) (A) (A) (A) (A) (A) (A) (A)
                 (A) (A) (A) (A) (A) (A) (A) (A) (A) (A) (A) (A)
                 (A) (A) (A) (A) (A) (A) (A) (A) (A) (A) (A) (A)
                 (A) (A) (A) (A) (A) (A) (A) (A) (A) (A) (A) (A)
                 (A) (A) (A) (A) (A) (A) (A) (A) (A) (A) (A) (A)
                 (A) (A) (A) (A) (A) (A) (A) (A) (A) (A) (A) (A)
                 (A) (A) (A) (A) (A) (A) (A) (A) (A) (A) (A) (A)
                 (A) (A) (A) (A) (A) (A) (A) (A) (A) (A) (A) (A)
                 (A) (A) (A) (A) (A) (A) (A) (A) (A) (A) (A) (A)
                 (A) (A)
 The electronic state is 1-A.
 Alpha  occ. eigenvalues --  -19.19999 -19.18520 -19.12884 -19.12873 -14.39033
 Alpha  occ. eigenvalues --  -14.36295 -14.32851 -10.31912 -10.29726 -10.25901
 Alpha  occ. eigenvalues --  -10.25069 -10.23332 -10.22193 -10.21847 -10.21809
 Alpha  occ. eigenvalues --  -10.20654 -10.20557 -10.20391 -10.20323 -10.20312
 Alpha  occ. eigenvalues --  -10.20244 -10.20214 -10.20036 -10.19699 -10.19280
 Alpha  occ. eigenvalues --  -10.17620 -10.17477 -10.17475 -10.17204 -10.17188
 Alpha  occ. eigenvalues --  -10.17103 -10.17028 -10.16688  -1.11098  -1.07869
 Alpha  occ. eigenvalues --   -1.05799  -1.01306  -0.98100  -0.96850  -0.93070
 Alpha  occ. eigenvalues --   -0.87035  -0.83804  -0.83023  -0.81058  -0.78517
 Alpha  occ. eigenvalues --   -0.76498  -0.76281  -0.74878  -0.72942  -0.71863
 Alpha  occ. eigenvalues --   -0.71174  -0.70226  -0.69050  -0.68614  -0.66938
 Alpha  occ. eigenvalues --   -0.63135  -0.62388  -0.61941  -0.61511  -0.59785
 Alpha  occ. eigenvalues --   -0.58596  -0.58197  -0.55223  -0.54631  -0.54321
 Alpha  occ. eigenvalues --   -0.52376  -0.51684  -0.50688  -0.49947  -0.48997
 Alpha  occ. eigenvalues --   -0.48671  -0.48126  -0.47873  -0.47169  -0.46741
 Alpha  occ. eigenvalues --   -0.46494  -0.45634  -0.45151  -0.44619  -0.44289
 Alpha  occ. eigenvalues --   -0.43994  -0.43357  -0.43099  -0.42633  -0.42339
 Alpha  occ. eigenvalues --   -0.42229  -0.41858  -0.40994  -0.40629  -0.39995
 Alpha  occ. eigenvalues --   -0.39688  -0.39246  -0.39044  -0.38702  -0.38445
 Alpha  occ. eigenvalues --   -0.38077  -0.37134  -0.36899  -0.36677  -0.35869
 Alpha  occ. eigenvalues --   -0.35464  -0.34972  -0.34683  -0.33991  -0.33474
 Alpha  occ. eigenvalues --   -0.33173  -0.32324  -0.32232  -0.31659  -0.30657
 Alpha  occ. eigenvalues --   -0.27609  -0.26891  -0.26774  -0.26381  -0.24919
 Alpha  occ. eigenvalues --   -0.22735  -0.21744  -0.20535  -0.18298
 Alpha virt. eigenvalues --   -0.05233  -0.01216  -0.01046   0.00154   0.03708
 Alpha virt. eigenvalues --    0.04248   0.06070   0.07053   0.07361   0.08322
 Alpha virt. eigenvalues --    0.09357   0.10654   0.10850   0.10968   0.11903
 Alpha virt. eigenvalues --    0.12575   0.13042   0.13445   0.14135   0.14412
 Alpha virt. eigenvalues --    0.14573   0.14797   0.14904   0.15256   0.15537
 Alpha virt. eigenvalues --    0.15945   0.16192   0.16471   0.16626   0.17592
 Alpha virt. eigenvalues --    0.18255   0.18470   0.18509   0.18642   0.18890
 Alpha virt. eigenvalues --    0.19436   0.19878   0.20319   0.20696   0.21203
 Alpha virt. eigenvalues --    0.21864   0.22501   0.22858   0.23681   0.24196
 Alpha virt. eigenvalues --    0.24490   0.24772   0.25489   0.25635   0.26018
 Alpha virt. eigenvalues --    0.26750   0.27603   0.28383   0.28456   0.29529
 Alpha virt. eigenvalues --    0.30718   0.31089   0.31598   0.32993   0.33954
 Alpha virt. eigenvalues --    0.34247   0.35098   0.35393   0.37097   0.38297
 Alpha virt. eigenvalues --    0.39105   0.41032   0.41701   0.43768   0.45572
 Alpha virt. eigenvalues --    0.46786   0.47908   0.48252   0.48841   0.49859
 Alpha virt. eigenvalues --    0.50826   0.51025   0.51262   0.51460   0.52151
 Alpha virt. eigenvalues --    0.52543   0.52896   0.53490   0.53539   0.54727
 Alpha virt. eigenvalues --    0.54976   0.55201   0.55767   0.56221   0.56505
 Alpha virt. eigenvalues --    0.56759   0.57371   0.57923   0.58478   0.58812
 Alpha virt. eigenvalues --    0.59163   0.59704   0.59969   0.60464   0.60892
 Alpha virt. eigenvalues --    0.60926   0.61629   0.61723   0.62398   0.62645
 Alpha virt. eigenvalues --    0.62941   0.63200   0.63272   0.63945   0.64504
 Alpha virt. eigenvalues --    0.64766   0.65539   0.65847   0.66757   0.67035
 Alpha virt. eigenvalues --    0.67803   0.68354   0.69492   0.70364   0.70734
 Alpha virt. eigenvalues --    0.71370   0.71828   0.73801   0.74202   0.74788
 Alpha virt. eigenvalues --    0.75481   0.76040   0.76901   0.78036   0.78701
 Alpha virt. eigenvalues --    0.79835   0.79942   0.80041   0.80775   0.81840
 Alpha virt. eigenvalues --    0.81914   0.82345   0.82600   0.82973   0.83229
 Alpha virt. eigenvalues --    0.83527   0.83820   0.84087   0.85236   0.85580
 Alpha virt. eigenvalues --    0.85857   0.86085   0.87117   0.87473   0.87943
 Alpha virt. eigenvalues --    0.88500   0.88916   0.88997   0.89193   0.89782
 Alpha virt. eigenvalues --    0.90123   0.90383   0.90928   0.91142   0.91342
 Alpha virt. eigenvalues --    0.91885   0.92462   0.92891   0.93594   0.93896
 Alpha virt. eigenvalues --    0.94529   0.95177   0.95591   0.96320   0.97077
 Alpha virt. eigenvalues --    0.97595   0.97912   0.98287   0.98371   0.98691
 Alpha virt. eigenvalues --    0.99570   0.99781   1.00444   1.00634   1.01223
 Alpha virt. eigenvalues --    1.01631   1.03068   1.03552   1.04262   1.04831
 Alpha virt. eigenvalues --    1.05460   1.06683   1.07495   1.09018   1.09598
 Alpha virt. eigenvalues --    1.10262   1.11742   1.12389   1.13553   1.13813
 Alpha virt. eigenvalues --    1.14935   1.15863   1.17435   1.18063   1.18813
 Alpha virt. eigenvalues --    1.19388   1.20385   1.21380   1.22039   1.23142
 Alpha virt. eigenvalues --    1.24507   1.26656   1.27116   1.28446   1.29412
 Alpha virt. eigenvalues --    1.30503   1.30676   1.31473   1.32906   1.33408
 Alpha virt. eigenvalues --    1.34836   1.35301   1.37321   1.39012   1.40015
 Alpha virt. eigenvalues --    1.40165   1.41010   1.41497   1.42145   1.43081
 Alpha virt. eigenvalues --    1.44601   1.45522   1.45901   1.46178   1.46588
 Alpha virt. eigenvalues --    1.47478   1.47864   1.48446   1.49255   1.50286
 Alpha virt. eigenvalues --    1.50402   1.50985   1.51441   1.52040   1.52946
 Alpha virt. eigenvalues --    1.53530   1.54862   1.56938   1.57651   1.62540
 Alpha virt. eigenvalues --    1.62760   1.63531   1.63838   1.65922   1.67355
 Alpha virt. eigenvalues --    1.68120   1.69543   1.70352   1.72575   1.73656
 Alpha virt. eigenvalues --    1.74559   1.76157   1.76549   1.77076   1.77984
 Alpha virt. eigenvalues --    1.79506   1.80275   1.81071   1.81563   1.81871
 Alpha virt. eigenvalues --    1.82387   1.82983   1.83684   1.83957   1.85175
 Alpha virt. eigenvalues --    1.85470   1.86259   1.87468   1.87888   1.88110
 Alpha virt. eigenvalues --    1.88997   1.91130   1.91142   1.91955   1.92430
 Alpha virt. eigenvalues --    1.93555   1.94259   1.95255   1.96079   1.96500
 Alpha virt. eigenvalues --    1.96814   1.97189   1.98915   1.99638   2.00093
 Alpha virt. eigenvalues --    2.01146   2.01248   2.01481   2.01765   2.01999
 Alpha virt. eigenvalues --    2.03646   2.04338   2.05165   2.06081   2.07008
 Alpha virt. eigenvalues --    2.07848   2.08246   2.08543   2.09851   2.10541
 Alpha virt. eigenvalues --    2.10759   2.11030   2.13376   2.13939   2.14628
 Alpha virt. eigenvalues --    2.15210   2.15817   2.16343   2.16876   2.19043
 Alpha virt. eigenvalues --    2.19825   2.20814   2.21378   2.21854   2.22700
 Alpha virt. eigenvalues --    2.23607   2.24582   2.25117   2.26918   2.27207
 Alpha virt. eigenvalues --    2.27374   2.28092   2.28835   2.29171   2.29798
 Alpha virt. eigenvalues --    2.30923   2.31133   2.32520   2.33324   2.34017
 Alpha virt. eigenvalues --    2.34472   2.36112   2.36804   2.38122   2.39697
 Alpha virt. eigenvalues --    2.40259   2.40928   2.41627   2.44246   2.44937
 Alpha virt. eigenvalues --    2.46095   2.46745   2.47721   2.50257   2.51084
 Alpha virt. eigenvalues --    2.53282   2.54331   2.55062   2.55366   2.56679
 Alpha virt. eigenvalues --    2.58893   2.60256   2.61475   2.62349   2.62808
 Alpha virt. eigenvalues --    2.63499   2.65213   2.65862   2.66621   2.68016
 Alpha virt. eigenvalues --    2.68555   2.70394   2.71137   2.72215   2.72568
 Alpha virt. eigenvalues --    2.74048   2.74778   2.75345   2.75987   2.77666
 Alpha virt. eigenvalues --    2.78861   2.79577   2.80143   2.81385   2.82549
 Alpha virt. eigenvalues --    2.83114   2.85626   2.88173   2.88388   2.91767
 Alpha virt. eigenvalues --    2.92770   2.95614   2.97607   2.99006   3.01278
 Alpha virt. eigenvalues --    3.03073   3.04437   3.08436   3.11122   3.18169
 Alpha virt. eigenvalues --    3.22762   3.29665   3.32170   3.37557   3.46165
 Alpha virt. eigenvalues --    3.51243   3.88453   4.03132   4.07233   4.09701
 Alpha virt. eigenvalues --    4.10462   4.10800   4.11941   4.13839   4.14706
 Alpha virt. eigenvalues --    4.15387   4.18772   4.21914   4.23001   4.25889
 Alpha virt. eigenvalues --    4.27145   4.30228   4.30726   4.32243   4.33223
 Alpha virt. eigenvalues --    4.34809   4.36406   4.39432   4.43801   4.44316
 Alpha virt. eigenvalues --    4.48571   4.51247   4.52412   4.53412   4.62496
 Alpha virt. eigenvalues --    4.72056   4.77303   4.79870   4.91924
          Condensed to atoms (all electrons):
 Mulliken charges:
               1
     1  C   -0.306338
     2  N   -0.349473
     3  C   -0.296838
     4  C   -0.145838
     5  C   -0.062878
     6  O   -0.507398
     7  C    0.408149
     8  C   -0.199253
     9  C   -0.155743
    10  C    0.028717
    11  C    0.510076
    12  O   -0.472593
    13  N   -0.440669
    14  C   -0.006453
    15  C    0.011941
    16  C    0.537390
    17  O   -0.476620
    18  O   -0.608651
    19  C    0.262982
    20  N   -0.774624
    21  C    0.345886
    22  C   -0.177717
    23  C   -0.146203
    24  C   -0.142903
    25  C   -0.213691
    26  C    0.060452
    27  C    0.026542
    28  C    0.011277
    29  C   -0.469147
    30  C   -0.447663
    31  C   -0.185416
    32  C   -0.156439
    33  C   -0.175557
    34  H    0.153335
    35  H    0.115744
    36  H    0.161175
    37  H    0.152214
    38  H    0.116904
    39  H    0.157180
    40  H    0.115467
    41  H    0.151877
    42  H    0.144710
    43  H    0.161887
    44  H    0.137602
    45  H    0.151797
    46  H    0.221505
    47  H    0.415966
    48  H    0.338433
    49  H    0.117579
    50  H    0.118565
    51  H    0.114066
    52  H    0.120040
    53  H    0.155589
    54  H    0.144108
    55  H    0.159439
    56  H    0.133822
    57  H    0.164786
    58  H    0.153274
    59  H    0.168842
    60  H    0.177042
    61  H    0.146531
    62  H    0.145213
 Sum of Mulliken charges =  -0.00000
 Mulliken charges with hydrogens summed into heavy atoms:
               1
     1  C    0.123917
     2  N   -0.349473
     3  C    0.129459
     4  C    0.121506
     5  C    0.243720
     6  O   -0.507398
     7  C    0.408149
     8  C   -0.061651
     9  C   -0.003946
    10  C    0.028717
    11  C    0.510076
    12  O   -0.472593
    13  N   -0.440669
    14  C    0.215052
    15  C    0.011941
    16  C    0.537390
    17  O   -0.476620
    18  O   -0.192686
    19  C    0.262982
    20  N   -0.436192
    21  C    0.345886
    22  C   -0.060138
    23  C   -0.027638
    24  C   -0.028837
    25  C   -0.093651
    26  C    0.060452
    27  C    0.026542
    28  C    0.011277
    29  C   -0.010011
    30  C    0.004219
    31  C    0.160468
    32  C   -0.009908
    33  C   -0.030344
 Electronic spatial extent (au):  <R**2>=          22029.9441
 Charge=             -0.0000 electrons
 Dipole moment (field-independent basis, Debye):
    X=             -2.7577    Y=             -2.6356    Z=             -0.1196  Tot=              3.8164
 Quadrupole moment (field-independent basis, Debye-Ang):
   XX=           -153.6575   YY=           -202.9871   ZZ=           -189.2923
   XY=             16.5707   XZ=             -7.3080   YZ=             -5.3311
 Traceless Quadrupole moment (field-independent basis, Debye-Ang):
   XX=             28.3215   YY=            -21.0082   ZZ=             -7.3134
   XY=             16.5707   XZ=             -7.3080   YZ=             -5.3311
 Octapole moment (field-independent basis, Debye-Ang**2):
  XXX=           -120.4640  YYY=            -28.6756  ZZZ=             -2.5350  XYY=             21.9854
  XXY=             76.6262  XXZ=            -11.9104  XZZ=            -34.0179  YZZ=             13.3584
  YYZ=              4.5017  XYZ=              9.1747
 Hexadecapole moment (field-independent basis, Debye-Ang**3):
 XXXX=         -21808.0200 YYYY=          -4196.0678 ZZZZ=           -950.5245 XXXY=            912.5554
 XXXZ=           -296.8690 YYYX=            226.0211 YYYZ=             -1.1760 ZZZX=             41.7811
 ZZZY=             -5.6173 XXYY=          -4312.8751 XXZZ=          -4199.7352 YYZZ=           -857.8460
 XXYZ=            -80.6528 YYXZ=             47.4563 ZZXY=             99.2688
 N-N= 3.307142738903D+03 E-N=-1.004090805315D+04  KE= 1.460804754256D+03
 No NMR shielding tensors so no spin-rotation constants.
[...]
 (Enter /home/wykgroup/appl/g16/l601.exe)
 Copying SCF densities to generalized density rwf, IOpCl= 0 IROHF=0.

 **********************************************************************

            Population analysis using the SCF Density.

 **********************************************************************

 Orbital symmetries:
       Occupied  (A) (A) (A) (A) (A) (A) (A) (A) (A) (A) (A) (A)
                 (A) (A) (A) (A) (A) (A) (A) (A) (A) (A) (A) (A)
                 (A) (A) (A) (A) (A) (A) (A) (A) (A) (A) (A) (A)
                 (A) (A) (A) (A) (A) (A) (A) (A) (A) (A) (A) (A)
                 (A) (A) (A) (A) (A) (A) (A) (A) (A) (A) (A) (A)
                 (A) (A) (A) (A) (A) (A) (A) (A) (A) (A) (A) (A)
                 (A) (A) (A) (A) (A) (A) (A) (A) (A) (A) (A) (A)
                 (A) (A) (A) (A) (A) (A) (A) (A) (A) (A) (A) (A)
                 (A) (A) (A) (A) (A) (A) (A) (A) (A) (A) (A) (A)
                 (A) (A) (A) (A) (A) (A) (A) (A) (A) (A) (A)
       Virtual   (A) (A) (A) (A) (A) (A) (A) (A) (A) (A) (A) (A)
                 (A) (A) (A) (A) (A) (A) (A) (A) (A) (A) (A) (A)
                 (A) (A) (A) (A) (A) (A) (A) (A) (A) (A) (A) (A)
                 (A) (A) (A) (A) (A) (A) (A) (A) (A) (A) (A) (A)
                 (A) (A) (A) (A) (A) (A) (A) (A) (A) (A) (A) (A)
                 (A) (A) (A) (A) (A) (A) (A) (A) (A) (A) (A) (A)
                 (A) (A) (A) (A) (A) (A) (A) (A) (A) (A) (A) (A)
                 (A) (A) (A) (A) (A) (A) (A) (A) (A) (A) (A) (A)
                 (A) (A) (A) (A) (A) (A) (A) (A) (A) (A) (A) (A)
                 (A) (A) (A) (A) (A) (A) (A) (A) (A) (A) (A) (A)
                 (A) (A) (A) (A) (A) (A) (A) (A) (A) (A) (A) (A)
                 (A) (A) (A) (A) (A) (A) (A) (A) (A) (A) (A) (A)
                 (A) (A) (A) (A) (A) (A) (A) (A) (A) (A) (A) (A)
                 (A) (A) (A) (A) (A) (A) (A) (A) (A) (A) (A) (A)
                 (A) (A) (A) (A) (A) (A) (A) (A) (A) (A) (A) (A)
                 (A) (A) (A) (A) (A) (A) (A) (A) (A) (A) (A) (A)
                 (A) (A) (A) (A) (A) (A) (A) (A) (A) (A) (A) (A)
                 (A) (A) (A) (A) (A) (A) (A) (A) (A) (A) (A) (A)
                 (A) (A) (A) (A) (A) (A) (A) (A) (A) (A) (A) (A)
                 (A) (A) (A) (A) (A) (A) (A) (A) (A) (A) (A) (A)
                 (A) (A) (A) (A) (A) (A) (A) (A) (A) (A) (A) (A)
                 (A) (A) (A) (A) (A) (A) (A) (A) (A) (A) (A) (A)
                 (A) (A) (A) (A) (A) (A) (A) (A) (A) (A) (A) (A)
                 (A) (A) (A) (A) (A) (A) (A) (A) (A) (A) (A) (A)
                 (A) (A) (A) (A) (A) (A) (A) (A) (A) (A) (A) (A)
                 (A) (A) (A) (A) (A) (A) (A) (A) (A) (A) (A) (A)
                 (A) (A) (A) (A) (A) (A) (A) (A) (A) (A) (A) (A)
                 (A) (A) (A) (A) (A) (A) (A) (A) (A) (A) (A) (A)
                 (A) (A) (A) (A) (A) (A) (A) (A) (A) (A) (A) (A)
                 (A) (A) (A) (A) (A) (A) (A) (A) (A) (A) (A) (A)
                 (A) (A) (A) (A) (A) (A) (A) (A) (A) (A) (A) (A)
                 (A) (A) (A) (A) (A) (A) (A) (A) (A) (A) (A) (A)
                 (A) (A) (A) (A) (A) (A) (A) (A) (A) (A) (A) (A)
                 (A) (A) (A) (A) (A) (A) (A) (A) (A) (A) (A) (A)
                 (A) (A) (A) (A) (A) (A) (A) (A) (A) (A) (A) (A)
                 (A) (A) (A) (A) (A) (A) (A) (A) (A) (A) (A) (A)
                 (A) (A)
 The electronic state is 1-A.
 Alpha  occ. eigenvalues --  -19.19912 -19.18956 -19.13341 -19.13078 -14.39228
 Alpha  occ. eigenvalues --  -14.36066 -14.33388 -10.32100 -10.30374 -10.26639
 Alpha  occ. eigenvalues --  -10.25490 -10.23625 -10.22850 -10.22331 -10.22217
 Alpha  occ. eigenvalues --  -10.21105 -10.21014 -10.20900 -10.20851 -10.20767
 Alpha  occ. eigenvalues --  -10.20767 -10.20729 -10.20670 -10.20234 -10.19834
 Alpha  occ. eigenvalues --  -10.17899 -10.17872 -10.17844 -10.17542 -10.17509
 Alpha  occ. eigenvalues --  -10.17487 -10.17340 -10.17021  -1.10435  -1.07670
 Alpha  occ. eigenvalues --   -1.05329  -1.00859  -0.97087  -0.95778  -0.92864
 Alpha  occ. eigenvalues --   -0.86742  -0.83166  -0.82432  -0.80493  -0.78599
 Alpha  occ. eigenvalues --   -0.76364  -0.75777  -0.74925  -0.72527  -0.71442
 Alpha  occ. eigenvalues --   -0.71167  -0.69902  -0.68552  -0.68277  -0.66652
 Alpha  occ. eigenvalues --   -0.62739  -0.62417  -0.61535  -0.61073  -0.59551
 Alpha  occ. eigenvalues --   -0.58260  -0.58128  -0.54938  -0.54407  -0.54250
 Alpha  occ. eigenvalues --   -0.52561  -0.51441  -0.50547  -0.49385  -0.48532
 Alpha  occ. eigenvalues --   -0.48326  -0.47932  -0.47792  -0.47011  -0.46920
 Alpha  occ. eigenvalues --   -0.46187  -0.45527  -0.44744  -0.44513  -0.43947
 Alpha  occ. eigenvalues --   -0.43807  -0.43341  -0.42991  -0.42506  -0.42143
 Alpha  occ. eigenvalues --   -0.41851  -0.41649  -0.40984  -0.40414  -0.39829
 Alpha  occ. eigenvalues --   -0.39622  -0.39384  -0.39017  -0.38528  -0.38393
 Alpha  occ. eigenvalues --   -0.38018  -0.37381  -0.36989  -0.36626  -0.36035
 Alpha  occ. eigenvalues --   -0.35654  -0.34969  -0.34754  -0.33823  -0.33404
 Alpha  occ. eigenvalues --   -0.33373  -0.32533  -0.32135  -0.31752  -0.30693
 Alpha  occ. eigenvalues --   -0.27625  -0.27149  -0.26703  -0.26369  -0.24741
 Alpha  occ. eigenvalues --   -0.23097  -0.22040  -0.20364  -0.18233
 Alpha virt. eigenvalues --   -0.05661  -0.01961  -0.01546   0.00016   0.03605
 Alpha virt. eigenvalues --    0.04487   0.05861   0.07214   0.07427   0.08173
 Alpha virt. eigenvalues --    0.09000   0.10180   0.10441   0.10468   0.11778
 Alpha virt. eigenvalues --    0.12292   0.12885   0.13331   0.13690   0.14099
 Alpha virt. eigenvalues --    0.14342   0.14748   0.14798   0.15037   0.15531
 Alpha virt. eigenvalues --    0.15585   0.15698   0.15748   0.16288   0.16934
 Alpha virt. eigenvalues --    0.17536   0.17767   0.18070   0.18548   0.18953
 Alpha virt. eigenvalues --    0.19082   0.19477   0.19973   0.20339   0.20998
 Alpha virt. eigenvalues --    0.21365   0.21636   0.22001   0.22975   0.23308
 Alpha virt. eigenvalues --    0.23975   0.24361   0.24718   0.24995   0.25676
 Alpha virt. eigenvalues --    0.26144   0.26937   0.27361   0.27646   0.28514
 Alpha virt. eigenvalues --    0.29414   0.30297   0.31752   0.32111   0.33197
 Alpha virt. eigenvalues --    0.33783   0.34509   0.34792   0.36734   0.38121
 Alpha virt. eigenvalues --    0.38292   0.40185   0.41398   0.42930   0.45542
 Alpha virt. eigenvalues --    0.46225   0.47389   0.47960   0.48278   0.49339
 Alpha virt. eigenvalues --    0.50116   0.50487   0.51260   0.51398   0.51765
 Alpha virt. eigenvalues --    0.52055   0.52809   0.53173   0.53679   0.54417
 Alpha virt. eigenvalues --    0.54612   0.54894   0.55231   0.55633   0.56092
 Alpha virt. eigenvalues --    0.56241   0.56519   0.57261   0.57906   0.58399
 Alpha virt. eigenvalues --    0.58477   0.59293   0.59533   0.60403   0.60745
 Alpha virt. eigenvalues --    0.60884   0.61135   0.61412   0.61965   0.62535
 Alpha virt. eigenvalues --    0.62755   0.63072   0.63212   0.63438   0.63805
 Alpha virt. eigenvalues --    0.64331   0.64830   0.65382   0.66366   0.66705
 Alpha virt. eigenvalues --    0.67604   0.68261   0.68569   0.69318   0.70436
 Alpha virt. eigenvalues --    0.71099   0.71324   0.73312   0.73622   0.74317
 Alpha virt. eigenvalues --    0.75124   0.75285   0.76037   0.77927   0.78940
 Alpha virt. eigenvalues --    0.79135   0.79326   0.79655   0.80309   0.81046
 Alpha virt. eigenvalues --    0.81393   0.82086   0.82287   0.82627   0.83344
 Alpha virt. eigenvalues --    0.83413   0.83551   0.84101   0.84630   0.85212
 Alpha virt. eigenvalues --    0.85392   0.86184   0.86829   0.86944   0.87422
 Alpha virt. eigenvalues --    0.87669   0.88363   0.89023   0.89240   0.89543
 Alpha virt. eigenvalues --    0.90065   0.90356   0.90412   0.90591   0.91322
 Alpha virt. eigenvalues --    0.91701   0.91978   0.92755   0.93526   0.93865
 Alpha virt. eigenvalues --    0.93887   0.94690   0.95226   0.95476   0.95905
 Alpha virt. eigenvalues --    0.96543   0.97200   0.97631   0.97858   0.98579
 Alpha virt. eigenvalues --    0.98766   0.99096   0.99655   0.99879   1.00252
 Alpha virt. eigenvalues --    1.01884   1.02440   1.03494   1.03826   1.04791
 Alpha virt. eigenvalues --    1.05410   1.05844   1.07089   1.08475   1.08965
 Alpha virt. eigenvalues --    1.10158   1.10784   1.11672   1.12148   1.13020
 Alpha virt. eigenvalues --    1.14677   1.15746   1.16286   1.16856   1.18703
 Alpha virt. eigenvalues --    1.18798   1.19961   1.20503   1.21298   1.22626
 Alpha virt. eigenvalues --    1.24836   1.26397   1.26837   1.27852   1.29343
 Alpha virt. eigenvalues --    1.29920   1.30224   1.32225   1.33320   1.34061
 Alpha virt. eigenvalues --    1.34549   1.34964   1.37293   1.37512   1.38196
 Alpha virt. eigenvalues --    1.39304   1.40439   1.40848   1.41479   1.41923
 Alpha virt. eigenvalues --    1.42334   1.43606   1.44205   1.45413   1.46439
 Alpha virt. eigenvalues --    1.46474   1.47282   1.47405   1.48302   1.49612
 Alpha virt. eigenvalues --    1.49943   1.50263   1.50698   1.51009   1.51921
 Alpha virt. eigenvalues --    1.52464   1.54137   1.55559   1.56537   1.61687
 Alpha virt. eigenvalues --    1.62226   1.62698   1.63167   1.64394   1.65848
 Alpha virt. eigenvalues --    1.66885   1.68594   1.69591   1.70498   1.71923
 Alpha virt. eigenvalues --    1.73577   1.74467   1.75718   1.75933   1.76575
 Alpha virt. eigenvalues --    1.78065   1.78562   1.79517   1.80195   1.80659
 Alpha virt. eigenvalues --    1.80992   1.81878   1.82487   1.82824   1.83499
 Alpha virt. eigenvalues --    1.84059   1.85278   1.86072   1.86965   1.87109
 Alpha virt. eigenvalues --    1.88376   1.88701   1.89822   1.90148   1.91281
 Alpha virt. eigenvalues --    1.91383   1.93159   1.93563   1.94208   1.94779
 Alpha virt. eigenvalues --    1.95154   1.95875   1.97348   1.97652   1.98445
 Alpha virt. eigenvalues --    1.98722   1.99349   1.99897   2.00611   2.01034
 Alpha virt. eigenvalues --    2.02267   2.02483   2.03514   2.03993   2.05047
 Alpha virt. eigenvalues --    2.05477   2.06054   2.07168   2.07550   2.09042
 Alpha virt. eigenvalues --    2.09262   2.09520   2.11649   2.12043   2.12554
 Alpha virt. eigenvalues --    2.13812   2.13945   2.14784   2.15314   2.16975
 Alpha virt. eigenvalues --    2.18596   2.19121   2.19652   2.20272   2.20916
 Alpha virt. eigenvalues --    2.21984   2.22720   2.23510   2.25572   2.25874
 Alpha virt. eigenvalues --    2.26378   2.26479   2.27449   2.27808   2.28265
 Alpha virt. eigenvalues --    2.29466   2.30259   2.30792   2.31420   2.32950
 Alpha virt. eigenvalues --    2.33328   2.34706   2.35563   2.36917   2.37805
 Alpha virt. eigenvalues --    2.39282   2.39762   2.40727   2.43193   2.43506
 Alpha virt. eigenvalues --    2.44545   2.44992   2.46474   2.48967   2.50404
 Alpha virt. eigenvalues --    2.51712   2.52276   2.53042   2.53871   2.54850
 Alpha virt. eigenvalues --    2.56732   2.58394   2.59377   2.60919   2.61129
 Alpha virt. eigenvalues --    2.61950   2.63766   2.64118   2.65849   2.66378
 Alpha virt. eigenvalues --    2.66721   2.68095   2.69118   2.69842   2.70547
 Alpha virt. eigenvalues --    2.71580   2.73164   2.74043   2.74752   2.76163
 Alpha virt. eigenvalues --    2.76407   2.77935   2.78761   2.80080   2.81024
 Alpha virt. eigenvalues --    2.81859   2.83710   2.85411   2.86923   2.90031
 Alpha virt. eigenvalues --    2.91099   2.94265   2.96481   2.97067   2.99668
 Alpha virt. eigenvalues --    3.00756   3.03693   3.06929   3.08717   3.13241
 Alpha virt. eigenvalues --    3.21313   3.26014   3.29021   3.34322   3.42843
 Alpha virt. eigenvalues --    3.47439   3.89914   3.99513   4.05582   4.07900
 Alpha virt. eigenvalues --    4.07968   4.09754   4.10184   4.10772   4.12095
 Alpha virt. eigenvalues --    4.14224   4.15051   4.21200   4.22165   4.25163
 Alpha virt. eigenvalues --    4.26415   4.28970   4.30640   4.31072   4.32102
 Alpha virt. eigenvalues --    4.33523   4.35878   4.37182   4.41180   4.43712
 Alpha virt. eigenvalues --    4.44786   4.47673   4.50942   4.53795   4.59799
 Alpha virt. eigenvalues --    4.70244   4.74555   4.77320   4.88109
          Condensed to atoms (all electrons):
 Mulliken charges:
               1
     1  C   -0.306139
     2  N   -0.351875
     3  C   -0.298715
     4  C   -0.136111
     5  C   -0.058122
     6  O   -0.506014
     7  C    0.395448
     8  C   -0.198861
     9  C   -0.157608
    10  C    0.042405
    11  C    0.521095
    12  O   -0.472846
    13  N   -0.473227
    14  C    0.010263
    15  C   -0.009088
    16  C    0.562862
    17  O   -0.486215
    18  O   -0.620913
    19  C    0.254139
    20  N   -0.774542
    21  C    0.341214
    22  C   -0.176343
    23  C   -0.149518
    24  C   -0.141933
    25  C   -0.215909
    26  C    0.056163
    27  C    0.022409
    28  C    0.007422
    29  C   -0.466993
    30  C   -0.444300
    31  C   -0.169460
    32  C   -0.163078
    33  C   -0.180411
    34  H    0.155562
    35  H    0.117620
    36  H    0.155565
    37  H    0.152987
    38  H    0.118834
    39  H    0.156380
    40  H    0.113065
    41  H    0.153849
    42  H    0.146954
    43  H    0.163536
    44  H    0.140630
    45  H    0.161717
    46  H    0.224060
    47  H    0.414284
    48  H    0.348017
    49  H    0.120346
    50  H    0.120061
    51  H    0.116120
    52  H    0.119351
    53  H    0.154685
    54  H    0.141156
    55  H    0.161534
    56  H    0.133680
    57  H    0.165606
    58  H    0.153754
    59  H    0.166651
    60  H    0.168195
    61  H    0.150911
    62  H    0.149692
 Sum of Mulliken charges =  -0.00000
 Mulliken charges with hydrogens summed into heavy atoms:
               1
     1  C    0.122608
     2  N   -0.351875
     3  C    0.129486
     4  C    0.130803
     5  C    0.252368
     6  O   -0.506014
     7  C    0.395448
     8  C   -0.058231
     9  C    0.004109
    10  C    0.042405
    11  C    0.521095
    12  O   -0.472846
    13  N   -0.473227
    14  C    0.234323
    15  C   -0.009088
    16  C    0.562862
    17  O   -0.486215
    18  O   -0.206629
    19  C    0.254139
    20  N   -0.426525
    21  C    0.341214
    22  C   -0.055997
    23  C   -0.029457
    24  C   -0.025813
    25  C   -0.096558
    26  C    0.056163
    27  C    0.022409
    28  C    0.007422
    29  C   -0.009618
    30  C    0.008739
    31  C    0.165387
    32  C   -0.012166
    33  C   -0.030718
 Electronic spatial extent (au):  <R**2>=          23830.6850
 Charge=              0.0000 electrons
 Dipole moment (field-independent basis, Debye):
    X=             -3.9607    Y=             -2.5235    Z=             -0.2981  Tot=              4.7057
 Quadrupole moment (field-independent basis, Debye-Ang):
   XX=           -152.6606   YY=           -200.6442   ZZ=           -190.8310
   XY=             14.1918   XZ=             -9.6514   YZ=             -7.5198
 Traceless Quadrupole moment (field-independent basis, Debye-Ang):
   XX=             28.7180   YY=            -19.2656   ZZ=             -9.4524
   XY=             14.1918   XZ=             -9.6514   YZ=             -7.5198
 Octapole moment (field-independent basis, Debye-Ang**2):
  XXX=           -239.6244  YYY=            -15.6221  ZZZ=             -1.6000  XYY=             26.0219
  XXY=             75.2632  XXZ=            -23.3802  XZZ=            -29.2406  YZZ=             12.5974
  YYZ=            -12.1200  XYZ=             -9.7887
 Hexadecapole moment (field-independent basis, Debye-Ang**3):
 XXXX=         -23889.9229 YYYY=          -3991.1757 ZZZZ=          -1198.4227 XXXY=            843.6769
 XXXZ=           -363.3217 YYYX=            266.8606 YYYZ=            -66.8832 ZZZX=             39.6299
 ZZZY=            -15.4372 XXYY=          -4665.9607 XXZZ=          -4582.4152 YYZZ=           -867.0658
 XXYZ=           -139.2739 YYXZ=             -8.2383 ZZXY=            104.3651
 N-N= 3.237967309667D+03 E-N=-9.901541075416D+03  KE= 1.459573318257D+03
 No NMR shielding tensors so no spin-rotation constants.
 Leave Link  601 at Fri Nov  4 20:41:01 2022, MaxMem=   805306368 cpu:               1.8 elap:               0.3
 (Enter /home/wykgroup/appl/g16/l9999.exe)
 1\1\GINC-NODE104\FOpt\RB3LYP\6-31G(d)\C26H29N3O4\WYKGROUP\04-Nov-2022\
 0\\#p b3lyp/6-31g(d) opt SCF=XQC\\Gaussian input prepared by ASE\\0,1\
 C,-8.1741046463,0.8796539677,-1.5547402295\N,-7.2589496227,0.656657094
 5,-0.4440215982\C,-7.8646575454,1.0465917244,0.8226584862\C,-6.7440449
 446,-0.7045487762,-0.3872559789\C,-5.800499236,-1.0640508099,-1.537666
 0933\O,-4.6791929071,-0.1869947152,-1.6545612854\C,-3.6321607023,-0.28
 65332964,-0.7971768987\C,-3.4491633996,-1.3080119863,0.1486131392\C,-2
 .3142034358,-1.3061672489,0.9539111882\C,-1.3267128881,-0.3208897206,0
 .8233299251\C,-0.2014288366,-0.341329401,1.8007942207\O,-0.3755231795,
 -0.7083399822,2.9522573044\N,1.0839483945,0.1217469656,1.3844505793\C,
 1.922116807,0.5130911391,2.3960015055\C,3.2571992424,0.8221866901,2.38
 49154609\C,3.6923986596,1.308506645,3.7240926559\O,2.970376549,1.50066
 19716,4.684444373\O,5.038765837,1.5430096112,3.8429580896\C,4.18148501
 36,0.6643279056,1.2577348212\N,5.4160005423,1.2946995703,1.2419566528\
 C,6.0896470444,0.9846521016,0.0920188229\C,7.36971593,1.382948203,-0.3
 090450392\C,7.8299197698,0.935376676,-1.5386904618\C,7.0224530367,0.10
 85332313,-2.3449497917\C,5.7542188508,-0.2854845584,-1.9407944388\C,5.
 2467800208,0.1431960386,-0.6919373418\C,4.0324731781,-0.0551106356,0.0
 712217129\C,2.7804154988,-0.8428625901,-0.275900496\C,2.7123779823,-1.
 2173434624,-1.771817894\C,2.6992588533,-2.1494044919,0.5467281599\C,1.
 5201190387,0.0441440807,-0.0160422161\C,-1.5282234414,0.7044459569,-0.
 1190413431\C,-2.6644578012,0.7260260258,-0.9127709411\H,-8.5103708861,
 1.9213574412,-1.5417218105\H,-9.0718469054,0.2297233952,-1.5170706722\
 H,-7.6703403779,0.7122496396,-2.5113840865\H,-8.1691571686,2.097451961
 6,0.7737528997\H,-8.7575173353,0.4455988206,1.0876775679\H,-7.13306610
 18,0.9437398496,1.6311156032\H,-7.5538609327,-1.4666025627,-0.38115732
 33\H,-6.2050974329,-0.8145918375,0.559958997\H,-5.4718913686,-2.106134
 0715,-1.4329635369\H,-6.3047477864,-0.9811652909,-2.5031294511\H,-4.18
 05906181,-2.0982336009,0.270089086\H,-2.1836944134,-2.0771796633,1.706
 5171552\H,1.4172088075,0.5910297493,3.3502878291\H,5.1536818995,1.8483
 634515,4.7621224062\H,5.7995465888,1.7681672162,2.0454134449\H,7.97765
 9205,2.0237832346,0.3245828111\H,8.8188077931,1.2253342129,-1.88299053
 2\H,7.4004511529,-0.2295808877,-3.3061800877\H,5.1730853786,-0.9188428
 332,-2.5981844869\H,2.8001740723,-0.3397138568,-2.4213724942\H,1.75791
 86815,-1.7104387697,-1.9900617\H,3.5048941984,-1.921536949,-2.03524906
 19\H,1.7625934762,-2.6846100799,0.3412175299\H,2.75562262,-1.963913662
 2,1.622341011\H,3.5325841107,-2.8069127098,0.2779511914\H,1.7079188019
 ,1.0529080703,-0.3991166383\H,0.6842669458,-0.3747811787,-0.5731553335
 \H,-0.805068183,1.5090632825,-0.212335263\H,-2.8355128843,1.522081705,
 -1.6299731048\\Version=ES64L-G16RevB.01\State=1-A\HF=-1473.3869158\RMS
 D=5.243e-09\RMSF=3.611e-06\Dipole=-1.4649148,-0.1806125,-1.1175684\Qua
 drupole=18.7088597,-3.9867883,-14.7220714,10.2312791,11.4123836,4.7995
 873\PG=C01 [X(C26H29N3O4)]\\@


 PENOTUS DIED A HUNDRED YEARS OLD WANTING BUT TWO...
 AND HE USED TO SAY BEFORE HE DIED, HAVING SPENT HIS
 WHOLE LIFE IN VAINLY SEARCHING AFTER THE PHILOSOPHER'S
 STONE, THAT IF HE HAD A MORTAL ENEMY HE DID NOT DARE
 TO ENCOUNTER OPENLY, HE WOULD ADVISE HIM ABOVE ALL
 THINGS TO GIVE HIMSELF UP TO THE STUDY AND PRACTICE
 OF ALCHEMY.  --  NICOLAS LEMERY, M.D.
 "A COURSE OF CHYMISTRY", WALTER KETTILBY, LONDON, 1686
 Job cpu time:       0 days  5 hours 28 minutes 34.5 seconds.
 Elapsed time:       0 days  0 hours 47 minutes  3.9 seconds.
 File lengths (MBytes):  RWF=    195 Int=      0 D2E=      0 Chk=     25 Scr=      1
 Normal termination of Gaussian 16 at Fri Nov  4 20:41:01 2022.
