 Entering Gaussian System, Link 0=/home/wykgroup/appl/g16/g16
 Input=calculation/no_transfer_pubchem_sampling_3_b3lyp/19937471_rwf.com
 Output=calculation/no_transfer_pubchem_sampling_3_b3lyp/19937471_rwf.log
 Initial command:
 /home/wykgroup/appl/g16/l1.exe "/userdata/scratch/wykgroup/khs/calculation/no_transfer_pubchem_sampling_3_b3lyp/19937471_rwf/Gau-12805.inp" -scrdir="/userdata/scratch/wykgroup/khs/calculation/no_transfer_pubchem_sampling_3_b3lyp/19937471_rwf/"
 Entering Link 1 = /home/wykgroup/appl/g16/l1.exe PID=     12806.
  
 Copyright (c) 1988-2017, Gaussian, Inc.  All Rights Reserved.
  
 This is part of the Gaussian(R) 16 program.  It is based on
 the Gaussian(R) 09 system (copyright 2009, Gaussian, Inc.),
 the Gaussian(R) 03 system (copyright 2003, Gaussian, Inc.),
 the Gaussian(R) 98 system (copyright 1998, Gaussian, Inc.),
 the Gaussian(R) 94 system (copyright 1995, Gaussian, Inc.),
 the Gaussian 92(TM) system (copyright 1992, Gaussian, Inc.),
 the Gaussian 90(TM) system (copyright 1990, Gaussian, Inc.),
 the Gaussian 88(TM) system (copyright 1988, Gaussian, Inc.),
 the Gaussian 86(TM) system (copyright 1986, Carnegie Mellon
 University), and the Gaussian 82(TM) system (copyright 1983,
 Carnegie Mellon University). Gaussian is a federally registered
 trademark of Gaussian, Inc.
  
 This software contains proprietary and confidential information,
 including trade secrets, belonging to Gaussian, Inc.
  
 This software is provided under written license and may be
 used, copied, transmitted, or stored only in accord with that
 written license.
  
 The following legend is applicable only to US Government
 contracts under FAR:
  
                    RESTRICTED RIGHTS LEGEND
  
 Use, reproduction and disclosure by the US Government is
 subject to restrictions as set forth in subparagraphs (a)
 and (c) of the Commercial Computer Software - Restricted
 Rights clause in FAR 52.227-19.
  
 Gaussian, Inc.
 340 Quinnipiac St., Bldg. 40, Wallingford CT 06492
  
  
 ---------------------------------------------------------------
 Warning -- This program may not be used in any manner that
 competes with the business of Gaussian, Inc. or will provide
 assistance to any competitor of Gaussian, Inc.  The licensee
 of this program is prohibited from giving any competitor of
 Gaussian, Inc. access to this program.  By using this program,
 the user acknowledges that Gaussian, Inc. is engaged in the
 business of creating and licensing software in the field of
 computational chemistry and represents and warrants to the
 licensee that it is not a competitor of Gaussian, Inc. and that
 it will not use this program in any manner prohibited above.
 ---------------------------------------------------------------
  

 Cite this work as:
 Gaussian 16, Revision B.01,
 M. J. Frisch, G. W. Trucks, H. B. Schlegel, G. E. Scuseria, 
 M. A. Robb, J. R. Cheeseman, G. Scalmani, V. Barone, 
 G. A. Petersson, H. Nakatsuji, X. Li, M. Caricato, A. V. Marenich, 
 J. Bloino, B. G. Janesko, R. Gomperts, B. Mennucci, H. P. Hratchian, 
 J. V. Ortiz, A. F. Izmaylov, J. L. Sonnenberg, D. Williams-Young, 
 F. Ding, F. Lipparini, F. Egidi, J. Goings, B. Peng, A. Petrone, 
 T. Henderson, D. Ranasinghe, V. G. Zakrzewski, J. Gao, N. Rega, 
 G. Zheng, W. Liang, M. Hada, M. Ehara, K. Toyota, R. Fukuda, 
 J. Hasegawa, M. Ishida, T. Nakajima, Y. Honda, O. Kitao, H. Nakai, 
 T. Vreven, K. Throssell, J. A. Montgomery, Jr., J. E. Peralta, 
 F. Ogliaro, M. J. Bearpark, J. J. Heyd, E. N. Brothers, K. N. Kudin, 
 V. N. Staroverov, T. A. Keith, R. Kobayashi, J. Normand, 
 K. Raghavachari, A. P. Rendell, J. C. Burant, S. S. Iyengar, 
 J. Tomasi, M. Cossi, J. M. Millam, M. Klene, C. Adamo, R. Cammi, 
 J. W. Ochterski, R. L. Martin, K. Morokuma, O. Farkas, 
 J. B. Foresman, and D. J. Fox, Gaussian, Inc., Wallingford CT, 2016.
 
 ******************************************
 Gaussian 16:  ES64L-G16RevB.01 20-Dec-2017
                 5-Nov-2022 
 ******************************************
 %chk=calculation/no_transfer_pubchem_sampling_3_b3lyp/19937471_rwf.chk
 %rwf=calculation/no_transfer_pubchem_sampling_3_b3lyp/19937471_rwf.rwf
 %nprocshared=14
 Will use up to   14 processors via shared memory.
 %mem=3GB
 -------------------------------------------------------------------
 #p b3lyp/6-31g(d) 6D 10F nosymm GFInput td=(50-50,nstate=2) SCF=XQC
 -------------------------------------------------------------------
 1/38=1,172=1/1;
 2/12=2,15=1,17=6,18=5,40=1/2;
 3/5=1,6=6,7=1,8=22,11=9,24=10,25=1,30=1,74=-5/1,2,3,8;
 4//1;
 5/5=2,8=3,13=1,38=5/2,8;
 8/6=1,10=2,108=2/1;
 9/41=2,42=1,48=2,70=2/14;
 6/7=2,8=2,9=2,10=2/1;
 99/5=1,9=1/99;
 Leave Link    1 at Sat Nov  5 11:57:34 2022, MaxMem=   402653184 cpu:               4.4 elap:               0.4
 (Enter /home/wykgroup/appl/g16/l101.exe)
 ------------------------------
 Gaussian input prepared by ASE
 ------------------------------
 Symbolic Z-matrix:
 Charge =  0 Multiplicity = 1
 C                    -3.191    -4.49704  -0.01624 
 C                    -1.9392   -3.65707  -0.10987 
 C                    -0.68988  -4.27318  -0.32632 
 C                     0.45739  -3.50895  -0.41308 
 C                     0.39646  -2.10943  -0.28725 
 C                     1.66828  -1.38172  -0.38769 
 O                     2.75808  -1.90877  -0.57527 
 N                     1.56078   0.02787  -0.24019 
 C                     2.75019   0.83506  -0.25182 
 C                     3.6862    0.71846  -1.2849 
 C                     4.81067   1.54206  -1.28517 
 C                     5.01572   2.48482  -0.27562 
 C                     4.07016   2.57454   0.73693 
 F                     4.2496    3.47304   1.7285 
 C                     2.94285   1.76303   0.77597 
 C                     0.34986   0.64435  -0.03844 
 C                    -0.84636  -0.0079    0.05355 
 C                    -2.06741   0.82779   0.26366 
 O                    -3.1948    0.30498   0.35538 
 N                    -1.81412   2.18388   0.33951 
 C                    -2.79122   3.03169   0.58249 
 N                    -4.11303   2.73912   0.66058 
 N                    -2.4459    4.34793   0.7835 
 C                    -0.84817  -1.46329  -0.06703 
 C                    -2.00324  -2.27305   0.0161 
 H                    -3.35167  -5.07341  -0.93619 
 H                    -3.12247  -5.22094   0.80571 
 H                    -4.0766   -3.87767   0.15264 
 H                    -0.63137  -5.35477  -0.42519 
 H                     1.42929  -3.96135  -0.57863 
 H                     3.53704  -0.01398  -2.06694 
 H                     5.53738   1.45143  -2.08702 
 H                     5.88409   3.13469  -0.26188 
 H                     2.2453    1.84911   1.60175 
 H                     0.37823   1.72229   0.02863 
 H                    -4.30816   1.7372    0.6516 
 H                    -4.73144   3.3686    1.15251 
 H                    -1.48863   4.55487   0.53121 
 H                    -3.11753   5.05471   0.513 
 H                    -2.9554   -1.78899   0.18155 
 
 ITRead=  0  0  0  0  0  0  0  0  0  0  0  0  0  0  0  0  0  0  0  0
 ITRead=  0  0  0  0  0  0  0  0  0  0  0  0  0  0  0  0  0  0  0  0
 MicOpt= -1 -1 -1 -1 -1 -1 -1 -1 -1 -1 -1 -1 -1 -1 -1 -1 -1 -1 -1 -1
 MicOpt= -1 -1 -1 -1 -1 -1 -1 -1 -1 -1 -1 -1 -1 -1 -1 -1 -1 -1 -1 -1
 NAtoms=     40 NQM=       40 NQMF=       0 NMMI=      0 NMMIF=      0
                NMic=       0 NMicF=      0.
                    Isotopes and Nuclear Properties:
 (Nuclear quadrupole moments (NQMom) in fm**2, nuclear magnetic moments (NMagM)
  in nuclear magnetons)

  Atom         1           2           3           4           5           6           7           8           9          10
 IAtWgt=          12          12          12          12          12          12          16          14          12          12
 AtmWgt=  12.0000000  12.0000000  12.0000000  12.0000000  12.0000000  12.0000000  15.9949146  14.0030740  12.0000000  12.0000000
 NucSpn=           0           0           0           0           0           0           0           2           0           0
 AtZEff=  -0.0000000  -0.0000000  -0.0000000  -0.0000000  -0.0000000  -0.0000000  -0.0000000  -0.0000000  -0.0000000  -0.0000000
 NQMom=    0.0000000   0.0000000   0.0000000   0.0000000   0.0000000   0.0000000   0.0000000   2.0440000   0.0000000   0.0000000
 NMagM=    0.0000000   0.0000000   0.0000000   0.0000000   0.0000000   0.0000000   0.0000000   0.4037610   0.0000000   0.0000000
 AtZNuc=   6.0000000   6.0000000   6.0000000   6.0000000   6.0000000   6.0000000   8.0000000   7.0000000   6.0000000   6.0000000

  Atom        11          12          13          14          15          16          17          18          19          20
 IAtWgt=          12          12          12          19          12          12          12          12          16          14
 AtmWgt=  12.0000000  12.0000000  12.0000000  18.9984032  12.0000000  12.0000000  12.0000000  12.0000000  15.9949146  14.0030740
 NucSpn=           0           0           0           1           0           0           0           0           0           2
 AtZEff=  -0.0000000  -0.0000000  -0.0000000  -0.0000000  -0.0000000  -0.0000000  -0.0000000  -0.0000000  -0.0000000  -0.0000000
 NQMom=    0.0000000   0.0000000   0.0000000   0.0000000   0.0000000   0.0000000   0.0000000   0.0000000   0.0000000   2.0440000
 NMagM=    0.0000000   0.0000000   0.0000000   2.6288670   0.0000000   0.0000000   0.0000000   0.0000000   0.0000000   0.4037610
 AtZNuc=   6.0000000   6.0000000   6.0000000   9.0000000   6.0000000   6.0000000   6.0000000   6.0000000   8.0000000   7.0000000

  Atom        21          22          23          24          25          26          27          28          29          30
 IAtWgt=          12          14          14          12          12           1           1           1           1           1
 AtmWgt=  12.0000000  14.0030740  14.0030740  12.0000000  12.0000000   1.0078250   1.0078250   1.0078250   1.0078250   1.0078250
 NucSpn=           0           2           2           0           0           1           1           1           1           1
 AtZEff=  -0.0000000  -0.0000000  -0.0000000  -0.0000000  -0.0000000  -0.0000000  -0.0000000  -0.0000000  -0.0000000  -0.0000000
 NQMom=    0.0000000   2.0440000   2.0440000   0.0000000   0.0000000   0.0000000   0.0000000   0.0000000   0.0000000   0.0000000
 NMagM=    0.0000000   0.4037610   0.4037610   0.0000000   0.0000000   2.7928460   2.7928460   2.7928460   2.7928460   2.7928460
 AtZNuc=   6.0000000   7.0000000   7.0000000   6.0000000   6.0000000   1.0000000   1.0000000   1.0000000   1.0000000   1.0000000

  Atom        31          32          33          34          35          36          37          38          39          40
 IAtWgt=           1           1           1           1           1           1           1           1           1           1
 AtmWgt=   1.0078250   1.0078250   1.0078250   1.0078250   1.0078250   1.0078250   1.0078250   1.0078250   1.0078250   1.0078250
 NucSpn=           1           1           1           1           1           1           1           1           1           1
 AtZEff=  -0.0000000  -0.0000000  -0.0000000  -0.0000000  -0.0000000  -0.0000000  -0.0000000  -0.0000000  -0.0000000  -0.0000000
 NQMom=    0.0000000   0.0000000   0.0000000   0.0000000   0.0000000   0.0000000   0.0000000   0.0000000   0.0000000   0.0000000
 NMagM=    2.7928460   2.7928460   2.7928460   2.7928460   2.7928460   2.7928460   2.7928460   2.7928460   2.7928460   2.7928460
 AtZNuc=   1.0000000   1.0000000   1.0000000   1.0000000   1.0000000   1.0000000   1.0000000   1.0000000   1.0000000   1.0000000
 Leave Link  101 at Sat Nov  5 11:57:34 2022, MaxMem=   402653184 cpu:               1.8 elap:               0.2
 (Enter /home/wykgroup/appl/g16/l202.exe)
                          Input orientation:                          
 ---------------------------------------------------------------------
 Center     Atomic      Atomic             Coordinates (Angstroms)
 Number     Number       Type             X           Y           Z
 ---------------------------------------------------------------------
      1          6           0       -3.191002   -4.497044   -0.016244
      2          6           0       -1.939199   -3.657073   -0.109872
      3          6           0       -0.689878   -4.273177   -0.326315
      4          6           0        0.457392   -3.508950   -0.413085
      5          6           0        0.396463   -2.109433   -0.287248
      6          6           0        1.668275   -1.381719   -0.387689
      7          8           0        2.758081   -1.908774   -0.575271
      8          7           0        1.560785    0.027866   -0.240195
      9          6           0        2.750194    0.835062   -0.251824
     10          6           0        3.686203    0.718465   -1.284901
     11          6           0        4.810666    1.542059   -1.285165
     12          6           0        5.015723    2.484824   -0.275622
     13          6           0        4.070161    2.574538    0.736927
     14          9           0        4.249599    3.473042    1.728500
     15          6           0        2.942854    1.763026    0.775970
     16          6           0        0.349857    0.644350   -0.038439
     17          6           0       -0.846361   -0.007897    0.053547
     18          6           0       -2.067407    0.827789    0.263660
     19          8           0       -3.194801    0.304979    0.355376
     20          7           0       -1.814117    2.183878    0.339513
     21          6           0       -2.791217    3.031691    0.582488
     22          7           0       -4.113026    2.739119    0.660580
     23          7           0       -2.445895    4.347926    0.783499
     24          6           0       -0.848175   -1.463290   -0.067035
     25          6           0       -2.003241   -2.273049    0.016099
     26          1           0       -3.351672   -5.073410   -0.936191
     27          1           0       -3.122466   -5.220937    0.805706
     28          1           0       -4.076598   -3.877674    0.152637
     29          1           0       -0.631373   -5.354775   -0.425188
     30          1           0        1.429292   -3.961350   -0.578626
     31          1           0        3.537042   -0.013984   -2.066943
     32          1           0        5.537384    1.451430   -2.087022
     33          1           0        5.884094    3.134694   -0.261881
     34          1           0        2.245303    1.849108    1.601749
     35          1           0        0.378225    1.722290    0.028631
     36          1           0       -4.308163    1.737200    0.651601
     37          1           0       -4.731441    3.368605    1.152512
     38          1           0       -1.488628    4.554874    0.531208
     39          1           0       -3.117529    5.054714    0.512999
     40          1           0       -2.955403   -1.788994    0.181551
 ---------------------------------------------------------------------
                    Distance matrix (angstroms):
                    1          2          3          4          5
     1  C    0.000000
     2  C    1.510407   0.000000
     3  C    2.530194   1.409693   0.000000
     4  C    3.800604   2.420232   1.381230   0.000000
     5  C    4.317874   2.807484   2.421456   1.406483   0.000000
     6  C    5.784099   4.274142   3.731646   2.447856   1.468728
     7  O    6.511777   5.033645   4.188174   2.807141   2.387564
     8  N    6.565397   5.083861   4.855086   3.708967   2.434318
     9  C    7.986530   6.495370   6.159038   4.914610   3.769795
    10  C    8.723931   7.222961   6.707119   5.390392   4.451371
    11  C   10.104831   8.600753   8.061782   6.724895   5.815016
    12  C   10.777945   9.280157   8.844604   7.531442   6.514975
    13  C   10.163613   8.698416   8.407119   7.168226   6.040246
    14  F   11.042144   9.618699   9.414063   8.228939   7.076293
    15  C    8.800016   7.348240   7.130744   5.948539   4.755048
    16  C    6.242764   4.873101   5.034480   4.171549   2.765393
    17  C    5.065042   3.812805   4.285019   3.764955   2.465199
    18  C    5.449281   4.502216   5.316532   5.063586   3.873169
    19  O    4.816383   4.182206   5.262970   5.336207   4.374876
    20  N    6.830600   5.859548   6.587928   6.175310   4.869499
    21  C    7.563078   6.778263   7.655236   7.370523   6.111375
    22  N    7.326000   6.799294   7.865380   7.815360   6.688971
    23  N    8.912254   8.070617   8.867846   8.461170   7.136035
    24  C    3.833416   2.450480   2.826260   2.451322   1.419549
    25  C    2.521503   1.391219   2.417164   2.786819   2.424329
    26  H    1.097413   2.164231   2.845606   4.150921   4.822324
    27  H    1.097415   2.164272   2.845559   4.151112   4.822745
    28  H    1.093810   2.164729   3.443210   4.584001   4.829954
    29  H    2.730318   2.166108   1.087683   2.143040   3.407010
    30  H    4.685121   3.414534   2.156797   1.084739   2.140381
    31  H    8.340849   6.862320   6.247988   4.943104   4.173901
    32  H   10.763698   9.268506   8.640023   7.294776   6.507534
    33  H   11.860064  10.361231   9.904433   8.579625   7.590494
    34  H    8.511460   7.124446   7.057980   5.997080   4.759891
    35  H    7.170879   5.858940   6.100201   5.250453   3.844765
    36  H    6.368663   5.940540   7.083286   7.167019   6.149109
    37  H    8.099838   7.664879   8.770290   8.756474   7.640498
    38  H    9.226864   8.249247   8.905494   8.348889   6.973983
    39  H    9.566692   8.813153   9.675096   9.325988   8.019573
    40  H    2.725466   2.146466   3.400249   3.867687   3.399626
                    6          7          8          9         10
     6  C    0.000000
     7  O    1.225011   0.000000
     8  N    1.421350   2.301384   0.000000
     9  C    2.470450   2.762846   1.437496   0.000000
    10  C    3.047588   2.875303   2.466929   1.398913   0.000000
    11  C    4.385038   4.077413   3.734497   2.411054   1.393817
    12  C    5.115479   4.948782   4.239635   2.802660   2.430287
    13  C    4.762959   4.852164   3.706383   2.397023   2.771321
    14  F    5.891535   6.041186   4.793195   3.623373   4.121371
    15  C    3.587209   3.916900   2.439977   1.398068   2.427110
    16  C    2.442367   3.550518   1.373719   2.417338   3.562354
    17  C    2.899219   4.123196   2.425266   3.706621   4.781546
    18  C    4.388793   5.610519   3.749336   4.845106   5.959364
    19  O    5.200635   6.419004   4.800739   5.999387   7.085880
    20  N    5.036801   6.204162   4.046531   4.796032   5.919432
    21  C    6.348740   7.519528   5.351606   6.019010   7.127070
    22  N    7.176602   8.387035   6.352512   7.180647   8.288299
    23  N    7.150308   8.250692   5.980331   6.357000   7.419831
    24  C    2.538108   3.669038   2.838418   4.273737   5.177242
    25  C    3.799677   4.811715   4.249961   5.685708   6.558317
    26  H    6.255343   6.890158   7.116155   8.521219   9.121354
    27  H    6.254197   6.889002   7.111728   8.501860   9.273893
    28  H    6.286916   7.149773   6.869326   8.305333   9.135211
    29  H    4.590747   4.835892   5.814860   7.055433   7.500987
    30  H    2.597705   2.445151   4.005705   4.985695   5.243390
    31  H    2.860574   2.534185   2.691534   2.152828   1.081813
    32  H    5.087678   4.615288   4.609843   3.393566   2.146511
    33  H    6.179558   5.941947   5.323895   3.887124   3.422786
    34  H    3.837846   4.373103   2.679225   2.172311   3.418669
    35  H    3.387096   4.383268   2.083696   2.547953   3.698074
    36  H    6.820968   8.045505   6.177514   7.172896   8.288411
    37  H    8.117521   9.323567   7.258944   8.022833   9.155378
    38  H    6.786276   7.812655   5.512512   5.693659   6.692919
    39  H    8.071111   9.175908   6.908193   7.267777   8.265971
    40  H    4.676356   5.764636   4.886184   6.295023   7.249052
                   11         12         13         14         15
    11  C    0.000000
    12  C    1.396435   0.000000
    13  C    2.388141   1.388306   0.000000
    14  F    3.622936   2.362208   1.350083   0.000000
    15  C    2.790309   2.433850   1.389567   2.353518   0.000000
    16  C    4.717947   5.021346   4.262333   5.131429   2.939104
    17  C    6.016350   6.378561   5.595370   6.394624   4.244552
    18  C    7.086390   7.294335   6.398816   7.003405   5.122484
    19  O    8.264940   8.518368   7.620771   8.206167   6.322469
    20  N    6.851223   6.864086   5.910608   6.352943   4.795455
    21  C    7.968422   7.872974   6.878324   7.147112   5.875927
    22  N    9.211468   9.180152   8.185197   8.462422   7.124010
    23  N    8.050462   7.763288   6.753226   6.818217   5.976653
    24  C    6.522150   7.072229   6.414081   7.319741   5.048928
    25  C    7.916922   8.484593   7.804159   8.663018   6.428932
    26  H   10.512373  11.294980  10.787680  11.744009   9.449308
    27  H   10.632235  11.259580  10.606980  11.436090   9.250120
    28  H   10.508294  11.105634  10.408752  11.217929   9.026558
    29  H    8.827325   9.662887   9.291336  10.314679   8.054872
    30  H    6.497723   7.382917   7.170962   8.279320   6.074067
    31  H    2.157444   3.411652   3.853096   5.203122   3.404846
    32  H    1.085959   2.149698   3.374730   4.505942   3.876261
    33  H    2.176200   1.084706   2.145168   2.597627   3.407271
    34  H    3.874227   3.406448   2.145757   2.582717   1.084389
    35  H    4.626562   4.709609   3.854659   4.576267   2.671609
    36  H    9.324279   9.399657   8.420495   8.798190   7.252130
    37  H   10.016503   9.890796   8.847115   9.000097   7.849489
    38  H    7.215079   6.873330   5.904590   5.960798   5.243316
    39  H    8.855982   8.565982   7.606859   7.632411   6.901638
    40  H    8.576654   9.056124   8.288993   9.055060   6.910833
                   16         17         18         19         20
    16  C    0.000000
    17  C    1.365586   0.000000
    18  C    2.442965   1.494481   0.000000
    19  O    3.582577   2.388339   1.246098   0.000000
    20  N    2.682495   2.412925   1.381624   2.331695   0.000000
    21  C    3.993906   3.647100   2.341524   2.765757   1.316262
    22  N    4.979358   4.311112   2.827593   2.619413   2.386704
    23  N    4.712567   4.697291   3.578386   4.133953   2.297688
    24  C    2.424509   1.460381   2.616282   2.968478   3.794755
    25  C    3.748501   2.543754   3.111367   2.860272   4.472646
    26  H    6.870229   5.737210   6.157364   5.533519   7.527266
    27  H    6.868128   5.737785   6.163932   5.544707   7.533949
    28  H    6.330775   5.041768   5.117672   4.279399   6.472724
    29  H    6.091131   5.372570   6.384419   6.262049   7.669090
    30  H    4.761245   4.605217   5.989341   6.360516   7.009031
    31  H    3.834890   4.869367   6.127817   7.161500   6.265504
    32  H    5.635469   6.889403   7.984202   9.139514   7.776189
    33  H    6.072851   7.434675   8.296045   9.529671   7.779986
    34  H    2.781074   3.924766   4.629583   5.790726   4.264294
    35  H    1.080397   2.119854   2.614667   3.857726   2.261874
    36  H    4.834007   3.922641   2.449187   1.838092   2.552878
    37  H    5.887233   5.263301   3.787199   3.518876   3.251972
    38  H    4.358523   4.632446   3.781234   4.582963   2.400898
    39  H    5.637212   5.567705   4.362548   4.752978   3.157638
    40  H    4.110267   2.763467   2.764568   2.114770   4.136569
                   21         22         23         24         25
    21  C    0.000000
    22  N    1.356051   0.000000
    23  N    1.375547   2.320063   0.000000
    24  C    4.939853   5.371119   6.086572   0.000000
    25  C    5.392770   5.476165   6.679982   1.413081   0.000000
    26  H    8.265177   8.010303   9.619737   4.478381   3.250715
    27  H    8.262288   8.022765   9.592777   4.478167   3.250567
    28  H    7.041044   6.636361   8.409380   4.037353   2.625314
    29  H    8.718551   8.877608   9.944638   3.913940   3.402027
    30  H    8.250061   8.783462   9.269117   3.418901   3.871219
    31  H    7.506163   8.575692   7.933903   5.032916   6.335390
    32  H    8.887581  10.116218   8.964504   7.304198   8.669249
    33  H    8.716914  10.047378   8.482539   8.154929   9.567184
    34  H    5.272943   6.488934   5.377822   4.829744   6.128343
    35  H    3.473708   4.648079   3.929306   3.414840   4.651266
    36  H    1.995397   1.020785   3.209568   4.767714   4.668901
    37  H    2.050099   1.010290   2.513754   6.317773   6.368891
    38  H    2.004858   3.193926   1.011355   6.081643   6.866637
    39  H    2.050350   2.524832   1.011836   6.926095   7.428638
    40  H    4.840115   4.698231   6.187385   2.146692   1.080877
                   26         27         28         29         30
    26  H    0.000000
    27  H    1.763095   0.000000
    28  H    1.772244   1.772349   0.000000
    29  H    2.782143   2.781826   3.792794   0.000000
    30  H    4.921600   4.921527   5.554869   2.492291   0.000000
    31  H    8.621530   8.928242   8.821686   6.971018   4.715867
    32  H   11.086626  11.308464  11.218024   9.334864   6.960594
    33  H   12.374451  12.331846  12.188540  10.702759   8.384476
    34  H    9.256810   8.912472   8.652305   8.017460   6.259499
    35  H    7.811822   7.814543   7.156844   7.163106   5.811821
    36  H    7.058355   7.060120   5.641755   8.060668   8.179568
    37  H    8.805343   8.745816   7.344190   9.767141   9.730350
    38  H    9.916051   9.915203   8.828860   9.992533   9.070395
    39  H   10.233957  10.279820   8.990953  10.743306  10.156508
    40  H    3.491957   3.492235   2.370759   4.299306   4.952024
                   31         32         33         34         35
    31  H    0.000000
    32  H    2.479760   0.000000
    33  H    4.322161   2.506936   0.000000
    34  H    4.312656   4.960139   4.285632   0.000000
    35  H    4.169437   5.582676   5.691562   2.444741   0.000000
    36  H    8.485539  10.223332  10.328095   6.622932   4.727637
    37  H    9.496031  10.937043  10.711900   7.154414   5.484719
    38  H    7.272016   8.114884   7.550028   4.733864   3.429469
    39  H    8.753921   9.728889   9.236673   6.342023   4.853860
    40  H    7.096353   9.368789  10.127983   6.503852   4.844128
                   36         37         38         39         40
    36  H    0.000000
    37  H    1.758282   0.000000
    38  H    3.987927   3.508431   0.000000
    39  H    3.527424   2.420053   1.703963   0.000000
    40  H    3.805911   5.540569   6.520610   6.853648   0.000000
 Symmetry turned off by external request.
 Stoichiometry    C18H15FN4O2
 Framework group  C1[X(C18H15FN4O2)]
 Deg. of freedom   114
 Full point group                 C1      NOp   1
 Rotational constants (GHZ):           0.2457435           0.1606801           0.1010916
 Leave Link  202 at Sat Nov  5 11:57:34 2022, MaxMem=   402653184 cpu:               1.4 elap:               0.2
 (Enter /home/wykgroup/appl/g16/l301.exe)
 Standard basis: 6-31G(d) (6D, 10F)
 Ernie: Thresh=  0.10000D-02 Tol=  0.10000D-05 Strict=F.
 AO basis set in the form of general basis input (Overlap normalization):
      1 0
 S   6 1.00       0.000000000000
      0.3047524880D+04  0.1834737132D-02
      0.4573695180D+03  0.1403732281D-01
      0.1039486850D+03  0.6884262226D-01
      0.2921015530D+02  0.2321844432D+00
      0.9286662960D+01  0.4679413484D+00
      0.3163926960D+01  0.3623119853D+00
 SP   3 1.00       0.000000000000
      0.7868272350D+01 -0.1193324198D+00  0.6899906659D-01
      0.1881288540D+01 -0.1608541517D+00  0.3164239610D+00
      0.5442492580D+00  0.1143456438D+01  0.7443082909D+00
 SP   1 1.00       0.000000000000
      0.1687144782D+00  0.1000000000D+01  0.1000000000D+01
 D   1 1.00       0.000000000000
      0.8000000000D+00  0.1000000000D+01
 ****
      2 0
 S   6 1.00       0.000000000000
      0.3047524880D+04  0.1834737132D-02
      0.4573695180D+03  0.1403732281D-01
      0.1039486850D+03  0.6884262226D-01
      0.2921015530D+02  0.2321844432D+00
      0.9286662960D+01  0.4679413484D+00
      0.3163926960D+01  0.3623119853D+00
 SP   3 1.00       0.000000000000
      0.7868272350D+01 -0.1193324198D+00  0.6899906659D-01
      0.1881288540D+01 -0.1608541517D+00  0.3164239610D+00
      0.5442492580D+00  0.1143456438D+01  0.7443082909D+00
 SP   1 1.00       0.000000000000
      0.1687144782D+00  0.1000000000D+01  0.1000000000D+01
 D   1 1.00       0.000000000000
      0.8000000000D+00  0.1000000000D+01
 ****
      3 0
 S   6 1.00       0.000000000000
      0.3047524880D+04  0.1834737132D-02
      0.4573695180D+03  0.1403732281D-01
      0.1039486850D+03  0.6884262226D-01
      0.2921015530D+02  0.2321844432D+00
      0.9286662960D+01  0.4679413484D+00
      0.3163926960D+01  0.3623119853D+00
 SP   3 1.00       0.000000000000
      0.7868272350D+01 -0.1193324198D+00  0.6899906659D-01
      0.1881288540D+01 -0.1608541517D+00  0.3164239610D+00
      0.5442492580D+00  0.1143456438D+01  0.7443082909D+00
 SP   1 1.00       0.000000000000
      0.1687144782D+00  0.1000000000D+01  0.1000000000D+01
 D   1 1.00       0.000000000000
      0.8000000000D+00  0.1000000000D+01
 ****
      4 0
 S   6 1.00       0.000000000000
      0.3047524880D+04  0.1834737132D-02
      0.4573695180D+03  0.1403732281D-01
      0.1039486850D+03  0.6884262226D-01
      0.2921015530D+02  0.2321844432D+00
      0.9286662960D+01  0.4679413484D+00
      0.3163926960D+01  0.3623119853D+00
 SP   3 1.00       0.000000000000
      0.7868272350D+01 -0.1193324198D+00  0.6899906659D-01
      0.1881288540D+01 -0.1608541517D+00  0.3164239610D+00
      0.5442492580D+00  0.1143456438D+01  0.7443082909D+00
 SP   1 1.00       0.000000000000
      0.1687144782D+00  0.1000000000D+01  0.1000000000D+01
 D   1 1.00       0.000000000000
      0.8000000000D+00  0.1000000000D+01
 ****
      5 0
 S   6 1.00       0.000000000000
      0.3047524880D+04  0.1834737132D-02
      0.4573695180D+03  0.1403732281D-01
      0.1039486850D+03  0.6884262226D-01
      0.2921015530D+02  0.2321844432D+00
      0.9286662960D+01  0.4679413484D+00
      0.3163926960D+01  0.3623119853D+00
 SP   3 1.00       0.000000000000
      0.7868272350D+01 -0.1193324198D+00  0.6899906659D-01
      0.1881288540D+01 -0.1608541517D+00  0.3164239610D+00
      0.5442492580D+00  0.1143456438D+01  0.7443082909D+00
 SP   1 1.00       0.000000000000
      0.1687144782D+00  0.1000000000D+01  0.1000000000D+01
 D   1 1.00       0.000000000000
      0.8000000000D+00  0.1000000000D+01
 ****
      6 0
 S   6 1.00       0.000000000000
      0.3047524880D+04  0.1834737132D-02
      0.4573695180D+03  0.1403732281D-01
      0.1039486850D+03  0.6884262226D-01
      0.2921015530D+02  0.2321844432D+00
      0.9286662960D+01  0.4679413484D+00
      0.3163926960D+01  0.3623119853D+00
 SP   3 1.00       0.000000000000
      0.7868272350D+01 -0.1193324198D+00  0.6899906659D-01
      0.1881288540D+01 -0.1608541517D+00  0.3164239610D+00
      0.5442492580D+00  0.1143456438D+01  0.7443082909D+00
 SP   1 1.00       0.000000000000
      0.1687144782D+00  0.1000000000D+01  0.1000000000D+01
 D   1 1.00       0.000000000000
      0.8000000000D+00  0.1000000000D+01
 ****
      7 0
 S   6 1.00       0.000000000000
      0.5484671660D+04  0.1831074430D-02
      0.8252349460D+03  0.1395017220D-01
      0.1880469580D+03  0.6844507810D-01
      0.5296450000D+02  0.2327143360D+00
      0.1689757040D+02  0.4701928980D+00
      0.5799635340D+01  0.3585208530D+00
 SP   3 1.00       0.000000000000
      0.1553961625D+02 -0.1107775495D+00  0.7087426823D-01
      0.3599933586D+01 -0.1480262627D+00  0.3397528391D+00
      0.1013761750D+01  0.1130767015D+01  0.7271585773D+00
 SP   1 1.00       0.000000000000
      0.2700058226D+00  0.1000000000D+01  0.1000000000D+01
 D   1 1.00       0.000000000000
      0.8000000000D+00  0.1000000000D+01
 ****
      8 0
 S   6 1.00       0.000000000000
      0.4173511460D+04  0.1834772160D-02
      0.6274579110D+03  0.1399462700D-01
      0.1429020930D+03  0.6858655181D-01
      0.4023432930D+02  0.2322408730D+00
      0.1282021290D+02  0.4690699481D+00
      0.4390437010D+01  0.3604551991D+00
 SP   3 1.00       0.000000000000
      0.1162636186D+02 -0.1149611817D+00  0.6757974388D-01
      0.2716279807D+01 -0.1691174786D+00  0.3239072959D+00
      0.7722183966D+00  0.1145851947D+01  0.7408951398D+00
 SP   1 1.00       0.000000000000
      0.2120314975D+00  0.1000000000D+01  0.1000000000D+01
 D   1 1.00       0.000000000000
      0.8000000000D+00  0.1000000000D+01
 ****
      9 0
 S   6 1.00       0.000000000000
      0.3047524880D+04  0.1834737132D-02
      0.4573695180D+03  0.1403732281D-01
      0.1039486850D+03  0.6884262226D-01
      0.2921015530D+02  0.2321844432D+00
      0.9286662960D+01  0.4679413484D+00
      0.3163926960D+01  0.3623119853D+00
 SP   3 1.00       0.000000000000
      0.7868272350D+01 -0.1193324198D+00  0.6899906659D-01
      0.1881288540D+01 -0.1608541517D+00  0.3164239610D+00
      0.5442492580D+00  0.1143456438D+01  0.7443082909D+00
 SP   1 1.00       0.000000000000
      0.1687144782D+00  0.1000000000D+01  0.1000000000D+01
 D   1 1.00       0.000000000000
      0.8000000000D+00  0.1000000000D+01
 ****
     10 0
 S   6 1.00       0.000000000000
      0.3047524880D+04  0.1834737132D-02
      0.4573695180D+03  0.1403732281D-01
      0.1039486850D+03  0.6884262226D-01
      0.2921015530D+02  0.2321844432D+00
      0.9286662960D+01  0.4679413484D+00
      0.3163926960D+01  0.3623119853D+00
 SP   3 1.00       0.000000000000
      0.7868272350D+01 -0.1193324198D+00  0.6899906659D-01
      0.1881288540D+01 -0.1608541517D+00  0.3164239610D+00
      0.5442492580D+00  0.1143456438D+01  0.7443082909D+00
 SP   1 1.00       0.000000000000
      0.1687144782D+00  0.1000000000D+01  0.1000000000D+01
 D   1 1.00       0.000000000000
      0.8000000000D+00  0.1000000000D+01
 ****
     11 0
 S   6 1.00       0.000000000000
      0.3047524880D+04  0.1834737132D-02
      0.4573695180D+03  0.1403732281D-01
      0.1039486850D+03  0.6884262226D-01
      0.2921015530D+02  0.2321844432D+00
      0.9286662960D+01  0.4679413484D+00
      0.3163926960D+01  0.3623119853D+00
 SP   3 1.00       0.000000000000
      0.7868272350D+01 -0.1193324198D+00  0.6899906659D-01
      0.1881288540D+01 -0.1608541517D+00  0.3164239610D+00
      0.5442492580D+00  0.1143456438D+01  0.7443082909D+00
 SP   1 1.00       0.000000000000
      0.1687144782D+00  0.1000000000D+01  0.1000000000D+01
 D   1 1.00       0.000000000000
      0.8000000000D+00  0.1000000000D+01
 ****
     12 0
 S   6 1.00       0.000000000000
      0.3047524880D+04  0.1834737132D-02
      0.4573695180D+03  0.1403732281D-01
      0.1039486850D+03  0.6884262226D-01
      0.2921015530D+02  0.2321844432D+00
      0.9286662960D+01  0.4679413484D+00
      0.3163926960D+01  0.3623119853D+00
 SP   3 1.00       0.000000000000
      0.7868272350D+01 -0.1193324198D+00  0.6899906659D-01
      0.1881288540D+01 -0.1608541517D+00  0.3164239610D+00
      0.5442492580D+00  0.1143456438D+01  0.7443082909D+00
 SP   1 1.00       0.000000000000
      0.1687144782D+00  0.1000000000D+01  0.1000000000D+01
 D   1 1.00       0.000000000000
      0.8000000000D+00  0.1000000000D+01
 ****
     13 0
 S   6 1.00       0.000000000000
      0.3047524880D+04  0.1834737132D-02
      0.4573695180D+03  0.1403732281D-01
      0.1039486850D+03  0.6884262226D-01
      0.2921015530D+02  0.2321844432D+00
      0.9286662960D+01  0.4679413484D+00
      0.3163926960D+01  0.3623119853D+00
 SP   3 1.00       0.000000000000
      0.7868272350D+01 -0.1193324198D+00  0.6899906659D-01
      0.1881288540D+01 -0.1608541517D+00  0.3164239610D+00
      0.5442492580D+00  0.1143456438D+01  0.7443082909D+00
 SP   1 1.00       0.000000000000
      0.1687144782D+00  0.1000000000D+01  0.1000000000D+01
 D   1 1.00       0.000000000000
      0.8000000000D+00  0.1000000000D+01
 ****
     14 0
 S   6 1.00       0.000000000000
      0.7001713090D+04  0.1819616901D-02
      0.1051366090D+04  0.1391607961D-01
      0.2392856900D+03  0.6840532453D-01
      0.6739744530D+02  0.2331857601D+00
      0.2151995730D+02  0.4712674392D+00
      0.7403101300D+01  0.3566185462D+00
 SP   3 1.00       0.000000000000
      0.2084795280D+02 -0.1085069751D+00  0.7162872424D-01
      0.4808308340D+01 -0.1464516581D+00  0.3459121027D+00
      0.1344069860D+01  0.1128688581D+01  0.7224699564D+00
 SP   1 1.00       0.000000000000
      0.3581513930D+00  0.1000000000D+01  0.1000000000D+01
 D   1 1.00       0.000000000000
      0.8000000000D+00  0.1000000000D+01
 ****
     15 0
 S   6 1.00       0.000000000000
      0.3047524880D+04  0.1834737132D-02
      0.4573695180D+03  0.1403732281D-01
      0.1039486850D+03  0.6884262226D-01
      0.2921015530D+02  0.2321844432D+00
      0.9286662960D+01  0.4679413484D+00
      0.3163926960D+01  0.3623119853D+00
 SP   3 1.00       0.000000000000
      0.7868272350D+01 -0.1193324198D+00  0.6899906659D-01
      0.1881288540D+01 -0.1608541517D+00  0.3164239610D+00
      0.5442492580D+00  0.1143456438D+01  0.7443082909D+00
 SP   1 1.00       0.000000000000
      0.1687144782D+00  0.1000000000D+01  0.1000000000D+01
 D   1 1.00       0.000000000000
      0.8000000000D+00  0.1000000000D+01
 ****
     16 0
 S   6 1.00       0.000000000000
      0.3047524880D+04  0.1834737132D-02
      0.4573695180D+03  0.1403732281D-01
      0.1039486850D+03  0.6884262226D-01
      0.2921015530D+02  0.2321844432D+00
      0.9286662960D+01  0.4679413484D+00
      0.3163926960D+01  0.3623119853D+00
 SP   3 1.00       0.000000000000
      0.7868272350D+01 -0.1193324198D+00  0.6899906659D-01
      0.1881288540D+01 -0.1608541517D+00  0.3164239610D+00
      0.5442492580D+00  0.1143456438D+01  0.7443082909D+00
 SP   1 1.00       0.000000000000
      0.1687144782D+00  0.1000000000D+01  0.1000000000D+01
 D   1 1.00       0.000000000000
      0.8000000000D+00  0.1000000000D+01
 ****
     17 0
 S   6 1.00       0.000000000000
      0.3047524880D+04  0.1834737132D-02
      0.4573695180D+03  0.1403732281D-01
      0.1039486850D+03  0.6884262226D-01
      0.2921015530D+02  0.2321844432D+00
      0.9286662960D+01  0.4679413484D+00
      0.3163926960D+01  0.3623119853D+00
 SP   3 1.00       0.000000000000
      0.7868272350D+01 -0.1193324198D+00  0.6899906659D-01
      0.1881288540D+01 -0.1608541517D+00  0.3164239610D+00
      0.5442492580D+00  0.1143456438D+01  0.7443082909D+00
 SP   1 1.00       0.000000000000
      0.1687144782D+00  0.1000000000D+01  0.1000000000D+01
 D   1 1.00       0.000000000000
      0.8000000000D+00  0.1000000000D+01
 ****
     18 0
 S   6 1.00       0.000000000000
      0.3047524880D+04  0.1834737132D-02
      0.4573695180D+03  0.1403732281D-01
      0.1039486850D+03  0.6884262226D-01
      0.2921015530D+02  0.2321844432D+00
      0.9286662960D+01  0.4679413484D+00
      0.3163926960D+01  0.3623119853D+00
 SP   3 1.00       0.000000000000
      0.7868272350D+01 -0.1193324198D+00  0.6899906659D-01
      0.1881288540D+01 -0.1608541517D+00  0.3164239610D+00
      0.5442492580D+00  0.1143456438D+01  0.7443082909D+00
 SP   1 1.00       0.000000000000
      0.1687144782D+00  0.1000000000D+01  0.1000000000D+01
 D   1 1.00       0.000000000000
      0.8000000000D+00  0.1000000000D+01
 ****
     19 0
 S   6 1.00       0.000000000000
      0.5484671660D+04  0.1831074430D-02
      0.8252349460D+03  0.1395017220D-01
      0.1880469580D+03  0.6844507810D-01
      0.5296450000D+02  0.2327143360D+00
      0.1689757040D+02  0.4701928980D+00
      0.5799635340D+01  0.3585208530D+00
 SP   3 1.00       0.000000000000
      0.1553961625D+02 -0.1107775495D+00  0.7087426823D-01
      0.3599933586D+01 -0.1480262627D+00  0.3397528391D+00
      0.1013761750D+01  0.1130767015D+01  0.7271585773D+00
 SP   1 1.00       0.000000000000
      0.2700058226D+00  0.1000000000D+01  0.1000000000D+01
 D   1 1.00       0.000000000000
      0.8000000000D+00  0.1000000000D+01
 ****
     20 0
 S   6 1.00       0.000000000000
      0.4173511460D+04  0.1834772160D-02
      0.6274579110D+03  0.1399462700D-01
      0.1429020930D+03  0.6858655181D-01
      0.4023432930D+02  0.2322408730D+00
      0.1282021290D+02  0.4690699481D+00
      0.4390437010D+01  0.3604551991D+00
 SP   3 1.00       0.000000000000
      0.1162636186D+02 -0.1149611817D+00  0.6757974388D-01
      0.2716279807D+01 -0.1691174786D+00  0.3239072959D+00
      0.7722183966D+00  0.1145851947D+01  0.7408951398D+00
 SP   1 1.00       0.000000000000
      0.2120314975D+00  0.1000000000D+01  0.1000000000D+01
 D   1 1.00       0.000000000000
      0.8000000000D+00  0.1000000000D+01
 ****
     21 0
 S   6 1.00       0.000000000000
      0.3047524880D+04  0.1834737132D-02
      0.4573695180D+03  0.1403732281D-01
      0.1039486850D+03  0.6884262226D-01
      0.2921015530D+02  0.2321844432D+00
      0.9286662960D+01  0.4679413484D+00
      0.3163926960D+01  0.3623119853D+00
 SP   3 1.00       0.000000000000
      0.7868272350D+01 -0.1193324198D+00  0.6899906659D-01
      0.1881288540D+01 -0.1608541517D+00  0.3164239610D+00
      0.5442492580D+00  0.1143456438D+01  0.7443082909D+00
 SP   1 1.00       0.000000000000
      0.1687144782D+00  0.1000000000D+01  0.1000000000D+01
 D   1 1.00       0.000000000000
      0.8000000000D+00  0.1000000000D+01
 ****
     22 0
 S   6 1.00       0.000000000000
      0.4173511460D+04  0.1834772160D-02
      0.6274579110D+03  0.1399462700D-01
      0.1429020930D+03  0.6858655181D-01
      0.4023432930D+02  0.2322408730D+00
      0.1282021290D+02  0.4690699481D+00
      0.4390437010D+01  0.3604551991D+00
 SP   3 1.00       0.000000000000
      0.1162636186D+02 -0.1149611817D+00  0.6757974388D-01
      0.2716279807D+01 -0.1691174786D+00  0.3239072959D+00
      0.7722183966D+00  0.1145851947D+01  0.7408951398D+00
 SP   1 1.00       0.000000000000
      0.2120314975D+00  0.1000000000D+01  0.1000000000D+01
 D   1 1.00       0.000000000000
      0.8000000000D+00  0.1000000000D+01
 ****
     23 0
 S   6 1.00       0.000000000000
      0.4173511460D+04  0.1834772160D-02
      0.6274579110D+03  0.1399462700D-01
      0.1429020930D+03  0.6858655181D-01
      0.4023432930D+02  0.2322408730D+00
      0.1282021290D+02  0.4690699481D+00
      0.4390437010D+01  0.3604551991D+00
 SP   3 1.00       0.000000000000
      0.1162636186D+02 -0.1149611817D+00  0.6757974388D-01
      0.2716279807D+01 -0.1691174786D+00  0.3239072959D+00
      0.7722183966D+00  0.1145851947D+01  0.7408951398D+00
 SP   1 1.00       0.000000000000
      0.2120314975D+00  0.1000000000D+01  0.1000000000D+01
 D   1 1.00       0.000000000000
      0.8000000000D+00  0.1000000000D+01
 ****
     24 0
 S   6 1.00       0.000000000000
      0.3047524880D+04  0.1834737132D-02
      0.4573695180D+03  0.1403732281D-01
      0.1039486850D+03  0.6884262226D-01
      0.2921015530D+02  0.2321844432D+00
      0.9286662960D+01  0.4679413484D+00
      0.3163926960D+01  0.3623119853D+00
 SP   3 1.00       0.000000000000
      0.7868272350D+01 -0.1193324198D+00  0.6899906659D-01
      0.1881288540D+01 -0.1608541517D+00  0.3164239610D+00
      0.5442492580D+00  0.1143456438D+01  0.7443082909D+00
 SP   1 1.00       0.000000000000
      0.1687144782D+00  0.1000000000D+01  0.1000000000D+01
 D   1 1.00       0.000000000000
      0.8000000000D+00  0.1000000000D+01
 ****
     25 0
 S   6 1.00       0.000000000000
      0.3047524880D+04  0.1834737132D-02
      0.4573695180D+03  0.1403732281D-01
      0.1039486850D+03  0.6884262226D-01
      0.2921015530D+02  0.2321844432D+00
      0.9286662960D+01  0.4679413484D+00
      0.3163926960D+01  0.3623119853D+00
 SP   3 1.00       0.000000000000
      0.7868272350D+01 -0.1193324198D+00  0.6899906659D-01
      0.1881288540D+01 -0.1608541517D+00  0.3164239610D+00
      0.5442492580D+00  0.1143456438D+01  0.7443082909D+00
 SP   1 1.00       0.000000000000
      0.1687144782D+00  0.1000000000D+01  0.1000000000D+01
 D   1 1.00       0.000000000000
      0.8000000000D+00  0.1000000000D+01
 ****
     26 0
 S   3 1.00       0.000000000000
      0.1873113696D+02  0.3349460434D-01
      0.2825394365D+01  0.2347269535D+00
      0.6401216923D+00  0.8137573261D+00
 S   1 1.00       0.000000000000
      0.1612777588D+00  0.1000000000D+01
 ****
     27 0
 S   3 1.00       0.000000000000
      0.1873113696D+02  0.3349460434D-01
      0.2825394365D+01  0.2347269535D+00
      0.6401216923D+00  0.8137573261D+00
 S   1 1.00       0.000000000000
      0.1612777588D+00  0.1000000000D+01
 ****
     28 0
 S   3 1.00       0.000000000000
      0.1873113696D+02  0.3349460434D-01
      0.2825394365D+01  0.2347269535D+00
      0.6401216923D+00  0.8137573261D+00
 S   1 1.00       0.000000000000
      0.1612777588D+00  0.1000000000D+01
 ****
     29 0
 S   3 1.00       0.000000000000
      0.1873113696D+02  0.3349460434D-01
      0.2825394365D+01  0.2347269535D+00
      0.6401216923D+00  0.8137573261D+00
 S   1 1.00       0.000000000000
      0.1612777588D+00  0.1000000000D+01
 ****
     30 0
 S   3 1.00       0.000000000000
      0.1873113696D+02  0.3349460434D-01
      0.2825394365D+01  0.2347269535D+00
      0.6401216923D+00  0.8137573261D+00
 S   1 1.00       0.000000000000
      0.1612777588D+00  0.1000000000D+01
 ****
     31 0
 S   3 1.00       0.000000000000
      0.1873113696D+02  0.3349460434D-01
      0.2825394365D+01  0.2347269535D+00
      0.6401216923D+00  0.8137573261D+00
 S   1 1.00       0.000000000000
      0.1612777588D+00  0.1000000000D+01
 ****
     32 0
 S   3 1.00       0.000000000000
      0.1873113696D+02  0.3349460434D-01
      0.2825394365D+01  0.2347269535D+00
      0.6401216923D+00  0.8137573261D+00
 S   1 1.00       0.000000000000
      0.1612777588D+00  0.1000000000D+01
 ****
     33 0
 S   3 1.00       0.000000000000
      0.1873113696D+02  0.3349460434D-01
      0.2825394365D+01  0.2347269535D+00
      0.6401216923D+00  0.8137573261D+00
 S   1 1.00       0.000000000000
      0.1612777588D+00  0.1000000000D+01
 ****
     34 0
 S   3 1.00       0.000000000000
      0.1873113696D+02  0.3349460434D-01
      0.2825394365D+01  0.2347269535D+00
      0.6401216923D+00  0.8137573261D+00
 S   1 1.00       0.000000000000
      0.1612777588D+00  0.1000000000D+01
 ****
     35 0
 S   3 1.00       0.000000000000
      0.1873113696D+02  0.3349460434D-01
      0.2825394365D+01  0.2347269535D+00
      0.6401216923D+00  0.8137573261D+00
 S   1 1.00       0.000000000000
      0.1612777588D+00  0.1000000000D+01
 ****
     36 0
 S   3 1.00       0.000000000000
      0.1873113696D+02  0.3349460434D-01
      0.2825394365D+01  0.2347269535D+00
      0.6401216923D+00  0.8137573261D+00
 S   1 1.00       0.000000000000
      0.1612777588D+00  0.1000000000D+01
 ****
     37 0
 S   3 1.00       0.000000000000
      0.1873113696D+02  0.3349460434D-01
      0.2825394365D+01  0.2347269535D+00
      0.6401216923D+00  0.8137573261D+00
 S   1 1.00       0.000000000000
      0.1612777588D+00  0.1000000000D+01
 ****
     38 0
 S   3 1.00       0.000000000000
      0.1873113696D+02  0.3349460434D-01
      0.2825394365D+01  0.2347269535D+00
      0.6401216923D+00  0.8137573261D+00
 S   1 1.00       0.000000000000
      0.1612777588D+00  0.1000000000D+01
 ****
     39 0
 S   3 1.00       0.000000000000
      0.1873113696D+02  0.3349460434D-01
      0.2825394365D+01  0.2347269535D+00
      0.6401216923D+00  0.8137573261D+00
 S   1 1.00       0.000000000000
      0.1612777588D+00  0.1000000000D+01
 ****
     40 0
 S   3 1.00       0.000000000000
      0.1873113696D+02  0.3349460434D-01
      0.2825394365D+01  0.2347269535D+00
      0.6401216923D+00  0.8137573261D+00
 S   1 1.00       0.000000000000
      0.1612777588D+00  0.1000000000D+01
 ****

   405 basis functions,   760 primitive gaussians,   405 cartesian basis functions
    88 alpha electrons       88 beta electrons
       nuclear repulsion energy      2058.3166274840 Hartrees.
 IExCor=  402 DFT=T Ex+Corr=B3LYP ExCW=0 ScaHFX=  0.200000
 ScaDFX=  0.800000  0.720000  1.000000  0.810000 ScalE2=  1.000000  1.000000
 IRadAn=      5 IRanWt=     -1 IRanGd=            0 ICorTp=0 IEmpDi=  4
 NAtoms=   40 NActive=   40 NUniq=   40 SFac= 1.00D+00 NAtFMM=   60 NAOKFM=F Big=F
 Integral buffers will be    131072 words long.
 Regular integral format.
 Two-electron integral symmetry is turned off.
 Leave Link  301 at Sat Nov  5 11:57:35 2022, MaxMem=   402653184 cpu:               1.1 elap:               0.1
 (Enter /home/wykgroup/appl/g16/l302.exe)
 NPDir=0 NMtPBC=     1 NCelOv=     1 NCel=       1 NClECP=     1 NCelD=      1
         NCelK=      1 NCelE2=     1 NClLst=     1 CellRange=     0.0.
 One-electron integrals computed using PRISM.
 NBasis=   405 RedAO= T EigKep=  3.05D-04  NBF=   405
 NBsUse=   405 1.00D-06 EigRej= -1.00D+00 NBFU=   405
 Precomputing XC quadrature grid using
 IXCGrd= 4 IRadAn=           5 IRanWt=          -1 IRanGd=           0 AccXCQ= 0.00D+00.
 Generated NRdTot=       0 NPtTot=           0 NUsed=           0 NTot=          32
 NSgBfM=   401   401   401   401   401 MxSgAt=    40 MxSgA2=    40.
 Leave Link  302 at Sat Nov  5 11:57:36 2022, MaxMem=   402653184 cpu:              13.8 elap:               1.3
 (Enter /home/wykgroup/appl/g16/l303.exe)
 DipDrv:  MaxL=1.
 Leave Link  303 at Sat Nov  5 11:57:36 2022, MaxMem=   402653184 cpu:               2.1 elap:               0.3
 (Enter /home/wykgroup/appl/g16/l308.exe)
 Leave Link  308 at Sat Nov  5 11:57:36 2022, MaxMem=   402653184 cpu:               2.3 elap:               0.3
 (Enter /home/wykgroup/appl/g16/l401.exe)
 ExpMin= 1.61D-01 ExpMax= 7.00D+03 ExpMxC= 1.05D+03 IAcc=3 IRadAn=         5 AccDes= 0.00D+00
 Harris functional with IExCor=  402 and IRadAn=       5 diagonalized for initial guess.
 HarFok:  IExCor=  402 AccDes= 0.00D+00 IRadAn=         5 IDoV= 1 UseB2=F ITyADJ=14
 ICtDFT=  3500011 ScaDFX=  1.000000  1.000000  1.000000  1.000000
 FoFCou: FMM=F IPFlag=           0 FMFlag=      100000 FMFlg1=           0
         NFxFlg=           0 DoJE=T BraDBF=F KetDBF=T FulRan=T
         wScrn=  0.000000 ICntrl=       500 IOpCl=  0 I1Cent=   200000004 NGrid=           0
         NMat0=    1 NMatS0=      1 NMatT0=    0 NMatD0=    1 NMtDS0=    0 NMtDT0=    0
 Symmetry not used in FoFCou.
 Harris En= -1164.27244689638    
 JPrj=0 DoOrth=F DoCkMO=F.
 Leave Link  401 at Sat Nov  5 11:57:39 2022, MaxMem=   402653184 cpu:              27.9 elap:               2.7
 (Enter /home/wykgroup/appl/g16/l502.exe)
 Two-electron integral symmetry not used.
 Closed shell SCF:
 Using DIIS extrapolation, IDIIS=  1040.
 NGot=   402653184 LenX=   402316033 LenY=   402151567
 Requested convergence on RMS density matrix=1.00D-08 within  32 cycles.
 Requested convergence on MAX density matrix=1.00D-06.
 Requested convergence on             energy=1.00D-06.
 No special actions if energy rises.
 Fock matrices will be formed incrementally for  20 cycles.
 Integral accuracy reduced to 1.0D-05 until final iterations.

 Cycle   1  Pass 0  IDiag  1:
 FoFJK:  IHMeth= 1 ICntrl=       0 DoSepK=F KAlg= 0 I1Cent=           0 FoldK=F
 IRaf= 690000000 NMat=       1 IRICut=       1 DoRegI=T DoRafI=F ISym2E= 0 IDoP0=0 IntGTp=1.
 FoFCou: FMM=F IPFlag=           0 FMFlag=      100000 FMFlg1=           0
         NFxFlg=           0 DoJE=F BraDBF=F KetDBF=F FulRan=T
         wScrn=  0.000000 ICntrl=         0 IOpCl=  0 I1Cent=           0 NGrid=           0
         NMat0=    1 NMatS0=      1 NMatT0=    0 NMatD0=    1 NMtDS0=    0 NMtDT0=    0
 Symmetry not used in FoFCou.
 E= -1163.71619023265    
 DIIS: error= 2.02D-02 at cycle   1 NSaved=   1.
 NSaved= 1 IEnMin= 1 EnMin= -1163.71619023265     IErMin= 1 ErrMin= 2.02D-02
 ErrMax= 2.02D-02  0.00D+00 EMaxC= 1.00D-01 BMatC= 6.41D-01 BMatP= 6.41D-01
 IDIUse=3 WtCom= 7.98D-01 WtEn= 2.02D-01
 Coeff-Com:  0.100D+01
 Coeff-En:   0.100D+01
 Coeff:      0.100D+01
 Gap=     0.194 Goal=   None    Shift=    0.000
 GapD=    0.194 DampG=1.000 DampE=0.500 DampFc=0.5000 IDamp=-1.
 Damping current iteration by 5.00D-01
 RMSDP=5.46D-03 MaxDP=2.71D-01              OVMax= 3.03D-01

 Cycle   2  Pass 0  IDiag  1:
 RMSU=  2.70D-03    CP:  9.80D-01
 E= -1163.85661054248     Delta-E=       -0.140420309830 Rises=F Damp=T
 DIIS: error= 1.50D-02 at cycle   2 NSaved=   2.
 NSaved= 2 IEnMin= 2 EnMin= -1163.85661054248     IErMin= 2 ErrMin= 1.50D-02
 ErrMax= 1.50D-02  0.00D+00 EMaxC= 1.00D-01 BMatC= 1.24D-01 BMatP= 6.41D-01
 IDIUse=3 WtCom= 8.50D-01 WtEn= 1.50D-01
 Coeff-Com:  0.229D+00 0.771D+00
 Coeff-En:   0.364D+00 0.636D+00
 Coeff:      0.249D+00 0.751D+00
 Gap=     0.237 Goal=   None    Shift=    0.000
 RMSDP=2.13D-03 MaxDP=1.65D-01 DE=-1.40D-01 OVMax= 3.43D-01

 Cycle   3  Pass 0  IDiag  1:
 RMSU=  1.83D-03    CP:  9.61D-01  6.15D-01
 E= -1164.16129579092     Delta-E=       -0.304685248442 Rises=F Damp=F
 DIIS: error= 1.59D-02 at cycle   3 NSaved=   3.
 NSaved= 3 IEnMin= 3 EnMin= -1164.16129579092     IErMin= 2 ErrMin= 1.50D-02
 ErrMax= 1.59D-02  0.00D+00 EMaxC= 1.00D-01 BMatC= 1.42D-01 BMatP= 1.24D-01
 IDIUse=2 WtCom= 0.00D+00 WtEn= 1.00D+00
 Coeff-En:   0.000D+00 0.000D+00 0.100D+01
 Coeff:      0.000D+00 0.000D+00 0.100D+01
 Gap=     0.201 Goal=   None    Shift=    0.000
 RMSDP=3.72D-03 MaxDP=2.77D-01 DE=-3.05D-01 OVMax= 3.23D-01

 Cycle   4  Pass 0  IDiag  1:
 RMSU=  1.67D-03    CP:  9.73D-01  1.38D+00 -4.12D-01
 E= -1163.35997391252     Delta-E=        0.801321878404 Rises=F Damp=F
 DIIS: error= 4.75D-02 at cycle   4 NSaved=   4.
 NSaved= 4 IEnMin= 3 EnMin= -1164.16129579092     IErMin= 2 ErrMin= 1.50D-02
 ErrMax= 4.75D-02  0.00D+00 EMaxC= 1.00D-01 BMatC= 1.06D+00 BMatP= 1.24D-01
 IDIUse=2 WtCom= 0.00D+00 WtEn= 1.00D+00
 Coeff-En:   0.000D+00 0.000D+00 0.818D+00 0.182D+00
 Coeff:      0.000D+00 0.000D+00 0.818D+00 0.182D+00
 Gap=     0.160 Goal=   None    Shift=    0.000
 RMSDP=2.09D-03 MaxDP=1.74D-01 DE= 8.01D-01 OVMax= 2.17D-01

 Cycle   5  Pass 0  IDiag  1:
 RMSU=  4.09D-04    CP:  9.69D-01  8.86D-01  3.12D-01  5.18D-01
 E= -1164.22221383163     Delta-E=       -0.862239919109 Rises=F Damp=F
 DIIS: error= 1.35D-02 at cycle   5 NSaved=   5.
 NSaved= 5 IEnMin= 5 EnMin= -1164.22221383163     IErMin= 5 ErrMin= 1.35D-02
 ErrMax= 1.35D-02  0.00D+00 EMaxC= 1.00D-01 BMatC= 8.07D-02 BMatP= 1.24D-01
 IDIUse=3 WtCom= 8.65D-01 WtEn= 1.35D-01
 Coeff-Com: -0.433D-02 0.499D-01 0.338D+00-0.892D-01 0.706D+00
 Coeff-En:   0.000D+00 0.000D+00 0.391D+00 0.000D+00 0.609D+00
 Coeff:     -0.374D-02 0.432D-01 0.345D+00-0.772D-01 0.693D+00
 Gap=     0.166 Goal=   None    Shift=    0.000
 RMSDP=7.69D-04 MaxDP=5.39D-02 DE=-8.62D-01 OVMax= 8.95D-02

 Cycle   6  Pass 0  IDiag  1:
 RMSU=  1.20D-04    CP:  9.66D-01  7.50D-01  6.08D-01  2.99D-01  7.56D-01
 E= -1164.29589240289     Delta-E=       -0.073678571264 Rises=F Damp=F
 DIIS: error= 8.04D-04 at cycle   6 NSaved=   6.
 NSaved= 6 IEnMin= 6 EnMin= -1164.29589240289     IErMin= 6 ErrMin= 8.04D-04
 ErrMax= 8.04D-04  0.00D+00 EMaxC= 1.00D-01 BMatC= 6.61D-04 BMatP= 8.07D-02
 IDIUse=3 WtCom= 9.92D-01 WtEn= 8.04D-03
 Coeff-Com: -0.568D-02 0.247D-01 0.176D+00-0.607D-01 0.422D+00 0.443D+00
 Coeff-En:   0.000D+00 0.000D+00 0.000D+00 0.000D+00 0.000D+00 0.100D+01
 Coeff:     -0.564D-02 0.245D-01 0.175D+00-0.602D-01 0.419D+00 0.448D+00
 Gap=     0.162 Goal=   None    Shift=    0.000
 RMSDP=8.22D-05 MaxDP=5.52D-03 DE=-7.37D-02 OVMax= 7.08D-03

 Cycle   7  Pass 0  IDiag  1:
 RMSU=  4.10D-05    CP:  9.66D-01  7.60D-01  6.01D-01  2.98D-01  7.94D-01
                    CP:  4.75D-01
 E= -1164.29642298232     Delta-E=       -0.000530579426 Rises=F Damp=F
 DIIS: error= 3.45D-04 at cycle   7 NSaved=   7.
 NSaved= 7 IEnMin= 7 EnMin= -1164.29642298232     IErMin= 7 ErrMin= 3.45D-04
 ErrMax= 3.45D-04  0.00D+00 EMaxC= 1.00D-01 BMatC= 8.26D-05 BMatP= 6.61D-04
 IDIUse=3 WtCom= 9.97D-01 WtEn= 3.45D-03
 Coeff-Com: -0.153D-02 0.412D-02 0.513D-01-0.194D-01 0.124D+00 0.258D+00
 Coeff-Com:  0.583D+00
 Coeff-En:   0.000D+00 0.000D+00 0.000D+00 0.000D+00 0.000D+00 0.113D+00
 Coeff-En:   0.887D+00
 Coeff:     -0.152D-02 0.410D-02 0.511D-01-0.193D-01 0.124D+00 0.257D+00
 Coeff:      0.584D+00
 Gap=     0.162 Goal=   None    Shift=    0.000
 RMSDP=2.88D-05 MaxDP=1.36D-03 DE=-5.31D-04 OVMax= 3.50D-03

 Cycle   8  Pass 0  IDiag  1:
 RMSU=  1.64D-05    CP:  9.66D-01  7.56D-01  6.06D-01  2.97D-01  7.86D-01
                    CP:  5.80D-01  6.20D-01
 E= -1164.29649393264     Delta-E=       -0.000070950318 Rises=F Damp=F
 DIIS: error= 1.05D-04 at cycle   8 NSaved=   8.
 NSaved= 8 IEnMin= 8 EnMin= -1164.29649393264     IErMin= 8 ErrMin= 1.05D-04
 ErrMax= 1.05D-04  0.00D+00 EMaxC= 1.00D-01 BMatC= 1.18D-05 BMatP= 8.26D-05
 IDIUse=3 WtCom= 9.99D-01 WtEn= 1.05D-03
 Coeff-Com:  0.994D-04-0.140D-02 0.103D-01-0.336D-02 0.202D-01 0.107D+00
 Coeff-Com:  0.375D+00 0.492D+00
 Coeff-En:   0.000D+00 0.000D+00 0.000D+00 0.000D+00 0.000D+00 0.000D+00
 Coeff-En:   0.306D-01 0.969D+00
 Coeff:      0.993D-04-0.140D-02 0.102D-01-0.335D-02 0.202D-01 0.107D+00
 Coeff:      0.374D+00 0.493D+00
 Gap=     0.162 Goal=   None    Shift=    0.000
 RMSDP=9.51D-06 MaxDP=5.30D-04 DE=-7.10D-05 OVMax= 8.58D-04

 Initial convergence to 1.0D-05 achieved.  Increase integral accuracy.
 Cycle   9  Pass 1  IDiag  1:
 E= -1164.29646735518     Delta-E=        0.000026577456 Rises=F Damp=F
 DIIS: error= 6.38D-05 at cycle   1 NSaved=   1.
 NSaved= 1 IEnMin= 1 EnMin= -1164.29646735518     IErMin= 1 ErrMin= 6.38D-05
 ErrMax= 6.38D-05  0.00D+00 EMaxC= 1.00D-01 BMatC= 1.49D-06 BMatP= 1.49D-06
 IDIUse=1 WtCom= 1.00D+00 WtEn= 0.00D+00
 Coeff-Com:  0.100D+01
 Coeff:      0.100D+01
 Gap=     0.162 Goal=   None    Shift=    0.000
 RMSDP=9.51D-06 MaxDP=5.30D-04 DE= 2.66D-05 OVMax= 3.76D-04

 Cycle  10  Pass 1  IDiag  1:
 RMSU=  3.77D-05    CP:  1.00D+00
 E= -1164.29646742224     Delta-E=       -0.000000067062 Rises=F Damp=F
 DIIS: error= 3.73D-05 at cycle   2 NSaved=   2.
 NSaved= 2 IEnMin= 2 EnMin= -1164.29646742224     IErMin= 2 ErrMin= 3.73D-05
 ErrMax= 3.73D-05  0.00D+00 EMaxC= 1.00D-01 BMatC= 1.27D-06 BMatP= 1.49D-06
 IDIUse=1 WtCom= 1.00D+00 WtEn= 0.00D+00
 Coeff-Com:  0.472D+00 0.528D+00
 Coeff:      0.472D+00 0.528D+00
 Gap=     0.162 Goal=   None    Shift=    0.000
 RMSDP=4.80D-06 MaxDP=2.39D-04 DE=-6.71D-08 OVMax= 3.94D-04

 Cycle  11  Pass 1  IDiag  1:
 RMSU=  4.79D-06    CP:  1.00D+00  9.97D-01
 E= -1164.29646816983     Delta-E=       -0.000000747586 Rises=F Damp=F
 DIIS: error= 2.68D-05 at cycle   3 NSaved=   3.
 NSaved= 3 IEnMin= 3 EnMin= -1164.29646816983     IErMin= 3 ErrMin= 2.68D-05
 ErrMax= 2.68D-05  0.00D+00 EMaxC= 1.00D-01 BMatC= 5.16D-07 BMatP= 1.27D-06
 IDIUse=1 WtCom= 1.00D+00 WtEn= 0.00D+00
 Coeff-Com:  0.309D-01 0.385D+00 0.585D+00
 Coeff:      0.309D-01 0.385D+00 0.585D+00
 Gap=     0.162 Goal=   None    Shift=    0.000
 RMSDP=2.17D-06 MaxDP=1.37D-04 DE=-7.48D-07 OVMax= 2.32D-04

 Cycle  12  Pass 1  IDiag  1:
 RMSU=  8.79D-07    CP:  1.00D+00  1.01D+00  5.94D-01
 E= -1164.29646863077     Delta-E=       -0.000000460946 Rises=F Damp=F
 DIIS: error= 6.33D-06 at cycle   4 NSaved=   4.
 NSaved= 4 IEnMin= 4 EnMin= -1164.29646863077     IErMin= 4 ErrMin= 6.33D-06
 ErrMax= 6.33D-06  0.00D+00 EMaxC= 1.00D-01 BMatC= 4.55D-08 BMatP= 5.16D-07
 IDIUse=1 WtCom= 1.00D+00 WtEn= 0.00D+00
 Coeff-Com: -0.631D-03 0.231D+00 0.387D+00 0.382D+00
 Coeff:     -0.631D-03 0.231D+00 0.387D+00 0.382D+00
 Gap=     0.162 Goal=   None    Shift=    0.000
 RMSDP=6.14D-07 MaxDP=3.63D-05 DE=-4.61D-07 OVMax= 7.52D-05

 Cycle  13  Pass 1  IDiag  1:
 RMSU=  2.20D-07    CP:  1.00D+00  1.01D+00  6.21D-01  3.68D-01
 E= -1164.29646867365     Delta-E=       -0.000000042872 Rises=F Damp=F
 DIIS: error= 1.72D-06 at cycle   5 NSaved=   5.
 NSaved= 5 IEnMin= 5 EnMin= -1164.29646867365     IErMin= 5 ErrMin= 1.72D-06
 ErrMax= 1.72D-06  0.00D+00 EMaxC= 1.00D-01 BMatC= 1.69D-09 BMatP= 4.55D-08
 IDIUse=1 WtCom= 1.00D+00 WtEn= 0.00D+00
 Coeff-Com: -0.202D-02 0.127D+00 0.216D+00 0.237D+00 0.422D+00
 Coeff:     -0.202D-02 0.127D+00 0.216D+00 0.237D+00 0.422D+00
 Gap=     0.162 Goal=   None    Shift=    0.000
 RMSDP=1.26D-07 MaxDP=5.55D-06 DE=-4.29D-08 OVMax= 1.35D-05

 Cycle  14  Pass 1  IDiag  1:
 RMSU=  6.83D-08    CP:  1.00D+00  1.01D+00  6.21D-01  4.19D-01  5.63D-01
 E= -1164.29646867532     Delta-E=       -0.000000001677 Rises=F Damp=F
 DIIS: error= 4.04D-07 at cycle   6 NSaved=   6.
 NSaved= 6 IEnMin= 6 EnMin= -1164.29646867532     IErMin= 6 ErrMin= 4.04D-07
 ErrMax= 4.04D-07  0.00D+00 EMaxC= 1.00D-01 BMatC= 8.23D-11 BMatP= 1.69D-09
 IDIUse=1 WtCom= 1.00D+00 WtEn= 0.00D+00
 Coeff-Com: -0.104D-02 0.495D-01 0.849D-01 0.932D-01 0.231D+00 0.542D+00
 Coeff:     -0.104D-02 0.495D-01 0.849D-01 0.932D-01 0.231D+00 0.542D+00
 Gap=     0.162 Goal=   None    Shift=    0.000
 RMSDP=3.50D-08 MaxDP=1.83D-06 DE=-1.68D-09 OVMax= 2.50D-06

 Cycle  15  Pass 1  IDiag  1:
 RMSU=  2.70D-08    CP:  1.00D+00  1.01D+00  6.21D-01  4.12D-01  5.96D-01
                    CP:  7.05D-01
 E= -1164.29646867537     Delta-E=       -0.000000000050 Rises=F Damp=F
 DIIS: error= 2.02D-07 at cycle   7 NSaved=   7.
 NSaved= 7 IEnMin= 7 EnMin= -1164.29646867537     IErMin= 7 ErrMin= 2.02D-07
 ErrMax= 2.02D-07  0.00D+00 EMaxC= 1.00D-01 BMatC= 1.76D-11 BMatP= 8.23D-11
 IDIUse=1 WtCom= 1.00D+00 WtEn= 0.00D+00
 Coeff-Com: -0.428D-03 0.178D-01 0.306D-01 0.318D-01 0.975D-01 0.348D+00
 Coeff-Com:  0.475D+00
 Coeff:     -0.428D-03 0.178D-01 0.306D-01 0.318D-01 0.975D-01 0.348D+00
 Coeff:      0.475D+00
 Gap=     0.162 Goal=   None    Shift=    0.000
 RMSDP=1.30D-08 MaxDP=8.10D-07 DE=-4.96D-11 OVMax= 1.00D-06

 Cycle  16  Pass 1  IDiag  1:
 RMSU=  9.61D-09    CP:  1.00D+00  1.01D+00  6.21D-01  4.10D-01  6.02D-01
                    CP:  7.73D-01  7.40D-01
 E= -1164.29646867539     Delta-E=       -0.000000000021 Rises=F Damp=F
 DIIS: error= 4.71D-08 at cycle   8 NSaved=   8.
 NSaved= 8 IEnMin= 8 EnMin= -1164.29646867539     IErMin= 8 ErrMin= 4.71D-08
 ErrMax= 4.71D-08  0.00D+00 EMaxC= 1.00D-01 BMatC= 1.66D-12 BMatP= 1.76D-11
 IDIUse=1 WtCom= 1.00D+00 WtEn= 0.00D+00
 Coeff-Com:  0.273D-04-0.281D-02-0.483D-02-0.738D-02-0.723D-02 0.580D-01
 Coeff-Com:  0.255D+00 0.709D+00
 Coeff:      0.273D-04-0.281D-02-0.483D-02-0.738D-02-0.723D-02 0.580D-01
 Coeff:      0.255D+00 0.709D+00
 Gap=     0.162 Goal=   None    Shift=    0.000
 RMSDP=4.32D-09 MaxDP=1.93D-07 DE=-2.09D-11 OVMax= 5.51D-07

 SCF Done:  E(RB3LYP) =  -1164.29646868     A.U. after   16 cycles
            NFock= 16  Conv=0.43D-08     -V/T= 2.0092
 KE= 1.153653510033D+03 PE=-6.830808075611D+03 EE= 2.454541469418D+03
 Leave Link  502 at Sat Nov  5 11:58:41 2022, MaxMem=   402653184 cpu:             673.8 elap:              61.7
 (Enter /home/wykgroup/appl/g16/l508.exe)
 QCSCF skips out because SCF is already converged.
 Leave Link  508 at Sat Nov  5 11:58:41 2022, MaxMem=   402653184 cpu:               0.4 elap:               0.1
 (Enter /home/wykgroup/appl/g16/l801.exe)
 DoSCS=F DFT=T ScalE2(SS,OS)=  1.000000  1.000000
 ExpMin= 1.61D-01 ExpMax= 7.00D+03 ExpMxC= 1.05D+03 IAcc=3 IRadAn=         5 AccDes= 0.00D+00
 HarFok:  IExCor=  205 AccDes= 0.00D+00 IRadAn=         5 IDoV=-2 UseB2=F ITyADJ=14
 ICtDFT= 12500011 ScaDFX=  1.000000  1.000000  1.000000  1.000000
 GSVD:  LWork=        -825 too small for GESVD, short by        3500 words or        3500 for optimal perf.
 Largest valence mixing into a core orbital is  5.86D-05
 Largest core mixing into a valence orbital is  1.41D-05
 Range of M.O.s used for correlation:    26   405
 NBasis=   405 NAE=    88 NBE=    88 NFC=    25 NFV=     0
 NROrb=    380 NOA=    63 NOB=    63 NVA=   317 NVB=   317

 **** Warning!!: The largest alpha MO coefficient is  0.12652213D+02

 Leave Link  801 at Sat Nov  5 11:58:42 2022, MaxMem=   402653184 cpu:               5.1 elap:               0.6
 (Enter /home/wykgroup/appl/g16/l914.exe)
 RHF ground state
 Two-electron integral symmetry not used.
 MDV=   402653184 DFT=T DoStab=F Mixed=T DoRPA=T DoScal=F NonHer=T
 Making orbital integer symmetry assigments:
    16 initial guesses have been made.
 Convergence on wavefunction:    0.001000000000000
 Davidson Disk Diagonalization:  ConvIn= 1.00D-03 SkipCon=T Conv= 1.00D-03.
 Max sub-space:  2000 roots to seek:    16 dimension of matrix:        39942
 Iteration     1 Dimension    16 NMult     0 NNew     16
 CISAX will form    16 AO SS matrices at one time.
 NMat=    16 NSing=     8 JSym2X= 0.
 FoFJK:  IHMeth= 1 ICntrl=       0 DoSepK=F KAlg= 0 I1Cent=           0 FoldK=F
 IRaf= 690000000 NMat=      32 IRICut=       1 DoRegI=T DoRafI=F ISym2E= 0 IDoP0=0 IntGTp=1.
 FoFCou: FMM=F IPFlag=           0 FMFlag=      100000 FMFlg1=           0
         NFxFlg=           0 DoJE=F BraDBF=F KetDBF=F FulRan=T
         wScrn=  0.000000 ICntrl=         0 IOpCl=  0 I1Cent=           0 NGrid=           0
         NMat0=   32 NMatS0=      8 NMatT0=    8 NMatD0=   32 NMtDS0=    0 NMtDT0=    0
 Symmetry not used in FoFCou.
 New state      1 was old state      2
 New state      2 was old state      4
 New state      3 was old state     10
 New state      4 was old state     16
 New state      5 was old state      9
 New state      7 was old state      3
 New state      8 was old state      1
 Excitation Energies [eV] at current iteration:
 Root      1 :     3.153597873399140
 Root      2 :     3.402228716601790
 Root      3 :     4.039852751571298
 Root      4 :     4.171020645666403
 Root      5 :     4.231581813998256
 Root      6 :     4.299888768208205
 Root      7 :     4.366030581239056
 Root      8 :     4.514879809009502
 Root      9 :     4.532113179060230
 Root     10 :     4.573103774651686
 Root     11 :     4.717418170137877
 Root     12 :     4.758805918706539
 Root     13 :     4.846563399314261
 Root     14 :     5.061606391942806
 Root     15 :     5.180394905483239
 Root     16 :     6.052850608991338
 Vector   3 SDiff=4.20D+00 TDiff=4.47D+00 assumed to be singlet.
 Vector   4 SDiff=2.51D+00 TDiff=1.32D+01 assumed to be singlet.
 Vector   7 SDiff=4.30D+00 TDiff=4.18D+00 assumed to be triplet.
 Vector   8 SDiff=2.28D+00 TDiff=1.06D+01 assumed to be singlet.
 Iteration     2 Dimension    24 NMult    16 NNew      8
 CISAX will form     8 AO SS matrices at one time.
 NMat=     8 NSing=     3 JSym2X= 0.
 Root      1 not converged, maximum delta is    0.104773763900929
 Root      2 not converged, maximum delta is    0.084997229565226
 New state      3 was old state      7
 Root      3 not converged, maximum delta is    0.153376751244771
 New state      4 was old state      5
 Root      4 not converged, maximum delta is    0.117250026919201
 Excitation Energies [eV] at current iteration:
 Root      1 :     2.866638538745532   Change is   -0.286959334653608
 Root      2 :     3.246710797528021   Change is   -0.155517919073769
 Root      3 :     4.066931251914990   Change is   -0.299099329324066
 Root      4 :     4.177049640391873   Change is   -0.054532173606383
 Iteration     3 Dimension    32 NMult    24 NNew      8
 CISAX will form     8 AO SS matrices at one time.
 NMat=     8 NSing=     4 JSym2X= 0.
 Root      1 not converged, maximum delta is    0.026077110940144
 Root      2 not converged, maximum delta is    0.030596296091362
 Root      3 not converged, maximum delta is    0.080447661289934
 Root      4 not converged, maximum delta is    0.080589043984651
 Excitation Energies [eV] at current iteration:
 Root      1 :     2.840484829483477   Change is   -0.026153709262054
 Root      2 :     3.223766527882392   Change is   -0.022944269645628
 Root      3 :     3.995995460170046   Change is   -0.070935791744945
 Root      4 :     4.102550767975566   Change is   -0.074498872416307
 Iteration     4 Dimension    40 NMult    32 NNew      8
 CISAX will form     8 AO SS matrices at one time.
 NMat=     8 NSing=     4 JSym2X= 0.
 Root      1 not converged, maximum delta is    0.007894273410830
 Root      2 not converged, maximum delta is    0.016703323272370
 Root      3 not converged, maximum delta is    0.020301524878654
 Root      4 not converged, maximum delta is    0.021445401569959
 Excitation Energies [eV] at current iteration:
 Root      1 :     2.837379809164693   Change is   -0.003105020318784
 Root      2 :     3.216953481642344   Change is   -0.006813046240048
 Root      3 :     3.983717284423851   Change is   -0.012278175746195
 Root      4 :     4.098778591649817   Change is   -0.003772176325749
 Iteration     5 Dimension    48 NMult    40 NNew      8
 CISAX will form     8 AO SS matrices at one time.
 NMat=     8 NSing=     4 JSym2X= 0.
 Root      1 not converged, maximum delta is    0.001686903550465
 Root      2 not converged, maximum delta is    0.006907979562083
 Root      3 not converged, maximum delta is    0.015321320285397
 Root      4 not converged, maximum delta is    0.028097121716236
 Excitation Energies [eV] at current iteration:
 Root      1 :     2.837093030494136   Change is   -0.000286778670558
 Root      2 :     3.215559384627764   Change is   -0.001394097014580
 Root      3 :     3.980961341932549   Change is   -0.002755942491303
 Root      4 :     4.097009948858938   Change is   -0.001768642790879
 Iteration     6 Dimension    56 NMult    48 NNew      8
 CISAX will form     8 AO SS matrices at one time.
 NMat=     8 NSing=     4 JSym2X= 0.
 Root      1 has converged.
 Root      2 not converged, maximum delta is    0.004613350127896
 Root      3 not converged, maximum delta is    0.038607213426563
 Root      4 not converged, maximum delta is    0.603742527108299
 Excitation Energies [eV] at current iteration:
 Root      1 :     2.837059989765100   Change is   -0.000033040729036
 Root      2 :     3.215292720838252   Change is   -0.000266663789513
 Root      3 :     3.980045274741701   Change is   -0.000916067190847
 Root      4 :     4.042948176604515   Change is   -0.054061772254423
 Iteration     7 Dimension    62 NMult    56 NNew      6
 CISAX will form     6 AO SS matrices at one time.
 NMat=     6 NSing=     4 JSym2X= 0.
 Root      1 has converged.
 Root      2 not converged, maximum delta is    0.001605356975682
 Root      3 not converged, maximum delta is    0.056888878338634
 Root      4 not converged, maximum delta is    0.054944026191843
 Excitation Energies [eV] at current iteration:
 Root      1 :     2.837059118884232   Change is   -0.000000870880868
 Root      2 :     3.215246519199012   Change is   -0.000046201639239
 Root      3 :     3.979232157745765   Change is   -0.000813116995936
 Root      4 :     4.008048338134797   Change is   -0.034899838469717
 Iteration     8 Dimension    68 NMult    62 NNew      6
 CISAX will form     6 AO SS matrices at one time.
 NMat=     6 NSing=     4 JSym2X= 0.
 Root      1 has converged.
 Root      2 has converged.
 Root      3 not converged, maximum delta is    0.021633740440675
 Root      4 not converged, maximum delta is    0.020335534788049
 Excitation Energies [eV] at current iteration:
 Root      1 :     2.837058650794297   Change is   -0.000000468089935
 Root      2 :     3.215239448643562   Change is   -0.000007070555451
 Root      3 :     3.978944760428076   Change is   -0.000287397317689
 Root      4 :     4.003386536038565   Change is   -0.004661802096232
 Iteration     9 Dimension    72 NMult    68 NNew      4
 CISAX will form     4 AO SS matrices at one time.
 NMat=     4 NSing=     4 JSym2X= 0.
 Root      1 has converged.
 Root      2 has converged.
 Root      3 not converged, maximum delta is    0.004454382948676
 Root      4 not converged, maximum delta is    0.004096175130814
 Excitation Energies [eV] at current iteration:
 Root      1 :     2.837058650794297   Change is    0.000000000000000
 Root      2 :     3.215239448643536   Change is   -0.000000000000026
 Root      3 :     3.978885753855169   Change is   -0.000059006572908
 Root      4 :     4.002631851630004   Change is   -0.000754684408562
 Iteration    10 Dimension    76 NMult    72 NNew      4
 CISAX will form     4 AO SS matrices at one time.
 NMat=     4 NSing=     4 JSym2X= 0.
 Root      1 has converged.
 Root      2 has converged.
 Root      3 has converged.
 Root      4 not converged, maximum delta is    0.001328669402823
 Excitation Energies [eV] at current iteration:
 Root      1 :     2.837058650794182   Change is   -0.000000000000116
 Root      2 :     3.215239448643587   Change is    0.000000000000051
 Root      3 :     3.978875150413988   Change is   -0.000010603441181
 Root      4 :     4.002509924106051   Change is   -0.000121927523953
 Iteration    11 Dimension    78 NMult    76 NNew      2
 CISAX will form     2 AO SS matrices at one time.
 NMat=     2 NSing=     2 JSym2X= 0.
 Root      1 has converged.
 Root      2 has converged.
 Root      3 has converged.
 Root      4 has converged.
 Excitation Energies [eV] at current iteration:
 Root      1 :     2.837058650794182   Change is    0.000000000000000
 Root      2 :     3.215239448643562   Change is   -0.000000000000026
 Root      3 :     3.978873599643418   Change is   -0.000001550770570
 Root      4 :     4.002493291600827   Change is   -0.000016632505223
 Convergence achieved on expansion vectors.
 ***********************************************************************
 Excited states from <AA,BB:AA,BB> singles matrix:
 ***********************************************************************
 
 1PDM for each excited state written to RWF  633
 Ground to excited state transition densities written to RWF  633
 Ground to excited state transition electric dipole moments (Au):
       state          X           Y           Z        Dip. S.      Osc.
         1         0.0000     -0.0000     -0.0000      0.0000      0.0000
         2        -0.0000     -0.0000     -0.0000      0.0000      0.0000
         3        -1.4784     -0.2378      0.1465      2.2638      0.2207
         4         0.6785     -1.2096     -0.1656      1.9508      0.1913
 Ground to excited state transition velocity dipole moments (Au):
       state          X           Y           Z        Dip. S.      Osc.
         1        -0.0000      0.0000      0.0000      0.0000      0.0000
         2         0.0000      0.0000      0.0000      0.0000      0.0000
         3         0.2102      0.0425     -0.0198      0.0464      0.2114
         4        -0.0996      0.1736      0.0237      0.0406      0.1841
 Ground to excited state transition magnetic dipole moments (Au):
       state          X           Y           Z
         1        -0.0000      0.0000     -0.0000
         2         0.0000     -0.0000      0.0000
         3        -0.0804     -0.0110     -0.3210
         4        -0.0953      0.0525     -0.5118
 Ground to excited state transition velocity quadrupole moments (Au):
       state          XX          YY          ZZ          XY          XZ          YZ
         1         0.0000      0.0000      0.0000     -0.0000     -0.0000      0.0000
         2        -0.0000      0.0000      0.0000     -0.0000      0.0000      0.0000
         3         0.4567     -0.6419      0.0409      0.8325      0.0047     -0.1213
         4         0.4211     -0.1436      0.0312     -0.0345     -0.0731     -0.0249
 <0|del|b> * <b|rxdel|0> + <0|del|b> * <b|delr+rdel|0>
 Rotatory Strengths (R) in cgs (10**-40 erg-esu-cm/Gauss)
       state          XX          YY          ZZ    R(velocity)    E-M Angle
         1        -0.0000     -0.0000      0.0000     -0.0000       90.00
         2        -0.0000      0.0000     -0.0000      0.0000       90.00
         3       -26.1155    -47.2544     20.1063    -17.7545       98.89
         4        21.2466      1.5507      8.2756     10.3576       86.49
 1/2[<0|r|b>*<b|rxdel|0> + (<0|rxdel|b>*<b|r|0>)*]
 Rotatory Strengths (R) in cgs (10**-40 erg-esu-cm/Gauss)
       state          XX          YY          ZZ     R(length)
         1         0.0000      0.0000     -0.0000      0.0000
         2         0.0000     -0.0000      0.0000      0.0000
         3       -84.1040     -1.8437     33.2619    -17.5619
         4        45.7341     44.9454    -59.9196     10.2533
  1/2[<0|del|b>*<b|r|0> + (<0|r|b>*<b|del|0>)*] (Au)
       state          X           Y           Z        Dip. S.   Osc.(frdel)
         1        -0.0000     -0.0000     -0.0000      0.0000      0.0000
         2        -0.0000     -0.0000     -0.0000      0.0000      0.0000
         3        -0.3107     -0.0101     -0.0029      0.3237      0.2158
         4        -0.0676     -0.2100     -0.0039      0.2815      0.1876

 Excitation energies and oscillator strengths:
 
 Excited state symmetry could not be determined.
 Excited State   1:      Triplet-?Sym    2.8371 eV  437.02 nm  f=0.0000  <S**2>=2.000
      88 -> 89         0.60759
      88 -> 90         0.22246
      88 -> 91        -0.16681
      88 -> 92         0.10837
 This state for optimization and/or second-order correction.
 Total Energy, E(TD-HF/TD-DFT) =  -1164.19220869    
 Copying the excited state density for this state as the 1-particle RhoCI density.
 
 Excited state symmetry could not be determined.
 Excited State   2:      Triplet-?Sym    3.2152 eV  385.61 nm  f=0.0000  <S**2>=2.000
      87 -> 90        -0.15689
      88 -> 89        -0.27068
      88 -> 90         0.59226
 
 Excited state symmetry could not be determined.
 Excited State   3:      Singlet-?Sym    3.9789 eV  311.61 nm  f=0.2207  <S**2>=0.000
      88 -> 89         0.54675
      88 -> 90         0.41673
 
 Excited state symmetry could not be determined.
 Excited State   4:      Singlet-?Sym    4.0025 eV  309.77 nm  f=0.1913  <S**2>=0.000
      87 -> 90         0.10904
      88 -> 89        -0.40796
      88 -> 90         0.54589
 SavETr:  write IOETrn=   770 NScale= 10 NData=  16 NLR=1 NState=    4 LETran=      82.
 Leave Link  914 at Sat Nov  5 12:06:41 2022, MaxMem=   402653184 cpu:            5595.0 elap:             479.2
 (Enter /home/wykgroup/appl/g16/l601.exe)
 Copying SCF densities to generalized density rwf, IOpCl= 0 IROHF=0.

 **********************************************************************

            Population analysis using the SCF Density.

 **********************************************************************

 Alpha  occ. eigenvalues --  -24.70694 -19.11808 -19.11242 -14.39859 -14.36953
 Alpha  occ. eigenvalues --  -14.36194 -14.30559 -10.31486 -10.28904 -10.28509
 Alpha  occ. eigenvalues --  -10.27729 -10.24479 -10.23637 -10.20396 -10.20391
 Alpha  occ. eigenvalues --  -10.20357 -10.20006 -10.19641 -10.19548 -10.19387
 Alpha  occ. eigenvalues --  -10.19126 -10.18402 -10.18135 -10.17930 -10.17274
 Alpha  occ. eigenvalues --   -1.21849  -1.03855  -1.03256  -0.98893  -0.96649
 Alpha  occ. eigenvalues --   -0.89356  -0.87426  -0.86779  -0.85373  -0.80218
 Alpha  occ. eigenvalues --   -0.76962  -0.75976  -0.75213  -0.73242  -0.69663
 Alpha  occ. eigenvalues --   -0.66858  -0.64632  -0.64002  -0.61792  -0.60603
 Alpha  occ. eigenvalues --   -0.59458  -0.57840  -0.56310  -0.55271  -0.52776
 Alpha  occ. eigenvalues --   -0.52132  -0.50763  -0.50087  -0.49811  -0.48749
 Alpha  occ. eigenvalues --   -0.47907  -0.46914  -0.46100  -0.44768  -0.44567
 Alpha  occ. eigenvalues --   -0.43874  -0.43735  -0.43278  -0.42807  -0.41694
 Alpha  occ. eigenvalues --   -0.41451  -0.40671  -0.40003  -0.39415  -0.38519
 Alpha  occ. eigenvalues --   -0.38079  -0.37780  -0.36580  -0.35891  -0.34444
 Alpha  occ. eigenvalues --   -0.34289  -0.33606  -0.33233  -0.29257  -0.28442
 Alpha  occ. eigenvalues --   -0.27724  -0.25935  -0.25520  -0.25305  -0.24246
 Alpha  occ. eigenvalues --   -0.23994  -0.23749  -0.20408
 Alpha virt. eigenvalues --   -0.04242  -0.03677  -0.01066  -0.00645   0.00202
 Alpha virt. eigenvalues --    0.04329   0.05690   0.07619   0.08657   0.10178
 Alpha virt. eigenvalues --    0.11395   0.11614   0.12508   0.13642   0.13938
 Alpha virt. eigenvalues --    0.14426   0.15221   0.15367   0.16346   0.17192
 Alpha virt. eigenvalues --    0.17565   0.18514   0.19047   0.19747   0.20789
 Alpha virt. eigenvalues --    0.21520   0.22227   0.22836   0.24752   0.25498
 Alpha virt. eigenvalues --    0.25945   0.27759   0.28107   0.28616   0.29189
[...]
    24  C   -0.000000   0.000000   0.000041  -0.056405   0.345698  -0.022778
    25  C   -0.000000   0.000000   0.000000   0.013309  -0.071129  -0.020746
    26  H    0.000000   0.000000  -0.000000  -0.000000   0.000005  -0.000000
    27  H   -0.000000   0.000000   0.000000  -0.000000   0.000004  -0.000000
    28  H   -0.000000   0.000000   0.000000   0.000000  -0.000001  -0.000002
    29  H   -0.000000   0.000000   0.000000  -0.000000   0.000014   0.000000
    30  H   -0.000000   0.000000   0.000000  -0.000021  -0.000163   0.000001
    31  H    0.000327   0.000001   0.005843   0.000191   0.000010  -0.000000
    32  H    0.003253  -0.000023   0.000648   0.000000  -0.000000   0.000000
    33  H   -0.035765  -0.001002   0.006919   0.000000   0.000000  -0.000000
    34  H   -0.030981  -0.001139   0.342191   0.003582  -0.000228   0.000013
    35  H    0.000021   0.000000   0.004809   0.335139  -0.021530  -0.012764
    36  H    0.000000   0.000000  -0.000000  -0.000056   0.001014  -0.004131
    37  H   -0.000000   0.000000   0.000000  -0.000002   0.000035   0.000530
    38  H    0.000000  -0.000000   0.000000  -0.000111  -0.000078   0.000522
    39  H   -0.000000  -0.000000  -0.000000  -0.000000   0.000005  -0.000044
    40  H   -0.000000   0.000000   0.000000  -0.000468  -0.015992   0.004529
              19         20         21         22         23         24
     1  C   -0.000010  -0.000000  -0.000000   0.000000  -0.000000   0.005875
     2  C    0.001027   0.000002  -0.000000   0.000000   0.000000  -0.010846
     3  C   -0.000001   0.000000   0.000000  -0.000000   0.000000  -0.043173
     4  C   -0.000002  -0.000000  -0.000000   0.000000   0.000000  -0.036827
     5  C    0.000030  -0.000091   0.000003  -0.000000   0.000000   0.429183
     6  C   -0.000004   0.000021   0.000000   0.000000  -0.000000  -0.016868
     7  O   -0.000000   0.000000  -0.000000   0.000000  -0.000000   0.002932
     8  N   -0.000021   0.000809  -0.000002   0.000000  -0.000000  -0.035264
     9  C    0.000000  -0.000010  -0.000001  -0.000000   0.000000   0.000720
    10  C   -0.000000  -0.000000  -0.000000  -0.000000   0.000000   0.000007
    11  C    0.000000  -0.000000  -0.000000  -0.000000   0.000000  -0.000000
    12  C    0.000000   0.000000   0.000000   0.000000  -0.000000  -0.000000
    13  C    0.000000   0.000000   0.000000   0.000000  -0.000000  -0.000000
    14  F   -0.000000  -0.000000  -0.000000  -0.000000   0.000000   0.000000
    15  C   -0.000000  -0.000042   0.000001  -0.000000  -0.000000   0.000041
    16  C    0.006303  -0.008491  -0.000378   0.000095   0.000003  -0.056405
    17  C   -0.065802  -0.115614   0.008556  -0.000306  -0.000229   0.345698
    18  C    0.452062   0.349878  -0.032684  -0.007776   0.001694  -0.022778
    19  O    8.243816  -0.104928  -0.003934  -0.034724   0.000019  -0.015309
    20  N   -0.104928   7.069636   0.515428  -0.071982  -0.091390   0.005248
    21  C   -0.003934   0.515428   4.195656   0.359230   0.353341  -0.000046
    22  N   -0.034724  -0.071982   0.359230   7.062895  -0.114070  -0.000017
    23  N    0.000019  -0.091390   0.353341  -0.114070   7.003760   0.000002
    24  C   -0.015309   0.005248  -0.000046  -0.000017   0.000002   4.874407
    25  C   -0.010613   0.000048  -0.000022   0.000010  -0.000000   0.457159
    26  H   -0.000000  -0.000000   0.000000  -0.000000   0.000000  -0.000121
    27  H   -0.000000  -0.000000   0.000000  -0.000000   0.000000  -0.000140
    28  H   -0.000046  -0.000000   0.000000  -0.000000  -0.000000   0.000133
    29  H    0.000000   0.000000  -0.000000   0.000000   0.000000   0.000776
    30  H   -0.000000  -0.000000   0.000000  -0.000000  -0.000000   0.004508
    31  H   -0.000000  -0.000000  -0.000000  -0.000000   0.000000  -0.000004
    32  H   -0.000000  -0.000000  -0.000000  -0.000000   0.000000   0.000000
    33  H    0.000000   0.000000  -0.000000  -0.000000   0.000000  -0.000000
    34  H   -0.000000   0.000066   0.000001   0.000000  -0.000001   0.000006
    35  H    0.000341   0.037097   0.000569   0.000104  -0.000367   0.003370
    36  H    0.071661  -0.014761  -0.019020   0.260566   0.003485   0.000054
    37  H    0.001174   0.003181  -0.021490   0.298069  -0.001820   0.000000
    38  H    0.000047   0.008912  -0.013312   0.006964   0.297549  -0.000000
    39  H    0.000024   0.003967  -0.021700   0.001462   0.303992  -0.000000
    40  H    0.028490   0.000460   0.000026  -0.000012   0.000000  -0.023790
              25         26         27         28         29         30
     1  C   -0.044273   0.362917   0.362764   0.365023  -0.007368  -0.000167
     2  C    0.493196  -0.026677  -0.026630  -0.029674  -0.048058   0.003141
     3  C   -0.018904  -0.002111  -0.002093   0.003716   0.358916  -0.040300
     4  C   -0.072202  -0.000007  -0.000038  -0.000153  -0.040298   0.353331
     5  C   -0.065477   0.000004   0.000015   0.000012   0.003314  -0.039920
     6  C    0.009907  -0.000000   0.000000  -0.000000  -0.000162  -0.008208
     7  O   -0.000071   0.000000   0.000000  -0.000000  -0.000002   0.016167
     8  N   -0.000806   0.000000  -0.000000   0.000000   0.000001   0.000706
     9  C    0.000021   0.000000  -0.000000  -0.000000  -0.000000  -0.000003
    10  C    0.000000  -0.000000   0.000000   0.000000  -0.000000  -0.000002
    11  C    0.000000  -0.000000   0.000000   0.000000  -0.000000  -0.000000
    12  C    0.000000   0.000000  -0.000000  -0.000000   0.000000  -0.000000
    13  C   -0.000000   0.000000  -0.000000  -0.000000  -0.000000  -0.000000
    14  F    0.000000   0.000000   0.000000   0.000000   0.000000   0.000000
    15  C    0.000000  -0.000000   0.000000   0.000000   0.000000   0.000000
    16  C    0.013309  -0.000000  -0.000000   0.000000  -0.000000  -0.000021
    17  C   -0.071129   0.000005   0.000004  -0.000001   0.000014  -0.000163
    18  C   -0.020746  -0.000000  -0.000000  -0.000002   0.000000   0.000001
    19  O   -0.010613  -0.000000  -0.000000  -0.000046   0.000000  -0.000000
    20  N    0.000048  -0.000000  -0.000000  -0.000000   0.000000  -0.000000
    21  C   -0.000022   0.000000   0.000000   0.000000  -0.000000   0.000000
    22  N    0.000010  -0.000000  -0.000000  -0.000000   0.000000  -0.000000
    23  N   -0.000000   0.000000   0.000000  -0.000000   0.000000  -0.000000
    24  C    0.457159  -0.000121  -0.000140   0.000133   0.000776   0.004508
    25  C    5.259435  -0.000008   0.000069  -0.000917   0.004904   0.000658
    26  H   -0.000008   0.561075  -0.032590  -0.026958   0.002007  -0.000000
    27  H    0.000069  -0.032590   0.561064  -0.026969   0.002017  -0.000000
    28  H   -0.000917  -0.026958  -0.026969   0.546264   0.000012   0.000002
    29  H    0.004904   0.002007   0.002017   0.000012   0.604306  -0.004535
    30  H    0.000658  -0.000000  -0.000000   0.000002  -0.004535   0.553295
    31  H    0.000000  -0.000000   0.000000   0.000000   0.000000   0.000001
    32  H   -0.000000   0.000000  -0.000000   0.000000   0.000000   0.000000
    33  H   -0.000000  -0.000000   0.000000  -0.000000  -0.000000  -0.000000
    34  H   -0.000000   0.000000   0.000000   0.000000   0.000000   0.000000
    35  H   -0.000178   0.000000   0.000000  -0.000000   0.000000   0.000000
    36  H   -0.000032   0.000000   0.000000   0.000000  -0.000000   0.000000
    37  H   -0.000000  -0.000000   0.000000   0.000000  -0.000000   0.000000
    38  H    0.000000   0.000000   0.000000   0.000000  -0.000000  -0.000000
    39  H    0.000000   0.000000  -0.000000   0.000000  -0.000000   0.000000
    40  H    0.332882   0.000107   0.000110   0.006510  -0.000144   0.000016
              31         32         33         34         35         36
     1  C   -0.000000  -0.000000  -0.000000  -0.000000  -0.000000  -0.000000
     2  C    0.000000  -0.000000   0.000000   0.000000   0.000002  -0.000001
     3  C    0.000000  -0.000000  -0.000000   0.000000  -0.000000   0.000000
     4  C    0.000000   0.000000  -0.000000   0.000000   0.000025  -0.000000
     5  C   -0.000181  -0.000000   0.000000  -0.000016   0.000192   0.000000
     6  C    0.003107  -0.000007   0.000000   0.000065   0.001168   0.000000
     7  O    0.006669  -0.000009   0.000000   0.000001  -0.000092   0.000000
     8  N   -0.009383  -0.000113   0.000003  -0.007646  -0.048739   0.000000
     9  C   -0.032780   0.003340   0.000066  -0.038753  -0.001927  -0.000000
    10  C    0.354770  -0.035283   0.004642   0.005443   0.000421   0.000000
    11  C   -0.040191   0.360216  -0.040455  -0.000179  -0.000063  -0.000000
    12  C    0.004465  -0.038798   0.350263   0.006426  -0.000005   0.000000
    13  C    0.000327   0.003253  -0.035765  -0.030981   0.000021   0.000000
    14  F    0.000001  -0.000023  -0.001002  -0.001139   0.000000   0.000000
    15  C    0.005843   0.000648   0.006919   0.342191   0.004809  -0.000000
    16  C    0.000191   0.000000   0.000000   0.003582   0.335139  -0.000056
    17  C    0.000010  -0.000000   0.000000  -0.000228  -0.021530   0.001014
    18  C   -0.000000   0.000000  -0.000000   0.000013  -0.012764  -0.004131
    19  O   -0.000000  -0.000000   0.000000  -0.000000   0.000341   0.071661
    20  N   -0.000000  -0.000000   0.000000   0.000066   0.037097  -0.014761
    21  C   -0.000000  -0.000000  -0.000000   0.000001   0.000569  -0.019020
    22  N   -0.000000  -0.000000  -0.000000   0.000000   0.000104   0.260566
    23  N    0.000000   0.000000   0.000000  -0.000001  -0.000367   0.003485
    24  C   -0.000004   0.000000  -0.000000   0.000006   0.003370   0.000054
    25  C    0.000000  -0.000000  -0.000000  -0.000000  -0.000178  -0.000032
    26  H   -0.000000   0.000000  -0.000000   0.000000   0.000000   0.000000
    27  H    0.000000  -0.000000   0.000000   0.000000   0.000000   0.000000
    28  H    0.000000   0.000000  -0.000000   0.000000  -0.000000   0.000000
    29  H    0.000000   0.000000  -0.000000   0.000000   0.000000  -0.000000
    30  H    0.000001   0.000000  -0.000000   0.000000   0.000000   0.000000
    31  H    0.549426  -0.005018  -0.000124  -0.000129   0.000012   0.000000
    32  H   -0.005018   0.571182  -0.005556   0.000013   0.000000   0.000000
    33  H   -0.000124  -0.005556   0.572385  -0.000140  -0.000000  -0.000000
    34  H   -0.000129   0.000013  -0.000140   0.557100   0.001584   0.000000
    35  H    0.000012   0.000000  -0.000000   0.001584   0.502417  -0.000004
    36  H    0.000000   0.000000  -0.000000   0.000000  -0.000004   0.321224
    37  H   -0.000000   0.000000  -0.000000  -0.000000  -0.000002  -0.012792
    38  H   -0.000000  -0.000000  -0.000000   0.000003   0.000696  -0.000101
    39  H    0.000000   0.000000   0.000000   0.000000   0.000004   0.000150
    40  H   -0.000000   0.000000  -0.000000  -0.000000  -0.000014   0.000050
              37         38         39         40
     1  C   -0.000000  -0.000000   0.000000  -0.009085
     2  C   -0.000000  -0.000000  -0.000000  -0.044807
     3  C    0.000000  -0.000000  -0.000000   0.005587
     4  C   -0.000000   0.000000  -0.000000   0.000126
     5  C    0.000000  -0.000000   0.000000   0.006000
     6  C    0.000000   0.000000   0.000000  -0.000113
     7  O   -0.000000   0.000000   0.000000   0.000000
     8  N   -0.000000   0.000002   0.000000   0.000012
     9  C   -0.000000   0.000000   0.000000   0.000000
    10  C   -0.000000   0.000000   0.000000  -0.000000
    11  C    0.000000  -0.000000  -0.000000  -0.000000
    12  C   -0.000000   0.000000  -0.000000  -0.000000
    13  C   -0.000000   0.000000  -0.000000  -0.000000
    14  F    0.000000  -0.000000  -0.000000   0.000000
    15  C    0.000000   0.000000  -0.000000   0.000000
    16  C   -0.000002  -0.000111  -0.000000  -0.000468
    17  C    0.000035  -0.000078   0.000005  -0.015992
    18  C    0.000530   0.000522  -0.000044   0.004529
    19  O    0.001174   0.000047   0.000024   0.028490
    20  N    0.003181   0.008912   0.003967   0.000460
    21  C   -0.021490  -0.013312  -0.021700   0.000026
    22  N    0.298069   0.006964   0.001462  -0.000012
    23  N   -0.001820   0.297549   0.303992   0.000000
    24  C    0.000000  -0.000000  -0.000000  -0.023790
    25  C   -0.000000   0.000000   0.000000   0.332882
    26  H   -0.000000   0.000000   0.000000   0.000107
    27  H    0.000000   0.000000  -0.000000   0.000110
    28  H    0.000000   0.000000   0.000000   0.006510
    29  H   -0.000000  -0.000000  -0.000000  -0.000144
    30  H    0.000000  -0.000000   0.000000   0.000016
    31  H   -0.000000  -0.000000   0.000000  -0.000000
    32  H    0.000000  -0.000000   0.000000   0.000000
    33  H   -0.000000  -0.000000   0.000000  -0.000000
    34  H   -0.000000   0.000003   0.000000  -0.000000
    35  H   -0.000002   0.000696   0.000004  -0.000014
    36  H   -0.012792  -0.000101   0.000150   0.000050
    37  H    0.401662  -0.000192   0.001066   0.000000
    38  H   -0.000192   0.373228  -0.021645  -0.000000
    39  H    0.001066  -0.021645   0.401976  -0.000000
    40  H    0.000000  -0.000000  -0.000000   0.532258
 Mulliken charges:
               1
     1  C   -0.533226
     2  C    0.190680
     3  C   -0.182086
     4  C   -0.172654
     5  C   -0.028311
     6  C    0.579479
     7  O   -0.518206
     8  N   -0.602827
     9  C    0.280920
    10  C   -0.112773
    11  C   -0.150157
    12  C   -0.189331
    13  C    0.375737
    14  F   -0.298635
    15  C   -0.231256
    16  C    0.038106
    17  C   -0.045828
    18  C    0.558113
    19  O   -0.569602
    20  N   -0.587445
    21  C    0.679780
    22  N   -0.760507
    23  N   -0.755966
    24  C    0.131470
    25  C   -0.266219
    26  H    0.162356
    27  H    0.162415
    28  H    0.163047
    29  H    0.124300
    30  H    0.161493
    31  H    0.162988
    32  H    0.146156
    33  H    0.148762
    34  H    0.162717
    35  H    0.197715
    36  H    0.392693
    37  H    0.330582
    38  H    0.347516
    39  H    0.330745
    40  H    0.177260
 Sum of Mulliken charges =  -0.00000
 Mulliken charges with hydrogens summed into heavy atoms:
               1
     1  C   -0.045408
     2  C    0.190680
     3  C   -0.057787
     4  C   -0.011161
     5  C   -0.028311
     6  C    0.579479
     7  O   -0.518206
     8  N   -0.602827
     9  C    0.280920
    10  C    0.050214
    11  C   -0.004001
    12  C   -0.040569
    13  C    0.375737
    14  F   -0.298635
    15  C   -0.068539
    16  C    0.235822
    17  C   -0.045828
    18  C    0.558113
    19  O   -0.569602
    20  N   -0.587445
    21  C    0.679780
    22  N   -0.037232
    23  N   -0.077705
    24  C    0.131470
    25  C   -0.088959
 Electronic spatial extent (au):  <R**2>=          10121.2429
 Charge=             -0.0000 electrons
 Dipole moment (field-independent basis, Debye):
    X=             -3.4113    Y=              4.7507    Z=             -0.2918  Tot=              5.8559
 Quadrupole moment (field-independent basis, Debye-Ang):
   XX=           -127.9292   YY=           -113.7906   ZZ=           -141.9629
   XY=             -6.8413   XZ=             -9.8559   YZ=             -0.5427
 Traceless Quadrupole moment (field-independent basis, Debye-Ang):
   XX=             -0.0350   YY=             14.1037   ZZ=            -14.0686
   XY=             -6.8413   XZ=             -9.8559   YZ=             -0.5427
 Octapole moment (field-independent basis, Debye-Ang**2):
  XXX=           -168.5531  YYY=             39.2388  ZZZ=            -15.3492  XYY=           -153.5252
  XXY=             88.5854  XXZ=            -10.2253  XZZ=            -33.1550  YZZ=            -13.9879
  YYZ=             -6.0147  XYZ=            -31.6508
 Hexadecapole moment (field-independent basis, Debye-Ang**3):
 XXXX=          -6219.3188 YYYY=          -4807.3615 ZZZZ=           -505.0402 XXXY=           -769.1841
 XXXZ=            -84.9221 YYYX=           -999.9178 YYYZ=           -313.1411 ZZZX=            214.5963
 ZZZY=           -338.4929 XXYY=          -1753.2432 XXZZ=          -1197.2252 YYZZ=          -1098.7208
 XXYZ=           -101.9073 YYXZ=             -4.9328 ZZXY=           -242.8901
 N-N= 2.058316627484D+03 E-N=-6.830808071349D+03  KE= 1.153653510033D+03
 Leave Link  601 at Sat Nov  5 12:06:41 2022, MaxMem=   402653184 cpu:               2.3 elap:               0.3
 (Enter /home/wykgroup/appl/g16/l9999.exe)
 Electronic transition elements 
                 1             2             3             4 
      1  -0.116419D+04 -0.116418D+04 -0.116415D+04 -0.116415D+04
      2   0.000000D+00  0.000000D+00 -0.147843D+01  0.678512D+00
      3   0.000000D+00  0.000000D+00 -0.237769D+00 -0.120955D+01
      4   0.000000D+00  0.000000D+00  0.146539D+00 -0.165562D+00
      5   0.000000D+00  0.000000D+00  0.210179D+00 -0.995687D-01
      6   0.000000D+00  0.000000D+00  0.425182D-01  0.173591D+00
      7   0.000000D+00  0.000000D+00 -0.198164D-01  0.237382D-01
      8   0.000000D+00  0.000000D+00 -0.804443D-01 -0.953152D-01
      9   0.000000D+00  0.000000D+00 -0.109654D-01  0.525460D-01
     10   0.000000D+00  0.000000D+00 -0.320976D+00 -0.511784D+00
     11   0.000000D+00  0.000000D+00  0.456679D+00  0.421082D+00
     12   0.000000D+00  0.000000D+00 -0.641946D+00 -0.143585D+00
     13   0.000000D+00  0.000000D+00  0.409469D-01  0.311932D-01
     14   0.000000D+00  0.000000D+00  0.832457D+00 -0.345217D-01
     15   0.000000D+00  0.000000D+00  0.465515D-02 -0.730756D-01
     16   0.000000D+00  0.000000D+00 -0.121281D+00 -0.249479D-01
 1\1\GINC-NODE39\SP\RB3LYP TD-FC\6-31G(d)\C18H15F1N4O2\WYKGROUP\05-Nov-
 2022\0\\#p b3lyp/6-31g(d) 6D 10F nosymm GFInput td=(50-50,nstate=2) SC
 F=XQC\\Gaussian input prepared by ASE\\0,1\C,0,-3.1910019522,-4.497044
 1872,-0.0162443217\C,0,-1.9391988251,-3.6570728209,-0.1098721099\C,0,-
 0.6898775696,-4.2731765235,-0.3263150788\C,0,0.4573916139,-3.508950409
 4,-0.4130849791\C,0,0.396463417,-2.1094333236,-0.287248446\C,0,1.66827
 52567,-1.3817187292,-0.3876886764\O,0,2.7580812885,-1.9087738573,-0.57
 52710497\N,0,1.5607846669,0.0278656421,-0.2401947193\C,0,2.7501938002,
 0.8350623749,-0.2518241698\C,0,3.6862027155,0.7184646147,-1.2849013517
 \C,0,4.8106655834,1.5420592228,-1.2851651289\C,0,5.0157232093,2.484824
 2948,-0.2756222578\C,0,4.0701609523,2.5745377873,0.7369270993\F,0,4.24
 95987795,3.4730417535,1.7285000207\C,0,2.9428542712,1.7630259597,0.775
 9697379\C,0,0.3498566379,0.644349657,-0.0384385325\C,0,-0.8463610844,-
 0.0078974521,0.0535466096\C,0,-2.0674068825,0.8277894844,0.263659617\O
 ,0,-3.1948010091,0.3049793875,0.3553764822\N,0,-1.8141172553,2.1838781
 626,0.3395129272\C,0,-2.7912166848,3.0316905933,0.5824881989\N,0,-4.11
 302559,2.7391194296,0.6605798741\N,0,-2.445895107,4.3479261834,0.78349
 91504\C,0,-0.8481747822,-1.4632902696,-0.0670345565\C,0,-2.0032407403,
 -2.2730492136,0.0160989585\H,0,-3.3516721298,-5.0734102437,-0.93619121
 37\H,0,-3.1224658504,-5.2209367011,0.8057058278\H,0,-4.0765981565,-3.8
 776739726,0.1526369224\H,0,-0.6313729548,-5.3547747546,-0.4251875296\H
 ,0,1.4292917766,-3.9613503744,-0.5786255937\H,0,3.5370421422,-0.013984
 4068,-2.0669428356\H,0,5.537383967,1.4514298995,-2.0870219298\H,0,5.88
 40939204,3.1346937929,-0.2618805324\H,0,2.2453029587,1.8491077232,1.60
 17488003\H,0,0.3782251308,1.7222898434,0.0286314291\H,0,-4.3081633321,
 1.7372003505,0.6516011914\H,0,-4.7314407636,3.3686046296,1.1525117973\
 H,0,-1.4886279626,4.5548743938,0.5312078181\H,0,-3.1175288327,5.054714
 4495,0.5129992725\H,0,-2.9554026232,-1.7889943904,0.1815512783\\Versio
 n=ES64L-G16RevB.01\HF=-1164.2964687\RMSD=4.318e-09\PG=C01 [X(C18H15F1N
 4O2)]\\@


 In the beginning the Universe was created.
 This has made a lot of people very angry
 and been widely regarded as a bad move.
                               -D.Adams
 Job cpu time:       0 days  1 hours 45 minutes 32.9 seconds.
 Elapsed time:       0 days  0 hours  9 minutes  7.5 seconds.
 File lengths (MBytes):  RWF=   1006 Int=      0 D2E=      0 Chk=     35 Scr=      1
 Normal termination of Gaussian 16 at Sat Nov  5 12:06:42 2022.
