 Entering Gaussian System, Link 0=/home/wykgroup/appl/g16/g16
 Input=calculation/no_transfer_pubchem_sampling_3_b3lyp/31517855_rwf.com
 Output=calculation/no_transfer_pubchem_sampling_3_b3lyp/31517855_rwf.log
 Initial command:
 /home/wykgroup/appl/g16/l1.exe "/userdata/scratch/wykgroup/khs/calculation/no_transfer_pubchem_sampling_3_b3lyp/31517855_rwf/Gau-21469.inp" -scrdir="/userdata/scratch/wykgroup/khs/calculation/no_transfer_pubchem_sampling_3_b3lyp/31517855_rwf/"
 Entering Link 1 = /home/wykgroup/appl/g16/l1.exe PID=     21470.
  
 Copyright (c) 1988-2017, Gaussian, Inc.  All Rights Reserved.
  
 This is part of the Gaussian(R) 16 program.  It is based on
 the Gaussian(R) 09 system (copyright 2009, Gaussian, Inc.),
 the Gaussian(R) 03 system (copyright 2003, Gaussian, Inc.),
 the Gaussian(R) 98 system (copyright 1998, Gaussian, Inc.),
 the Gaussian(R) 94 system (copyright 1995, Gaussian, Inc.),
 the Gaussian 92(TM) system (copyright 1992, Gaussian, Inc.),
 the Gaussian 90(TM) system (copyright 1990, Gaussian, Inc.),
 the Gaussian 88(TM) system (copyright 1988, Gaussian, Inc.),
 the Gaussian 86(TM) system (copyright 1986, Carnegie Mellon
 University), and the Gaussian 82(TM) system (copyright 1983,
 Carnegie Mellon University). Gaussian is a federally registered
 trademark of Gaussian, Inc.
  
 This software contains proprietary and confidential information,
 including trade secrets, belonging to Gaussian, Inc.
  
 This software is provided under written license and may be
 used, copied, transmitted, or stored only in accord with that
 written license.
  
 The following legend is applicable only to US Government
 contracts under FAR:
  
                    RESTRICTED RIGHTS LEGEND
  
 Use, reproduction and disclosure by the US Government is
 subject to restrictions as set forth in subparagraphs (a)
 and (c) of the Commercial Computer Software - Restricted
 Rights clause in FAR 52.227-19.
  
 Gaussian, Inc.
 340 Quinnipiac St., Bldg. 40, Wallingford CT 06492
  
  
 ---------------------------------------------------------------
 Warning -- This program may not be used in any manner that
 competes with the business of Gaussian, Inc. or will provide
 assistance to any competitor of Gaussian, Inc.  The licensee
 of this program is prohibited from giving any competitor of
 Gaussian, Inc. access to this program.  By using this program,
 the user acknowledges that Gaussian, Inc. is engaged in the
 business of creating and licensing software in the field of
 computational chemistry and represents and warrants to the
 licensee that it is not a competitor of Gaussian, Inc. and that
 it will not use this program in any manner prohibited above.
 ---------------------------------------------------------------
  

 Cite this work as:
 Gaussian 16, Revision B.01,
 M. J. Frisch, G. W. Trucks, H. B. Schlegel, G. E. Scuseria, 
 M. A. Robb, J. R. Cheeseman, G. Scalmani, V. Barone, 
 G. A. Petersson, H. Nakatsuji, X. Li, M. Caricato, A. V. Marenich, 
 J. Bloino, B. G. Janesko, R. Gomperts, B. Mennucci, H. P. Hratchian, 
 J. V. Ortiz, A. F. Izmaylov, J. L. Sonnenberg, D. Williams-Young, 
 F. Ding, F. Lipparini, F. Egidi, J. Goings, B. Peng, A. Petrone, 
 T. Henderson, D. Ranasinghe, V. G. Zakrzewski, J. Gao, N. Rega, 
 G. Zheng, W. Liang, M. Hada, M. Ehara, K. Toyota, R. Fukuda, 
 J. Hasegawa, M. Ishida, T. Nakajima, Y. Honda, O. Kitao, H. Nakai, 
 T. Vreven, K. Throssell, J. A. Montgomery, Jr., J. E. Peralta, 
 F. Ogliaro, M. J. Bearpark, J. J. Heyd, E. N. Brothers, K. N. Kudin, 
 V. N. Staroverov, T. A. Keith, R. Kobayashi, J. Normand, 
 K. Raghavachari, A. P. Rendell, J. C. Burant, S. S. Iyengar, 
 J. Tomasi, M. Cossi, J. M. Millam, M. Klene, C. Adamo, R. Cammi, 
 J. W. Ochterski, R. L. Martin, K. Morokuma, O. Farkas, 
 J. B. Foresman, and D. J. Fox, Gaussian, Inc., Wallingford CT, 2016.
 
 ******************************************
 Gaussian 16:  ES64L-G16RevB.01 20-Dec-2017
                 5-Nov-2022 
 ******************************************
 %chk=calculation/no_transfer_pubchem_sampling_3_b3lyp/31517855_rwf.chk
 %rwf=calculation/no_transfer_pubchem_sampling_3_b3lyp/31517855_rwf.rwf
 %nprocshared=14
 Will use up to   14 processors via shared memory.
 %mem=3GB
 -------------------------------------------------------------------
 #p b3lyp/6-31g(d) 6D 10F nosymm GFInput td=(50-50,nstate=2) SCF=XQC
 -------------------------------------------------------------------
 1/38=1,172=1/1;
 2/12=2,15=1,17=6,18=5,40=1/2;
 3/5=1,6=6,7=1,8=22,11=9,24=10,25=1,30=1,74=-5/1,2,3,8;
 4//1;
 5/5=2,8=3,13=1,38=5/2,8;
 8/6=1,10=2,108=2/1;
 9/41=2,42=1,48=2,70=2/14;
 6/7=2,8=2,9=2,10=2/1;
 99/5=1,9=1/99;
 Leave Link    1 at Sat Nov  5 11:54:27 2022, MaxMem=   402653184 cpu:               1.9 elap:               0.3
 (Enter /home/wykgroup/appl/g16/l101.exe)
 ------------------------------
 Gaussian input prepared by ASE
 ------------------------------
 Symbolic Z-matrix:
 Charge =  0 Multiplicity = 1
 O                    -2.25625   1.13028   2.35813 
 C                    -1.94116   0.01632   1.9234 
 C                    -2.96458  -1.0844    1.66243 
 C                    -4.38993  -0.55483   1.4178 
 C                    -4.59241   0.16518   0.09829 
 C                    -4.87088  -0.57019  -1.06254 
 C                    -5.12465   0.04682  -2.28561 
 C                    -5.11262   1.44244  -2.35769 
 C                    -4.83043   2.1974   -1.2241 
 C                    -4.55676   1.57344   0.00219 
 O                    -4.30908   2.38444   1.06598 
 N                    -0.64752  -0.31949   1.69456 
 C                     0.47088   0.60114   1.90908 
 C                     1.50259   0.48104   0.82816 
 C                     1.3573    0.71798  -0.56416 
 N                     2.48536   0.50509  -1.22907 
 N                     3.38566   0.13115  -0.28125 
 C                     4.72072  -0.18638  -0.64964 
 C                     5.74762  -0.13419   0.29907 
 C                     7.04862  -0.46962  -0.07455 
 C                     7.33462  -0.83904  -1.3893 
 C                     6.30559  -0.87105  -2.3332 
 C                     4.99896  -0.55141  -1.97132 
 C                     2.82307   0.09974   0.96274 
 H                    -2.96696  -1.73251   2.55122 
 H                    -2.63967  -1.70772   0.82002 
 H                    -4.67001   0.09629   2.2522 
 H                    -5.06777  -1.41568   1.45465 
 H                    -4.90989  -1.65647  -0.99252 
 H                    -5.34364  -0.55114  -3.16575 
 H                    -5.31874   1.94381  -3.30003 
 H                    -4.80626   3.28239  -1.25782 
 H                    -3.68725   1.94007   1.6864 
 H                    -0.43587  -1.2381    1.32942 
 H                     0.93074   0.4164    2.88909 
 H                     0.03279   1.6026    1.94695 
 H                     0.47217   1.03755  -1.0997 
 H                     5.54298   0.18765   1.31507 
 H                     7.84195  -0.42653   0.66643 
 H                     8.35049  -1.09359  -1.6771 
 H                     6.5175   -1.15311  -3.36079 
 H                     4.19079  -0.5743   -2.69225 
 H                     3.38193  -0.20477   1.83512 
 
 ITRead=  0  0  0  0  0  0  0  0  0  0  0  0  0  0  0  0  0  0  0  0
 ITRead=  0  0  0  0  0  0  0  0  0  0  0  0  0  0  0  0  0  0  0  0
 ITRead=  0  0  0
 MicOpt= -1 -1 -1 -1 -1 -1 -1 -1 -1 -1 -1 -1 -1 -1 -1 -1 -1 -1 -1 -1
 MicOpt= -1 -1 -1 -1 -1 -1 -1 -1 -1 -1 -1 -1 -1 -1 -1 -1 -1 -1 -1 -1
 MicOpt= -1 -1 -1
 NAtoms=     43 NQM=       43 NQMF=       0 NMMI=      0 NMMIF=      0
                NMic=       0 NMicF=      0.
                    Isotopes and Nuclear Properties:
 (Nuclear quadrupole moments (NQMom) in fm**2, nuclear magnetic moments (NMagM)
  in nuclear magnetons)

  Atom         1           2           3           4           5           6           7           8           9          10
 IAtWgt=          16          12          12          12          12          12          12          12          12          12
 AtmWgt=  15.9949146  12.0000000  12.0000000  12.0000000  12.0000000  12.0000000  12.0000000  12.0000000  12.0000000  12.0000000
 NucSpn=           0           0           0           0           0           0           0           0           0           0
 AtZEff=  -0.0000000  -0.0000000  -0.0000000  -0.0000000  -0.0000000  -0.0000000  -0.0000000  -0.0000000  -0.0000000  -0.0000000
 NQMom=    0.0000000   0.0000000   0.0000000   0.0000000   0.0000000   0.0000000   0.0000000   0.0000000   0.0000000   0.0000000
 NMagM=    0.0000000   0.0000000   0.0000000   0.0000000   0.0000000   0.0000000   0.0000000   0.0000000   0.0000000   0.0000000
 AtZNuc=   8.0000000   6.0000000   6.0000000   6.0000000   6.0000000   6.0000000   6.0000000   6.0000000   6.0000000   6.0000000

  Atom        11          12          13          14          15          16          17          18          19          20
 IAtWgt=          16          14          12          12          12          14          14          12          12          12
 AtmWgt=  15.9949146  14.0030740  12.0000000  12.0000000  12.0000000  14.0030740  14.0030740  12.0000000  12.0000000  12.0000000
 NucSpn=           0           2           0           0           0           2           2           0           0           0
 AtZEff=  -0.0000000  -0.0000000  -0.0000000  -0.0000000  -0.0000000  -0.0000000  -0.0000000  -0.0000000  -0.0000000  -0.0000000
 NQMom=    0.0000000   2.0440000   0.0000000   0.0000000   0.0000000   2.0440000   2.0440000   0.0000000   0.0000000   0.0000000
 NMagM=    0.0000000   0.4037610   0.0000000   0.0000000   0.0000000   0.4037610   0.4037610   0.0000000   0.0000000   0.0000000
 AtZNuc=   8.0000000   7.0000000   6.0000000   6.0000000   6.0000000   7.0000000   7.0000000   6.0000000   6.0000000   6.0000000

  Atom        21          22          23          24          25          26          27          28          29          30
 IAtWgt=          12          12          12          12           1           1           1           1           1           1
 AtmWgt=  12.0000000  12.0000000  12.0000000  12.0000000   1.0078250   1.0078250   1.0078250   1.0078250   1.0078250   1.0078250
 NucSpn=           0           0           0           0           1           1           1           1           1           1
 AtZEff=  -0.0000000  -0.0000000  -0.0000000  -0.0000000  -0.0000000  -0.0000000  -0.0000000  -0.0000000  -0.0000000  -0.0000000
 NQMom=    0.0000000   0.0000000   0.0000000   0.0000000   0.0000000   0.0000000   0.0000000   0.0000000   0.0000000   0.0000000
 NMagM=    0.0000000   0.0000000   0.0000000   0.0000000   2.7928460   2.7928460   2.7928460   2.7928460   2.7928460   2.7928460
 AtZNuc=   6.0000000   6.0000000   6.0000000   6.0000000   1.0000000   1.0000000   1.0000000   1.0000000   1.0000000   1.0000000

  Atom        31          32          33          34          35          36          37          38          39          40
 IAtWgt=           1           1           1           1           1           1           1           1           1           1
 AtmWgt=   1.0078250   1.0078250   1.0078250   1.0078250   1.0078250   1.0078250   1.0078250   1.0078250   1.0078250   1.0078250
 NucSpn=           1           1           1           1           1           1           1           1           1           1
 AtZEff=  -0.0000000  -0.0000000  -0.0000000  -0.0000000  -0.0000000  -0.0000000  -0.0000000  -0.0000000  -0.0000000  -0.0000000
 NQMom=    0.0000000   0.0000000   0.0000000   0.0000000   0.0000000   0.0000000   0.0000000   0.0000000   0.0000000   0.0000000
 NMagM=    2.7928460   2.7928460   2.7928460   2.7928460   2.7928460   2.7928460   2.7928460   2.7928460   2.7928460   2.7928460
 AtZNuc=   1.0000000   1.0000000   1.0000000   1.0000000   1.0000000   1.0000000   1.0000000   1.0000000   1.0000000   1.0000000

  Atom        41          42          43
 IAtWgt=           1           1           1
 AtmWgt=   1.0078250   1.0078250   1.0078250
 NucSpn=           1           1           1
 AtZEff=  -0.0000000  -0.0000000  -0.0000000
 NQMom=    0.0000000   0.0000000   0.0000000
 NMagM=    2.7928460   2.7928460   2.7928460
 AtZNuc=   1.0000000   1.0000000   1.0000000
 Leave Link  101 at Sat Nov  5 11:54:27 2022, MaxMem=   402653184 cpu:               1.2 elap:               0.2
 (Enter /home/wykgroup/appl/g16/l202.exe)
                          Input orientation:                          
 ---------------------------------------------------------------------
 Center     Atomic      Atomic             Coordinates (Angstroms)
 Number     Number       Type             X           Y           Z
 ---------------------------------------------------------------------
      1          8           0       -2.256254    1.130283    2.358127
      2          6           0       -1.941164    0.016320    1.923395
      3          6           0       -2.964585   -1.084401    1.662435
      4          6           0       -4.389935   -0.554831    1.417795
      5          6           0       -4.592405    0.165176    0.098290
      6          6           0       -4.870877   -0.570189   -1.062537
      7          6           0       -5.124651    0.046822   -2.285606
      8          6           0       -5.112620    1.442443   -2.357688
      9          6           0       -4.830430    2.197397   -1.224104
     10          6           0       -4.556757    1.573440    0.002191
     11          8           0       -4.309083    2.384442    1.065980
     12          7           0       -0.647522   -0.319486    1.694564
     13          6           0        0.470881    0.601139    1.909076
     14          6           0        1.502592    0.481039    0.828160
     15          6           0        1.357304    0.717982   -0.564155
     16          7           0        2.485358    0.505089   -1.229075
     17          7           0        3.385663    0.131148   -0.281248
     18          6           0        4.720721   -0.186376   -0.649637
     19          6           0        5.747618   -0.134188    0.299068
     20          6           0        7.048616   -0.469616   -0.074548
     21          6           0        7.334622   -0.839035   -1.389297
     22          6           0        6.305591   -0.871052   -2.333202
     23          6           0        4.998961   -0.551412   -1.971319
     24          6           0        2.823070    0.099735    0.962738
     25          1           0       -2.966963   -1.732509    2.551219
     26          1           0       -2.639670   -1.707718    0.820015
     27          1           0       -4.670006    0.096295    2.252204
     28          1           0       -5.067769   -1.415677    1.454653
     29          1           0       -4.909887   -1.656473   -0.992520
     30          1           0       -5.343641   -0.551141   -3.165745
     31          1           0       -5.318735    1.943810   -3.300027
     32          1           0       -4.806263    3.282386   -1.257819
     33          1           0       -3.687252    1.940066    1.686396
     34          1           0       -0.435874   -1.238102    1.329418
     35          1           0        0.930736    0.416402    2.889086
     36          1           0        0.032794    1.602604    1.946950
     37          1           0        0.472166    1.037550   -1.099700
     38          1           0        5.542983    0.187654    1.315072
     39          1           0        7.841952   -0.426533    0.666426
     40          1           0        8.350491   -1.093593   -1.677100
     41          1           0        6.517499   -1.153108   -3.360792
     42          1           0        4.190794   -0.574298   -2.692252
     43          1           0        3.381931   -0.204769    1.835116
 ---------------------------------------------------------------------
                    Distance matrix (angstroms):
                    1          2          3          4          5
     1  O    0.000000
     2  C    1.236603   0.000000
     3  C    2.427044   1.525475   0.000000
     4  C    2.876878   2.564824   1.540102   0.000000
     5  C    3.390559   3.222149   2.580269   1.516740   0.000000
     6  C    4.629125   4.224098   3.365090   2.526576   1.402080
     7  C    5.564696   5.277425   4.640321   3.823215   2.445456
     8  C    5.522244   5.515400   5.211562   4.331934   2.816711
     9  C    4.538445   4.797052   4.752229   3.840368   2.436248
    10  C    3.322519   3.599580   3.515045   2.561504   1.411989
    11  O    2.730690   3.456907   3.767798   2.961358   2.437588
    12  N    2.264987   1.355965   2.440268   3.760006   4.283117
    13  C    2.814055   2.481971   3.834619   5.020473   5.394986
    14  C    4.109895   3.643482   4.806483   6.011869   6.146663
    15  C    4.665569   4.190482   5.185076   6.211195   6.011944
    16  N    5.978442   5.456287   6.370964   7.443051   7.209173
    17  N    6.308391   5.766171   6.751378   7.988569   7.987163
    18  C    7.710928   7.144389   8.075645   9.349550   9.349722
    19  C    8.360657   7.859928   8.869281  10.207765  10.346304
    20  C    9.749780   9.221934  10.181320  11.535805  11.659598
    21  C   10.483621   9.886647  10.744624  12.059261  12.061316
    22  C    9.965897   9.322823  10.096870  11.338617  11.213931
    23  C    8.614543   7.978500   8.769624   9.981857   9.838246
    24  C    5.367371   4.860839   5.948840   7.256926   7.465978
    25  H    2.956005   2.122458   1.099994   2.167123   3.501447
    26  H    3.250699   2.162791   1.097162   2.179430   2.800320
    27  H    2.628031   2.749743   2.156463   1.094826   2.156412
    28  H    3.899076   3.470734   2.139230   1.096300   2.136537
    29  H    5.102412   4.484876   3.340696   2.700663   2.146873
    30  H    6.547694   6.148025   5.408844   4.681710   3.425112
    31  H    6.485007   6.512092   6.272010   5.418830   3.903800
    32  H    4.920280   5.384803   5.566730   4.696432   3.406136
    33  H    1.776155   2.608791   3.109698   2.605844   2.547865
    34  H    3.159315   2.047506   2.555172   4.013635   4.556492
    35  H    3.308845   3.056213   4.350932   5.605135   6.193283
    36  H    2.373162   2.532462   4.035495   4.949249   5.184227
    37  H    4.405614   4.000772   4.893191   5.702059   5.276940
    38  H    7.924936   7.510784   8.609152   9.961159  10.208191
    39  H   10.356606   9.873472  10.872261  12.255614  12.461386
    40  H   11.564243  10.959637  11.797606  13.122008  13.124598
    41  H   10.719079  10.041871  10.730677  11.923294  11.710384
    42  H    8.365187   7.697658   8.391838   9.514293   9.245460
    43  H    5.817649   5.328417   6.409512   7.790931   8.169668
                    6          7          8          9         10
     6  C    0.000000
     7  C    1.393199   0.000000
     8  C    2.405524   1.397533   0.000000
     9  C    2.772593   2.416263   1.390900   0.000000
    10  C    2.414014   2.808395   2.427998   1.402861   0.000000
    11  O    3.684568   4.166863   3.640679   2.356114   1.360409
    12  N    5.049870   6.001719   6.281898   5.687710   4.661482
    13  C    6.223895   7.015169   7.077326   6.361505   5.464313
    14  C    6.730596   7.335151   7.405063   6.874942   6.212188
    15  C    6.379500   6.740148   6.752890   6.396269   6.002390
    16  N    7.436273   7.696655   7.738324   7.508973   7.228332
    17  N    8.323025   8.743569   8.846011   8.524232   8.077288
    18  C    9.608150   9.983092  10.112620   9.860875   9.465381
    19  C   10.714313  11.176741  11.291098  10.938530  10.449128
    20  C   11.960793  12.383211  12.520557  12.228907  11.784085
    21  C   12.212832  12.522843  12.691602  12.539366  12.213156
    22  C   11.252491  11.467135  11.650253  11.604156  11.376300
    23  C    9.911607  10.146141  10.313525  10.233826   9.986065
    24  C    7.984194   8.586082   8.706507   8.231556   7.586587
    25  H    4.246776   5.587174   6.227482   5.759317   4.467022
    26  H    3.133091   4.347232   5.112416   4.922172   3.887166
    27  H    3.387043   4.560797   4.822772   4.065106   2.693946
    28  H    2.662679   4.016426   4.764956   4.504040   3.362380
    29  H    1.089237   2.149281   3.392354   3.861639   3.398012
    30  H    2.155772   1.086352   2.163493   3.404088   3.894721
    31  H    3.395163   2.159926   1.087131   2.147605   3.409169
    32  H    3.858062   3.409779   2.165400   1.085781   2.137843
    33  H    3.906274   4.628962   4.316702   3.137528   1.930543
    34  H    5.082992   6.058387   6.530851   6.134757   5.162168
    35  H    7.088541   7.973816   8.068677   7.299405   6.307574
    36  H    6.150125   6.850856   6.710503   5.836121   4.984668
    37  H    5.579813   5.806227   5.739016   5.429386   5.176041
    38  H   10.708680  11.259802  11.340438  10.867114  10.278561
    39  H   12.830666  13.306816  13.433513  13.078546  12.576529
    40  H   13.245989  13.536997  13.716779  13.593104  13.286464
    41  H   11.632579  11.753106  11.958376  12.023593  11.890453
    42  H    9.207055   9.344981   9.525370   9.550928   9.401726
    43  H    8.754358   9.455453   9.615109   9.086919   8.339330
                   11         12         13         14         15
    11  O    0.000000
    12  N    4.594930   0.000000
    13  C    5.170980   1.464374   0.000000
    14  C    6.120055   2.452445   1.499076   0.000000
    15  C    6.127184   3.193349   2.629880   1.419786   0.000000
    16  N    7.413749   4.363774   3.730326   2.280049   1.326630
    17  N    8.130282   4.513699   3.676189   2.213406   2.130410
    18  C    9.544098   5.859268   5.022781   3.603565   3.483926
    19  C   10.395619   6.548248   5.565680   4.321885   4.554800
    20  C   11.766214   7.898281   6.953265   5.698861   5.834478
    21  C   12.328628   8.572908   7.750117   6.377483   6.231652
    22  C   11.611373   8.054371   7.362616   5.906874   5.490000
    23  C   10.221747   6.736116   6.073660   4.596481   4.105257
    24  C    7.489870   3.571599   2.584522   1.381002   2.205017
    25  H    4.577828   2.847859   4.204406   5.276897   5.865983
    26  H    4.426422   2.580829   4.023978   4.684982   4.876039
    27  H    2.602501   4.082183   5.176999   6.346408   6.681830
    28  H    3.894557   4.560459   5.911911   6.867290   7.064677
    29  H    4.574645   5.213033   6.516803   7.000266   6.715596
    30  H    5.253138   6.762382   7.803219   7.992971   7.299426
    31  H    4.502841   7.203380   7.902985   8.106302   7.318275
    32  H    2.540380   6.243811   6.713163   7.211137   6.711699
    33  H    0.984408   3.787559   4.374057   5.458920   5.657386
    34  H    5.309800   1.010930   2.130965   2.639006   3.259965
    35  H    5.886647   2.111709   1.098188   2.139769   3.492533
    36  H    4.498809   2.054497   1.093749   2.160996   2.973640
    37  H    5.418914   3.301993   3.040261   2.255688   1.082775
    38  H   10.097086   6.222825   5.123479   4.080186   4.618728
    39  H   12.478337   8.552174   7.545395   6.406039   6.698873
    40  H   13.412160   9.640103   8.821623   7.459860   7.309248
    41  H   12.219880   8.808466   8.210388   6.735507   6.160338
    42  H    9.753275   6.535930   6.032547   4.553402   3.771929
    43  H    8.151521   4.033535   3.021452   2.239690   3.272169
                   16         17         18         19         20
    16  N    0.000000
    17  N    1.359690   0.000000
    18  C    2.410543   1.420884   0.000000
    19  C    3.658721   2.446631   1.399030   0.000000
    20  C    4.806902   3.717643   2.414550   1.394524   0.000000
    21  C    5.034650   4.214654   2.793840   2.421976   1.395290
    22  C    4.207973   3.706872   2.411428   2.789829   2.411380
    23  C    2.825831   2.434124   1.399111   2.426772   2.793836
    24  C    2.254419   1.365650   2.506530   3.008016   4.388094
    25  H    7.001805   7.200829   8.469739   9.141703  10.430790
    26  H    5.946528   6.395221   7.658310   8.549502   9.807958
    27  H    7.967788   8.444726   9.832921  10.601639  11.960775
    28  H    8.242662   8.767356  10.087307  10.952178  12.249094
    29  H    7.708304   8.515729   9.748198  10.842876  12.052266
    30  H    8.133852   9.218817  10.380522  11.627331  12.772243
    31  H    8.201380   9.389639  10.599667  11.820987  13.006911
    32  H    7.802688   8.831288  10.157048  11.201843  12.490629
    33  H    6.975689   7.561080   8.981804   9.759302  11.142996
    34  H    4.256547   4.367291   5.622566   6.365204   7.653710
    35  H    4.402723   4.019833   5.220142   5.496698   6.855408
    36  H    4.160138   4.286231   5.649723   6.196061   7.589619
    37  H    2.086432   3.159097   4.444184   5.582108   6.824382
    38  H    3.990303   2.684299   2.162428   1.085228   2.151739
    39  H    5.757946   4.589946   3.395848   2.146311   1.086407
    40  H    6.095596   5.300746   3.879942   3.405972   2.156941
    41  H    4.853040   4.576166   3.393132   3.876273   3.398330
    42  H    2.492885   2.637959   2.145596   3.400794   3.876917
    43  H    3.270628   2.142861   2.822533   2.821507   4.142649
                   21         22         23         24         25
    21  C    0.000000
    22  C    1.396741   0.000000
    23  C    2.424209   1.392986   0.000000
    24  C    5.173728   4.892198   3.710416   0.000000
    25  H   11.065650  10.515699   9.236032   6.277330   0.000000
    26  H   10.252911   9.521580   8.214455   5.755761   1.762044
    27  H   12.579605  11.934213  10.571026   7.603218   2.516801
    28  H   12.737342  11.999908  10.668801   8.050081   2.390863
    29  H   12.278178  11.322600  10.018207   8.167369   4.042130
    30  H   12.805351  11.683325  10.411344   9.174050   6.303008
    31  H   13.095899  11.999298  10.697965   9.373408   7.299536
    32  H   12.822032  11.911373  10.552228   8.559606   6.560561
    33  H   11.775610  11.131777   9.748674   6.804027   3.841164
    34  H    8.242043   7.680941   6.395611   3.541889   2.853708
    35  H    7.803233   7.603874   6.411759   2.718828   4.463635
    36  H    8.390998   7.986655   6.682472   3.318573   4.526219
    37  H    7.120306   6.260443   4.876105   3.264950   5.729750
    38  H    3.402598   3.874575   3.412117   2.744047   8.811031
    39  H    2.157207   3.399378   3.880192   5.055090  11.049464
    40  H    1.086103   2.159076   3.407826   6.240605  12.098415
    41  H    2.157110   1.086463   2.144442   5.823344  11.191184
    42  H    3.413420   2.165490   1.083237   3.960296   8.948124
    43  H    5.140321   5.134841   4.150168   1.079858   6.569266
                   26         27         28         29         30
    26  H    0.000000
    27  H    3.070487   0.000000
    28  H    2.526602   1.755096   0.000000
    29  H    2.905477   3.695669   2.464054   0.000000
    30  H    4.953324   5.497921   4.708673   2.476451   0.000000
    31  H    6.122564   5.887396   5.827188   4.295786   2.498686
    32  H    5.823457   4.742363   5.431177   4.947064   4.315656
    33  H    3.892861   2.164587   3.636007   4.648281   5.700264
    34  H    2.310140   4.534316   4.636990   5.057986   6.690634
    35  H    4.641201   5.645919   6.433987   7.312767   8.772966
    36  H    4.401168   4.947573   5.947111   6.610005   7.725563
    37  H    4.572234   6.209924   6.575251   6.019613   6.373076
    38  H    8.413877  10.256301  10.732112  10.862241  11.795852
    39  H   10.560749  12.622881  12.971531  12.917982  13.731749
    40  H   11.287000  13.652421  13.782646  13.289963  13.785484
    41  H   10.081691  12.578831  12.548940  11.681063  11.878007
    42  H    7.763756  10.169126  10.179673   9.321083   9.546213
    43  H    6.288797   8.068352   8.544501   8.880159  10.063012
                   31         32         33         34         35
    31  H    0.000000
    32  H    2.495001   0.000000
    33  H    5.246538   3.423800   0.000000
    34  H    7.443027   6.799184   4.560662   0.000000
    35  H    8.927149   7.637005   5.009374   2.652842   0.000000
    36  H    7.502404   6.042242   3.744397   2.944589   1.760964
    37  H    6.260773   5.738127   5.087005   3.450180   4.062823
    38  H   11.931477  11.104235   9.402450   6.146520   4.878798
    39  H   13.948296  13.320516  11.813707   8.343896   7.308602
    40  H   14.096363  13.871740  12.861704   9.287639   8.842109
    41  H   12.234829  12.341948  11.797405   8.387770   8.528555
    42  H    9.856034   9.893363   9.357253   6.166078   6.539174
    43  H   10.328973   9.421944   7.388896   3.987373   2.739537
                   36         37         38         39         40
    36  H    0.000000
    37  H    3.129602   0.000000
    38  H    5.723944   5.680373   0.000000
    39  H    8.169460   7.718581   2.466419   0.000000
    40  H    9.465057   8.181881   4.298463   2.489116   0.000000
    41  H    8.821421   6.815979   4.960950   4.301230   2.489623
    42  H    6.599247   4.354592   4.297398   4.963216   4.313152
    43  H    3.807338   4.315465   2.257119   4.615929   6.149167
                   41         42         43
    41  H    0.000000
    42  H    2.489081   0.000000
    43  H    6.142361   4.613879   0.000000
 Symmetry turned off by external request.
 Stoichiometry    C19H19N3O2
 Framework group  C1[X(C19H19N3O2)]
 Deg. of freedom   123
 Full point group                 C1      NOp   1
 Rotational constants (GHZ):           0.5434956           0.0803109           0.0748679
 Leave Link  202 at Sat Nov  5 11:54:27 2022, MaxMem=   402653184 cpu:               0.3 elap:               0.1
 (Enter /home/wykgroup/appl/g16/l301.exe)
 Standard basis: 6-31G(d) (6D, 10F)
 Ernie: Thresh=  0.10000D-02 Tol=  0.10000D-05 Strict=F.
 AO basis set in the form of general basis input (Overlap normalization):
      1 0
 S   6 1.00       0.000000000000
      0.5484671660D+04  0.1831074430D-02
      0.8252349460D+03  0.1395017220D-01
      0.1880469580D+03  0.6844507810D-01
      0.5296450000D+02  0.2327143360D+00
      0.1689757040D+02  0.4701928980D+00
      0.5799635340D+01  0.3585208530D+00
 SP   3 1.00       0.000000000000
      0.1553961625D+02 -0.1107775495D+00  0.7087426823D-01
      0.3599933586D+01 -0.1480262627D+00  0.3397528391D+00
      0.1013761750D+01  0.1130767015D+01  0.7271585773D+00
 SP   1 1.00       0.000000000000
      0.2700058226D+00  0.1000000000D+01  0.1000000000D+01
 D   1 1.00       0.000000000000
      0.8000000000D+00  0.1000000000D+01
 ****
      2 0
 S   6 1.00       0.000000000000
      0.3047524880D+04  0.1834737132D-02
      0.4573695180D+03  0.1403732281D-01
      0.1039486850D+03  0.6884262226D-01
      0.2921015530D+02  0.2321844432D+00
      0.9286662960D+01  0.4679413484D+00
      0.3163926960D+01  0.3623119853D+00
 SP   3 1.00       0.000000000000
      0.7868272350D+01 -0.1193324198D+00  0.6899906659D-01
      0.1881288540D+01 -0.1608541517D+00  0.3164239610D+00
      0.5442492580D+00  0.1143456438D+01  0.7443082909D+00
 SP   1 1.00       0.000000000000
      0.1687144782D+00  0.1000000000D+01  0.1000000000D+01
 D   1 1.00       0.000000000000
      0.8000000000D+00  0.1000000000D+01
 ****
      3 0
 S   6 1.00       0.000000000000
      0.3047524880D+04  0.1834737132D-02
      0.4573695180D+03  0.1403732281D-01
      0.1039486850D+03  0.6884262226D-01
      0.2921015530D+02  0.2321844432D+00
      0.9286662960D+01  0.4679413484D+00
      0.3163926960D+01  0.3623119853D+00
 SP   3 1.00       0.000000000000
      0.7868272350D+01 -0.1193324198D+00  0.6899906659D-01
      0.1881288540D+01 -0.1608541517D+00  0.3164239610D+00
      0.5442492580D+00  0.1143456438D+01  0.7443082909D+00
 SP   1 1.00       0.000000000000
      0.1687144782D+00  0.1000000000D+01  0.1000000000D+01
 D   1 1.00       0.000000000000
      0.8000000000D+00  0.1000000000D+01
 ****
      4 0
 S   6 1.00       0.000000000000
      0.3047524880D+04  0.1834737132D-02
      0.4573695180D+03  0.1403732281D-01
      0.1039486850D+03  0.6884262226D-01
      0.2921015530D+02  0.2321844432D+00
      0.9286662960D+01  0.4679413484D+00
      0.3163926960D+01  0.3623119853D+00
 SP   3 1.00       0.000000000000
      0.7868272350D+01 -0.1193324198D+00  0.6899906659D-01
      0.1881288540D+01 -0.1608541517D+00  0.3164239610D+00
      0.5442492580D+00  0.1143456438D+01  0.7443082909D+00
 SP   1 1.00       0.000000000000
      0.1687144782D+00  0.1000000000D+01  0.1000000000D+01
 D   1 1.00       0.000000000000
      0.8000000000D+00  0.1000000000D+01
 ****
      5 0
 S   6 1.00       0.000000000000
      0.3047524880D+04  0.1834737132D-02
      0.4573695180D+03  0.1403732281D-01
      0.1039486850D+03  0.6884262226D-01
      0.2921015530D+02  0.2321844432D+00
      0.9286662960D+01  0.4679413484D+00
      0.3163926960D+01  0.3623119853D+00
 SP   3 1.00       0.000000000000
      0.7868272350D+01 -0.1193324198D+00  0.6899906659D-01
      0.1881288540D+01 -0.1608541517D+00  0.3164239610D+00
      0.5442492580D+00  0.1143456438D+01  0.7443082909D+00
 SP   1 1.00       0.000000000000
      0.1687144782D+00  0.1000000000D+01  0.1000000000D+01
 D   1 1.00       0.000000000000
      0.8000000000D+00  0.1000000000D+01
 ****
      6 0
 S   6 1.00       0.000000000000
      0.3047524880D+04  0.1834737132D-02
      0.4573695180D+03  0.1403732281D-01
      0.1039486850D+03  0.6884262226D-01
      0.2921015530D+02  0.2321844432D+00
      0.9286662960D+01  0.4679413484D+00
      0.3163926960D+01  0.3623119853D+00
 SP   3 1.00       0.000000000000
      0.7868272350D+01 -0.1193324198D+00  0.6899906659D-01
      0.1881288540D+01 -0.1608541517D+00  0.3164239610D+00
      0.5442492580D+00  0.1143456438D+01  0.7443082909D+00
 SP   1 1.00       0.000000000000
      0.1687144782D+00  0.1000000000D+01  0.1000000000D+01
 D   1 1.00       0.000000000000
      0.8000000000D+00  0.1000000000D+01
 ****
      7 0
 S   6 1.00       0.000000000000
      0.3047524880D+04  0.1834737132D-02
      0.4573695180D+03  0.1403732281D-01
      0.1039486850D+03  0.6884262226D-01
      0.2921015530D+02  0.2321844432D+00
      0.9286662960D+01  0.4679413484D+00
      0.3163926960D+01  0.3623119853D+00
 SP   3 1.00       0.000000000000
      0.7868272350D+01 -0.1193324198D+00  0.6899906659D-01
      0.1881288540D+01 -0.1608541517D+00  0.3164239610D+00
      0.5442492580D+00  0.1143456438D+01  0.7443082909D+00
 SP   1 1.00       0.000000000000
      0.1687144782D+00  0.1000000000D+01  0.1000000000D+01
 D   1 1.00       0.000000000000
      0.8000000000D+00  0.1000000000D+01
 ****
      8 0
 S   6 1.00       0.000000000000
      0.3047524880D+04  0.1834737132D-02
      0.4573695180D+03  0.1403732281D-01
      0.1039486850D+03  0.6884262226D-01
      0.2921015530D+02  0.2321844432D+00
      0.9286662960D+01  0.4679413484D+00
      0.3163926960D+01  0.3623119853D+00
 SP   3 1.00       0.000000000000
      0.7868272350D+01 -0.1193324198D+00  0.6899906659D-01
      0.1881288540D+01 -0.1608541517D+00  0.3164239610D+00
      0.5442492580D+00  0.1143456438D+01  0.7443082909D+00
 SP   1 1.00       0.000000000000
      0.1687144782D+00  0.1000000000D+01  0.1000000000D+01
 D   1 1.00       0.000000000000
      0.8000000000D+00  0.1000000000D+01
 ****
      9 0
 S   6 1.00       0.000000000000
      0.3047524880D+04  0.1834737132D-02
      0.4573695180D+03  0.1403732281D-01
      0.1039486850D+03  0.6884262226D-01
      0.2921015530D+02  0.2321844432D+00
      0.9286662960D+01  0.4679413484D+00
      0.3163926960D+01  0.3623119853D+00
 SP   3 1.00       0.000000000000
      0.7868272350D+01 -0.1193324198D+00  0.6899906659D-01
      0.1881288540D+01 -0.1608541517D+00  0.3164239610D+00
      0.5442492580D+00  0.1143456438D+01  0.7443082909D+00
 SP   1 1.00       0.000000000000
      0.1687144782D+00  0.1000000000D+01  0.1000000000D+01
 D   1 1.00       0.000000000000
      0.8000000000D+00  0.1000000000D+01
 ****
     10 0
 S   6 1.00       0.000000000000
      0.3047524880D+04  0.1834737132D-02
      0.4573695180D+03  0.1403732281D-01
      0.1039486850D+03  0.6884262226D-01
      0.2921015530D+02  0.2321844432D+00
      0.9286662960D+01  0.4679413484D+00
      0.3163926960D+01  0.3623119853D+00
 SP   3 1.00       0.000000000000
      0.7868272350D+01 -0.1193324198D+00  0.6899906659D-01
      0.1881288540D+01 -0.1608541517D+00  0.3164239610D+00
      0.5442492580D+00  0.1143456438D+01  0.7443082909D+00
 SP   1 1.00       0.000000000000
      0.1687144782D+00  0.1000000000D+01  0.1000000000D+01
 D   1 1.00       0.000000000000
      0.8000000000D+00  0.1000000000D+01
 ****
     11 0
 S   6 1.00       0.000000000000
      0.5484671660D+04  0.1831074430D-02
      0.8252349460D+03  0.1395017220D-01
      0.1880469580D+03  0.6844507810D-01
      0.5296450000D+02  0.2327143360D+00
      0.1689757040D+02  0.4701928980D+00
      0.5799635340D+01  0.3585208530D+00
 SP   3 1.00       0.000000000000
      0.1553961625D+02 -0.1107775495D+00  0.7087426823D-01
      0.3599933586D+01 -0.1480262627D+00  0.3397528391D+00
      0.1013761750D+01  0.1130767015D+01  0.7271585773D+00
 SP   1 1.00       0.000000000000
      0.2700058226D+00  0.1000000000D+01  0.1000000000D+01
 D   1 1.00       0.000000000000
      0.8000000000D+00  0.1000000000D+01
 ****
     12 0
 S   6 1.00       0.000000000000
      0.4173511460D+04  0.1834772160D-02
      0.6274579110D+03  0.1399462700D-01
      0.1429020930D+03  0.6858655181D-01
      0.4023432930D+02  0.2322408730D+00
      0.1282021290D+02  0.4690699481D+00
      0.4390437010D+01  0.3604551991D+00
 SP   3 1.00       0.000000000000
      0.1162636186D+02 -0.1149611817D+00  0.6757974388D-01
      0.2716279807D+01 -0.1691174786D+00  0.3239072959D+00
      0.7722183966D+00  0.1145851947D+01  0.7408951398D+00
 SP   1 1.00       0.000000000000
      0.2120314975D+00  0.1000000000D+01  0.1000000000D+01
 D   1 1.00       0.000000000000
      0.8000000000D+00  0.1000000000D+01
 ****
     13 0
 S   6 1.00       0.000000000000
      0.3047524880D+04  0.1834737132D-02
      0.4573695180D+03  0.1403732281D-01
      0.1039486850D+03  0.6884262226D-01
      0.2921015530D+02  0.2321844432D+00
      0.9286662960D+01  0.4679413484D+00
      0.3163926960D+01  0.3623119853D+00
 SP   3 1.00       0.000000000000
      0.7868272350D+01 -0.1193324198D+00  0.6899906659D-01
      0.1881288540D+01 -0.1608541517D+00  0.3164239610D+00
      0.5442492580D+00  0.1143456438D+01  0.7443082909D+00
 SP   1 1.00       0.000000000000
      0.1687144782D+00  0.1000000000D+01  0.1000000000D+01
 D   1 1.00       0.000000000000
      0.8000000000D+00  0.1000000000D+01
 ****
     14 0
 S   6 1.00       0.000000000000
      0.3047524880D+04  0.1834737132D-02
      0.4573695180D+03  0.1403732281D-01
      0.1039486850D+03  0.6884262226D-01
      0.2921015530D+02  0.2321844432D+00
      0.9286662960D+01  0.4679413484D+00
      0.3163926960D+01  0.3623119853D+00
 SP   3 1.00       0.000000000000
      0.7868272350D+01 -0.1193324198D+00  0.6899906659D-01
      0.1881288540D+01 -0.1608541517D+00  0.3164239610D+00
      0.5442492580D+00  0.1143456438D+01  0.7443082909D+00
 SP   1 1.00       0.000000000000
      0.1687144782D+00  0.1000000000D+01  0.1000000000D+01
 D   1 1.00       0.000000000000
      0.8000000000D+00  0.1000000000D+01
 ****
     15 0
 S   6 1.00       0.000000000000
      0.3047524880D+04  0.1834737132D-02
      0.4573695180D+03  0.1403732281D-01
      0.1039486850D+03  0.6884262226D-01
      0.2921015530D+02  0.2321844432D+00
      0.9286662960D+01  0.4679413484D+00
      0.3163926960D+01  0.3623119853D+00
 SP   3 1.00       0.000000000000
      0.7868272350D+01 -0.1193324198D+00  0.6899906659D-01
      0.1881288540D+01 -0.1608541517D+00  0.3164239610D+00
      0.5442492580D+00  0.1143456438D+01  0.7443082909D+00
 SP   1 1.00       0.000000000000
      0.1687144782D+00  0.1000000000D+01  0.1000000000D+01
 D   1 1.00       0.000000000000
      0.8000000000D+00  0.1000000000D+01
 ****
     16 0
 S   6 1.00       0.000000000000
      0.4173511460D+04  0.1834772160D-02
      0.6274579110D+03  0.1399462700D-01
      0.1429020930D+03  0.6858655181D-01
      0.4023432930D+02  0.2322408730D+00
      0.1282021290D+02  0.4690699481D+00
      0.4390437010D+01  0.3604551991D+00
 SP   3 1.00       0.000000000000
      0.1162636186D+02 -0.1149611817D+00  0.6757974388D-01
      0.2716279807D+01 -0.1691174786D+00  0.3239072959D+00
      0.7722183966D+00  0.1145851947D+01  0.7408951398D+00
 SP   1 1.00       0.000000000000
      0.2120314975D+00  0.1000000000D+01  0.1000000000D+01
 D   1 1.00       0.000000000000
      0.8000000000D+00  0.1000000000D+01
 ****
     17 0
 S   6 1.00       0.000000000000
      0.4173511460D+04  0.1834772160D-02
      0.6274579110D+03  0.1399462700D-01
      0.1429020930D+03  0.6858655181D-01
      0.4023432930D+02  0.2322408730D+00
      0.1282021290D+02  0.4690699481D+00
      0.4390437010D+01  0.3604551991D+00
 SP   3 1.00       0.000000000000
      0.1162636186D+02 -0.1149611817D+00  0.6757974388D-01
      0.2716279807D+01 -0.1691174786D+00  0.3239072959D+00
      0.7722183966D+00  0.1145851947D+01  0.7408951398D+00
 SP   1 1.00       0.000000000000
      0.2120314975D+00  0.1000000000D+01  0.1000000000D+01
 D   1 1.00       0.000000000000
      0.8000000000D+00  0.1000000000D+01
 ****
     18 0
 S   6 1.00       0.000000000000
      0.3047524880D+04  0.1834737132D-02
      0.4573695180D+03  0.1403732281D-01
      0.1039486850D+03  0.6884262226D-01
      0.2921015530D+02  0.2321844432D+00
      0.9286662960D+01  0.4679413484D+00
      0.3163926960D+01  0.3623119853D+00
 SP   3 1.00       0.000000000000
      0.7868272350D+01 -0.1193324198D+00  0.6899906659D-01
      0.1881288540D+01 -0.1608541517D+00  0.3164239610D+00
      0.5442492580D+00  0.1143456438D+01  0.7443082909D+00
 SP   1 1.00       0.000000000000
      0.1687144782D+00  0.1000000000D+01  0.1000000000D+01
 D   1 1.00       0.000000000000
      0.8000000000D+00  0.1000000000D+01
 ****
     19 0
 S   6 1.00       0.000000000000
      0.3047524880D+04  0.1834737132D-02
      0.4573695180D+03  0.1403732281D-01
      0.1039486850D+03  0.6884262226D-01
      0.2921015530D+02  0.2321844432D+00
      0.9286662960D+01  0.4679413484D+00
      0.3163926960D+01  0.3623119853D+00
 SP   3 1.00       0.000000000000
      0.7868272350D+01 -0.1193324198D+00  0.6899906659D-01
      0.1881288540D+01 -0.1608541517D+00  0.3164239610D+00
      0.5442492580D+00  0.1143456438D+01  0.7443082909D+00
 SP   1 1.00       0.000000000000
      0.1687144782D+00  0.1000000000D+01  0.1000000000D+01
 D   1 1.00       0.000000000000
      0.8000000000D+00  0.1000000000D+01
 ****
     20 0
 S   6 1.00       0.000000000000
      0.3047524880D+04  0.1834737132D-02
      0.4573695180D+03  0.1403732281D-01
      0.1039486850D+03  0.6884262226D-01
      0.2921015530D+02  0.2321844432D+00
      0.9286662960D+01  0.4679413484D+00
      0.3163926960D+01  0.3623119853D+00
 SP   3 1.00       0.000000000000
      0.7868272350D+01 -0.1193324198D+00  0.6899906659D-01
      0.1881288540D+01 -0.1608541517D+00  0.3164239610D+00
      0.5442492580D+00  0.1143456438D+01  0.7443082909D+00
 SP   1 1.00       0.000000000000
      0.1687144782D+00  0.1000000000D+01  0.1000000000D+01
 D   1 1.00       0.000000000000
      0.8000000000D+00  0.1000000000D+01
 ****
     21 0
 S   6 1.00       0.000000000000
      0.3047524880D+04  0.1834737132D-02
      0.4573695180D+03  0.1403732281D-01
      0.1039486850D+03  0.6884262226D-01
      0.2921015530D+02  0.2321844432D+00
      0.9286662960D+01  0.4679413484D+00
      0.3163926960D+01  0.3623119853D+00
 SP   3 1.00       0.000000000000
      0.7868272350D+01 -0.1193324198D+00  0.6899906659D-01
      0.1881288540D+01 -0.1608541517D+00  0.3164239610D+00
      0.5442492580D+00  0.1143456438D+01  0.7443082909D+00
 SP   1 1.00       0.000000000000
      0.1687144782D+00  0.1000000000D+01  0.1000000000D+01
 D   1 1.00       0.000000000000
      0.8000000000D+00  0.1000000000D+01
 ****
     22 0
 S   6 1.00       0.000000000000
      0.3047524880D+04  0.1834737132D-02
      0.4573695180D+03  0.1403732281D-01
      0.1039486850D+03  0.6884262226D-01
      0.2921015530D+02  0.2321844432D+00
      0.9286662960D+01  0.4679413484D+00
      0.3163926960D+01  0.3623119853D+00
 SP   3 1.00       0.000000000000
      0.7868272350D+01 -0.1193324198D+00  0.6899906659D-01
      0.1881288540D+01 -0.1608541517D+00  0.3164239610D+00
      0.5442492580D+00  0.1143456438D+01  0.7443082909D+00
 SP   1 1.00       0.000000000000
      0.1687144782D+00  0.1000000000D+01  0.1000000000D+01
 D   1 1.00       0.000000000000
      0.8000000000D+00  0.1000000000D+01
 ****
     23 0
 S   6 1.00       0.000000000000
      0.3047524880D+04  0.1834737132D-02
      0.4573695180D+03  0.1403732281D-01
      0.1039486850D+03  0.6884262226D-01
      0.2921015530D+02  0.2321844432D+00
      0.9286662960D+01  0.4679413484D+00
      0.3163926960D+01  0.3623119853D+00
 SP   3 1.00       0.000000000000
      0.7868272350D+01 -0.1193324198D+00  0.6899906659D-01
      0.1881288540D+01 -0.1608541517D+00  0.3164239610D+00
      0.5442492580D+00  0.1143456438D+01  0.7443082909D+00
 SP   1 1.00       0.000000000000
      0.1687144782D+00  0.1000000000D+01  0.1000000000D+01
 D   1 1.00       0.000000000000
      0.8000000000D+00  0.1000000000D+01
 ****
     24 0
 S   6 1.00       0.000000000000
      0.3047524880D+04  0.1834737132D-02
      0.4573695180D+03  0.1403732281D-01
      0.1039486850D+03  0.6884262226D-01
      0.2921015530D+02  0.2321844432D+00
      0.9286662960D+01  0.4679413484D+00
      0.3163926960D+01  0.3623119853D+00
 SP   3 1.00       0.000000000000
      0.7868272350D+01 -0.1193324198D+00  0.6899906659D-01
      0.1881288540D+01 -0.1608541517D+00  0.3164239610D+00
      0.5442492580D+00  0.1143456438D+01  0.7443082909D+00
 SP   1 1.00       0.000000000000
      0.1687144782D+00  0.1000000000D+01  0.1000000000D+01
 D   1 1.00       0.000000000000
      0.8000000000D+00  0.1000000000D+01
 ****
     25 0
 S   3 1.00       0.000000000000
      0.1873113696D+02  0.3349460434D-01
      0.2825394365D+01  0.2347269535D+00
      0.6401216923D+00  0.8137573261D+00
 S   1 1.00       0.000000000000
      0.1612777588D+00  0.1000000000D+01
 ****
     26 0
 S   3 1.00       0.000000000000
      0.1873113696D+02  0.3349460434D-01
      0.2825394365D+01  0.2347269535D+00
      0.6401216923D+00  0.8137573261D+00
 S   1 1.00       0.000000000000
      0.1612777588D+00  0.1000000000D+01
 ****
     27 0
 S   3 1.00       0.000000000000
      0.1873113696D+02  0.3349460434D-01
      0.2825394365D+01  0.2347269535D+00
      0.6401216923D+00  0.8137573261D+00
 S   1 1.00       0.000000000000
      0.1612777588D+00  0.1000000000D+01
 ****
     28 0
 S   3 1.00       0.000000000000
      0.1873113696D+02  0.3349460434D-01
      0.2825394365D+01  0.2347269535D+00
      0.6401216923D+00  0.8137573261D+00
 S   1 1.00       0.000000000000
      0.1612777588D+00  0.1000000000D+01
 ****
     29 0
 S   3 1.00       0.000000000000
      0.1873113696D+02  0.3349460434D-01
      0.2825394365D+01  0.2347269535D+00
      0.6401216923D+00  0.8137573261D+00
 S   1 1.00       0.000000000000
      0.1612777588D+00  0.1000000000D+01
 ****
     30 0
 S   3 1.00       0.000000000000
      0.1873113696D+02  0.3349460434D-01
      0.2825394365D+01  0.2347269535D+00
      0.6401216923D+00  0.8137573261D+00
 S   1 1.00       0.000000000000
      0.1612777588D+00  0.1000000000D+01
 ****
     31 0
 S   3 1.00       0.000000000000
      0.1873113696D+02  0.3349460434D-01
      0.2825394365D+01  0.2347269535D+00
      0.6401216923D+00  0.8137573261D+00
 S   1 1.00       0.000000000000
      0.1612777588D+00  0.1000000000D+01
 ****
     32 0
 S   3 1.00       0.000000000000
      0.1873113696D+02  0.3349460434D-01
      0.2825394365D+01  0.2347269535D+00
      0.6401216923D+00  0.8137573261D+00
 S   1 1.00       0.000000000000
      0.1612777588D+00  0.1000000000D+01
 ****
     33 0
 S   3 1.00       0.000000000000
      0.1873113696D+02  0.3349460434D-01
      0.2825394365D+01  0.2347269535D+00
      0.6401216923D+00  0.8137573261D+00
 S   1 1.00       0.000000000000
      0.1612777588D+00  0.1000000000D+01
 ****
     34 0
 S   3 1.00       0.000000000000
      0.1873113696D+02  0.3349460434D-01
      0.2825394365D+01  0.2347269535D+00
      0.6401216923D+00  0.8137573261D+00
 S   1 1.00       0.000000000000
      0.1612777588D+00  0.1000000000D+01
 ****
     35 0
 S   3 1.00       0.000000000000
      0.1873113696D+02  0.3349460434D-01
      0.2825394365D+01  0.2347269535D+00
      0.6401216923D+00  0.8137573261D+00
 S   1 1.00       0.000000000000
      0.1612777588D+00  0.1000000000D+01
 ****
     36 0
 S   3 1.00       0.000000000000
      0.1873113696D+02  0.3349460434D-01
      0.2825394365D+01  0.2347269535D+00
      0.6401216923D+00  0.8137573261D+00
 S   1 1.00       0.000000000000
      0.1612777588D+00  0.1000000000D+01
 ****
     37 0
 S   3 1.00       0.000000000000
      0.1873113696D+02  0.3349460434D-01
      0.2825394365D+01  0.2347269535D+00
      0.6401216923D+00  0.8137573261D+00
 S   1 1.00       0.000000000000
      0.1612777588D+00  0.1000000000D+01
 ****
     38 0
 S   3 1.00       0.000000000000
      0.1873113696D+02  0.3349460434D-01
      0.2825394365D+01  0.2347269535D+00
      0.6401216923D+00  0.8137573261D+00
 S   1 1.00       0.000000000000
      0.1612777588D+00  0.1000000000D+01
 ****
     39 0
 S   3 1.00       0.000000000000
      0.1873113696D+02  0.3349460434D-01
      0.2825394365D+01  0.2347269535D+00
      0.6401216923D+00  0.8137573261D+00
 S   1 1.00       0.000000000000
      0.1612777588D+00  0.1000000000D+01
 ****
     40 0
 S   3 1.00       0.000000000000
      0.1873113696D+02  0.3349460434D-01
      0.2825394365D+01  0.2347269535D+00
      0.6401216923D+00  0.8137573261D+00
 S   1 1.00       0.000000000000
      0.1612777588D+00  0.1000000000D+01
 ****
     41 0
 S   3 1.00       0.000000000000
      0.1873113696D+02  0.3349460434D-01
      0.2825394365D+01  0.2347269535D+00
      0.6401216923D+00  0.8137573261D+00
 S   1 1.00       0.000000000000
      0.1612777588D+00  0.1000000000D+01
 ****
     42 0
 S   3 1.00       0.000000000000
      0.1873113696D+02  0.3349460434D-01
      0.2825394365D+01  0.2347269535D+00
      0.6401216923D+00  0.8137573261D+00
 S   1 1.00       0.000000000000
      0.1612777588D+00  0.1000000000D+01
 ****
     43 0
 S   3 1.00       0.000000000000
      0.1873113696D+02  0.3349460434D-01
      0.2825394365D+01  0.2347269535D+00
      0.6401216923D+00  0.8137573261D+00
 S   1 1.00       0.000000000000
      0.1612777588D+00  0.1000000000D+01
 ****

   398 basis functions,   748 primitive gaussians,   398 cartesian basis functions
    85 alpha electrons       85 beta electrons
       nuclear repulsion energy      1831.5112367476 Hartrees.
 IExCor=  402 DFT=T Ex+Corr=B3LYP ExCW=0 ScaHFX=  0.200000
 ScaDFX=  0.800000  0.720000  1.000000  0.810000 ScalE2=  1.000000  1.000000
 IRadAn=      5 IRanWt=     -1 IRanGd=            0 ICorTp=0 IEmpDi=  4
 NAtoms=   43 NActive=   43 NUniq=   43 SFac= 1.00D+00 NAtFMM=   60 NAOKFM=F Big=F
 Integral buffers will be    131072 words long.
 Regular integral format.
 Two-electron integral symmetry is turned off.
 Leave Link  301 at Sat Nov  5 11:54:27 2022, MaxMem=   402653184 cpu:               0.7 elap:               0.2
 (Enter /home/wykgroup/appl/g16/l302.exe)
 NPDir=0 NMtPBC=     1 NCelOv=     1 NCel=       1 NClECP=     1 NCelD=      1
         NCelK=      1 NCelE2=     1 NClLst=     1 CellRange=     0.0.
 One-electron integrals computed using PRISM.
 NBasis=   398 RedAO= T EigKep=  4.29D-04  NBF=   398
 NBsUse=   398 1.00D-06 EigRej= -1.00D+00 NBFU=   398
 Precomputing XC quadrature grid using
 IXCGrd= 4 IRadAn=           5 IRanWt=          -1 IRanGd=           0 AccXCQ= 0.00D+00.
 Generated NRdTot=       0 NPtTot=           0 NUsed=           0 NTot=          32
 NSgBfM=   392   392   392   392   392 MxSgAt=    43 MxSgA2=    43.
 Leave Link  302 at Sat Nov  5 11:54:29 2022, MaxMem=   402653184 cpu:              17.0 elap:               2.1
 (Enter /home/wykgroup/appl/g16/l303.exe)
 DipDrv:  MaxL=1.
 Leave Link  303 at Sat Nov  5 11:54:30 2022, MaxMem=   402653184 cpu:               0.9 elap:               0.1
 (Enter /home/wykgroup/appl/g16/l308.exe)
 Leave Link  308 at Sat Nov  5 11:54:30 2022, MaxMem=   402653184 cpu:               1.2 elap:               0.2
 (Enter /home/wykgroup/appl/g16/l401.exe)
 ExpMin= 1.61D-01 ExpMax= 5.48D+03 ExpMxC= 8.25D+02 IAcc=3 IRadAn=         5 AccDes= 0.00D+00
 Harris functional with IExCor=  402 and IRadAn=       5 diagonalized for initial guess.
 HarFok:  IExCor=  402 AccDes= 0.00D+00 IRadAn=         5 IDoV= 1 UseB2=F ITyADJ=14
 ICtDFT=  3500011 ScaDFX=  1.000000  1.000000  1.000000  1.000000
 FoFCou: FMM=F IPFlag=           0 FMFlag=      100000 FMFlg1=           0
         NFxFlg=           0 DoJE=T BraDBF=F KetDBF=T FulRan=T
         wScrn=  0.000000 ICntrl=       500 IOpCl=  0 I1Cent=   200000004 NGrid=           0
         NMat0=    1 NMatS0=      1 NMatT0=    0 NMatD0=    1 NMtDS0=    0 NMtDT0=    0
 Symmetry not used in FoFCou.
 Harris En= -1050.16299561518    
 JPrj=0 DoOrth=F DoCkMO=F.
 Leave Link  401 at Sat Nov  5 11:54:33 2022, MaxMem=   402653184 cpu:              26.2 elap:               3.3
 (Enter /home/wykgroup/appl/g16/l502.exe)
 Two-electron integral symmetry not used.
 Closed shell SCF:
 Using DIIS extrapolation, IDIIS=  1040.
 NGot=   402653184 LenX=   402327315 LenY=   402168470
 Requested convergence on RMS density matrix=1.00D-08 within  32 cycles.
 Requested convergence on MAX density matrix=1.00D-06.
 Requested convergence on             energy=1.00D-06.
 No special actions if energy rises.
 Fock matrices will be formed incrementally for  20 cycles.
 Integral accuracy reduced to 1.0D-05 until final iterations.

 Cycle   1  Pass 0  IDiag  1:
 FoFJK:  IHMeth= 1 ICntrl=       0 DoSepK=F KAlg= 0 I1Cent=           0 FoldK=F
 IRaf= 630000000 NMat=       1 IRICut=       1 DoRegI=T DoRafI=F ISym2E= 0 IDoP0=0 IntGTp=1.
 FoFCou: FMM=F IPFlag=           0 FMFlag=      100000 FMFlg1=           0
         NFxFlg=           0 DoJE=F BraDBF=F KetDBF=F FulRan=T
         wScrn=  0.000000 ICntrl=         0 IOpCl=  0 I1Cent=           0 NGrid=           0
         NMat0=    1 NMatS0=      1 NMatT0=    0 NMatD0=    1 NMtDS0=    0 NMtDT0=    0
 Symmetry not used in FoFCou.
 E= -1049.62825183241    
 DIIS: error= 2.50D-02 at cycle   1 NSaved=   1.
 NSaved= 1 IEnMin= 1 EnMin= -1049.62825183241     IErMin= 1 ErrMin= 2.50D-02
 ErrMax= 2.50D-02  0.00D+00 EMaxC= 1.00D-01 BMatC= 5.51D-01 BMatP= 5.51D-01
 IDIUse=3 WtCom= 7.50D-01 WtEn= 2.50D-01
 Coeff-Com:  0.100D+01
 Coeff-En:   0.100D+01
 Coeff:      0.100D+01
 Gap=     0.226 Goal=   None    Shift=    0.000
 GapD=    0.226 DampG=1.000 DampE=0.500 DampFc=0.5000 IDamp=-1.
 Damping current iteration by 5.00D-01
 RMSDP=4.43D-03 MaxDP=1.93D-01              OVMax= 2.52D-01

 Cycle   2  Pass 0  IDiag  1:
 RMSU=  2.19D-03    CP:  9.81D-01
 E= -1049.83465555896     Delta-E=       -0.206403726544 Rises=F Damp=T
 DIIS: error= 1.07D-02 at cycle   2 NSaved=   2.
 NSaved= 2 IEnMin= 2 EnMin= -1049.83465555896     IErMin= 2 ErrMin= 1.07D-02
 ErrMax= 1.07D-02  0.00D+00 EMaxC= 1.00D-01 BMatC= 6.43D-02 BMatP= 5.51D-01
 IDIUse=3 WtCom= 8.93D-01 WtEn= 1.07D-01
 Coeff-Com:  0.138D+00 0.862D+00
 Coeff-En:   0.211D+00 0.789D+00
 Coeff:      0.146D+00 0.854D+00
 Gap=     0.188 Goal=   None    Shift=    0.000
 RMSDP=1.44D-03 MaxDP=7.17D-02 DE=-2.06D-01 OVMax= 2.22D-01

 Cycle   3  Pass 0  IDiag  1:
 RMSU=  1.34D-03    CP:  9.68D-01  7.84D-01
 E= -1050.09878484080     Delta-E=       -0.264129281839 Rises=F Damp=F
 DIIS: error= 1.32D-02 at cycle   3 NSaved=   3.
 NSaved= 3 IEnMin= 3 EnMin= -1050.09878484080     IErMin= 2 ErrMin= 1.07D-02
 ErrMax= 1.32D-02  0.00D+00 EMaxC= 1.00D-01 BMatC= 8.03D-02 BMatP= 6.43D-02
 IDIUse=2 WtCom= 0.00D+00 WtEn= 1.00D+00
 Coeff-En:   0.000D+00 0.000D+00 0.100D+01
 Coeff:      0.000D+00 0.000D+00 0.100D+01
 Gap=     0.149 Goal=   None    Shift=    0.000
 RMSDP=2.24D-03 MaxDP=1.39D-01 DE=-2.64D-01 OVMax= 2.48D-01

 Cycle   4  Pass 0  IDiag  1:
 RMSU=  1.20D-03    CP:  9.76D-01  1.19D+00 -2.41D-01
 E= -1049.80063337955     Delta-E=        0.298151461248 Rises=F Damp=F
 DIIS: error= 3.06D-02 at cycle   4 NSaved=   4.
 NSaved= 4 IEnMin= 3 EnMin= -1050.09878484080     IErMin= 2 ErrMin= 1.07D-02
 ErrMax= 3.06D-02  0.00D+00 EMaxC= 1.00D-01 BMatC= 4.21D-01 BMatP= 6.43D-02
 IDIUse=2 WtCom= 0.00D+00 WtEn= 1.00D+00
 Coeff-En:   0.000D+00 0.000D+00 0.782D+00 0.218D+00
 Coeff:      0.000D+00 0.000D+00 0.782D+00 0.218D+00
 Gap=     0.208 Goal=   None    Shift=    0.000
 RMSDP=1.19D-03 MaxDP=7.49D-02 DE= 2.98D-01 OVMax= 1.12D-01

 Cycle   5  Pass 0  IDiag  1:
 RMSU=  1.82D-04    CP:  9.73D-01  9.21D-01  3.82D-01  5.13D-01
 E= -1050.14613224412     Delta-E=       -0.345498864575 Rises=F Damp=F
 DIIS: error= 7.77D-03 at cycle   5 NSaved=   5.
 NSaved= 5 IEnMin= 5 EnMin= -1050.14613224412     IErMin= 5 ErrMin= 7.77D-03
 ErrMax= 7.77D-03  0.00D+00 EMaxC= 1.00D-01 BMatC= 2.83D-02 BMatP= 6.43D-02
 IDIUse=3 WtCom= 9.22D-01 WtEn= 7.77D-02
 Coeff-Com:  0.282D-03 0.205D-01 0.323D+00-0.480D-01 0.704D+00
 Coeff-En:   0.000D+00 0.000D+00 0.309D+00 0.000D+00 0.691D+00
 Coeff:      0.260D-03 0.189D-01 0.322D+00-0.443D-01 0.703D+00
 Gap=     0.170 Goal=   None    Shift=    0.000
 RMSDP=4.33D-04 MaxDP=2.90D-02 DE=-3.45D-01 OVMax= 4.26D-02

 Cycle   6  Pass 0  IDiag  1:
 RMSU=  9.55D-05    CP:  9.72D-01  8.64D-01  6.16D-01  3.11D-01  6.17D-01
 E= -1050.17131266193     Delta-E=       -0.025180417811 Rises=F Damp=F
 DIIS: error= 1.30D-03 at cycle   6 NSaved=   6.
 NSaved= 6 IEnMin= 6 EnMin= -1050.17131266193     IErMin= 6 ErrMin= 1.30D-03
 ErrMax= 1.30D-03  0.00D+00 EMaxC= 1.00D-01 BMatC= 5.80D-04 BMatP= 2.83D-02
 IDIUse=3 WtCom= 9.87D-01 WtEn= 1.30D-02
 Coeff-Com: -0.447D-02 0.145D-01 0.157D+00-0.666D-01 0.508D+00 0.392D+00
 Coeff-En:   0.000D+00 0.000D+00 0.000D+00 0.000D+00 0.000D+00 0.100D+01
 Coeff:     -0.441D-02 0.143D-01 0.155D+00-0.658D-01 0.501D+00 0.400D+00
 Gap=     0.170 Goal=   None    Shift=    0.000
 RMSDP=6.40D-05 MaxDP=4.43D-03 DE=-2.52D-02 OVMax= 5.78D-03

 Cycle   7  Pass 0  IDiag  1:
 RMSU=  2.20D-05    CP:  9.71D-01  8.67D-01  6.06D-01  3.20D-01  7.73D-01
                    CP:  4.79D-01
 E= -1050.17183003809     Delta-E=       -0.000517376153 Rises=F Damp=F
 DIIS: error= 2.39D-04 at cycle   7 NSaved=   7.
 NSaved= 7 IEnMin= 7 EnMin= -1050.17183003809     IErMin= 7 ErrMin= 2.39D-04
 ErrMax= 2.39D-04  0.00D+00 EMaxC= 1.00D-01 BMatC= 1.76D-05 BMatP= 5.80D-04
 IDIUse=3 WtCom= 9.98D-01 WtEn= 2.39D-03
 Coeff-Com: -0.226D-02 0.635D-02 0.650D-01-0.337D-01 0.229D+00 0.214D+00
 Coeff-Com:  0.522D+00
 Coeff-En:   0.000D+00 0.000D+00 0.000D+00 0.000D+00 0.000D+00 0.000D+00
 Coeff-En:   0.100D+01
 Coeff:     -0.225D-02 0.634D-02 0.648D-01-0.336D-01 0.229D+00 0.214D+00
 Coeff:      0.523D+00
 Gap=     0.170 Goal=   None    Shift=    0.000
 RMSDP=1.34D-05 MaxDP=6.18D-04 DE=-5.17D-04 OVMax= 1.24D-03

 Cycle   8  Pass 0  IDiag  1:
 RMSU=  7.99D-06    CP:  9.72D-01  8.66D-01  6.09D-01  3.20D-01  7.64D-01
                    CP:  5.04D-01  5.73D-01
 E= -1050.17184561652     Delta-E=       -0.000015578427 Rises=F Damp=F
 DIIS: error= 5.36D-05 at cycle   8 NSaved=   8.
 NSaved= 8 IEnMin= 8 EnMin= -1050.17184561652     IErMin= 8 ErrMin= 5.36D-05
 ErrMax= 5.36D-05  0.00D+00 EMaxC= 1.00D-01 BMatC= 2.43D-06 BMatP= 1.76D-05
 IDIUse=1 WtCom= 1.00D+00 WtEn= 0.00D+00
 Coeff-Com: -0.361D-03 0.590D-03 0.161D-01-0.846D-02 0.554D-01 0.609D-01
 Coeff-Com:  0.309D+00 0.567D+00
 Coeff:     -0.361D-03 0.590D-03 0.161D-01-0.846D-02 0.554D-01 0.609D-01
 Coeff:      0.309D+00 0.567D+00
 Gap=     0.170 Goal=   None    Shift=    0.000
 RMSDP=4.72D-06 MaxDP=2.43D-04 DE=-1.56D-05 OVMax= 4.11D-04

 Initial convergence to 1.0D-05 achieved.  Increase integral accuracy.
 Cycle   9  Pass 1  IDiag  1:
 E= -1050.17181958018     Delta-E=        0.000026036333 Rises=F Damp=F
 DIIS: error= 7.87D-05 at cycle   1 NSaved=   1.
 NSaved= 1 IEnMin= 1 EnMin= -1050.17181958018     IErMin= 1 ErrMin= 7.87D-05
 ErrMax= 7.87D-05  0.00D+00 EMaxC= 1.00D-01 BMatC= 7.75D-07 BMatP= 7.75D-07
 IDIUse=1 WtCom= 1.00D+00 WtEn= 0.00D+00
 Coeff-Com:  0.100D+01
 Coeff:      0.100D+01
 Gap=     0.170 Goal=   None    Shift=    0.000
 RMSDP=4.72D-06 MaxDP=2.43D-04 DE= 2.60D-05 OVMax= 3.70D-04

 Cycle  10  Pass 1  IDiag  1:
 RMSU=  2.74D-05    CP:  1.00D+00
 E= -1050.17181948659     Delta-E=        0.000000093590 Rises=F Damp=F
 DIIS: error= 3.64D-05 at cycle   2 NSaved=   2.
 NSaved= 2 IEnMin= 1 EnMin= -1050.17181958018     IErMin= 2 ErrMin= 3.64D-05
 ErrMax= 3.64D-05  0.00D+00 EMaxC= 1.00D-01 BMatC= 8.75D-07 BMatP= 7.75D-07
 IDIUse=1 WtCom= 1.00D+00 WtEn= 0.00D+00
 Coeff-Com:  0.520D+00 0.480D+00
 Coeff:      0.520D+00 0.480D+00
 Gap=     0.170 Goal=   None    Shift=    0.000
 RMSDP=3.61D-06 MaxDP=2.41D-04 DE= 9.36D-08 OVMax= 3.41D-04

 Cycle  11  Pass 1  IDiag  1:
 RMSU=  3.59D-06    CP:  1.00D+00  9.89D-01
 E= -1050.17182016565     Delta-E=       -0.000000679062 Rises=F Damp=F
 DIIS: error= 1.95D-05 at cycle   3 NSaved=   3.
 NSaved= 3 IEnMin= 3 EnMin= -1050.17182016565     IErMin= 3 ErrMin= 1.95D-05
 ErrMax= 1.95D-05  0.00D+00 EMaxC= 1.00D-01 BMatC= 2.00D-07 BMatP= 7.75D-07
 IDIUse=1 WtCom= 1.00D+00 WtEn= 0.00D+00
 Coeff-Com:  0.412D-01 0.320D+00 0.639D+00
 Coeff:      0.412D-01 0.320D+00 0.639D+00
 Gap=     0.170 Goal=   None    Shift=    0.000
 RMSDP=1.36D-06 MaxDP=9.49D-05 DE=-6.79D-07 OVMax= 1.49D-04

 Cycle  12  Pass 1  IDiag  1:
 RMSU=  6.46D-07    CP:  1.00D+00  1.00D+00  6.80D-01
 E= -1050.17182034778     Delta-E=       -0.000000182121 Rises=F Damp=F
 DIIS: error= 5.29D-06 at cycle   4 NSaved=   4.
 NSaved= 4 IEnMin= 4 EnMin= -1050.17182034778     IErMin= 4 ErrMin= 5.29D-06
 ErrMax= 5.29D-06  0.00D+00 EMaxC= 1.00D-01 BMatC= 2.33D-08 BMatP= 2.00D-07
 IDIUse=1 WtCom= 1.00D+00 WtEn= 0.00D+00
 Coeff-Com: -0.247D-02 0.178D+00 0.410D+00 0.415D+00
 Coeff:     -0.247D-02 0.178D+00 0.410D+00 0.415D+00
 Gap=     0.170 Goal=   None    Shift=    0.000
 RMSDP=3.93D-07 MaxDP=2.27D-05 DE=-1.82D-07 OVMax= 3.29D-05

 Cycle  13  Pass 1  IDiag  1:
 RMSU=  1.32D-07    CP:  1.00D+00  1.00D+00  6.94D-01  4.33D-01
 E= -1050.17182036931     Delta-E=       -0.000000021532 Rises=F Damp=F
 DIIS: error= 9.70D-07 at cycle   5 NSaved=   5.
 NSaved= 5 IEnMin= 5 EnMin= -1050.17182036931     IErMin= 5 ErrMin= 9.70D-07
 ErrMax= 9.70D-07  0.00D+00 EMaxC= 1.00D-01 BMatC= 5.60D-10 BMatP= 2.33D-08
 IDIUse=1 WtCom= 1.00D+00 WtEn= 0.00D+00
 Coeff-Com: -0.246D-02 0.104D+00 0.243D+00 0.261D+00 0.395D+00
 Coeff:     -0.246D-02 0.104D+00 0.243D+00 0.261D+00 0.395D+00
 Gap=     0.170 Goal=   None    Shift=    0.000
 RMSDP=7.53D-08 MaxDP=3.81D-06 DE=-2.15D-08 OVMax= 7.98D-06

 Cycle  14  Pass 1  IDiag  1:
 RMSU=  3.99D-08    CP:  1.00D+00  1.00D+00  6.95D-01  4.39D-01  5.16D-01
 E= -1050.17182036988     Delta-E=       -0.000000000573 Rises=F Damp=F
 DIIS: error= 2.33D-07 at cycle   6 NSaved=   6.
 NSaved= 6 IEnMin= 6 EnMin= -1050.17182036988     IErMin= 6 ErrMin= 2.33D-07
 ErrMax= 2.33D-07  0.00D+00 EMaxC= 1.00D-01 BMatC= 2.39D-11 BMatP= 5.60D-10
 IDIUse=1 WtCom= 1.00D+00 WtEn= 0.00D+00
 Coeff-Com: -0.126D-02 0.477D-01 0.112D+00 0.122D+00 0.228D+00 0.491D+00
 Coeff:     -0.126D-02 0.477D-01 0.112D+00 0.122D+00 0.228D+00 0.491D+00
 Gap=     0.170 Goal=   None    Shift=    0.000
 RMSDP=1.40D-08 MaxDP=6.86D-07 DE=-5.73D-10 OVMax= 1.11D-06

 Cycle  15  Pass 1  IDiag  1:
 RMSU=  1.14D-08    CP:  1.00D+00  1.00D+00  6.95D-01  4.36D-01  5.45D-01
                    CP:  8.26D-01
 E= -1050.17182036990     Delta-E=       -0.000000000018 Rises=F Damp=F
 DIIS: error= 2.85D-08 at cycle   7 NSaved=   7.
 NSaved= 7 IEnMin= 7 EnMin= -1050.17182036990     IErMin= 7 ErrMin= 2.85D-08
 ErrMax= 2.85D-08  0.00D+00 EMaxC= 1.00D-01 BMatC= 1.19D-12 BMatP= 2.39D-11
 IDIUse=1 WtCom= 1.00D+00 WtEn= 0.00D+00
 Coeff-Com: -0.348D-03 0.122D-01 0.289D-01 0.319D-01 0.684D-01 0.226D+00
 Coeff-Com:  0.633D+00
 Coeff:     -0.348D-03 0.122D-01 0.289D-01 0.319D-01 0.684D-01 0.226D+00
 Coeff:      0.633D+00
 Gap=     0.170 Goal=   None    Shift=    0.000
 RMSDP=4.15D-09 MaxDP=2.54D-07 DE=-1.82D-11 OVMax= 4.54D-07

 SCF Done:  E(RB3LYP) =  -1050.17182037     A.U. after   15 cycles
            NFock= 15  Conv=0.41D-08     -V/T= 2.0096
 KE= 1.040231968393D+03 PE=-6.103133393925D+03 EE= 2.181218368415D+03
 Leave Link  502 at Sat Nov  5 11:55:25 2022, MaxMem=   402653184 cpu:             501.6 elap:              52.2
 (Enter /home/wykgroup/appl/g16/l508.exe)
 QCSCF skips out because SCF is already converged.
 Leave Link  508 at Sat Nov  5 11:55:26 2022, MaxMem=   402653184 cpu:               0.5 elap:               0.1
 (Enter /home/wykgroup/appl/g16/l801.exe)
 DoSCS=F DFT=T ScalE2(SS,OS)=  1.000000  1.000000
 ExpMin= 1.61D-01 ExpMax= 5.48D+03 ExpMxC= 8.25D+02 IAcc=3 IRadAn=         5 AccDes= 0.00D+00
 HarFok:  IExCor=  205 AccDes= 0.00D+00 IRadAn=         5 IDoV=-2 UseB2=F ITyADJ=14
 ICtDFT= 12500011 ScaDFX=  1.000000  1.000000  1.000000  1.000000
 GSVD:  LWork=        -768 too small for GESVD, short by        3240 words or        3240 for optimal perf.
 Largest valence mixing into a core orbital is  5.78D-05
 Largest core mixing into a valence orbital is  1.45D-05
 Range of M.O.s used for correlation:    25   398
 NBasis=   398 NAE=    85 NBE=    85 NFC=    24 NFV=     0
 NROrb=    374 NOA=    61 NOB=    61 NVA=   313 NVB=   313
 Leave Link  801 at Sat Nov  5 11:55:26 2022, MaxMem=   402653184 cpu:               5.8 elap:               0.5
 (Enter /home/wykgroup/appl/g16/l914.exe)
 RHF ground state
 Two-electron integral symmetry not used.
 MDV=   402653184 DFT=T DoStab=F Mixed=T DoRPA=T DoScal=F NonHer=T
 Making orbital integer symmetry assigments:
    16 initial guesses have been made.
 Convergence on wavefunction:    0.001000000000000
 Davidson Disk Diagonalization:  ConvIn= 1.00D-03 SkipCon=T Conv= 1.00D-03.
 Max sub-space:  2000 roots to seek:    16 dimension of matrix:        38186
 Iteration     1 Dimension    16 NMult     0 NNew     16
 CISAX will form    16 AO SS matrices at one time.
 NMat=    16 NSing=     8 JSym2X= 0.
 FoFJK:  IHMeth= 1 ICntrl=       0 DoSepK=F KAlg= 0 I1Cent=           0 FoldK=F
 IRaf= 630000000 NMat=      32 IRICut=       1 DoRegI=T DoRafI=F ISym2E= 0 IDoP0=0 IntGTp=1.
 FoFCou: FMM=F IPFlag=           0 FMFlag=      100000 FMFlg1=           0
         NFxFlg=           0 DoJE=F BraDBF=F KetDBF=F FulRan=T
         wScrn=  0.000000 ICntrl=         0 IOpCl=  0 I1Cent=           0 NGrid=           0
         NMat0=   32 NMatS0=      8 NMatT0=    8 NMatD0=   32 NMtDS0=    0 NMtDT0=    0
 Symmetry not used in FoFCou.
 New state      1 was old state      6
 New state      2 was old state     12
 New state      3 was old state      2
 New state      4 was old state      1
 New state      5 was old state     14
 New state      6 was old state      4
 New state      7 was old state      3
 New state      8 was old state     10
 Excitation Energies [eV] at current iteration:
 Root      1 :     4.023542442540450
 Root      2 :     4.203909966188243
 Root      3 :     4.302679093455304
 Root      4 :     4.304627134187109
 Root      5 :     4.660532779973769
 Root      6 :     4.855171102211449
 Root      7 :     4.855384547147108
 Root      8 :     4.977643295679234
 Root      9 :     5.106766727756332
 Root     10 :     5.114163027967316
 Root     11 :     5.118569206518758
 Root     12 :     5.636013099463723
 Root     13 :     5.657309319483835
 Root     14 :     5.661651323162507
 Root     15 :     6.018306913506878
 Root     16 :     6.154607853745082
 Vector   3 SDiff=1.85D+01 TDiff=1.85D+01 assumed to be singlet.
 Vector   7 SDiff=1.85D+01 TDiff=1.85D+01 assumed to be singlet.
 Iteration     2 Dimension    24 NMult    16 NNew      8
 CISAX will form     8 AO SS matrices at one time.
 NMat=     8 NSing=     4 JSym2X= 0.
 Root      1 not converged, maximum delta is    0.218997571284091
 Root      2 not converged, maximum delta is    0.041573572635191
 New state      3 was old state      4
 Root      3 not converged, maximum delta is    0.017346330154971
 New state      4 was old state      7
 Root      4 not converged, maximum delta is    0.006307601182188
 Excitation Energies [eV] at current iteration:
 Root      1 :     3.617304014066115   Change is   -0.406238428474336
 Root      2 :     4.102390496405451   Change is   -0.101519469782792
 Root      3 :     4.302180868682250   Change is   -0.002446265504858
 Root      4 :     4.855108176248502   Change is   -0.000276370898605
 Iteration     3 Dimension    32 NMult    24 NNew      8
 CISAX will form     8 AO SS matrices at one time.
 NMat=     8 NSing=     4 JSym2X= 0.
 Root      1 not converged, maximum delta is    0.145921368080057
 Root      2 not converged, maximum delta is    0.023223072155149
 Root      3 has converged.
 Root      4 not converged, maximum delta is    0.002215600175368
 Excitation Energies [eV] at current iteration:
 Root      1 :     3.497493069179556   Change is   -0.119810944886559
 Root      2 :     4.093754865374151   Change is   -0.008635631031300
 Root      3 :     4.302089175809668   Change is   -0.000091692872583
 Root      4 :     4.855045190928491   Change is   -0.000062985320011
 Iteration     4 Dimension    38 NMult    32 NNew      6
 CISAX will form     6 AO SS matrices at one time.
 NMat=     6 NSing=     2 JSym2X= 0.
 Root      1 not converged, maximum delta is    0.016750359534446
 Root      2 not converged, maximum delta is    0.463029677100191
 Root      3 has converged.
 Root      4 has converged.
 Excitation Energies [eV] at current iteration:
 Root      1 :     3.486983014265642   Change is   -0.010510054913914
 Root      2 :     3.979377796573580   Change is   -0.114377068800571
 Root      3 :     4.302080667783785   Change is   -0.000008508025882
 Root      4 :     4.855041872146131   Change is   -0.000003318782361
 Iteration     5 Dimension    42 NMult    38 NNew      4
 CISAX will form     4 AO SS matrices at one time.
 NMat=     4 NSing=     0 JSym2X= 0.
 Root      1 not converged, maximum delta is    0.010523005048007
 Root      2 not converged, maximum delta is    0.116051532093347
 Root      3 has converged.
 Root      4 has converged.
 Excitation Energies [eV] at current iteration:
 Root      1 :     3.485421657444941   Change is   -0.001561356820701
 Root      2 :     3.709535619671368   Change is   -0.269842176902212
 Root      3 :     4.302080667783861   Change is    0.000000000000076
 Root      4 :     4.855041872146147   Change is    0.000000000000017
 Iteration     6 Dimension    46 NMult    42 NNew      4
 CISAX will form     4 AO SS matrices at one time.
 NMat=     4 NSing=     0 JSym2X= 0.
 Root      1 not converged, maximum delta is    0.008171331071027
 Root      2 not converged, maximum delta is    0.033736832154515
 Root      3 has converged.
 Root      4 has converged.
 Excitation Energies [eV] at current iteration:
 Root      1 :     3.485048337314753   Change is   -0.000373320130188
 Root      2 :     3.690548141080811   Change is   -0.018987478590557
 Root      3 :     4.302080667783880   Change is    0.000000000000019
 Root      4 :     4.855041872146081   Change is   -0.000000000000067
 Iteration     7 Dimension    50 NMult    46 NNew      4
 CISAX will form     4 AO SS matrices at one time.
 NMat=     4 NSing=     0 JSym2X= 0.
 Root      1 not converged, maximum delta is    0.002234292737207
 Root      2 not converged, maximum delta is    0.013306575343934
 Root      3 has converged.
 Root      4 has converged.
 Excitation Energies [eV] at current iteration:
 Root      1 :     3.484973661826943   Change is   -0.000074675487810
 Root      2 :     3.687198735209992   Change is   -0.003349405870818
 Root      3 :     4.302080667783900   Change is    0.000000000000020
 Root      4 :     4.855041872146097   Change is    0.000000000000017
 Iteration     8 Dimension    54 NMult    50 NNew      4
 CISAX will form     4 AO SS matrices at one time.
 NMat=     4 NSing=     0 JSym2X= 0.
 Root      1 has converged.
 Root      2 not converged, maximum delta is    0.001790876302835
 Root      3 has converged.
 Root      4 has converged.
 Excitation Energies [eV] at current iteration:
 Root      1 :     3.484963223347989   Change is   -0.000010438478955
 Root      2 :     3.686936547297948   Change is   -0.000262187912045
 Root      3 :     4.302080667783804   Change is   -0.000000000000096
 Root      4 :     4.855041872146147   Change is    0.000000000000051
 Iteration     9 Dimension    56 NMult    54 NNew      2
 CISAX will form     2 AO SS matrices at one time.
 NMat=     2 NSing=     0 JSym2X= 0.
 Root      1 has converged.
 Root      2 has converged.
 Root      3 has converged.
 Root      4 has converged.
 Excitation Energies [eV] at current iteration:
 Root      1 :     3.484963222592614   Change is   -0.000000000755374
 Root      2 :     3.686913269879559   Change is   -0.000023277418388
 Root      3 :     4.302080667783900   Change is    0.000000000000096
 Root      4 :     4.855041872146147   Change is    0.000000000000000
 Convergence achieved on expansion vectors.
 ***********************************************************************
 Excited states from <AA,BB:AA,BB> singles matrix:
 ***********************************************************************
 
 1PDM for each excited state written to RWF  633
 Ground to excited state transition densities written to RWF  633
 Ground to excited state transition electric dipole moments (Au):
       state          X           Y           Z        Dip. S.      Osc.
         1         0.0000      0.0000      0.0000      0.0000      0.0000
         2        -0.0000      0.0000      0.0000      0.0000      0.0000
         3         0.0257     -0.0018      0.0206      0.0011      0.0001
         4         0.0042      0.0013      0.0045      0.0000      0.0000
 Ground to excited state transition velocity dipole moments (Au):
       state          X           Y           Z        Dip. S.      Osc.
         1        -0.0000     -0.0000     -0.0000      0.0000      0.0000
         2        -0.0000     -0.0000     -0.0000      0.0000      0.0000
         3        -0.0038     -0.0005     -0.0026      0.0000      0.0001
         4        -0.0007     -0.0003     -0.0007      0.0000      0.0000
 Ground to excited state transition magnetic dipole moments (Au):
       state          X           Y           Z
         1        -0.0000     -0.0000      0.0000
         2        -0.0000     -0.0000     -0.0000
         3        -0.0445     -0.0286      0.0573
         4        -0.0130     -0.0059      0.0199
 Ground to excited state transition velocity quadrupole moments (Au):
       state          XX          YY          ZZ          XY          XZ          YZ
         1         0.0000     -0.0000     -0.0000      0.0000      0.0000      0.0000
         2         0.0000      0.0000      0.0000     -0.0000      0.0000      0.0000
         3         0.0316     -0.0055      0.0073      0.0035      0.0282      0.0039
         4         0.0026     -0.0027      0.0018      0.0048      0.0079      0.0012
 <0|del|b> * <b|rxdel|0> + <0|del|b> * <b|delr+rdel|0>
 Rotatory Strengths (R) in cgs (10**-40 erg-esu-cm/Gauss)
       state          XX          YY          ZZ    R(velocity)    E-M Angle
         1        -0.0000      0.0000      0.0000     -0.0000       90.00
         2         0.0000     -0.0000      0.0000      0.0000       90.00
         3        -0.2810      0.0405      0.4162      0.0586       90.00
         4        -0.0225     -0.0021      0.0196     -0.0017       90.00
 1/2[<0|r|b>*<b|rxdel|0> + (<0|rxdel|b>*<b|r|0>)*]
 Rotatory Strengths (R) in cgs (10**-40 erg-esu-cm/Gauss)
       state          XX          YY          ZZ     R(length)
         1         0.0000      0.0000     -0.0000      0.0000
         2        -0.0000      0.0000      0.0000      0.0000
         3         0.8079     -0.0363     -0.8363     -0.0216
         4         0.0382      0.0053     -0.0625     -0.0063
  1/2[<0|del|b>*<b|r|0> + (<0|r|b>*<b|del|0>)*] (Au)
       state          X           Y           Z        Dip. S.   Osc.(frdel)
         1        -0.0000     -0.0000     -0.0000      0.0000      0.0000
         2         0.0000     -0.0000     -0.0000      0.0000      0.0000
         3        -0.0001      0.0000     -0.0001      0.0002      0.0001
         4        -0.0000     -0.0000     -0.0000      0.0000      0.0000

 Excitation energies and oscillator strengths:
 
 Excited state symmetry could not be determined.
 Excited State   1:      Triplet-?Sym    3.4850 eV  355.77 nm  f=0.0000  <S**2>=2.000
      81 -> 87         0.30317
      82 -> 86         0.13351
      83 -> 86         0.35259
      84 -> 86         0.46284
 This state for optimization and/or second-order correction.
 Total Energy, E(TD-HF/TD-DFT) =  -1050.04375033    
 Copying the excited state density for this state as the 1-particle RhoCI density.
 
 Excited state symmetry could not be determined.
 Excited State   2:      Triplet-?Sym    3.6869 eV  336.28 nm  f=0.0000  <S**2>=2.000
      83 -> 88        -0.21318
      83 -> 89        -0.28491
      84 -> 88         0.16302
      84 -> 89         0.21700
      85 -> 89         0.13389
      85 -> 90        -0.49720
      85 -> 91        -0.11486
 
 Excited state symmetry could not be determined.
 Excited State   3:      Singlet-?Sym    4.3021 eV  288.20 nm  f=0.0001  <S**2>=0.000
      85 -> 86         0.70549
 
 Excited state symmetry could not be determined.
 Excited State   4:      Singlet-?Sym    4.8550 eV  255.37 nm  f=0.0000  <S**2>=0.000
      85 -> 87         0.70676
 SavETr:  write IOETrn=   770 NScale= 10 NData=  16 NLR=1 NState=    4 LETran=      82.
 Leave Link  914 at Sat Nov  5 12:00:00 2022, MaxMem=   402653184 cpu:            2887.3 elap:             274.3
 (Enter /home/wykgroup/appl/g16/l601.exe)
 Copying SCF densities to generalized density rwf, IOpCl= 0 IROHF=0.

 **********************************************************************

            Population analysis using the SCF Density.

 **********************************************************************

 Alpha  occ. eigenvalues --  -19.13599 -19.13362 -14.42922 -14.37816 -14.35864
 Alpha  occ. eigenvalues --  -10.30418 -10.24775 -10.24170 -10.23582 -10.22790
 Alpha  occ. eigenvalues --  -10.21570 -10.20859 -10.20733 -10.20483 -10.20289
 Alpha  occ. eigenvalues --  -10.20248 -10.19988 -10.19980 -10.19322 -10.18010
 Alpha  occ. eigenvalues --  -10.17737 -10.17542 -10.16989 -10.16658  -1.06111
 Alpha  occ. eigenvalues --   -1.05027  -1.02040  -0.93841  -0.88453  -0.83654
 Alpha  occ. eigenvalues --   -0.83522  -0.81240  -0.79342  -0.76011  -0.75364
 Alpha  occ. eigenvalues --   -0.73376  -0.71890  -0.70697  -0.65216  -0.63850
 Alpha  occ. eigenvalues --   -0.62657  -0.60133  -0.59034  -0.58484  -0.58078
 Alpha  occ. eigenvalues --   -0.57873  -0.55658  -0.51777  -0.51441  -0.50314
 Alpha  occ. eigenvalues --   -0.48841  -0.48661  -0.47498  -0.47108  -0.46656
 Alpha  occ. eigenvalues --   -0.45449  -0.45048  -0.44078  -0.43651  -0.43291
 Alpha  occ. eigenvalues --   -0.42796  -0.42149  -0.41528  -0.40478  -0.39427
 Alpha  occ. eigenvalues --   -0.39004  -0.38089  -0.37647  -0.37199  -0.36866
 Alpha  occ. eigenvalues --   -0.36521  -0.35928  -0.34803  -0.33430  -0.32037
 Alpha  occ. eigenvalues --   -0.30111  -0.29844  -0.29721  -0.27476  -0.27197
 Alpha  occ. eigenvalues --   -0.26388  -0.25743  -0.23235  -0.23030  -0.20195
 Alpha virt. eigenvalues --   -0.03176  -0.01379   0.00647   0.01218   0.02863
 Alpha virt. eigenvalues --    0.03083   0.04606   0.07338   0.07945   0.10092
 Alpha virt. eigenvalues --    0.10425   0.11219   0.11833   0.13624   0.14260
 Alpha virt. eigenvalues --    0.14431   0.14681   0.15178   0.15276   0.16246
 Alpha virt. eigenvalues --    0.16641   0.17262   0.17601   0.18055   0.18292
[...]
    20  C    0.527995   4.848818   0.550734  -0.023113  -0.041822  -0.000073
    21  C   -0.039560   0.550734   4.854107   0.543335  -0.037097   0.000017
    22  C   -0.043099  -0.023113   0.543335   4.870971   0.516905  -0.000070
    23  C   -0.072750  -0.041822  -0.037097   0.516905   4.993034   0.008356
    24  C   -0.006492  -0.000073   0.000017  -0.000070   0.008356   5.063157
    25  H   -0.000000  -0.000000   0.000000   0.000000   0.000000  -0.000000
    26  H    0.000000   0.000000  -0.000000  -0.000000   0.000000   0.000001
    27  H    0.000000   0.000000  -0.000000  -0.000000   0.000000   0.000000
    28  H    0.000000   0.000000   0.000000   0.000000  -0.000000   0.000000
    29  H   -0.000000  -0.000000  -0.000000  -0.000000  -0.000000  -0.000000
    30  H    0.000000   0.000000   0.000000  -0.000000   0.000000  -0.000000
    31  H   -0.000000   0.000000   0.000000   0.000000   0.000000   0.000000
    32  H    0.000000   0.000000   0.000000  -0.000000  -0.000000  -0.000000
    33  H    0.000000   0.000000   0.000000  -0.000000  -0.000000  -0.000000
    34  H    0.000000   0.000000  -0.000000  -0.000000   0.000000   0.001392
    35  H   -0.000001  -0.000000   0.000000   0.000000   0.000000  -0.005135
    36  H   -0.000000   0.000000   0.000000  -0.000000  -0.000000   0.001521
    37  H    0.000004  -0.000000  -0.000000  -0.000000  -0.000005   0.005926
    38  H    0.346846  -0.039588   0.004580   0.000280   0.005900   0.005801
    39  H   -0.039410   0.358427  -0.040874   0.004594   0.000809  -0.000001
    40  H    0.004988  -0.042652   0.361524  -0.042595   0.004584  -0.000000
    41  H    0.000813   0.004648  -0.042074   0.359661  -0.038867   0.000001
    42  H    0.005999   0.000137   0.004425  -0.041883   0.352628   0.000448
    43  H    0.002937   0.000178  -0.000002  -0.000003  -0.000138   0.354604
              25         26         27         28         29         30
     1  O   -0.000158   0.002424   0.005923   0.000328  -0.000001   0.000000
     2  C   -0.025798  -0.030200  -0.006657   0.004723   0.000074   0.000000
     3  C    0.345050   0.346538  -0.043567  -0.035874   0.000630   0.000000
     4  C   -0.025044  -0.034084   0.356894   0.357403  -0.009974  -0.000179
     5  C    0.003910  -0.003073  -0.032844  -0.033094  -0.046150   0.003878
     6  C    0.000003   0.003567   0.004479  -0.004411   0.350597  -0.040281
     7  C    0.000003  -0.000117  -0.000159   0.000193  -0.044347   0.356961
     8  C   -0.000000  -0.000003  -0.000002   0.000019   0.005074  -0.042800
     9  C    0.000004  -0.000008   0.000184  -0.000198   0.000428   0.004280
    10  C    0.000002   0.000123  -0.006924   0.003089   0.004369   0.000851
    11  O   -0.000019  -0.000012   0.009816   0.000296  -0.000059   0.000002
    12  N   -0.001405   0.002901   0.000259  -0.000082   0.000000  -0.000000
    13  C   -0.000244  -0.000021   0.000001   0.000001  -0.000000   0.000000
    14  C   -0.000015   0.000003   0.000000  -0.000000   0.000000   0.000000
    15  C    0.000001  -0.000000  -0.000000  -0.000000  -0.000000   0.000000
    16  N    0.000000   0.000000   0.000000   0.000000  -0.000000  -0.000000
    17  N    0.000000  -0.000000  -0.000000  -0.000000   0.000000  -0.000000
    18  C   -0.000000   0.000000   0.000000   0.000000   0.000000  -0.000000
    19  C   -0.000000   0.000000   0.000000   0.000000  -0.000000   0.000000
    20  C   -0.000000   0.000000   0.000000   0.000000  -0.000000   0.000000
    21  C    0.000000  -0.000000  -0.000000   0.000000  -0.000000   0.000000
    22  C    0.000000  -0.000000  -0.000000   0.000000  -0.000000  -0.000000
    23  C    0.000000   0.000000   0.000000  -0.000000  -0.000000   0.000000
    24  C   -0.000000   0.000001   0.000000   0.000000  -0.000000  -0.000000
    25  H    0.567009  -0.030249  -0.001178  -0.003694  -0.000100  -0.000000
    26  H   -0.030249   0.579795   0.005395  -0.001614   0.001230   0.000003
    27  H   -0.001178   0.005395   0.569172  -0.028246   0.000029   0.000003
    28  H   -0.003694  -0.001614  -0.028246   0.586279   0.004773  -0.000011
    29  H   -0.000100   0.001230   0.000029   0.004773   0.627801  -0.005672
    30  H   -0.000000   0.000003   0.000003  -0.000011  -0.005672   0.610657
    31  H    0.000000  -0.000000  -0.000000  -0.000000  -0.000214  -0.005402
    32  H   -0.000000   0.000000  -0.000009   0.000003   0.000019  -0.000170
    33  H    0.000055  -0.000010   0.002001  -0.000022  -0.000004  -0.000000
    34  H    0.000196   0.003077   0.000006  -0.000011  -0.000001   0.000000
    35  H    0.000060  -0.000008  -0.000000  -0.000000  -0.000000  -0.000000
    36  H   -0.000027  -0.000052  -0.000006   0.000000  -0.000000   0.000000
    37  H    0.000000   0.000004   0.000000   0.000000   0.000000  -0.000000
    38  H   -0.000000   0.000000  -0.000000   0.000000  -0.000000   0.000000
    39  H   -0.000000   0.000000   0.000000   0.000000   0.000000   0.000000
    40  H    0.000000  -0.000000   0.000000   0.000000   0.000000   0.000000
    41  H   -0.000000  -0.000000  -0.000000  -0.000000   0.000000   0.000000
    42  H    0.000000   0.000000  -0.000000   0.000000  -0.000000  -0.000000
    43  H   -0.000000   0.000000   0.000000  -0.000000   0.000000  -0.000000
              31         32         33         34         35         36
     1  O   -0.000000   0.000001   0.063349   0.002990   0.000988   0.016176
     2  C   -0.000000   0.000003  -0.004231  -0.022101  -0.000219  -0.002136
     3  C    0.000000   0.000001  -0.002848   0.000341  -0.000224   0.000928
     4  C    0.000007  -0.000173   0.005332   0.000092  -0.000003   0.000009
     5  C    0.000617   0.006772  -0.007595  -0.000025   0.000000  -0.000003
     6  C    0.005008   0.000388  -0.000021  -0.000002   0.000000  -0.000000
     7  C   -0.044345   0.004781  -0.000006   0.000000  -0.000000   0.000000
     8  C    0.356706  -0.045293  -0.000150  -0.000000   0.000000  -0.000000
     9  C   -0.040824   0.342141   0.004244   0.000000  -0.000000  -0.000000
    10  C    0.004261  -0.031911  -0.019133   0.000001  -0.000000   0.000004
    11  O   -0.000065  -0.000104   0.208673   0.000001   0.000000  -0.000000
    12  N    0.000000  -0.000000   0.000906   0.299869  -0.043273  -0.048516
    13  C   -0.000000   0.000000  -0.000000  -0.032376   0.366949   0.374041
    14  C   -0.000000  -0.000000  -0.000002   0.005481  -0.034218  -0.024386
    15  C   -0.000000  -0.000000  -0.000000   0.001392   0.005055  -0.004171
    16  N    0.000000  -0.000000   0.000000  -0.000102  -0.000111  -0.000037
    17  N    0.000000   0.000000   0.000000  -0.000096  -0.000088  -0.000042
    18  C    0.000000  -0.000000  -0.000000   0.000001   0.000005   0.000002
    19  C   -0.000000   0.000000   0.000000   0.000000  -0.000001  -0.000000
    20  C    0.000000   0.000000   0.000000   0.000000  -0.000000   0.000000
    21  C    0.000000   0.000000   0.000000  -0.000000   0.000000   0.000000
    22  C    0.000000  -0.000000  -0.000000  -0.000000   0.000000  -0.000000
    23  C    0.000000  -0.000000  -0.000000   0.000000   0.000000  -0.000000
    24  C    0.000000  -0.000000  -0.000000   0.001392  -0.005135   0.001521
    25  H    0.000000  -0.000000   0.000055   0.000196   0.000060  -0.000027
    26  H   -0.000000   0.000000  -0.000010   0.003077  -0.000008  -0.000052
    27  H   -0.000000  -0.000009   0.002001   0.000006  -0.000000  -0.000006
    28  H   -0.000000   0.000003  -0.000022  -0.000011  -0.000000   0.000000
    29  H   -0.000214   0.000019  -0.000004  -0.000001  -0.000000  -0.000000
    30  H   -0.005402  -0.000170  -0.000000   0.000000  -0.000000   0.000000
    31  H    0.607270  -0.006361   0.000004   0.000000   0.000000  -0.000000
    32  H   -0.006361   0.597376  -0.000134   0.000000  -0.000000   0.000000
    33  H    0.000004  -0.000134   0.298049  -0.000035  -0.000003  -0.000022
    34  H    0.000000   0.000000  -0.000035   0.402306   0.000288   0.004746
    35  H    0.000000  -0.000000  -0.000003   0.000288   0.583660  -0.035597
    36  H   -0.000000   0.000000  -0.000022   0.004746  -0.035597   0.509379
    37  H    0.000000   0.000000  -0.000001   0.000137  -0.000036   0.000831
    38  H   -0.000000   0.000000   0.000000  -0.000000   0.000001  -0.000000
    39  H    0.000000   0.000000  -0.000000  -0.000000   0.000000  -0.000000
    40  H    0.000000   0.000000   0.000000   0.000000   0.000000  -0.000000
    41  H   -0.000000   0.000000   0.000000   0.000000  -0.000000  -0.000000
    42  H    0.000000  -0.000000  -0.000000  -0.000000   0.000000  -0.000000
    43  H    0.000000  -0.000000  -0.000000   0.000021   0.003397  -0.000058
              37         38         39         40         41         42
     1  O   -0.000011   0.000000   0.000000   0.000000   0.000000  -0.000000
     2  C    0.000098  -0.000000   0.000000  -0.000000   0.000000  -0.000000
     3  C    0.000016   0.000000   0.000000   0.000000  -0.000000  -0.000000
     4  C   -0.000001  -0.000000  -0.000000   0.000000   0.000000  -0.000000
     5  C    0.000005  -0.000000  -0.000000   0.000000  -0.000000  -0.000000
     6  C    0.000001   0.000000   0.000000   0.000000  -0.000000   0.000000
     7  C   -0.000000   0.000000   0.000000   0.000000  -0.000000   0.000000
     8  C   -0.000000  -0.000000   0.000000   0.000000   0.000000  -0.000000
     9  C    0.000002  -0.000000   0.000000   0.000000   0.000000  -0.000000
    10  C    0.000006  -0.000000  -0.000000   0.000000  -0.000000   0.000000
    11  O   -0.000000  -0.000000   0.000000   0.000000   0.000000   0.000000
    12  N    0.001368   0.000000  -0.000000   0.000000  -0.000000   0.000000
    13  C   -0.002084  -0.000003   0.000000  -0.000000   0.000000  -0.000001
    14  C   -0.046524   0.000053   0.000000  -0.000000  -0.000000  -0.000013
    15  C    0.377455  -0.000016  -0.000000   0.000000   0.000000  -0.000308
    16  N   -0.047400  -0.000106   0.000001   0.000000  -0.000009   0.018805
    17  N    0.005643  -0.009319  -0.000113   0.000004  -0.000109  -0.013581
    18  C   -0.000156  -0.040458   0.003486   0.000549   0.003487  -0.034493
    19  C    0.000004   0.346846  -0.039410   0.004988   0.000813   0.005999
    20  C   -0.000000  -0.039588   0.358427  -0.042652   0.004648   0.000137
    21  C   -0.000000   0.004580  -0.040874   0.361524  -0.042074   0.004425
    22  C   -0.000000   0.000280   0.004594  -0.042595   0.359661  -0.041883
    23  C   -0.000005   0.005900   0.000809   0.004584  -0.038867   0.352628
    24  C    0.005926   0.005801  -0.000001  -0.000000   0.000001   0.000448
    25  H    0.000000  -0.000000  -0.000000   0.000000  -0.000000   0.000000
    26  H    0.000004   0.000000   0.000000  -0.000000  -0.000000   0.000000
    27  H    0.000000  -0.000000   0.000000   0.000000  -0.000000  -0.000000
    28  H    0.000000   0.000000   0.000000   0.000000  -0.000000   0.000000
    29  H    0.000000  -0.000000   0.000000   0.000000   0.000000  -0.000000
    30  H   -0.000000   0.000000   0.000000   0.000000   0.000000  -0.000000
    31  H    0.000000  -0.000000   0.000000   0.000000  -0.000000   0.000000
    32  H    0.000000   0.000000   0.000000   0.000000   0.000000  -0.000000
    33  H   -0.000001   0.000000  -0.000000   0.000000   0.000000  -0.000000
    34  H    0.000137  -0.000000  -0.000000   0.000000   0.000000  -0.000000
    35  H   -0.000036   0.000001   0.000000   0.000000  -0.000000   0.000000
    36  H    0.000831  -0.000000  -0.000000  -0.000000  -0.000000  -0.000000
    37  H    0.543158  -0.000000   0.000000  -0.000000   0.000000  -0.000012
    38  H   -0.000000   0.591551  -0.005766  -0.000165   0.000015  -0.000144
    39  H    0.000000  -0.005766   0.586677  -0.005380  -0.000186   0.000013
    40  H   -0.000000  -0.000165  -0.005380   0.589244  -0.005402  -0.000139
    41  H    0.000000   0.000015  -0.000186  -0.005402   0.583131  -0.005192
    42  H   -0.000012  -0.000144   0.000013  -0.000139  -0.005192   0.541619
    43  H   -0.000112   0.002030  -0.000001  -0.000000   0.000000  -0.000012
              43
     1  O    0.000000
     2  C    0.000002
     3  C   -0.000000
     4  C   -0.000000
     5  C    0.000000
     6  C    0.000000
     7  C   -0.000000
     8  C    0.000000
     9  C    0.000000
    10  C    0.000000
    11  O    0.000000
    12  N   -0.000002
    13  C   -0.002077
    14  C   -0.030085
    15  C    0.004827
    16  N    0.003857
    17  N   -0.040105
    18  C   -0.002454
    19  C    0.002937
    20  C    0.000178
    21  C   -0.000002
    22  C   -0.000003
    23  C   -0.000138
    24  C    0.354604
    25  H   -0.000000
    26  H    0.000000
    27  H    0.000000
    28  H   -0.000000
    29  H    0.000000
    30  H   -0.000000
    31  H    0.000000
    32  H   -0.000000
    33  H   -0.000000
    34  H    0.000021
    35  H    0.003397
    36  H   -0.000058
    37  H   -0.000112
    38  H    0.002030
    39  H   -0.000001
    40  H   -0.000000
    41  H    0.000000
    42  H   -0.000012
    43  H    0.534518
 Mulliken charges:
               1
     1  O   -0.550178
     2  C    0.634998
     3  C   -0.361629
     4  C   -0.367466
     5  C    0.133432
     6  C   -0.199598
     7  C   -0.132444
     8  C   -0.138223
     9  C   -0.158077
    10  C    0.273728
    11  O   -0.685845
    12  N   -0.590709
    13  C   -0.202056
    14  C   -0.009139
    15  C    0.030206
    16  N   -0.286791
    17  N   -0.375833
    18  C    0.333179
    19  C   -0.167234
    20  C   -0.141890
    21  C   -0.121690
    22  C   -0.139984
    23  C   -0.149898
    24  C    0.042383
    25  H    0.171639
    26  H    0.154390
    27  H    0.165431
    28  H    0.150150
    29  H    0.111496
    30  H    0.117880
    31  H    0.123338
    32  H    0.132670
    33  H    0.451606
    34  H    0.332414
    35  H    0.158510
    36  H    0.207416
    37  H    0.161689
    38  H    0.138506
    39  H    0.137722
    40  H    0.135440
    41  H    0.140081
    42  H    0.171702
    43  H    0.168678
 Sum of Mulliken charges =  -0.00000
 Mulliken charges with hydrogens summed into heavy atoms:
               1
     1  O   -0.550178
     2  C    0.634998
     3  C   -0.035600
     4  C   -0.051885
     5  C    0.133432
     6  C   -0.088102
     7  C   -0.014564
     8  C   -0.014885
     9  C   -0.025408
    10  C    0.273728
    11  O   -0.234239
    12  N   -0.258295
    13  C    0.163870
    14  C   -0.009139
    15  C    0.191896
    16  N   -0.286791
    17  N   -0.375833
    18  C    0.333179
    19  C   -0.028728
    20  C   -0.004169
    21  C    0.013750
    22  C    0.000097
    23  C    0.021803
    24  C    0.211062
 Electronic spatial extent (au):  <R**2>=          13770.9435
 Charge=             -0.0000 electrons
 Dipole moment (field-independent basis, Debye):
    X=              4.9363    Y=             -4.6784    Z=              1.3284  Tot=              6.9296
 Quadrupole moment (field-independent basis, Debye-Ang):
   XX=           -136.2194   YY=           -142.5736   ZZ=           -132.8022
   XY=              9.5016   XZ=              7.3679   YZ=             -4.8874
 Traceless Quadrupole moment (field-independent basis, Debye-Ang):
   XX=              0.9790   YY=             -5.3752   ZZ=              4.3962
   XY=              9.5016   XZ=              7.3679   YZ=             -4.8874
 Octapole moment (field-independent basis, Debye-Ang**2):
  XXX=            234.1967  YYY=           -103.2617  ZZZ=             -1.6965  XYY=            -14.2400
  XXY=           -114.4099  XXZ=             -7.1505  XZZ=             10.4661  YZZ=            -46.8579
  YYZ=             -5.2364  XYZ=             38.7762
 Hexadecapole moment (field-independent basis, Debye-Ang**3):
 XXXX=         -15110.6115 YYYY=           -999.5842 ZZZZ=          -1970.5809 XXXY=            798.5612
 XXXZ=            420.6640 YYYX=            844.2982 YYYZ=            -62.8017 ZZZX=            483.2385
 ZZZY=            -27.5588 XXYY=          -2948.7629 XXZZ=          -2739.4917 YYZZ=           -499.4144
 XXYZ=             -6.4002 YYXZ=            219.5829 ZZXY=            228.9930
 N-N= 1.831511236748D+03 E-N=-6.103133401093D+03  KE= 1.040231968393D+03
 Leave Link  601 at Sat Nov  5 12:00:01 2022, MaxMem=   402653184 cpu:               1.5 elap:               0.2
 (Enter /home/wykgroup/appl/g16/l9999.exe)
 Electronic transition elements 
                 1             2             3             4 
      1  -0.105004D+04 -0.105004D+04 -0.105001D+04 -0.104999D+04
      2   0.000000D+00  0.000000D+00  0.256563D-01  0.415514D-02
      3   0.000000D+00  0.000000D+00 -0.179430D-02  0.127126D-02
      4   0.000000D+00  0.000000D+00  0.206366D-01  0.445017D-02
      5   0.000000D+00  0.000000D+00 -0.383785D-02 -0.742395D-03
      6   0.000000D+00  0.000000D+00 -0.526086D-03 -0.337274D-03
      7   0.000000D+00  0.000000D+00 -0.255960D-02 -0.650889D-03
      8   0.000000D+00  0.000000D+00 -0.445302D-01 -0.130106D-01
      9   0.000000D+00  0.000000D+00 -0.286271D-01 -0.593598D-02
     10   0.000000D+00  0.000000D+00  0.573031D-01  0.198736D-01
     11   0.000000D+00  0.000000D+00  0.315659D-01  0.259718D-02
     12   0.000000D+00  0.000000D+00 -0.550242D-02 -0.271100D-02
     13   0.000000D+00  0.000000D+00  0.727139D-02  0.184155D-02
     14   0.000000D+00  0.000000D+00  0.347200D-02  0.477180D-02
     15   0.000000D+00  0.000000D+00  0.282076D-01  0.789941D-02
     16   0.000000D+00  0.000000D+00  0.390468D-02  0.120992D-02
 1\1\GINC-NODE42\SP\RB3LYP TD-FC\6-31G(d)\C19H19N3O2\WYKGROUP\05-Nov-20
 22\0\\#p b3lyp/6-31g(d) 6D 10F nosymm GFInput td=(50-50,nstate=2) SCF=
 XQC\\Gaussian input prepared by ASE\\0,1\O,0,-2.2562542437,1.130282746
 ,2.3581266039\C,0,-1.9411644416,0.0163195995,1.9233953813\C,0,-2.96458
 47624,-1.084400833,1.6624345871\C,0,-4.3899347417,-0.5548314143,1.4177
 950072\C,0,-4.592405102,0.1651761949,0.0982899404\C,0,-4.8708772743,-0
 .5701891986,-1.0625367641\C,0,-5.1246510936,0.0468221394,-2.2856062519
 \C,0,-5.1126196721,1.4424426427,-2.3576884628\C,0,-4.8304295416,2.1973
 971952,-1.2241039056\C,0,-4.5567570977,1.5734401254,0.0021912164\O,0,-
 4.3090833808,2.3844419743,1.0659801983\N,0,-0.6475215231,-0.3194864759
 ,1.6945638285\C,0,0.4708807225,0.6011390738,1.9090755004\C,0,1.5025918
 617,0.4810392335,0.8281601922\C,0,1.357304476,0.7179822718,-0.56415534
 11\N,0,2.4853580424,0.5050889138,-1.2290749494\N,0,3.3856628428,0.1311
 479402,-0.2812484331\C,0,4.7207207344,-0.1863764554,-0.6496372073\C,0,
 5.7476182818,-0.1341880387,0.2990682685\C,0,7.0486163849,-0.4696162346
 ,-0.0745484368\C,0,7.3346222322,-0.8390354221,-1.3892970265\C,0,6.3055
 910669,-0.8710521827,-2.3332016985\C,0,4.9989611398,-0.5514120166,-1.9
 71319296\C,0,2.823070058,0.0997353471,0.9627376908\H,0,-2.9669628359,-
 1.7325091048,2.5512187534\H,0,-2.6396700068,-1.707717982,0.8200152971\
 H,0,-4.6700059701,0.0962946277,2.2522042254\H,0,-5.0677694913,-1.41567
 71592,1.454652967\H,0,-4.9098870836,-1.6564728266,-0.9925195633\H,0,-5
 .3436414876,-0.5511409113,-3.1657450078\H,0,-5.3187353025,1.9438095969
 ,-3.3000271311\H,0,-4.806263188,3.2823857309,-1.2578188406\H,0,-3.6872
 518781,1.9400657382,1.6863955826\H,0,-0.4358738342,-1.2381015471,1.329
 4176246\H,0,0.9307363805,0.4164022637,2.889086265\H,0,0.0327941463,1.6
 026039029,1.946950152\H,0,0.4721655818,1.0375504189,-1.0996998457\H,0,
 5.5429830973,0.1876537015,1.3150717518\H,0,7.8419519756,-0.4265329638,
 0.666426333\H,0,8.3504909524,-1.0935925069,-1.6771000219\H,0,6.5174988
 66,-1.153107908,-3.3607920729\H,0,4.1907937072,-0.5742978036,-2.692252
 3646\H,0,3.3819314018,-0.2047693931,1.8351162543\\Version=ES64L-G16Rev
 B.01\HF=-1050.1718204\RMSD=4.149e-09\PG=C01 [X(C19H19N3O2)]\\@


 TO ERR IS HUMAN - AND TO BLAME IT ON A COMPUTER IS EVEN MORE SO.
 Job cpu time:       0 days  0 hours 57 minutes 28.1 seconds.
 Elapsed time:       0 days  0 hours  5 minutes 33.9 seconds.
 File lengths (MBytes):  RWF=    969 Int=      0 D2E=      0 Chk=     34 Scr=      1
 Normal termination of Gaussian 16 at Sat Nov  5 12:00:01 2022.
