 Entering Gaussian System, Link 0=/home/wykgroup/appl/g16/g16
 Input=./calculation/no_transfer_pubchem_sampling_3_b3lyp/57842628.com
 Output=./calculation/no_transfer_pubchem_sampling_3_b3lyp/57842628.log
 Initial command:
 /home/wykgroup/appl/g16/l1.exe "/userdata/scratch/wykgroup/khs/./calculation/no_transfer_pubchem_sampling_3_b3lyp/57842628/Gau-978.inp" -scrdir="/userdata/scratch/wykgroup/khs/./calculation/no_transfer_pubchem_sampling_3_b3lyp/57842628/"
 Entering Link 1 = /home/wykgroup/appl/g16/l1.exe PID=       979.
  
 Copyright (c) 1988-2017, Gaussian, Inc.  All Rights Reserved.
  
 This is part of the Gaussian(R) 16 program.  It is based on
 the Gaussian(R) 09 system (copyright 2009, Gaussian, Inc.),
 the Gaussian(R) 03 system (copyright 2003, Gaussian, Inc.),
 the Gaussian(R) 98 system (copyright 1998, Gaussian, Inc.),
 the Gaussian(R) 94 system (copyright 1995, Gaussian, Inc.),
 the Gaussian 92(TM) system (copyright 1992, Gaussian, Inc.),
 the Gaussian 90(TM) system (copyright 1990, Gaussian, Inc.),
 the Gaussian 88(TM) system (copyright 1988, Gaussian, Inc.),
 the Gaussian 86(TM) system (copyright 1986, Carnegie Mellon
 University), and the Gaussian 82(TM) system (copyright 1983,
 Carnegie Mellon University). Gaussian is a federally registered
 trademark of Gaussian, Inc.
  
 This software contains proprietary and confidential information,
 including trade secrets, belonging to Gaussian, Inc.
  
 This software is provided under written license and may be
 used, copied, transmitted, or stored only in accord with that
 written license.
  
 The following legend is applicable only to US Government
 contracts under FAR:
  
                    RESTRICTED RIGHTS LEGEND
  
 Use, reproduction and disclosure by the US Government is
 subject to restrictions as set forth in subparagraphs (a)
 and (c) of the Commercial Computer Software - Restricted
 Rights clause in FAR 52.227-19.
  
 Gaussian, Inc.
 340 Quinnipiac St., Bldg. 40, Wallingford CT 06492
  
  
 ---------------------------------------------------------------
 Warning -- This program may not be used in any manner that
 competes with the business of Gaussian, Inc. or will provide
 assistance to any competitor of Gaussian, Inc.  The licensee
 of this program is prohibited from giving any competitor of
 Gaussian, Inc. access to this program.  By using this program,
 the user acknowledges that Gaussian, Inc. is engaged in the
 business of creating and licensing software in the field of
 computational chemistry and represents and warrants to the
 licensee that it is not a competitor of Gaussian, Inc. and that
 it will not use this program in any manner prohibited above.
 ---------------------------------------------------------------
  

 Cite this work as:
 Gaussian 16, Revision B.01,
 M. J. Frisch, G. W. Trucks, H. B. Schlegel, G. E. Scuseria, 
 M. A. Robb, J. R. Cheeseman, G. Scalmani, V. Barone, 
 G. A. Petersson, H. Nakatsuji, X. Li, M. Caricato, A. V. Marenich, 
 J. Bloino, B. G. Janesko, R. Gomperts, B. Mennucci, H. P. Hratchian, 
 J. V. Ortiz, A. F. Izmaylov, J. L. Sonnenberg, D. Williams-Young, 
 F. Ding, F. Lipparini, F. Egidi, J. Goings, B. Peng, A. Petrone, 
 T. Henderson, D. Ranasinghe, V. G. Zakrzewski, J. Gao, N. Rega, 
 G. Zheng, W. Liang, M. Hada, M. Ehara, K. Toyota, R. Fukuda, 
 J. Hasegawa, M. Ishida, T. Nakajima, Y. Honda, O. Kitao, H. Nakai, 
 T. Vreven, K. Throssell, J. A. Montgomery, Jr., J. E. Peralta, 
 F. Ogliaro, M. J. Bearpark, J. J. Heyd, E. N. Brothers, K. N. Kudin, 
 V. N. Staroverov, T. A. Keith, R. Kobayashi, J. Normand, 
 K. Raghavachari, A. P. Rendell, J. C. Burant, S. S. Iyengar, 
 J. Tomasi, M. Cossi, J. M. Millam, M. Klene, C. Adamo, R. Cammi, 
 J. W. Ochterski, R. L. Martin, K. Morokuma, O. Farkas, 
 J. B. Foresman, and D. J. Fox, Gaussian, Inc., Wallingford CT, 2016.
 
 ******************************************
 Gaussian 16:  ES64L-G16RevB.01 20-Dec-2017
                 4-Nov-2022 
 ******************************************
 %chk=./calculation/no_transfer_pubchem_sampling_3_b3lyp/57842628.chk
 %nprocshared=7
 Will use up to    7 processors via shared memory.
 %mem=6GB
 -----------------------------
 #p b3lyp/6-31g(d) opt SCF=XQC
 -----------------------------
 1/18=20,19=15,26=3,38=1/1,3;
 2/9=110,12=2,17=6,18=5,40=1/2;
 3/5=1,6=6,7=1,11=2,25=1,30=1,71=1,74=-5/1,2,3;
 4//1;
 5/5=2,8=3,13=1,38=5/2,8;
 6/7=2,8=2,9=2,10=2,28=1/1;
 7//1,2,3,16;
 1/18=20,19=15,26=3/3(2);
 2/9=110/2;
 99//99;
 2/9=110/2;
 3/5=1,6=6,7=1,11=2,25=1,30=1,71=1,74=-5/1,2,3;
 4/5=5,16=3,69=1/1;
 5/5=2,8=3,13=1,38=5/2,8;
 7//1,2,3,16;
 1/18=20,19=15,26=3/3(-5);
 2/9=110/2;
 6/7=2,8=2,9=2,10=2,19=2,28=1/1;
 99/9=1/99;
 Leave Link    1 at Fri Nov  4 19:35:48 2022, MaxMem=   805306368 cpu:               1.0 elap:               0.2
 (Enter /home/wykgroup/appl/g16/l101.exe)
 ------------------------------
 Gaussian input prepared by ASE
 ------------------------------
 Symbolic Z-matrix:
 Charge =  0 Multiplicity = 1
 C                    -4.96076  -2.97278   1.2954 
 C                    -3.49547  -2.61166   1.18646 
 S                    -2.83023  -3.45576  -0.29261 
 O                    -2.95637  -4.87162  -0.08428 
 O                    -3.48683  -2.91302  -1.45993 
 C                    -1.06882  -3.06229  -0.27425 
 C                    -0.33057  -3.84297   0.5995 
 C                     1.02562  -3.64533   0.7642 
 C                     1.65396  -2.63979   0.03222 
 N                     3.01392  -2.36437   0.14148 
 C                     3.87582  -2.74248   1.13423 
 O                     3.6332   -3.56348   1.9856 
 C                     5.2178   -2.00432   1.04942 
 O                     5.11741  -0.63318   1.38758 
 C                     4.33177   0.14904   0.54698 
 C                     4.81496   0.55757  -0.70076 
 C                     6.20767   0.21518  -1.14343 
 C                     3.97946   1.29686  -1.52576 
 C                     2.6825    1.64776  -1.1553 
 B                     1.70922   2.4343   -2.1521 
 O                     2.20085   3.21608  -3.14756 
 O                     0.37301   2.33748  -2.08051 
 C                     2.2557    1.26885   0.11532 
 C                     3.05763   0.53465   0.97669 
 C                     2.54615   0.1473    2.32993 
 C                     0.90637  -1.86278  -0.85309 
 C                    -0.4563   -2.05712  -1.01711 
 C                    -1.2234   -1.17419  -1.97014 
 N                    -2.31259  -0.47944  -1.3183 
 C                    -2.08899   0.46273  -0.39038 
 O                    -0.99986   0.94345  -0.13982 
 O                    -3.22951   0.80373   0.23858 
 C                    -3.18239   1.9615    1.08532 
 C                    -3.61749   3.18986   0.3298 
 C                    -4.89376   3.7083    0.50282 
 C                    -5.29968   4.82035  -0.21387 
 C                    -4.43627   5.41668  -1.11718 
 C                    -3.16506   4.89918  -1.29943 
 C                    -2.75456   3.79204  -0.57832 
 H                    -5.06292  -4.05392   1.35338 
 H                    -5.41149  -2.52338   2.17772 
 H                    -5.48998  -2.62584   0.41099 
 H                    -3.34184  -1.54491   1.05359 
 H                    -2.91556  -2.97781   2.02919 
 H                    -0.84005  -4.62992   1.13262 
 H                     1.59533  -4.24798   1.45091 
 H                     3.33554  -1.62978  -0.47799 
 H                     5.89537  -2.43334   1.79047 
 H                     5.63929  -2.14315   0.0438 
 H                     6.21047  -0.66677  -1.78697 
 H                     6.63122   1.03952  -1.71303 
 H                     6.84311   0.02225  -0.2822 
 H                     4.35662   1.58897  -2.49791 
 H                     3.1526    3.29485  -3.17514 
 H                     0.00519   1.81018  -1.35697 
 H                     1.26244   1.53408   0.44367 
 H                     1.52104  -0.21202   2.25582 
 H                     3.1678   -0.62217   2.78016 
 H                     2.55362   1.01561   2.98797 
 H                     1.39533  -1.07663  -1.41116 
 H                    -1.66359  -1.77873  -2.76438 
 H                    -0.54692  -0.43188  -2.40308 
 H                    -3.21697  -0.93117  -1.3718 
 H                    -3.86281   1.74599   1.91202 
 H                    -2.15983   2.07735   1.46043 
 H                    -5.57087   3.24088   1.20334 
 H                    -6.29282   5.21948  -0.06917 
 H                    -4.75496   6.2826   -1.67836 
 H                    -2.48676   5.35602  -2.00394 
 H                    -1.76173   3.39531  -0.72717 
 
 ITRead=  0  0  0  0  0  0  0  0  0  0  0  0  0  0  0  0  0  0  0  0
 ITRead=  0  0  0  0  0  0  0  0  0  0  0  0  0  0  0  0  0  0  0  0
 ITRead=  0  0  0  0  0  0  0  0  0  0  0  0  0  0  0  0  0  0  0  0
 ITRead=  0  0  0  0  0  0  0  0  0  0
 MicOpt= -1 -1 -1 -1 -1 -1 -1 -1 -1 -1 -1 -1 -1 -1 -1 -1 -1 -1 -1 -1
 MicOpt= -1 -1 -1 -1 -1 -1 -1 -1 -1 -1 -1 -1 -1 -1 -1 -1 -1 -1 -1 -1
 MicOpt= -1 -1 -1 -1 -1 -1 -1 -1 -1 -1 -1 -1 -1 -1 -1 -1 -1 -1 -1 -1
 MicOpt= -1 -1 -1 -1 -1 -1 -1 -1 -1 -1
 NAtoms=     70 NQM=       70 NQMF=       0 NMMI=      0 NMMIF=      0
                NMic=       0 NMicF=      0.
                    Isotopes and Nuclear Properties:
 (Nuclear quadrupole moments (NQMom) in fm**2, nuclear magnetic moments (NMagM)
  in nuclear magnetons)

  Atom         1           2           3           4           5           6           7           8           9          10
 IAtWgt=          12          12          32          16          16          12          12          12          12          14
 AtmWgt=  12.0000000  12.0000000  31.9720718  15.9949146  15.9949146  12.0000000  12.0000000  12.0000000  12.0000000  14.0030740
 NucSpn=           0           0           0           0           0           0           0           0           0           2
 AtZEff=  -0.0000000  -0.0000000  -0.0000000  -0.0000000  -0.0000000  -0.0000000  -0.0000000  -0.0000000  -0.0000000  -0.0000000
 NQMom=    0.0000000   0.0000000   0.0000000   0.0000000   0.0000000   0.0000000   0.0000000   0.0000000   0.0000000   2.0440000
 NMagM=    0.0000000   0.0000000   0.0000000   0.0000000   0.0000000   0.0000000   0.0000000   0.0000000   0.0000000   0.4037610
 AtZNuc=   6.0000000   6.0000000  16.0000000   8.0000000   8.0000000   6.0000000   6.0000000   6.0000000   6.0000000   7.0000000

  Atom        11          12          13          14          15          16          17          18          19          20
 IAtWgt=          12          16          12          16          12          12          12          12          12          11
 AtmWgt=  12.0000000  15.9949146  12.0000000  15.9949146  12.0000000  12.0000000  12.0000000  12.0000000  12.0000000  11.0093053
 NucSpn=           0           0           0           0           0           0           0           0           0           3
 AtZEff=  -0.0000000  -0.0000000  -0.0000000  -0.0000000  -0.0000000  -0.0000000  -0.0000000  -0.0000000  -0.0000000  -0.0000000
 NQMom=    0.0000000   0.0000000   0.0000000   0.0000000   0.0000000   0.0000000   0.0000000   0.0000000   0.0000000   4.0590000
 NMagM=    0.0000000   0.0000000   0.0000000   0.0000000   0.0000000   0.0000000   0.0000000   0.0000000   0.0000000   2.6886370
 AtZNuc=   6.0000000   8.0000000   6.0000000   8.0000000   6.0000000   6.0000000   6.0000000   6.0000000   6.0000000   5.0000000

  Atom        21          22          23          24          25          26          27          28          29          30
 IAtWgt=          16          16          12          12          12          12          12          12          14          12
 AtmWgt=  15.9949146  15.9949146  12.0000000  12.0000000  12.0000000  12.0000000  12.0000000  12.0000000  14.0030740  12.0000000
 NucSpn=           0           0           0           0           0           0           0           0           2           0
 AtZEff=  -0.0000000  -0.0000000  -0.0000000  -0.0000000  -0.0000000  -0.0000000  -0.0000000  -0.0000000  -0.0000000  -0.0000000
 NQMom=    0.0000000   0.0000000   0.0000000   0.0000000   0.0000000   0.0000000   0.0000000   0.0000000   2.0440000   0.0000000
 NMagM=    0.0000000   0.0000000   0.0000000   0.0000000   0.0000000   0.0000000   0.0000000   0.0000000   0.4037610   0.0000000
 AtZNuc=   8.0000000   8.0000000   6.0000000   6.0000000   6.0000000   6.0000000   6.0000000   6.0000000   7.0000000   6.0000000

  Atom        31          32          33          34          35          36          37          38          39          40
 IAtWgt=          16          16          12          12          12          12          12          12          12           1
 AtmWgt=  15.9949146  15.9949146  12.0000000  12.0000000  12.0000000  12.0000000  12.0000000  12.0000000  12.0000000   1.0078250
 NucSpn=           0           0           0           0           0           0           0           0           0           1
 AtZEff=  -0.0000000  -0.0000000  -0.0000000  -0.0000000  -0.0000000  -0.0000000  -0.0000000  -0.0000000  -0.0000000  -0.0000000
 NQMom=    0.0000000   0.0000000   0.0000000   0.0000000   0.0000000   0.0000000   0.0000000   0.0000000   0.0000000   0.0000000
 NMagM=    0.0000000   0.0000000   0.0000000   0.0000000   0.0000000   0.0000000   0.0000000   0.0000000   0.0000000   2.7928460
 AtZNuc=   8.0000000   8.0000000   6.0000000   6.0000000   6.0000000   6.0000000   6.0000000   6.0000000   6.0000000   1.0000000

  Atom        41          42          43          44          45          46          47          48          49          50
 IAtWgt=           1           1           1           1           1           1           1           1           1           1
 AtmWgt=   1.0078250   1.0078250   1.0078250   1.0078250   1.0078250   1.0078250   1.0078250   1.0078250   1.0078250   1.0078250
 NucSpn=           1           1           1           1           1           1           1           1           1           1
 AtZEff=  -0.0000000  -0.0000000  -0.0000000  -0.0000000  -0.0000000  -0.0000000  -0.0000000  -0.0000000  -0.0000000  -0.0000000
 NQMom=    0.0000000   0.0000000   0.0000000   0.0000000   0.0000000   0.0000000   0.0000000   0.0000000   0.0000000   0.0000000
 NMagM=    2.7928460   2.7928460   2.7928460   2.7928460   2.7928460   2.7928460   2.7928460   2.7928460   2.7928460   2.7928460
 AtZNuc=   1.0000000   1.0000000   1.0000000   1.0000000   1.0000000   1.0000000   1.0000000   1.0000000   1.0000000   1.0000000

  Atom        51          52          53          54          55          56          57          58          59          60
 IAtWgt=           1           1           1           1           1           1           1           1           1           1
 AtmWgt=   1.0078250   1.0078250   1.0078250   1.0078250   1.0078250   1.0078250   1.0078250   1.0078250   1.0078250   1.0078250
 NucSpn=           1           1           1           1           1           1           1           1           1           1
 AtZEff=  -0.0000000  -0.0000000  -0.0000000  -0.0000000  -0.0000000  -0.0000000  -0.0000000  -0.0000000  -0.0000000  -0.0000000
 NQMom=    0.0000000   0.0000000   0.0000000   0.0000000   0.0000000   0.0000000   0.0000000   0.0000000   0.0000000   0.0000000
 NMagM=    2.7928460   2.7928460   2.7928460   2.7928460   2.7928460   2.7928460   2.7928460   2.7928460   2.7928460   2.7928460
 AtZNuc=   1.0000000   1.0000000   1.0000000   1.0000000   1.0000000   1.0000000   1.0000000   1.0000000   1.0000000   1.0000000

  Atom        61          62          63          64          65          66          67          68          69          70
 IAtWgt=           1           1           1           1           1           1           1           1           1           1
 AtmWgt=   1.0078250   1.0078250   1.0078250   1.0078250   1.0078250   1.0078250   1.0078250   1.0078250   1.0078250   1.0078250
 NucSpn=           1           1           1           1           1           1           1           1           1           1
 AtZEff=  -0.0000000  -0.0000000  -0.0000000  -0.0000000  -0.0000000  -0.0000000  -0.0000000  -0.0000000  -0.0000000  -0.0000000
 NQMom=    0.0000000   0.0000000   0.0000000   0.0000000   0.0000000   0.0000000   0.0000000   0.0000000   0.0000000   0.0000000
 NMagM=    2.7928460   2.7928460   2.7928460   2.7928460   2.7928460   2.7928460   2.7928460   2.7928460   2.7928460   2.7928460
 AtZNuc=   1.0000000   1.0000000   1.0000000   1.0000000   1.0000000   1.0000000   1.0000000   1.0000000   1.0000000   1.0000000
 Leave Link  101 at Fri Nov  4 19:35:48 2022, MaxMem=   805306368 cpu:               1.7 elap:               0.3
 (Enter /home/wykgroup/appl/g16/l103.exe)

 GradGradGradGradGradGradGradGradGradGradGradGradGradGradGradGradGradGrad
 Berny optimization.
 Initialization pass.
                           ----------------------------
                           !    Initial Parameters    !
                           ! (Angstroms and Degrees)  !
 --------------------------                            --------------------------
 ! Name  Definition              Value          Derivative Info.                !
 --------------------------------------------------------------------------------
 ! R1    R(1,2)                  1.5131         estimate D2E/DX2                !
 ! R2    R(1,40)                 1.0875         estimate D2E/DX2                !
 ! R3    R(1,41)                 1.0879         estimate D2E/DX2                !
 ! R4    R(1,42)                 1.0875         estimate D2E/DX2                !
 ! R5    R(2,3)                  1.8283         estimate D2E/DX2                !
 ! R6    R(2,43)                 1.0859         estimate D2E/DX2                !
 ! R7    R(2,44)                 1.0865         estimate D2E/DX2                !
 ! R8    R(3,4)                  1.4367         estimate D2E/DX2                !
 ! R9    R(3,5)                  1.4451         estimate D2E/DX2                !
 ! R10   R(3,6)                  1.8049         estimate D2E/DX2                !
 ! R11   R(6,7)                  1.3849         estimate D2E/DX2                !
 ! R12   R(6,27)                 1.3919         estimate D2E/DX2                !
 ! R13   R(7,8)                  1.3804         estimate D2E/DX2                !
 ! R14   R(7,45)                 1.0785         estimate D2E/DX2                !
 ! R15   R(8,9)                  1.3935         estimate D2E/DX2                !
 ! R16   R(8,46)                 1.0767         estimate D2E/DX2                !
 ! R17   R(9,10)                 1.3919         estimate D2E/DX2                !
 ! R18   R(9,26)                 1.3951         estimate D2E/DX2                !
 ! R19   R(10,11)                1.368          estimate D2E/DX2                !
 ! R20   R(10,47)                1.0133         estimate D2E/DX2                !
 ! R21   R(11,12)                1.2074         estimate D2E/DX2                !
 ! R22   R(11,13)                1.5339         estimate D2E/DX2                !
 ! R23   R(13,14)                1.4158         estimate D2E/DX2                !
 ! R24   R(13,48)                1.0919         estimate D2E/DX2                !
 ! R25   R(13,49)                1.0992         estimate D2E/DX2                !
 ! R26   R(14,15)                1.3913         estimate D2E/DX2                !
 ! R27   R(15,16)                1.399          estimate D2E/DX2                !
 ! R28   R(15,24)                1.3988         estimate D2E/DX2                !
 ! R29   R(16,17)                1.5009         estimate D2E/DX2                !
 ! R30   R(16,18)                1.3875         estimate D2E/DX2                !
 ! R31   R(17,50)                1.0918         estimate D2E/DX2                !
 ! R32   R(17,51)                1.0878         estimate D2E/DX2                !
 ! R33   R(17,52)                1.0875         estimate D2E/DX2                !
 ! R34   R(18,19)                1.3937         estimate D2E/DX2                !
 ! R35   R(18,53)                1.0829         estimate D2E/DX2                !
 ! R36   R(19,20)                1.5999         estimate D2E/DX2                !
 ! R37   R(19,23)                1.3929         estimate D2E/DX2                !
 ! R38   R(20,21)                1.3579         estimate D2E/DX2                !
 ! R39   R(20,22)                1.3416         estimate D2E/DX2                !
 ! R40   R(21,54)                0.9554         estimate D2E/DX2                !
 ! R41   R(22,55)                0.9679         estimate D2E/DX2                !
 ! R42   R(23,24)                1.3871         estimate D2E/DX2                !
 ! R43   R(23,56)                1.0792         estimate D2E/DX2                !
 ! R44   R(24,25)                1.4976         estimate D2E/DX2                !
 ! R45   R(25,57)                1.0888         estimate D2E/DX2                !
 ! R46   R(25,58)                1.0868         estimate D2E/DX2                !
 ! R47   R(25,59)                1.0895         estimate D2E/DX2                !
 ! R48   R(26,27)                1.3862         estimate D2E/DX2                !
 ! R49   R(26,60)                1.081          estimate D2E/DX2                !
 ! R50   R(27,28)                1.5087         estimate D2E/DX2                !
 ! R51   R(28,29)                1.447          estimate D2E/DX2                !
 ! R52   R(28,61)                1.0909         estimate D2E/DX2                !
 ! R53   R(28,62)                1.0937         estimate D2E/DX2                !
 ! R54   R(29,30)                1.3412         estimate D2E/DX2                !
 ! R55   R(29,63)                1.0123         estimate D2E/DX2                !
 ! R56   R(30,31)                1.2166         estimate D2E/DX2                !
 ! R57   R(30,32)                1.3464         estimate D2E/DX2                !
 ! R58   R(32,33)                1.4351         estimate D2E/DX2                !
 ! R59   R(33,34)                1.5063         estimate D2E/DX2                !
 ! R60   R(33,64)                1.0922         estimate D2E/DX2                !
 ! R61   R(33,65)                1.0953         estimate D2E/DX2                !
 ! R62   R(34,35)                1.3884         estimate D2E/DX2                !
 ! R63   R(34,39)                1.3899         estimate D2E/DX2                !
 ! R64   R(35,36)                1.3839         estimate D2E/DX2                !
 ! R65   R(35,66)                1.0806         estimate D2E/DX2                !
 ! R66   R(36,37)                1.3846         estimate D2E/DX2                !
 ! R67   R(36,67)                1.0801         estimate D2E/DX2                !
 ! R68   R(37,38)                1.3846         estimate D2E/DX2                !
 ! R69   R(37,68)                1.08           estimate D2E/DX2                !
 ! R70   R(38,39)                1.3836         estimate D2E/DX2                !
 ! R71   R(38,69)                1.0794         estimate D2E/DX2                !
 ! R72   R(39,70)                1.0795         estimate D2E/DX2                !
 ! A1    A(2,1,40)             109.3954         estimate D2E/DX2                !
 ! A2    A(2,1,41)             111.1632         estimate D2E/DX2                !
 ! A3    A(2,1,42)             109.6696         estimate D2E/DX2                !
 ! A4    A(40,1,41)            109.1772         estimate D2E/DX2                !
 ! A5    A(40,1,42)            108.3494         estimate D2E/DX2                !
 ! A6    A(41,1,42)            109.0352         estimate D2E/DX2                !
 ! A7    A(1,2,3)              107.4829         estimate D2E/DX2                !
 ! A8    A(1,2,43)             112.3505         estimate D2E/DX2                !
 ! A9    A(1,2,44)             112.3714         estimate D2E/DX2                !
 ! A10   A(3,2,43)             107.642          estimate D2E/DX2                !
 ! A11   A(3,2,44)             106.1217         estimate D2E/DX2                !
 ! A12   A(43,2,44)            110.5142         estimate D2E/DX2                !
 ! A13   A(2,3,4)              107.8027         estimate D2E/DX2                !
 ! A14   A(2,3,5)              108.3466         estimate D2E/DX2                !
 ! A15   A(2,3,6)              104.253          estimate D2E/DX2                !
 ! A16   A(4,3,5)              116.5759         estimate D2E/DX2                !
 ! A17   A(4,3,6)              107.4004         estimate D2E/DX2                !
 ! A18   A(5,3,6)              111.7007         estimate D2E/DX2                !
 ! A19   A(3,6,7)              113.8132         estimate D2E/DX2                !
 ! A20   A(3,6,27)             125.5526         estimate D2E/DX2                !
 ! A21   A(7,6,27)             120.6124         estimate D2E/DX2                !
 ! A22   A(6,7,8)              121.2183         estimate D2E/DX2                !
 ! A23   A(6,7,45)             118.1249         estimate D2E/DX2                !
 ! A24   A(8,7,45)             120.6393         estimate D2E/DX2                !
 ! A25   A(7,8,9)              118.9253         estimate D2E/DX2                !
 ! A26   A(7,8,46)             121.0516         estimate D2E/DX2                !
 ! A27   A(9,8,46)             120.0212         estimate D2E/DX2                !
 ! A28   A(8,9,10)             122.83           estimate D2E/DX2                !
 ! A29   A(8,9,26)             119.5778         estimate D2E/DX2                !
 ! A30   A(10,9,26)            117.5921         estimate D2E/DX2                !
 ! A31   A(9,10,11)            128.1616         estimate D2E/DX2                !
 ! A32   A(9,10,47)            113.9277         estimate D2E/DX2                !
 ! A33   A(11,10,47)           116.3616         estimate D2E/DX2                !
 ! A34   A(10,11,12)           124.9637         estimate D2E/DX2                !
 ! A35   A(10,11,13)           112.2147         estimate D2E/DX2                !
 ! A36   A(12,11,13)           122.8208         estimate D2E/DX2                !
 ! A37   A(11,13,14)           113.0042         estimate D2E/DX2                !
 ! A38   A(11,13,48)           108.4381         estimate D2E/DX2                !
 ! A39   A(11,13,49)           108.9817         estimate D2E/DX2                !
 ! A40   A(14,13,48)           105.2132         estimate D2E/DX2                !
 ! A41   A(14,13,49)           111.5944         estimate D2E/DX2                !
 ! A42   A(48,13,49)           109.4709         estimate D2E/DX2                !
 ! A43   A(13,14,15)           116.1181         estimate D2E/DX2                !
 ! A44   A(14,15,16)           120.531          estimate D2E/DX2                !
 ! A45   A(14,15,24)           118.9292         estimate D2E/DX2                !
 ! A46   A(16,15,24)           120.5348         estimate D2E/DX2                !
 ! A47   A(15,16,17)           121.1243         estimate D2E/DX2                !
 ! A48   A(15,16,18)           118.5491         estimate D2E/DX2                !
 ! A49   A(17,16,18)           120.3257         estimate D2E/DX2                !
 ! A50   A(16,17,50)           111.1309         estimate D2E/DX2                !
 ! A51   A(16,17,51)           110.0501         estimate D2E/DX2                !
 ! A52   A(16,17,52)           110.4312         estimate D2E/DX2                !
 ! A53   A(50,17,51)           107.6077         estimate D2E/DX2                !
 ! A54   A(50,17,52)           108.7828         estimate D2E/DX2                !
 ! A55   A(51,17,52)           108.7589         estimate D2E/DX2                !
 ! A56   A(16,18,19)           122.442          estimate D2E/DX2                !
 ! A57   A(16,18,53)           117.8904         estimate D2E/DX2                !
 ! A58   A(19,18,53)           119.6575         estimate D2E/DX2                !
 ! A59   A(18,19,20)           121.6202         estimate D2E/DX2                !
 ! A60   A(18,19,23)           117.33           estimate D2E/DX2                !
 ! A61   A(20,19,23)           121.0432         estimate D2E/DX2                !
 ! A62   A(19,20,21)           121.3022         estimate D2E/DX2                !
 ! A63   A(19,20,22)           122.4917         estimate D2E/DX2                !
 ! A64   A(21,20,22)           116.1847         estimate D2E/DX2                !
 ! A65   A(20,21,54)           115.4234         estimate D2E/DX2                !
 ! A66   A(20,22,55)           117.2377         estimate D2E/DX2                !
 ! A67   A(19,23,24)           122.2284         estimate D2E/DX2                !
 ! A68   A(19,23,56)           119.517          estimate D2E/DX2                !
 ! A69   A(24,23,56)           118.2441         estimate D2E/DX2                !
 ! A70   A(15,24,23)           118.7992         estimate D2E/DX2                !
 ! A71   A(15,24,25)           121.1544         estimate D2E/DX2                !
 ! A72   A(23,24,25)           120.037          estimate D2E/DX2                !
 ! A73   A(24,25,57)           110.2064         estimate D2E/DX2                !
 ! A74   A(24,25,58)           111.2281         estimate D2E/DX2                !
 ! A75   A(24,25,59)           109.7106         estimate D2E/DX2                !
 ! A76   A(57,25,58)           109.4561         estimate D2E/DX2                !
 ! A77   A(57,25,59)           108.0942         estimate D2E/DX2                !
 ! A78   A(58,25,59)           108.0662         estimate D2E/DX2                !
 ! A79   A(9,26,27)            121.5844         estimate D2E/DX2                !
 ! A80   A(9,26,60)            119.3569         estimate D2E/DX2                !
 ! A81   A(27,26,60)           119.0473         estimate D2E/DX2                !
 ! A82   A(6,27,26)            118.0793         estimate D2E/DX2                !
 ! A83   A(6,27,28)            122.4114         estimate D2E/DX2                !
 ! A84   A(26,27,28)           119.5053         estimate D2E/DX2                !
 ! A85   A(27,28,29)           112.2798         estimate D2E/DX2                !
 ! A86   A(27,28,61)           109.9229         estimate D2E/DX2                !
 ! A87   A(27,28,62)           109.4369         estimate D2E/DX2                !
 ! A88   A(29,28,61)           106.8769         estimate D2E/DX2                !
 ! A89   A(29,28,62)           108.5439         estimate D2E/DX2                !
 ! A90   A(61,28,62)           109.7252         estimate D2E/DX2                !
 ! A91   A(28,29,30)           121.5649         estimate D2E/DX2                !
 ! A92   A(28,29,63)           115.7466         estimate D2E/DX2                !
 ! A93   A(30,29,63)           119.9321         estimate D2E/DX2                !
 ! A94   A(29,30,31)           124.704          estimate D2E/DX2                !
 ! A95   A(29,30,32)           111.0949         estimate D2E/DX2                !
 ! A96   A(31,30,32)           124.1996         estimate D2E/DX2                !
 ! A97   A(30,32,33)           116.8813         estimate D2E/DX2                !
 ! A98   A(32,33,34)           110.6375         estimate D2E/DX2                !
 ! A99   A(32,33,64)           105.4831         estimate D2E/DX2                !
 ! A100  A(32,33,65)           108.5441         estimate D2E/DX2                !
 ! A101  A(34,33,64)           111.1379         estimate D2E/DX2                !
 ! A102  A(34,33,65)           110.804          estimate D2E/DX2                !
 ! A103  A(64,33,65)           110.075          estimate D2E/DX2                !
 ! A104  A(33,34,35)           120.4992         estimate D2E/DX2                !
 ! A105  A(33,34,39)           120.1102         estimate D2E/DX2                !
 ! A106  A(35,34,39)           119.3639         estimate D2E/DX2                !
 ! A107  A(34,35,36)           120.3424         estimate D2E/DX2                !
 ! A108  A(34,35,66)           119.6885         estimate D2E/DX2                !
 ! A109  A(36,35,66)           119.9689         estimate D2E/DX2                !
 ! A110  A(35,36,37)           120.0704         estimate D2E/DX2                !
 ! A111  A(35,36,67)           119.8202         estimate D2E/DX2                !
 ! A112  A(37,36,67)           120.109          estimate D2E/DX2                !
 ! A113  A(36,37,38)           119.8308         estimate D2E/DX2                !
 ! A114  A(36,37,68)           120.0215         estimate D2E/DX2                !
 ! A115  A(38,37,68)           120.1477         estimate D2E/DX2                !
 ! A116  A(37,38,39)           120.1915         estimate D2E/DX2                !
 ! A117  A(37,38,69)           120.3104         estimate D2E/DX2                !
 ! A118  A(39,38,69)           119.4981         estimate D2E/DX2                !
 ! A119  A(34,39,38)           120.1986         estimate D2E/DX2                !
 ! A120  A(34,39,70)           120.1241         estimate D2E/DX2                !
 ! A121  A(38,39,70)           119.6768         estimate D2E/DX2                !
 ! D1    D(40,1,2,3)            57.6484         estimate D2E/DX2                !
 ! D2    D(40,1,2,43)          175.8815         estimate D2E/DX2                !
 ! D3    D(40,1,2,44)          -58.7403         estimate D2E/DX2                !
 ! D4    D(41,1,2,3)           178.2949         estimate D2E/DX2                !
 ! D5    D(41,1,2,43)          -63.4721         estimate D2E/DX2                !
 ! D6    D(41,1,2,44)           61.9061         estimate D2E/DX2                !
 ! D7    D(42,1,2,3)           -61.0552         estimate D2E/DX2                !
 ! D8    D(42,1,2,43)           57.1779         estimate D2E/DX2                !
 ! D9    D(42,1,2,44)         -177.4439         estimate D2E/DX2                !
 ! D10   D(1,2,3,4)            -62.2722         estimate D2E/DX2                !
 ! D11   D(1,2,3,5)             64.7077         estimate D2E/DX2                !
 ! D12   D(1,2,3,6)           -176.2031         estimate D2E/DX2                !
 ! D13   D(43,2,3,4)           176.4939         estimate D2E/DX2                !
 ! D14   D(43,2,3,5)           -56.5262         estimate D2E/DX2                !
 ! D15   D(43,2,3,6)            62.563          estimate D2E/DX2                !
 ! D16   D(44,2,3,4)            58.1533         estimate D2E/DX2                !
 ! D17   D(44,2,3,5)          -174.8668         estimate D2E/DX2                !
 ! D18   D(44,2,3,6)           -55.7776         estimate D2E/DX2                !
 ! D19   D(2,3,6,7)             79.8939         estimate D2E/DX2                !
 ! D20   D(2,3,6,27)           -98.4092         estimate D2E/DX2                !
 ! D21   D(4,3,6,7)            -34.3226         estimate D2E/DX2                !
 ! D22   D(4,3,6,27)           147.3743         estimate D2E/DX2                !
 ! D23   D(5,3,6,7)           -163.3223         estimate D2E/DX2                !
 ! D24   D(5,3,6,27)            18.3746         estimate D2E/DX2                !
 ! D25   D(3,6,7,8)           -178.0868         estimate D2E/DX2                !
 ! D26   D(3,6,7,45)             3.4282         estimate D2E/DX2                !
 ! D27   D(27,6,7,8)             0.3091         estimate D2E/DX2                !
 ! D28   D(27,6,7,45)         -178.1759         estimate D2E/DX2                !
 ! D29   D(3,6,27,26)          178.0768         estimate D2E/DX2                !
 ! D30   D(3,6,27,28)           -1.1896         estimate D2E/DX2                !
 ! D31   D(7,6,27,26)           -0.1193         estimate D2E/DX2                !
 ! D32   D(7,6,27,28)         -179.3857         estimate D2E/DX2                !
 ! D33   D(6,7,8,9)             -0.0523         estimate D2E/DX2                !
 ! D34   D(6,7,8,46)           179.4384         estimate D2E/DX2                !
 ! D35   D(45,7,8,9)           178.3949         estimate D2E/DX2                !
 ! D36   D(45,7,8,46)           -2.1144         estimate D2E/DX2                !
 ! D37   D(7,8,9,10)           179.5531         estimate D2E/DX2                !
 ! D38   D(7,8,9,26)            -0.3828         estimate D2E/DX2                !
 ! D39   D(46,8,9,10)            0.057          estimate D2E/DX2                !
 ! D40   D(46,8,9,26)         -179.8789         estimate D2E/DX2                !
 ! D41   D(8,9,10,11)          -17.0848         estimate D2E/DX2                !
 ! D42   D(8,9,10,47)          177.7829         estimate D2E/DX2                !
 ! D43   D(26,9,10,11)         162.8524         estimate D2E/DX2                !
 ! D44   D(26,9,10,47)          -2.2799         estimate D2E/DX2                !
 ! D45   D(8,9,26,27)            0.5802         estimate D2E/DX2                !
 ! D46   D(8,9,26,60)          179.3401         estimate D2E/DX2                !
 ! D47   D(10,9,26,27)        -179.3591         estimate D2E/DX2                !
 ! D48   D(10,9,26,60)          -0.5992         estimate D2E/DX2                !
 ! D49   D(9,10,11,12)          12.2734         estimate D2E/DX2                !
 ! D50   D(9,10,11,13)        -168.0288         estimate D2E/DX2                !
 ! D51   D(47,10,11,12)        177.0991         estimate D2E/DX2                !
 ! D52   D(47,10,11,13)         -3.2032         estimate D2E/DX2                !
 ! D53   D(10,11,13,14)         70.3347         estimate D2E/DX2                !
 ! D54   D(10,11,13,48)       -173.4302         estimate D2E/DX2                !
 ! D55   D(10,11,13,49)        -54.3359         estimate D2E/DX2                !
 ! D56   D(12,11,13,14)       -109.96           estimate D2E/DX2                !
 ! D57   D(12,11,13,48)          6.275          estimate D2E/DX2                !
 ! D58   D(12,11,13,49)        125.3693         estimate D2E/DX2                !
 ! D59   D(11,13,14,15)        -64.0159         estimate D2E/DX2                !
 ! D60   D(48,13,14,15)        177.8499         estimate D2E/DX2                !
 ! D61   D(49,13,14,15)         59.2202         estimate D2E/DX2                !
 ! D62   D(13,14,15,16)        -76.6678         estimate D2E/DX2                !
 ! D63   D(13,14,15,24)        104.1403         estimate D2E/DX2                !
 ! D64   D(14,15,16,17)         -2.5785         estimate D2E/DX2                !
 ! D65   D(14,15,16,18)        177.7517         estimate D2E/DX2                !
 ! D66   D(24,15,16,17)        176.6003         estimate D2E/DX2                !
 ! D67   D(24,15,16,18)         -3.0695         estimate D2E/DX2                !
 ! D68   D(14,15,24,23)       -177.4312         estimate D2E/DX2                !
 ! D69   D(14,15,24,25)          1.454          estimate D2E/DX2                !
 ! D70   D(16,15,24,23)          3.377          estimate D2E/DX2                !
 ! D71   D(16,15,24,25)       -177.7378         estimate D2E/DX2                !
 ! D72   D(15,16,17,50)         97.51           estimate D2E/DX2                !
 ! D73   D(15,16,17,51)       -143.3936         estimate D2E/DX2                !
 ! D74   D(15,16,17,52)        -23.3097         estimate D2E/DX2                !
 ! D75   D(18,16,17,50)        -82.826          estimate D2E/DX2                !
 ! D76   D(18,16,17,51)         36.2703         estimate D2E/DX2                !
 ! D77   D(18,16,17,52)        156.3543         estimate D2E/DX2                !
 ! D78   D(15,16,18,19)          0.1499         estimate D2E/DX2                !
 ! D79   D(15,16,18,53)       -178.689          estimate D2E/DX2                !
 ! D80   D(17,16,18,19)       -179.5226         estimate D2E/DX2                !
 ! D81   D(17,16,18,53)          1.6384         estimate D2E/DX2                !
 ! D82   D(16,18,19,20)       -176.7307         estimate D2E/DX2                !
 ! D83   D(16,18,19,23)          2.3446         estimate D2E/DX2                !
 ! D84   D(53,18,19,20)          2.0885         estimate D2E/DX2                !
 ! D85   D(53,18,19,23)       -178.8363         estimate D2E/DX2                !
 ! D86   D(18,19,20,21)        -25.0372         estimate D2E/DX2                !
 ! D87   D(18,19,20,22)        153.2164         estimate D2E/DX2                !
 ! D88   D(23,19,20,21)        155.9216         estimate D2E/DX2                !
 ! D89   D(23,19,20,22)        -25.8248         estimate D2E/DX2                !
 ! D90   D(18,19,23,24)         -2.0222         estimate D2E/DX2                !
 ! D91   D(18,19,23,56)        179.1725         estimate D2E/DX2                !
 ! D92   D(20,19,23,24)        177.0588         estimate D2E/DX2                !
 ! D93   D(20,19,23,56)         -1.7466         estimate D2E/DX2                !
 ! D94   D(19,20,21,54)         -3.1052         estimate D2E/DX2                !
 ! D95   D(22,20,21,54)        178.5362         estimate D2E/DX2                !
 ! D96   D(19,20,22,55)          3.8396         estimate D2E/DX2                !
 ! D97   D(21,20,22,55)       -177.8232         estimate D2E/DX2                !
 ! D98   D(19,23,24,15)         -0.7757         estimate D2E/DX2                !
 ! D99   D(19,23,24,25)       -179.6736         estimate D2E/DX2                !
 ! D100  D(56,23,24,15)        178.0442         estimate D2E/DX2                !
 ! D101  D(56,23,24,25)         -0.8537         estimate D2E/DX2                !
 ! D102  D(15,24,25,57)       -134.9118         estimate D2E/DX2                !
 ! D103  D(15,24,25,58)        -13.3289         estimate D2E/DX2                !
 ! D104  D(15,24,25,59)        106.18           estimate D2E/DX2                !
 ! D105  D(23,24,25,57)         43.9596         estimate D2E/DX2                !
 ! D106  D(23,24,25,58)        165.5426         estimate D2E/DX2                !
 ! D107  D(23,24,25,59)        -74.9485         estimate D2E/DX2                !
 ! D108  D(9,26,27,6)           -0.324          estimate D2E/DX2                !
 ! D109  D(9,26,27,28)         178.9644         estimate D2E/DX2                !
 ! D110  D(60,26,27,6)        -179.0877         estimate D2E/DX2                !
 ! D111  D(60,26,27,28)          0.2007         estimate D2E/DX2                !
 ! D112  D(6,27,28,29)          56.766          estimate D2E/DX2                !
 ! D113  D(6,27,28,61)         -62.064          estimate D2E/DX2                !
 ! D114  D(6,27,28,62)         177.366          estimate D2E/DX2                !
 ! D115  D(26,27,28,29)       -122.4903         estimate D2E/DX2                !
 ! D116  D(26,27,28,61)        118.6796         estimate D2E/DX2                !
 ! D117  D(26,27,28,62)         -1.8903         estimate D2E/DX2                !
 ! D118  D(27,28,29,30)         66.9138         estimate D2E/DX2                !
 ! D119  D(27,28,29,63)        -94.251          estimate D2E/DX2                !
 ! D120  D(61,28,29,30)       -172.4808         estimate D2E/DX2                !
 ! D121  D(61,28,29,63)         26.3545         estimate D2E/DX2                !
 ! D122  D(62,28,29,30)        -54.2007         estimate D2E/DX2                !
 ! D123  D(62,28,29,63)        144.6346         estimate D2E/DX2                !
 ! D124  D(28,29,30,31)         10.2092         estimate D2E/DX2                !
 ! D125  D(28,29,30,32)       -169.3569         estimate D2E/DX2                !
 ! D126  D(63,29,30,31)        170.603          estimate D2E/DX2                !
 ! D127  D(63,29,30,32)         -8.9632         estimate D2E/DX2                !
 ! D128  D(29,30,32,33)       -169.2927         estimate D2E/DX2                !
 ! D129  D(31,30,32,33)         11.1385         estimate D2E/DX2                !
 ! D130  D(30,32,33,34)         93.9541         estimate D2E/DX2                !
 ! D131  D(30,32,33,64)       -145.769          estimate D2E/DX2                !
 ! D132  D(30,32,33,65)        -27.8253         estimate D2E/DX2                !
 ! D133  D(32,33,34,35)        101.8595         estimate D2E/DX2                !
 ! D134  D(32,33,34,39)        -76.2513         estimate D2E/DX2                !
 ! D135  D(64,33,34,35)        -14.9773         estimate D2E/DX2                !
 ! D136  D(64,33,34,39)        166.9119         estimate D2E/DX2                !
 ! D137  D(65,33,34,35)       -137.7002         estimate D2E/DX2                !
 ! D138  D(65,33,34,39)         44.189          estimate D2E/DX2                !
 ! D139  D(33,34,35,36)       -178.6378         estimate D2E/DX2                !
 ! D140  D(33,34,35,66)          1.5303         estimate D2E/DX2                !
 ! D141  D(39,34,35,36)         -0.5129         estimate D2E/DX2                !
 ! D142  D(39,34,35,66)        179.6552         estimate D2E/DX2                !
 ! D143  D(33,34,39,38)        178.2749         estimate D2E/DX2                !
 ! D144  D(33,34,39,70)         -1.4775         estimate D2E/DX2                !
 ! D145  D(35,34,39,38)          0.1426         estimate D2E/DX2                !
 ! D146  D(35,34,39,70)       -179.6097         estimate D2E/DX2                !
 ! D147  D(34,35,36,37)          0.5092         estimate D2E/DX2                !
 ! D148  D(34,35,36,67)       -179.7075         estimate D2E/DX2                !
 ! D149  D(66,35,36,37)       -179.6594         estimate D2E/DX2                !
 ! D150  D(66,35,36,67)          0.1239         estimate D2E/DX2                !
 ! D151  D(35,36,37,38)         -0.1309         estimate D2E/DX2                !
 ! D152  D(35,36,37,68)        179.8056         estimate D2E/DX2                !
 ! D153  D(67,36,37,38)       -179.9136         estimate D2E/DX2                !
 ! D154  D(67,36,37,68)          0.0229         estimate D2E/DX2                !
 ! D155  D(36,37,38,39)         -0.2388         estimate D2E/DX2                !
 ! D156  D(36,37,38,69)        179.8024         estimate D2E/DX2                !
 ! D157  D(68,37,38,39)        179.8248         estimate D2E/DX2                !
 ! D158  D(68,37,38,69)         -0.134          estimate D2E/DX2                !
 ! D159  D(37,38,39,34)          0.2322         estimate D2E/DX2                !
 ! D160  D(37,38,39,70)        179.9857         estimate D2E/DX2                !
 ! D161  D(69,38,39,34)       -179.8087         estimate D2E/DX2                !
 ! D162  D(69,38,39,70)         -0.0552         estimate D2E/DX2                !
 --------------------------------------------------------------------------------
 Trust Radius=3.00D-01 FncErr=1.00D-07 GrdErr=1.00D-06 EigMax=2.50D+02 EigMin=1.00D-04
 Number of steps in this run=    365 maximum allowed number of steps=    420.
 GradGradGradGradGradGradGradGradGradGradGradGradGradGradGradGradGradGrad

 Leave Link  103 at Fri Nov  4 19:35:48 2022, MaxMem=   805306368 cpu:               0.3 elap:               0.1
 (Enter /home/wykgroup/appl/g16/l202.exe)
 Stoichiometry    C27H31BN2O8S
 Framework group  C1[X(C27H31BN2O8S)]
 Deg. of freedom   204
 Full point group                 C1      NOp   1
 Largest Abelian subgroup         C1      NOp   1
 Largest concise Abelian subgroup C1      NOp   1
                         Standard orientation:                         
 ---------------------------------------------------------------------
 Center     Atomic      Atomic             Coordinates (Angstroms)
 Number     Number       Type             X           Y           Z
 ---------------------------------------------------------------------
      1          6           0        3.684204    4.400313    0.874772
      2          6           0        2.416249    3.575222    0.845560
      3         16           0        1.609242    3.865316   -0.769150
      4          8           0        1.270790    5.259373   -0.846893
      5          8           0        2.472042    3.350592   -1.807874
      6          6           0        0.063295    2.939485   -0.666004
      7          6           0       -0.934095    3.593275    0.038036
      8          6           0       -2.166546    3.006721    0.244075
      9          6           0       -2.401522    1.733437   -0.270951
     10          7           0       -3.609746    1.062977   -0.103782
     11          6           0       -4.604767    1.326055    0.797397
     12          8           0       -4.684300    2.327160    1.467629
     13          6           0       -5.638741    0.195065    0.866285
     14          8           0       -5.132557   -0.981351    1.469834
     15          6           0       -4.091771   -1.615107    0.798394
     16          6           0       -4.346118   -2.385533   -0.341337
     17          6           0       -5.746618   -2.597649   -0.837737
     18          6           0       -3.272542   -2.960513   -1.006220
     19          6           0       -1.955734   -2.800643   -0.578515
     20          5           0       -0.726461   -3.407914   -1.402917
     21          8           0       -0.886514   -4.479670   -2.221179
     22          8           0        0.504606   -2.876553   -1.357263
     23          6           0       -1.746858   -2.071437    0.589752
     24          6           0       -2.789212   -1.483532    1.291150
     25          6           0       -2.507734   -0.703713    2.538372
     26          6           0       -1.395737    1.083853   -0.987099
     27          6           0       -0.156155    1.669558   -1.191834
     28          6           0        0.905504    0.915078   -1.953372
     29          7           0        2.116774    0.742586   -1.180746
     30          6           0        2.145693   -0.027653   -0.083196
     31          8           0        1.250148   -0.775157    0.262199
     32          8           0        3.295685    0.140301    0.596499
     33          6           0        3.564491   -0.788919    1.656645
     34          6           0        4.408453   -1.932912    1.158640
     35          6           0        5.770210   -1.972590    1.426230
     36          6           0        6.547609   -3.010614    0.943276
     37          6           0        5.971490   -4.011833    0.179935
     38          6           0        4.615375   -3.973149   -0.096539
     39          6           0        3.834912   -2.940318    0.391743
     40          1           0        3.437371    5.447513    0.716307
     41          1           0        4.199644    4.294771    1.827034
     42          1           0        4.347769    4.080153    0.074895
     43          1           0        2.614293    2.510703    0.927974
     44          1           0        1.701129    3.889079    1.600967
     45          1           0       -0.731023    4.587915    0.402089
     46          1           0       -2.937051    3.513783    0.799538
     47          1           0       -3.646147    0.160732   -0.563605
     48          1           0       -6.460052    0.516728    1.509935
     49          1           0       -6.021361   -0.001653   -0.145196
     50          1           0       -5.988129   -1.901911   -1.643728
     51          1           0       -5.854341   -3.606391   -1.230459
     52          1           0       -6.460960   -2.458850   -0.029549
     53          1           0       -3.479605   -3.536684   -1.899416
     54          1           0       -1.761692   -4.862805   -2.228805
     55          1           0        0.643745   -2.132197   -0.754417
     56          1           0       -0.742181   -1.937287    0.960348
     57          1           0       -1.645220   -0.055959    2.390286
     58          1           0       -3.365735   -0.103266    2.829123
     59          1           0       -2.281118   -1.387334    3.355896
     60          1           0       -1.578134    0.091806   -1.375842
     61          1           0        1.179961    1.466633   -2.853654
     62          1           0        0.524170   -0.072621   -2.227465
     63          1           0        2.834615    1.441362   -1.326525
     64          1           0        4.091663   -0.214294    2.421328
     65          1           0        2.609738   -1.152837    2.051326
     66          1           0        6.222573   -1.189124    2.017196
     67          1           0        7.605326   -3.035591    1.160514
     68          1           0        6.579494   -4.819856   -0.199189
     69          1           0        4.158794   -4.747935   -0.693505
     70          1           0        2.778496   -2.918252    0.170917
 ---------------------------------------------------------------------
 Rotational constants (GHZ):           0.1045901           0.0707640           0.0480545
 Leave Link  202 at Fri Nov  4 19:35:48 2022, MaxMem=   805306368 cpu:               0.4 elap:               0.1
 (Enter /home/wykgroup/appl/g16/l301.exe)
 Standard basis: 6-31G(d) (6D, 7F)
 Ernie: Thresh=  0.10000D-02 Tol=  0.10000D-05 Strict=F.
 There are   651 symmetry adapted cartesian basis functions of A   symmetry.
 There are   651 symmetry adapted basis functions of A   symmetry.
   651 basis functions,  1240 primitive gaussians,   651 cartesian basis functions
   146 alpha electrons      146 beta electrons
       nuclear repulsion energy      4851.8162539854 Hartrees.
 IExCor=  402 DFT=T Ex+Corr=B3LYP ExCW=0 ScaHFX=  0.200000
 ScaDFX=  0.800000  0.720000  1.000000  0.810000 ScalE2=  1.000000  1.000000
 IRadAn=      5 IRanWt=     -1 IRanGd=            0 ICorTp=0 IEmpDi=  4
 NAtoms=   70 NActive=   70 NUniq=   70 SFac= 1.00D+00 NAtFMM=   60 NAOKFM=T Big=T
 Integral buffers will be    131072 words long.
 Raffenetti 2 integral format.
 Two-electron integral symmetry is turned on.
 Leave Link  301 at Fri Nov  4 19:35:49 2022, MaxMem=   805306368 cpu:               0.8 elap:               0.2
 (Enter /home/wykgroup/appl/g16/l302.exe)
 NPDir=0 NMtPBC=     1 NCelOv=     1 NCel=       1 NClECP=     1 NCelD=      1
         NCelK=      1 NCelE2=     1 NClLst=     1 CellRange=     0.0.
 One-electron integrals computed using PRISM.
 One-electron integral symmetry used in STVInt
 NBasis=   651 RedAO= T EigKep=  3.07D-04  NBF=   651
 NBsUse=   651 1.00D-06 EigRej= -1.00D+00 NBFU=   651
 Precomputing XC quadrature grid using
 IXCGrd= 4 IRadAn=           5 IRanWt=          -1 IRanGd=           0 AccXCQ= 0.00D+00.
 Generated NRdTot=       0 NPtTot=           0 NUsed=           0 NTot=          32
 NSgBfM=   635   635   635   635   635 MxSgAt=    70 MxSgA2=    70.
 Leave Link  302 at Fri Nov  4 19:35:50 2022, MaxMem=   805306368 cpu:              11.3 elap:               1.7
 (Enter /home/wykgroup/appl/g16/l303.exe)
 DipDrv:  MaxL=1.
 Leave Link  303 at Fri Nov  4 19:35:51 2022, MaxMem=   805306368 cpu:               1.1 elap:               0.2
 (Enter /home/wykgroup/appl/g16/l401.exe)
 ExpMin= 1.17D-01 ExpMax= 2.19D+04 ExpMxC= 3.30D+03 IAcc=3 IRadAn=         5 AccDes= 0.00D+00
 Harris functional with IExCor=  402 and IRadAn=       5 diagonalized for initial guess.
 HarFok:  IExCor=  402 AccDes= 0.00D+00 IRadAn=         5 IDoV= 1 UseB2=F ITyADJ=14
 ICtDFT=  3500011 ScaDFX=  1.000000  1.000000  1.000000  1.000000
 FoFCou: FMM=F IPFlag=           0 FMFlag=      100000 FMFlg1=        2001
         NFxFlg=           0 DoJE=T BraDBF=F KetDBF=T FulRan=T
         wScrn=  0.000000 ICntrl=       500 IOpCl=  0 I1Cent=   200000004 NGrid=           0
         NMat0=    1 NMatS0=      1 NMatT0=    0 NMatD0=    1 NMtDS0=    0 NMtDT0=    0
 Petite list used in FoFCou.
 Harris En= -2182.07201915505    
 JPrj=0 DoOrth=F DoCkMO=F.
 Leave Link  401 at Fri Nov  4 19:35:58 2022, MaxMem=   805306368 cpu:              47.2 elap:               7.1
 (Enter /home/wykgroup/appl/g16/l502.exe)
 Integral symmetry usage will be decided dynamically.
 Closed shell SCF:
 Using DIIS extrapolation, IDIIS=  1040.
 NGot=   805306368 LenX=   804447097 LenY=   804022645
 Requested convergence on RMS density matrix=1.00D-08 within  32 cycles.
 Requested convergence on MAX density matrix=1.00D-06.
 Requested convergence on             energy=1.00D-06.
 No special actions if energy rises.
 Fock matrices will be formed incrementally for  20 cycles.
 Integral accuracy reduced to 1.0D-05 until final iterations.

 Cycle   1  Pass 0  IDiag  1:
 FoFJK:  IHMeth= 1 ICntrl=       0 DoSepK=F KAlg= 0 I1Cent=           0 FoldK=F
 IRaf= 910000000 NMat=       1 IRICut=       1 DoRegI=T DoRafI=F ISym2E= 0 IDoP0=0 IntGTp=1.
 FoFCou: FMM=T IPFlag=           0 FMFlag=      100000 FMFlg1=        2001
         NFxFlg=           0 DoJE=F BraDBF=F KetDBF=F FulRan=T
         wScrn=  0.000000 ICntrl=         0 IOpCl=  0 I1Cent=           0 NGrid=           0
         NMat0=    1 NMatS0=      1 NMatT0=    0 NMatD0=    1 NMtDS0=    0 NMtDT0=    0
 Symmetry not used in FoFCou.
 FMM levels:  10  Number of levels for PrismC:   9
 E= -2180.81519480400    
 DIIS: error= 3.00D-02 at cycle   1 NSaved=   1.
 NSaved= 1 IEnMin= 1 EnMin= -2180.81519480400     IErMin= 1 ErrMin= 3.00D-02
 ErrMax= 3.00D-02  0.00D+00 EMaxC= 1.00D-01 BMatC= 1.31D+00 BMatP= 1.31D+00
 IDIUse=3 WtCom= 7.00D-01 WtEn= 3.00D-01
 Coeff-Com:  0.100D+01
 Coeff-En:   0.100D+01
 Coeff:      0.100D+01
 Gap=     0.237 Goal=   None    Shift=    0.000
 GapD=    0.237 DampG=1.000 DampE=0.500 DampFc=0.5000 IDamp=-1.
 Damping current iteration by 5.00D-01
 RMSDP=4.36D-03 MaxDP=5.09D-01              OVMax= 2.24D-01

 Cycle   2  Pass 0  IDiag  1:
 RMSU=  2.17D-03    CP:  9.86D-01
 E= -2181.18294276418     Delta-E=       -0.367747960178 Rises=F Damp=T
 DIIS: error= 1.04D-02 at cycle   2 NSaved=   2.
 NSaved= 2 IEnMin= 2 EnMin= -2181.18294276418     IErMin= 2 ErrMin= 1.04D-02
 ErrMax= 1.04D-02  0.00D+00 EMaxC= 1.00D-01 BMatC= 1.63D-01 BMatP= 1.31D+00
 IDIUse=3 WtCom= 8.96D-01 WtEn= 1.04D-01
 Coeff-Com:  0.188D+00 0.812D+00
 Coeff-En:   0.297D+00 0.703D+00
 Coeff:      0.200D+00 0.800D+00
 Gap=     0.220 Goal=   None    Shift=    0.000
 RMSDP=1.35D-03 MaxDP=1.30D-01 DE=-3.68D-01 OVMax= 1.68D-01

 Cycle   3  Pass 0  IDiag  1:
 RMSU=  1.17D-03    CP:  9.73D-01  6.99D-01
 E= -2181.83710394928     Delta-E=       -0.654161185098 Rises=F Damp=F
 DIIS: error= 9.26D-03 at cycle   3 NSaved=   3.
 NSaved= 3 IEnMin= 3 EnMin= -2181.83710394928     IErMin= 3 ErrMin= 9.26D-03
 ErrMax= 9.26D-03  0.00D+00 EMaxC= 1.00D-01 BMatC= 1.42D-01 BMatP= 1.63D-01
 IDIUse=3 WtCom= 9.07D-01 WtEn= 9.26D-02
 Coeff-Com:  0.542D-01 0.481D+00 0.465D+00
 Coeff-En:   0.000D+00 0.000D+00 0.100D+01
 Coeff:      0.492D-01 0.436D+00 0.515D+00
 Gap=     0.198 Goal=   None    Shift=    0.000
 RMSDP=8.33D-04 MaxDP=5.54D-02 DE=-6.54D-01 OVMax= 7.96D-02

 Cycle   4  Pass 0  IDiag  1:
 RMSU=  5.33D-04    CP:  9.78D-01  8.08D-01  4.95D-01
 E= -2181.94208364707     Delta-E=       -0.104979697789 Rises=F Damp=F
 DIIS: error= 3.68D-03 at cycle   4 NSaved=   4.
 NSaved= 4 IEnMin= 4 EnMin= -2181.94208364707     IErMin= 4 ErrMin= 3.68D-03
 ErrMax= 3.68D-03  0.00D+00 EMaxC= 1.00D-01 BMatC= 2.40D-02 BMatP= 1.42D-01
 IDIUse=3 WtCom= 9.63D-01 WtEn= 3.68D-02
 Coeff-Com:  0.443D-02 0.111D+00 0.306D+00 0.579D+00
 Coeff-En:   0.000D+00 0.000D+00 0.157D+00 0.843D+00
 Coeff:      0.427D-02 0.107D+00 0.301D+00 0.588D+00
 Gap=     0.199 Goal=   None    Shift=    0.000
 RMSDP=2.91D-04 MaxDP=2.31D-02 DE=-1.05D-01 OVMax= 3.47D-02

 Cycle   5  Pass 0  IDiag  1:
 RMSU=  1.47D-04    CP:  9.77D-01  7.77D-01  6.22D-01  6.41D-01
 E= -2181.96056183281     Delta-E=       -0.018478185738 Rises=F Damp=F
 DIIS: error= 1.10D-03 at cycle   5 NSaved=   5.
 NSaved= 5 IEnMin= 5 EnMin= -2181.96056183281     IErMin= 5 ErrMin= 1.10D-03
 ErrMax= 1.10D-03  0.00D+00 EMaxC= 1.00D-01 BMatC= 2.15D-03 BMatP= 2.40D-02
 IDIUse=3 WtCom= 9.89D-01 WtEn= 1.10D-02
 Coeff-Com: -0.176D-02 0.213D-01 0.129D+00 0.342D+00 0.509D+00
 Coeff-En:   0.000D+00 0.000D+00 0.000D+00 0.193D-01 0.981D+00
 Coeff:     -0.174D-02 0.211D-01 0.127D+00 0.339D+00 0.515D+00
 Gap=     0.191 Goal=   None    Shift=    0.000
 RMSDP=8.75D-05 MaxDP=6.69D-03 DE=-1.85D-02 OVMax= 9.03D-03

 Cycle   6  Pass 0  IDiag  1:
 RMSU=  4.68D-05    CP:  9.77D-01  7.82D-01  6.22D-01  6.77D-01  5.21D-01
 E= -2181.96224714234     Delta-E=       -0.001685309533 Rises=F Damp=F
 DIIS: error= 4.30D-04 at cycle   6 NSaved=   6.
 NSaved= 6 IEnMin= 6 EnMin= -2181.96224714234     IErMin= 6 ErrMin= 4.30D-04
 ErrMax= 4.30D-04  0.00D+00 EMaxC= 1.00D-01 BMatC= 1.84D-04 BMatP= 2.15D-03
 IDIUse=3 WtCom= 9.96D-01 WtEn= 4.30D-03
 Coeff-Com: -0.133D-02 0.258D-02 0.445D-01 0.137D+00 0.293D+00 0.524D+00
 Coeff-En:   0.000D+00 0.000D+00 0.000D+00 0.000D+00 0.441D-02 0.996D+00
 Coeff:     -0.132D-02 0.257D-02 0.443D-01 0.136D+00 0.292D+00 0.526D+00
 Gap=     0.191 Goal=   None    Shift=    0.000
 RMSDP=2.61D-05 MaxDP=2.23D-03 DE=-1.69D-03 OVMax= 2.59D-03

 Cycle   7  Pass 0  IDiag  1:
 RMSU=  1.63D-05    CP:  9.77D-01  7.82D-01  6.22D-01  6.81D-01  5.83D-01
                    CP:  6.12D-01
 E= -2181.96238594619     Delta-E=       -0.000138803849 Rises=F Damp=F
 DIIS: error= 1.32D-04 at cycle   7 NSaved=   7.
 NSaved= 7 IEnMin= 7 EnMin= -2181.96238594619     IErMin= 7 ErrMin= 1.32D-04
 ErrMax= 1.32D-04  0.00D+00 EMaxC= 1.00D-01 BMatC= 1.89D-05 BMatP= 1.84D-04
 IDIUse=3 WtCom= 9.99D-01 WtEn= 1.32D-03
 Coeff-Com: -0.567D-03-0.406D-03 0.138D-01 0.467D-01 0.124D+00 0.310D+00
 Coeff-Com:  0.507D+00
 Coeff-En:   0.000D+00 0.000D+00 0.000D+00 0.000D+00 0.000D+00 0.253D-01
 Coeff-En:   0.975D+00
 Coeff:     -0.566D-03-0.406D-03 0.137D-01 0.466D-01 0.124D+00 0.310D+00
 Coeff:      0.507D+00
 Gap=     0.191 Goal=   None    Shift=    0.000
 RMSDP=8.80D-06 MaxDP=6.18D-04 DE=-1.39D-04 OVMax= 8.58D-04

 Initial convergence to 1.0D-05 achieved.  Increase integral accuracy.
 Cycle   8  Pass 1  IDiag  1:
 E= -2181.96239131139     Delta-E=       -0.000005365201 Rises=F Damp=F
 DIIS: error= 1.76D-04 at cycle   1 NSaved=   1.
 NSaved= 1 IEnMin= 1 EnMin= -2181.96239131139     IErMin= 1 ErrMin= 1.76D-04
 ErrMax= 1.76D-04  0.00D+00 EMaxC= 1.00D-01 BMatC= 1.01D-05 BMatP= 1.01D-05
 IDIUse=3 WtCom= 9.98D-01 WtEn= 1.76D-03
 Coeff-Com:  0.100D+01
 Coeff-En:   0.100D+01
 Coeff:      0.100D+01
 Gap=     0.191 Goal=   None    Shift=    0.000
 RMSDP=8.80D-06 MaxDP=6.18D-04 DE=-5.37D-06 OVMax= 9.27D-04

 Cycle   9  Pass 1  IDiag  1:
 RMSU=  7.24D-05    CP:  1.00D+00
 E= -2181.96239338806     Delta-E=       -0.000002076667 Rises=F Damp=F
 DIIS: error= 6.91D-05 at cycle   2 NSaved=   2.
 NSaved= 2 IEnMin= 2 EnMin= -2181.96239338806     IErMin= 2 ErrMin= 6.91D-05
 ErrMax= 6.91D-05  0.00D+00 EMaxC= 1.00D-01 BMatC= 7.25D-06 BMatP= 1.01D-05
 IDIUse=1 WtCom= 1.00D+00 WtEn= 0.00D+00
 Coeff-Com:  0.440D+00 0.560D+00
 Coeff:      0.440D+00 0.560D+00
 Gap=     0.191 Goal=   None    Shift=    0.000
 RMSDP=8.19D-06 MaxDP=5.07D-04 DE=-2.08D-06 OVMax= 1.09D-03

 Cycle  10  Pass 1  IDiag  1:
 RMSU=  8.19D-06    CP:  1.00D+00  9.97D-01
 E= -2181.96239574684     Delta-E=       -0.000002358780 Rises=F Damp=F
 DIIS: error= 5.39D-05 at cycle   3 NSaved=   3.
 NSaved= 3 IEnMin= 3 EnMin= -2181.96239574684     IErMin= 3 ErrMin= 5.39D-05
 ErrMax= 5.39D-05  0.00D+00 EMaxC= 1.00D-01 BMatC= 4.83D-06 BMatP= 7.25D-06
 IDIUse=1 WtCom= 1.00D+00 WtEn= 0.00D+00
 Coeff-Com:  0.163D-01 0.446D+00 0.538D+00
 Coeff:      0.163D-01 0.446D+00 0.538D+00
 Gap=     0.191 Goal=   None    Shift=    0.000
 RMSDP=3.73D-06 MaxDP=2.85D-04 DE=-2.36D-06 OVMax= 4.96D-04

 Cycle  11  Pass 1  IDiag  1:
 RMSU=  1.09D-06    CP:  1.00D+00  1.01D+00  5.72D-01
 E= -2181.96240013902     Delta-E=       -0.000004392187 Rises=F Damp=F
 DIIS: error= 9.39D-06 at cycle   4 NSaved=   4.
 NSaved= 4 IEnMin= 4 EnMin= -2181.96240013902     IErMin= 4 ErrMin= 9.39D-06
 ErrMax= 9.39D-06  0.00D+00 EMaxC= 1.00D-01 BMatC= 1.60D-07 BMatP= 4.83D-06
 IDIUse=1 WtCom= 1.00D+00 WtEn= 0.00D+00
 Coeff-Com: -0.242D-02 0.260D+00 0.331D+00 0.411D+00
 Coeff:     -0.242D-02 0.260D+00 0.331D+00 0.411D+00
 Gap=     0.191 Goal=   None    Shift=    0.000
 RMSDP=6.41D-07 MaxDP=4.85D-05 DE=-4.39D-06 OVMax= 5.85D-05

 Cycle  12  Pass 1  IDiag  1:
 RMSU=  2.22D-07    CP:  1.00D+00  1.01D+00  5.73D-01  4.49D-01
 E= -2181.96240026752     Delta-E=       -0.000000128498 Rises=F Damp=F
 DIIS: error= 1.59D-06 at cycle   5 NSaved=   5.
 NSaved= 5 IEnMin= 5 EnMin= -2181.96240026752     IErMin= 5 ErrMin= 1.59D-06
 ErrMax= 1.59D-06  0.00D+00 EMaxC= 1.00D-01 BMatC= 5.02D-09 BMatP= 1.60D-07
 IDIUse=1 WtCom= 1.00D+00 WtEn= 0.00D+00
 Coeff-Com: -0.203D-02 0.145D+00 0.185D+00 0.252D+00 0.420D+00
 Coeff:     -0.203D-02 0.145D+00 0.185D+00 0.252D+00 0.420D+00
 Gap=     0.191 Goal=   None    Shift=    0.000
 RMSDP=1.26D-07 MaxDP=9.71D-06 DE=-1.28D-07 OVMax= 1.18D-05

 Cycle  13  Pass 1  IDiag  1:
 RMSU=  7.43D-08    CP:  1.00D+00  1.01D+00  5.72D-01  4.56D-01  5.44D-01
 E= -2181.96240027147     Delta-E=       -0.000000003950 Rises=F Damp=F
 DIIS: error= 4.19D-07 at cycle   6 NSaved=   6.
 NSaved= 6 IEnMin= 6 EnMin= -2181.96240027147     IErMin= 6 ErrMin= 4.19D-07
 ErrMax= 4.19D-07  0.00D+00 EMaxC= 1.00D-01 BMatC= 2.23D-10 BMatP= 5.02D-09
 IDIUse=1 WtCom= 1.00D+00 WtEn= 0.00D+00
 Coeff-Com: -0.104D-02 0.693D-01 0.883D-01 0.123D+00 0.245D+00 0.475D+00
 Coeff:     -0.104D-02 0.693D-01 0.883D-01 0.123D+00 0.245D+00 0.475D+00
 Gap=     0.191 Goal=   None    Shift=    0.000
 RMSDP=2.84D-08 MaxDP=1.90D-06 DE=-3.95D-09 OVMax= 2.58D-06

 Cycle  14  Pass 1  IDiag  1:
 RMSU=  2.16D-08    CP:  1.00D+00  1.01D+00  5.71D-01  4.56D-01  5.79D-01
                    CP:  7.87D-01
 E= -2181.96240027170     Delta-E=       -0.000000000229 Rises=F Damp=F
 DIIS: error= 1.14D-07 at cycle   7 NSaved=   7.
 NSaved= 7 IEnMin= 7 EnMin= -2181.96240027170     IErMin= 7 ErrMin= 1.14D-07
 ErrMax= 1.14D-07  0.00D+00 EMaxC= 1.00D-01 BMatC= 1.55D-11 BMatP= 2.23D-10
 IDIUse=1 WtCom= 1.00D+00 WtEn= 0.00D+00
 Coeff-Com: -0.263D-03 0.166D-01 0.209D-01 0.302D-01 0.678D-01 0.241D+00
 Coeff-Com:  0.623D+00
 Coeff:     -0.263D-03 0.166D-01 0.209D-01 0.302D-01 0.678D-01 0.241D+00
 Coeff:      0.623D+00
 Gap=     0.191 Goal=   None    Shift=    0.000
 RMSDP=7.69D-09 MaxDP=9.14D-07 DE=-2.29D-10 OVMax= 6.39D-07

 SCF Done:  E(RB3LYP) =  -2181.96240027     A.U. after   14 cycles
            NFock= 14  Conv=0.77D-08     -V/T= 2.0076
 KE= 2.165538223110D+03 PE=-1.480461401105D+04 EE= 5.605297133679D+03
 Leave Link  502 at Fri Nov  4 19:38:41 2022, MaxMem=   805306368 cpu:            1110.3 elap:             163.8
 (Enter /home/wykgroup/appl/g16/l508.exe)
 QCSCF skips out because SCF is already converged.
 Leave Link  508 at Fri Nov  4 19:38:42 2022, MaxMem=   805306368 cpu:               0.2 elap:               0.1
 (Enter /home/wykgroup/appl/g16/l601.exe)
 Copying SCF densities to generalized density rwf, IOpCl= 0 IROHF=0.

 **********************************************************************

            Population analysis using the SCF Density.

 **********************************************************************

 Orbital symmetries:
       Occupied  (A) (A) (A) (A) (A) (A) (A) (A) (A) (A) (A) (A)
                 (A) (A) (A) (A) (A) (A) (A) (A) (A) (A) (A) (A)
                 (A) (A) (A) (A) (A) (A) (A) (A) (A) (A) (A) (A)
                 (A) (A) (A) (A) (A) (A) (A) (A) (A) (A) (A) (A)
                 (A) (A) (A) (A) (A) (A) (A) (A) (A) (A) (A) (A)
                 (A) (A) (A) (A) (A) (A) (A) (A) (A) (A) (A) (A)
                 (A) (A) (A) (A) (A) (A) (A) (A) (A) (A) (A) (A)
                 (A) (A) (A) (A) (A) (A) (A) (A) (A) (A) (A) (A)
                 (A) (A) (A) (A) (A) (A) (A) (A) (A) (A) (A) (A)
                 (A) (A) (A) (A) (A) (A) (A) (A) (A) (A) (A) (A)
                 (A) (A) (A) (A) (A) (A) (A) (A) (A) (A) (A) (A)
                 (A) (A) (A) (A) (A) (A) (A) (A) (A) (A) (A) (A)
                 (A) (A)
       Virtual   (A) (A) (A) (A) (A) (A) (A) (A) (A) (A) (A) (A)
                 (A) (A) (A) (A) (A) (A) (A) (A) (A) (A) (A) (A)
                 (A) (A) (A) (A) (A) (A) (A) (A) (A) (A) (A) (A)
                 (A) (A) (A) (A) (A) (A) (A) (A) (A) (A) (A) (A)
                 (A) (A) (A) (A) (A) (A) (A) (A) (A) (A) (A) (A)
                 (A) (A) (A) (A) (A) (A) (A) (A) (A) (A) (A) (A)
                 (A) (A) (A) (A) (A) (A) (A) (A) (A) (A) (A) (A)
                 (A) (A) (A) (A) (A) (A) (A) (A) (A) (A) (A) (A)
                 (A) (A) (A) (A) (A) (A) (A) (A) (A) (A) (A) (A)
                 (A) (A) (A) (A) (A) (A) (A) (A) (A) (A) (A) (A)
                 (A) (A) (A) (A) (A) (A) (A) (A) (A) (A) (A) (A)
                 (A) (A) (A) (A) (A) (A) (A) (A) (A) (A) (A) (A)
                 (A) (A) (A) (A) (A) (A) (A) (A) (A) (A) (A) (A)
                 (A) (A) (A) (A) (A) (A) (A) (A) (A) (A) (A) (A)
                 (A) (A) (A) (A) (A) (A) (A) (A) (A) (A) (A) (A)
                 (A) (A) (A) (A) (A) (A) (A) (A) (A) (A) (A) (A)
                 (A) (A) (A) (A) (A) (A) (A) (A) (A) (A) (A) (A)
                 (A) (A) (A) (A) (A) (A) (A) (A) (A) (A) (A) (A)
                 (A) (A) (A) (A) (A) (A) (A) (A) (A) (A) (A) (A)
                 (A) (A) (A) (A) (A) (A) (A) (A) (A) (A) (A) (A)
                 (A) (A) (A) (A) (A) (A) (A) (A) (A) (A) (A) (A)
                 (A) (A) (A) (A) (A) (A) (A) (A) (A) (A) (A) (A)
                 (A) (A) (A) (A) (A) (A) (A) (A) (A) (A) (A) (A)
                 (A) (A) (A) (A) (A) (A) (A) (A) (A) (A) (A) (A)
                 (A) (A) (A) (A) (A) (A) (A) (A) (A) (A) (A) (A)
                 (A) (A) (A) (A) (A) (A) (A) (A) (A) (A) (A) (A)
                 (A) (A) (A) (A) (A) (A) (A) (A) (A) (A) (A) (A)
                 (A) (A) (A) (A) (A) (A) (A) (A) (A) (A) (A) (A)
                 (A) (A) (A) (A) (A) (A) (A) (A) (A) (A) (A) (A)
                 (A) (A) (A) (A) (A) (A) (A) (A) (A) (A) (A) (A)
                 (A) (A) (A) (A) (A) (A) (A) (A) (A) (A) (A) (A)
                 (A) (A) (A) (A) (A) (A) (A) (A) (A) (A) (A) (A)
                 (A) (A) (A) (A) (A) (A) (A) (A) (A) (A) (A) (A)
                 (A) (A) (A) (A) (A) (A) (A) (A) (A) (A) (A) (A)
                 (A) (A) (A) (A) (A) (A) (A) (A) (A) (A) (A) (A)
                 (A) (A) (A) (A) (A) (A) (A) (A) (A) (A) (A) (A)
                 (A) (A) (A) (A) (A) (A) (A) (A) (A) (A) (A) (A)
                 (A) (A) (A) (A) (A) (A) (A) (A) (A) (A) (A) (A)
                 (A) (A) (A) (A) (A) (A) (A) (A) (A) (A) (A) (A)
                 (A) (A) (A) (A) (A) (A) (A) (A) (A) (A) (A) (A)
                 (A) (A) (A) (A) (A) (A) (A) (A) (A) (A) (A) (A)
                 (A) (A) (A) (A) (A) (A) (A) (A) (A) (A) (A) (A)
                 (A)
 The electronic state is 1-A.
 Alpha  occ. eigenvalues --  -89.09451 -19.20267 -19.18567 -19.14686 -19.14582
 Alpha  occ. eigenvalues --  -19.14507 -19.14177 -19.13783 -19.13531 -14.39248
 Alpha  occ. eigenvalues --  -14.37080 -10.35084 -10.30897 -10.26111 -10.25782
 Alpha  occ. eigenvalues --  -10.25270 -10.25009 -10.24049 -10.22789 -10.22701
 Alpha  occ. eigenvalues --  -10.22584 -10.21359 -10.21038 -10.20782 -10.20202
 Alpha  occ. eigenvalues --  -10.20176 -10.19712 -10.19664 -10.19494 -10.19444
 Alpha  occ. eigenvalues --  -10.19134 -10.18955 -10.18884 -10.18807 -10.18668
 Alpha  occ. eigenvalues --  -10.18551 -10.18079 -10.17611  -8.12514  -6.77337
 Alpha  occ. eigenvalues --   -6.08971  -6.08861  -6.08788  -1.12757  -1.12173
 Alpha  occ. eigenvalues --   -1.08004  -1.06096  -1.03681  -1.02265  -1.01254
 Alpha  occ. eigenvalues --   -0.99327  -0.96902  -0.95100  -0.88344  -0.87033
 Alpha  occ. eigenvalues --   -0.86301  -0.81251  -0.80053  -0.79829  -0.78846
 Alpha  occ. eigenvalues --   -0.77884  -0.77007  -0.74936  -0.73932  -0.73115
 Alpha  occ. eigenvalues --   -0.70625  -0.69293  -0.68885  -0.68188  -0.65346
 Alpha  occ. eigenvalues --   -0.64281  -0.61647  -0.61137  -0.60829  -0.59761
 Alpha  occ. eigenvalues --   -0.59272  -0.59204  -0.58119  -0.57720  -0.56564
 Alpha  occ. eigenvalues --   -0.55652  -0.53952  -0.53088  -0.52496  -0.52061
 Alpha  occ. eigenvalues --   -0.50970  -0.50064  -0.49436  -0.49032  -0.48828
 Alpha  occ. eigenvalues --   -0.48509  -0.48397  -0.47762  -0.47582  -0.46719
 Alpha  occ. eigenvalues --   -0.46431  -0.46129  -0.45342  -0.44694  -0.44461
 Alpha  occ. eigenvalues --   -0.44279  -0.43879  -0.43289  -0.43240  -0.42723
 Alpha  occ. eigenvalues --   -0.42428  -0.42132  -0.41998  -0.41540  -0.41406
 Alpha  occ. eigenvalues --   -0.41127  -0.40997  -0.40523  -0.39801  -0.39270
 Alpha  occ. eigenvalues --   -0.38603  -0.38321  -0.38171  -0.37886  -0.37664
 Alpha  occ. eigenvalues --   -0.37307  -0.36778  -0.36372  -0.36266  -0.35793
 Alpha  occ. eigenvalues --   -0.35280  -0.34356  -0.34153  -0.33788  -0.33117
 Alpha  occ. eigenvalues --   -0.32303  -0.31313  -0.31122  -0.30949  -0.30407
 Alpha  occ. eigenvalues --   -0.30038  -0.29496  -0.29380  -0.27791  -0.26955
 Alpha  occ. eigenvalues --   -0.26445  -0.25382  -0.25170  -0.25086  -0.24937
 Alpha  occ. eigenvalues --   -0.23926
 Alpha virt. eigenvalues --   -0.04846  -0.02654  -0.02044  -0.01332  -0.01026
 Alpha virt. eigenvalues --   -0.00063   0.00861   0.03008   0.06311   0.06739
 Alpha virt. eigenvalues --    0.06942   0.07243   0.08568   0.08845   0.09176
 Alpha virt. eigenvalues --    0.09631   0.10121   0.10748   0.10952   0.11458
 Alpha virt. eigenvalues --    0.12036   0.12166   0.12607   0.12965   0.13242
 Alpha virt. eigenvalues --    0.13473   0.13516   0.14006   0.14309   0.14638
 Alpha virt. eigenvalues --    0.15199   0.15331   0.15979   0.16263   0.16530
 Alpha virt. eigenvalues --    0.16797   0.17292   0.17394   0.17803   0.18166
 Alpha virt. eigenvalues --    0.18596   0.19112   0.19191   0.19685   0.20017
 Alpha virt. eigenvalues --    0.20347   0.20539   0.21342   0.21426   0.21663
 Alpha virt. eigenvalues --    0.22925   0.23214   0.23492   0.23988   0.24695
 Alpha virt. eigenvalues --    0.24853   0.25922   0.26332   0.26844   0.28622
 Alpha virt. eigenvalues --    0.30249   0.30777   0.31134   0.31272   0.31809
 Alpha virt. eigenvalues --    0.31983   0.32294   0.33304   0.33826   0.34184
 Alpha virt. eigenvalues --    0.34789   0.34908   0.35750   0.36324   0.37532
 Alpha virt. eigenvalues --    0.38088   0.39382   0.40470   0.40892   0.41405
 Alpha virt. eigenvalues --    0.43308   0.44007   0.44130   0.44927   0.45363
 Alpha virt. eigenvalues --    0.45656   0.47452   0.49090   0.49396   0.49714
 Alpha virt. eigenvalues --    0.50695   0.51340   0.51494   0.51781   0.52063
 Alpha virt. eigenvalues --    0.52677   0.52861   0.53139   0.53493   0.53790
 Alpha virt. eigenvalues --    0.54035   0.54737   0.54935   0.55260   0.55435
 Alpha virt. eigenvalues --    0.56177   0.56434   0.56557   0.57014   0.57465
 Alpha virt. eigenvalues --    0.57645   0.58142   0.58516   0.58909   0.59236
 Alpha virt. eigenvalues --    0.59726   0.59870   0.60265   0.60932   0.61385
 Alpha virt. eigenvalues --    0.61407   0.61730   0.61908   0.61985   0.62263
 Alpha virt. eigenvalues --    0.62665   0.63155   0.63693   0.64504   0.64844
 Alpha virt. eigenvalues --    0.65822   0.66650   0.66789   0.67356   0.68211
 Alpha virt. eigenvalues --    0.68413   0.69314   0.69396   0.69865   0.69957
 Alpha virt. eigenvalues --    0.70368   0.72411   0.73107   0.74120   0.74425
 Alpha virt. eigenvalues --    0.74664   0.75258   0.75587   0.76122   0.76885
 Alpha virt. eigenvalues --    0.77465   0.78375   0.78630   0.78947   0.79282
 Alpha virt. eigenvalues --    0.79869   0.80492   0.80838   0.80952   0.81676
 Alpha virt. eigenvalues --    0.82375   0.82465   0.83285   0.83796   0.83864
 Alpha virt. eigenvalues --    0.84254   0.84765   0.84939   0.85403   0.85689
 Alpha virt. eigenvalues --    0.85993   0.86110   0.87039   0.87880   0.88539
 Alpha virt. eigenvalues --    0.88761   0.89091   0.89213   0.89632   0.90011
 Alpha virt. eigenvalues --    0.90346   0.90947   0.91188   0.91374   0.91883
 Alpha virt. eigenvalues --    0.92413   0.92574   0.93350   0.93987   0.94603
 Alpha virt. eigenvalues --    0.94828   0.95443   0.95860   0.96406   0.96474
 Alpha virt. eigenvalues --    0.97079   0.97553   0.97951   0.98490   0.99234
 Alpha virt. eigenvalues --    0.99281   0.99560   1.00016   1.00374   1.01736
 Alpha virt. eigenvalues --    1.02339   1.02883   1.03358   1.04070   1.05475
 Alpha virt. eigenvalues --    1.05840   1.06432   1.07212   1.07900   1.08605
 Alpha virt. eigenvalues --    1.09914   1.10692   1.11139   1.11679   1.12747
 Alpha virt. eigenvalues --    1.13203   1.13762   1.14926   1.15619   1.16402
 Alpha virt. eigenvalues --    1.16843   1.17403   1.17635   1.18092   1.18578
 Alpha virt. eigenvalues --    1.18903   1.19761   1.20149   1.21163   1.21946
 Alpha virt. eigenvalues --    1.22147   1.22818   1.23608   1.23980   1.24295
 Alpha virt. eigenvalues --    1.25423   1.25817   1.26613   1.26711   1.27439
 Alpha virt. eigenvalues --    1.28693   1.28995   1.29865   1.30654   1.30837
 Alpha virt. eigenvalues --    1.31287   1.32118   1.32448   1.33813   1.34312
 Alpha virt. eigenvalues --    1.34993   1.37460   1.37930   1.39205   1.39358
 Alpha virt. eigenvalues --    1.40405   1.41072   1.41347   1.42016   1.42363
 Alpha virt. eigenvalues --    1.42904   1.43250   1.44010   1.44766   1.45230
 Alpha virt. eigenvalues --    1.46608   1.47532   1.48166   1.48569   1.48794
 Alpha virt. eigenvalues --    1.49271   1.49709   1.50070   1.50821   1.51297
 Alpha virt. eigenvalues --    1.52328   1.52451   1.54535   1.55065   1.55803
 Alpha virt. eigenvalues --    1.58980   1.60109   1.61764   1.62829   1.63785
 Alpha virt. eigenvalues --    1.64020   1.65472   1.66355   1.66656   1.67604
 Alpha virt. eigenvalues --    1.68446   1.69141   1.70279   1.72245   1.72697
 Alpha virt. eigenvalues --    1.73144   1.74530   1.75354   1.76240   1.76525
 Alpha virt. eigenvalues --    1.77251   1.77476   1.78397   1.78481   1.79559
 Alpha virt. eigenvalues --    1.80451   1.80699   1.81666   1.82046   1.82259
 Alpha virt. eigenvalues --    1.82666   1.82827   1.83600   1.84112   1.85139
 Alpha virt. eigenvalues --    1.85921   1.86002   1.87830   1.88333   1.88847
 Alpha virt. eigenvalues --    1.89460   1.89650   1.90432   1.90678   1.91095
 Alpha virt. eigenvalues --    1.91199   1.91854   1.92112   1.92214   1.93538
 Alpha virt. eigenvalues --    1.94197   1.94816   1.94883   1.95189   1.95344
 Alpha virt. eigenvalues --    1.96458   1.98629   1.99181   1.99637   2.00027
 Alpha virt. eigenvalues --    2.00701   2.01655   2.02369   2.02895   2.03939
 Alpha virt. eigenvalues --    2.05046   2.06137   2.06277   2.07058   2.07538
 Alpha virt. eigenvalues --    2.07601   2.08119   2.10168   2.10734   2.11074
 Alpha virt. eigenvalues --    2.11561   2.12247   2.12717   2.12768   2.15006
 Alpha virt. eigenvalues --    2.15346   2.15436   2.15910   2.16546   2.16861
 Alpha virt. eigenvalues --    2.16992   2.17961   2.18500   2.18990   2.20208
 Alpha virt. eigenvalues --    2.22251   2.22524   2.24806   2.25021   2.26472
 Alpha virt. eigenvalues --    2.26514   2.27539   2.28075   2.28516   2.28709
 Alpha virt. eigenvalues --    2.29191   2.29601   2.30749   2.31024   2.32056
 Alpha virt. eigenvalues --    2.32100   2.32561   2.33023   2.33317   2.35028
 Alpha virt. eigenvalues --    2.35490   2.36440   2.36820   2.36981   2.37507
 Alpha virt. eigenvalues --    2.38898   2.39171   2.40811   2.41565   2.41768
 Alpha virt. eigenvalues --    2.42366   2.43320   2.44541   2.45558   2.47761
 Alpha virt. eigenvalues --    2.48191   2.50467   2.51481   2.54295   2.55987
 Alpha virt. eigenvalues --    2.57790   2.58719   2.59430   2.59895   2.60857
 Alpha virt. eigenvalues --    2.61844   2.63636   2.65497   2.66978   2.67279
 Alpha virt. eigenvalues --    2.67629   2.68803   2.70708   2.71332   2.72211
 Alpha virt. eigenvalues --    2.72524   2.73936   2.74599   2.75097   2.76103
 Alpha virt. eigenvalues --    2.76598   2.78099   2.79869   2.80101   2.80589
 Alpha virt. eigenvalues --    2.82034   2.82490   2.82994   2.84232   2.84453
 Alpha virt. eigenvalues --    2.86405   2.88809   2.90308   2.90883   2.91911
 Alpha virt. eigenvalues --    2.93102   2.97324   2.97518   2.99381   3.00731
 Alpha virt. eigenvalues --    3.05700   3.06522   3.07612   3.11565   3.16049
 Alpha virt. eigenvalues --    3.19778   3.21100   3.30104   3.42032   3.43395
[...]
                 (A) (A) (A) (A) (A) (A) (A) (A) (A) (A) (A) (A)
                 (A) (A) (A) (A) (A) (A) (A) (A) (A) (A) (A) (A)
                 (A) (A) (A) (A) (A) (A) (A) (A) (A) (A) (A) (A)
                 (A) (A) (A) (A) (A) (A) (A) (A) (A) (A) (A) (A)
                 (A) (A) (A) (A) (A) (A) (A) (A) (A) (A) (A) (A)
                 (A) (A) (A) (A) (A) (A) (A) (A) (A) (A) (A) (A)
                 (A) (A) (A) (A) (A) (A) (A) (A) (A) (A) (A) (A)
                 (A) (A) (A) (A) (A) (A) (A) (A) (A) (A) (A) (A)
                 (A) (A) (A) (A) (A) (A) (A) (A) (A) (A) (A) (A)
                 (A) (A) (A) (A) (A) (A) (A) (A) (A) (A) (A) (A)
                 (A) (A) (A) (A) (A) (A) (A) (A) (A) (A) (A) (A)
                 (A) (A) (A) (A) (A) (A) (A) (A) (A) (A) (A) (A)
                 (A) (A) (A) (A) (A) (A) (A) (A) (A) (A) (A) (A)
                 (A) (A) (A) (A) (A) (A) (A) (A) (A) (A) (A) (A)
                 (A) (A) (A) (A) (A) (A) (A) (A) (A) (A) (A) (A)
                 (A) (A) (A) (A) (A) (A) (A) (A) (A) (A) (A) (A)
                 (A) (A) (A) (A) (A) (A) (A) (A) (A) (A) (A) (A)
                 (A) (A) (A) (A) (A) (A) (A) (A) (A) (A) (A) (A)
                 (A) (A) (A) (A) (A) (A) (A) (A) (A) (A) (A) (A)
                 (A) (A) (A) (A) (A) (A) (A) (A) (A) (A) (A) (A)
                 (A) (A) (A) (A) (A) (A) (A) (A) (A) (A) (A) (A)
                 (A) (A) (A) (A) (A) (A) (A) (A) (A) (A) (A) (A)
                 (A) (A) (A) (A) (A) (A) (A) (A) (A) (A) (A) (A)
                 (A)
 The electronic state is 1-A.
 Alpha  occ. eigenvalues --  -89.09670 -19.19765 -19.18607 -19.14662 -19.14509
 Alpha  occ. eigenvalues --  -19.14503 -19.14137 -19.14135 -19.13505 -14.39891
 Alpha  occ. eigenvalues --  -14.37433 -10.35083 -10.31441 -10.26504 -10.26425
 Alpha  occ. eigenvalues --  -10.25295 -10.25157 -10.24151 -10.23417 -10.23295
 Alpha  occ. eigenvalues --  -10.23240 -10.21983 -10.21545 -10.21149 -10.20799
 Alpha  occ. eigenvalues --  -10.20673 -10.20108 -10.19941 -10.19902 -10.19719
 Alpha  occ. eigenvalues --  -10.19489 -10.19232 -10.19135 -10.19081 -10.18790
 Alpha  occ. eigenvalues --  -10.18760 -10.18552 -10.17772  -8.12591  -6.77448
 Alpha  occ. eigenvalues --   -6.09031  -6.08960  -6.08887  -1.11353  -1.09940
 Alpha  occ. eigenvalues --   -1.07394  -1.05629  -1.02485  -1.01597  -0.99726
 Alpha  occ. eigenvalues --   -0.98673  -0.96615  -0.94291  -0.87983  -0.86435
 Alpha  occ. eigenvalues --   -0.85487  -0.81027  -0.79732  -0.79420  -0.78664
 Alpha  occ. eigenvalues --   -0.77508  -0.76760  -0.74325  -0.73928  -0.72726
 Alpha  occ. eigenvalues --   -0.70447  -0.69058  -0.68757  -0.68227  -0.65252
 Alpha  occ. eigenvalues --   -0.64152  -0.61362  -0.60833  -0.60590  -0.59494
 Alpha  occ. eigenvalues --   -0.59213  -0.58762  -0.57916  -0.56827  -0.55967
 Alpha  occ. eigenvalues --   -0.55435  -0.53509  -0.52822  -0.51921  -0.51656
 Alpha  occ. eigenvalues --   -0.50406  -0.49317  -0.48909  -0.48658  -0.48488
 Alpha  occ. eigenvalues --   -0.48438  -0.48154  -0.47732  -0.47519  -0.46413
 Alpha  occ. eigenvalues --   -0.46049  -0.45607  -0.44782  -0.44475  -0.44277
 Alpha  occ. eigenvalues --   -0.44014  -0.43559  -0.43288  -0.42895  -0.42443
 Alpha  occ. eigenvalues --   -0.42344  -0.41877  -0.41750  -0.41421  -0.41223
 Alpha  occ. eigenvalues --   -0.41090  -0.40843  -0.40053  -0.39895  -0.39247
 Alpha  occ. eigenvalues --   -0.38534  -0.38388  -0.38047  -0.37999  -0.37618
 Alpha  occ. eigenvalues --   -0.36681  -0.36614  -0.36098  -0.36040  -0.35395
 Alpha  occ. eigenvalues --   -0.35118  -0.34138  -0.33616  -0.33373  -0.32678
 Alpha  occ. eigenvalues --   -0.31701  -0.31212  -0.30760  -0.30496  -0.30128
 Alpha  occ. eigenvalues --   -0.29854  -0.29449  -0.29021  -0.27702  -0.27088
 Alpha  occ. eigenvalues --   -0.26730  -0.25071  -0.24929  -0.24905  -0.24792
 Alpha  occ. eigenvalues --   -0.24048
 Alpha virt. eigenvalues --   -0.05462  -0.02880  -0.02435  -0.01328  -0.01115
 Alpha virt. eigenvalues --   -0.00005   0.00157   0.03397   0.05652   0.06060
 Alpha virt. eigenvalues --    0.06617   0.07392   0.08070   0.08786   0.09161
 Alpha virt. eigenvalues --    0.09417   0.09672   0.10040   0.10250   0.10745
 Alpha virt. eigenvalues --    0.11549   0.11869   0.12258   0.12301   0.12530
 Alpha virt. eigenvalues --    0.12760   0.13044   0.13327   0.13711   0.14198
 Alpha virt. eigenvalues --    0.14471   0.14610   0.15166   0.15606   0.15907
 Alpha virt. eigenvalues --    0.16474   0.16704   0.16851   0.16976   0.17802
 Alpha virt. eigenvalues --    0.18072   0.18615   0.18918   0.19293   0.19736
 Alpha virt. eigenvalues --    0.19893   0.20096   0.20483   0.20642   0.20795
 Alpha virt. eigenvalues --    0.22072   0.22921   0.23139   0.23794   0.23890
 Alpha virt. eigenvalues --    0.24248   0.24875   0.25662   0.26657   0.27210
 Alpha virt. eigenvalues --    0.30052   0.30188   0.30381   0.30724   0.31088
 Alpha virt. eigenvalues --    0.31681   0.31915   0.33007   0.33100   0.33890
 Alpha virt. eigenvalues --    0.34581   0.34695   0.35513   0.36623   0.36792
 Alpha virt. eigenvalues --    0.37010   0.38336   0.38884   0.39224   0.40703
 Alpha virt. eigenvalues --    0.42778   0.43496   0.43864   0.44116   0.45408
 Alpha virt. eigenvalues --    0.46466   0.47536   0.48461   0.49361   0.49786
 Alpha virt. eigenvalues --    0.50125   0.50359   0.50846   0.51386   0.51931
 Alpha virt. eigenvalues --    0.52185   0.52906   0.53045   0.53429   0.53746
 Alpha virt. eigenvalues --    0.53946   0.54328   0.54968   0.55057   0.55452
 Alpha virt. eigenvalues --    0.55564   0.55975   0.56198   0.56497   0.56780
 Alpha virt. eigenvalues --    0.57339   0.58181   0.58309   0.58422   0.59090
 Alpha virt. eigenvalues --    0.59258   0.59684   0.59721   0.60157   0.60447
 Alpha virt. eigenvalues --    0.60757   0.61123   0.61392   0.61597   0.61904
 Alpha virt. eigenvalues --    0.62102   0.62645   0.63330   0.63745   0.64127
 Alpha virt. eigenvalues --    0.64715   0.64920   0.65407   0.65989   0.67038
 Alpha virt. eigenvalues --    0.67258   0.67572   0.68291   0.69330   0.69635
 Alpha virt. eigenvalues --    0.70106   0.70495   0.71635   0.73000   0.73922
 Alpha virt. eigenvalues --    0.74299   0.75113   0.75323   0.75686   0.75960
 Alpha virt. eigenvalues --    0.76562   0.76832   0.76953   0.77698   0.78461
 Alpha virt. eigenvalues --    0.78873   0.78981   0.79971   0.80576   0.81017
 Alpha virt. eigenvalues --    0.81510   0.82151   0.82755   0.82810   0.83063
 Alpha virt. eigenvalues --    0.83671   0.83945   0.84422   0.84708   0.85390
 Alpha virt. eigenvalues --    0.85499   0.85832   0.86321   0.86691   0.87193
 Alpha virt. eigenvalues --    0.87445   0.87803   0.88291   0.88910   0.89084
 Alpha virt. eigenvalues --    0.89624   0.90010   0.90168   0.90359   0.90880
 Alpha virt. eigenvalues --    0.91507   0.91929   0.91993   0.92180   0.93213
 Alpha virt. eigenvalues --    0.93773   0.94261   0.94420   0.94832   0.95434
 Alpha virt. eigenvalues --    0.95940   0.96952   0.97217   0.97433   0.97999
 Alpha virt. eigenvalues --    0.98260   0.98942   0.99173   0.99792   1.00301
 Alpha virt. eigenvalues --    1.01064   1.01832   1.01984   1.02657   1.03789
 Alpha virt. eigenvalues --    1.04073   1.04477   1.04998   1.05579   1.06137
 Alpha virt. eigenvalues --    1.07510   1.08553   1.08625   1.09066   1.10171
 Alpha virt. eigenvalues --    1.10826   1.12275   1.12853   1.13239   1.14205
 Alpha virt. eigenvalues --    1.14564   1.14731   1.15576   1.15880   1.16994
 Alpha virt. eigenvalues --    1.17397   1.17665   1.18458   1.18552   1.19519
 Alpha virt. eigenvalues --    1.19702   1.20193   1.21097   1.22274   1.23097
 Alpha virt. eigenvalues --    1.23534   1.24563   1.25068   1.25721   1.25854
 Alpha virt. eigenvalues --    1.26571   1.28127   1.28493   1.29159   1.30665
 Alpha virt. eigenvalues --    1.30936   1.31629   1.32108   1.33218   1.34797
 Alpha virt. eigenvalues --    1.35853   1.36935   1.37482   1.38190   1.38685
 Alpha virt. eigenvalues --    1.39792   1.39926   1.40577   1.40675   1.42003
 Alpha virt. eigenvalues --    1.42501   1.43205   1.43465   1.44294   1.44907
 Alpha virt. eigenvalues --    1.45570   1.46928   1.47749   1.48128   1.48189
 Alpha virt. eigenvalues --    1.48990   1.49143   1.49457   1.50249   1.51292
 Alpha virt. eigenvalues --    1.51855   1.52545   1.53224   1.54670   1.56266
 Alpha virt. eigenvalues --    1.58101   1.58952   1.59843   1.60821   1.62062
 Alpha virt. eigenvalues --    1.63139   1.64192   1.64667   1.65476   1.66846
 Alpha virt. eigenvalues --    1.68532   1.69004   1.69432   1.70390   1.71326
 Alpha virt. eigenvalues --    1.72742   1.73431   1.74074   1.75238   1.75749
 Alpha virt. eigenvalues --    1.76135   1.77304   1.77454   1.77940   1.78371
 Alpha virt. eigenvalues --    1.79470   1.79880   1.80007   1.80305   1.80735
 Alpha virt. eigenvalues --    1.81215   1.81597   1.82408   1.83379   1.83485
 Alpha virt. eigenvalues --    1.83705   1.84236   1.84717   1.85660   1.86836
 Alpha virt. eigenvalues --    1.87077   1.87650   1.88260   1.89067   1.89333
 Alpha virt. eigenvalues --    1.90143   1.90648   1.90873   1.91185   1.91333
 Alpha virt. eigenvalues --    1.92102   1.92607   1.92653   1.94324   1.95231
 Alpha virt. eigenvalues --    1.96043   1.96992   1.97333   1.97657   1.97893
 Alpha virt. eigenvalues --    1.99017   2.00317   2.00862   2.01331   2.02227
 Alpha virt. eigenvalues --    2.02613   2.03524   2.04200   2.04676   2.05608
 Alpha virt. eigenvalues --    2.06083   2.06279   2.06455   2.08167   2.09017
 Alpha virt. eigenvalues --    2.09776   2.10140   2.10906   2.11736   2.12514
 Alpha virt. eigenvalues --    2.13780   2.14585   2.14708   2.15562   2.15645
 Alpha virt. eigenvalues --    2.15913   2.16344   2.17396   2.17747   2.18114
 Alpha virt. eigenvalues --    2.19073   2.20543   2.21353   2.21936   2.24832
 Alpha virt. eigenvalues --    2.25280   2.25738   2.26581   2.26669   2.27021
 Alpha virt. eigenvalues --    2.28031   2.28517   2.28854   2.28947   2.30505
 Alpha virt. eigenvalues --    2.31081   2.31696   2.31955   2.32313   2.33084
 Alpha virt. eigenvalues --    2.33894   2.34433   2.35226   2.36055   2.36727
 Alpha virt. eigenvalues --    2.36887   2.37372   2.38178   2.39421   2.39730
 Alpha virt. eigenvalues --    2.40628   2.42383   2.43153   2.45536   2.46201
 Alpha virt. eigenvalues --    2.48083   2.49274   2.50367   2.51139   2.55068
 Alpha virt. eigenvalues --    2.57182   2.57692   2.58044   2.58511   2.58813
 Alpha virt. eigenvalues --    2.59036   2.61676   2.62699   2.65113   2.65328
 Alpha virt. eigenvalues --    2.66124   2.66890   2.67762   2.69529   2.69947
 Alpha virt. eigenvalues --    2.71035   2.71183   2.72441   2.72883   2.74115
 Alpha virt. eigenvalues --    2.74757   2.75958   2.77740   2.78343   2.78889
 Alpha virt. eigenvalues --    2.79227   2.80649   2.81064   2.81710   2.82356
 Alpha virt. eigenvalues --    2.83085   2.85699   2.87384   2.88258   2.89704
 Alpha virt. eigenvalues --    2.92539   2.94422   2.95803   2.96699   2.98058
 Alpha virt. eigenvalues --    3.00945   3.04751   3.05895   3.08668   3.13372
 Alpha virt. eigenvalues --    3.18110   3.18966   3.27294   3.37833   3.39841
 Alpha virt. eigenvalues --    3.40939   3.65127   3.90785   3.94254   3.96385
 Alpha virt. eigenvalues --    4.00189   4.01276   4.04681   4.08267   4.08397
 Alpha virt. eigenvalues --    4.09254   4.09905   4.11201   4.11748   4.12951
 Alpha virt. eigenvalues --    4.14238   4.14413   4.15771   4.17428   4.18051
 Alpha virt. eigenvalues --    4.18760   4.22341   4.25033   4.28255   4.30089
 Alpha virt. eigenvalues --    4.32935   4.34916   4.36022   4.38337   4.40695
 Alpha virt. eigenvalues --    4.42702   4.43490   4.44001   4.46130   4.50825
 Alpha virt. eigenvalues --    4.51649   4.54844   4.71123   4.73266   4.77840
          Condensed to atoms (all electrons):
 Mulliken charges:
               1
     1  C   -0.464574
     2  C   -0.449002
     3  S    1.145105
     4  O   -0.543238
     5  O   -0.583112
     6  C   -0.223227
     7  C   -0.172578
     8  C   -0.152991
     9  C    0.369019
    10  N   -0.709100
    11  C    0.589880
    12  O   -0.482043
    13  C   -0.130388
    14  O   -0.516869
    15  C    0.165018
    16  C    0.177972
    17  C   -0.541320
    18  C   -0.300726
    19  C    0.071727
    20  B    0.372738
    21  O   -0.558316
    22  O   -0.585784
    23  C   -0.279320
    24  C    0.168217
    25  C   -0.525015
    26  C   -0.244483
    27  C    0.163805
    28  C   -0.225035
    29  N   -0.610844
    30  C    0.815214
    31  O   -0.551909
    32  O   -0.485140
    33  C   -0.154761
    34  C    0.147407
    35  C   -0.167183
    36  C   -0.130325
    37  C   -0.125518
    38  C   -0.137338
    39  C   -0.199506
    40  H    0.190191
    41  H    0.165704
    42  H    0.182625
    43  H    0.189879
    44  H    0.192571
    45  H    0.185770
    46  H    0.197493
    47  H    0.349527
    48  H    0.190515
    49  H    0.152163
    50  H    0.159550
    51  H    0.163744
    52  H    0.178941
    53  H    0.116013
    54  H    0.398473
    55  H    0.460417
    56  H    0.131522
    57  H    0.153477
    58  H    0.170548
    59  H    0.175576
    60  H    0.157229
    61  H    0.204481
    62  H    0.178604
    63  H    0.363763
    64  H    0.158237
    65  H    0.179708
    66  H    0.126497
    67  H    0.130751
    68  H    0.131693
    69  H    0.139389
    70  H    0.188491
 Sum of Mulliken charges =  -0.00000
 Mulliken charges with hydrogens summed into heavy atoms:
               1
     1  C    0.073946
     2  C   -0.066551
     3  S    1.145105
     4  O   -0.543238
     5  O   -0.583112
     6  C   -0.223227
     7  C    0.013192
     8  C    0.044502
     9  C    0.369019
    10  N   -0.359573
    11  C    0.589880
    12  O   -0.482043
    13  C    0.212290
    14  O   -0.516869
    15  C    0.165018
    16  C    0.177972
    17  C   -0.039085
    18  C   -0.184713
    19  C    0.071727
    20  B    0.372738
    21  O   -0.159843
    22  O   -0.125368
    23  C   -0.147797
    24  C    0.168217
    25  C   -0.025413
    26  C   -0.087254
    27  C    0.163805
    28  C    0.158050
    29  N   -0.247081
    30  C    0.815214
    31  O   -0.551909
    32  O   -0.485140
    33  C    0.183183
    34  C    0.147407
    35  C   -0.040686
    36  C    0.000427
    37  C    0.006175
    38  C    0.002051
    39  C   -0.011015
 Electronic spatial extent (au):  <R**2>=          23982.4024
 Charge=              0.0000 electrons
 Dipole moment (field-independent basis, Debye):
    X=             -0.8907    Y=             -2.1209    Z=              1.2275  Tot=              2.6074
 Quadrupole moment (field-independent basis, Debye-Ang):
   XX=           -217.4503   YY=           -261.9651   ZZ=           -226.6798
   XY=             16.9030   XZ=             18.1374   YZ=             16.7034
 Traceless Quadrupole moment (field-independent basis, Debye-Ang):
   XX=             17.9148   YY=            -26.6000   ZZ=              8.6852
   XY=             16.9030   XZ=             18.1374   YZ=             16.7034
 Octapole moment (field-independent basis, Debye-Ang**2):
  XXX=             98.7301  YYY=           -128.1087  ZZZ=              7.3314  XYY=            -53.8696
  XXY=            -81.8970  XXZ=            -51.5861  XZZ=              5.1840  YZZ=              8.2603
  YYZ=             62.7798  XYZ=             24.1775
 Hexadecapole moment (field-independent basis, Debye-Ang**3):
 XXXX=         -16340.6730 YYYY=         -13907.2077 ZZZZ=          -1534.4567 XXXY=            233.0898
 XXXZ=            250.1671 YYYX=            304.7713 YYYZ=            483.5133 ZZZX=            -11.3387
 ZZZY=             16.6661 XXYY=          -4935.7593 XXZZ=          -3176.8552 YYZZ=          -2415.7135
 XXYZ=            231.6216 YYXZ=            114.4420 ZZXY=             46.2172
 N-N= 4.700411073863D+03 E-N=-1.450094217961D+04  KE= 2.163976948039D+03
 No NMR shielding tensors so no spin-rotation constants.
 Leave Link  601 at Fri Nov  4 21:58:40 2022, MaxMem=   805306368 cpu:               2.3 elap:               0.4
 (Enter /home/wykgroup/appl/g16/l9999.exe)
 1\1\GINC-NODE90\FOpt\RB3LYP\6-31G(d)\C27H31B1N2O8S1\WYKGROUP\04-Nov-20
 22\0\\#p b3lyp/6-31g(d) opt SCF=XQC\\Gaussian input prepared by ASE\\0
 ,1\C,-4.8796153321,-3.2215481267,1.9353693435\C,-3.4119843393,-2.98748
 94349,1.5823137985\S,-2.9913958956,-3.8210437994,0.012215396\O,-3.1263
 144579,-5.2712605746,0.2266782257\O,-3.7741955521,-3.1623157473,-1.057
 3669532\C,-1.2373730261,-3.4516089847,-0.2006637956\C,-0.3567568158,-4
 .2957847957,0.4830871829\C,1.0153270768,-4.0638437233,0.4899662101\C,1
 .5136107901,-2.9494852941,-0.200049486\N,2.8693218175,-2.5843720406,-0
 .214519938\C,3.8977460481,-3.0745821013,0.5675893329\O,3.8131730003,-4
 .0662931007,1.2741335611\C,5.1923355983,-2.249643356,0.4782389542\O,5.
 1105914656,-0.9907939121,1.1576735782\C,4.3530243749,0.0165428491,0.56
 96853262\C,4.8234067891,0.695624143,-0.5689628635\C,6.1615267077,0.371
 3990646,-1.1928642667\C,4.0273566906,1.7282645779,-1.0821252812\C,2.80
 03685647,2.0969992935,-0.5114603905\B,1.9394414674,3.284694618,-1.1033
 798818\O,2.5463910858,4.3933516657,-1.642179728\O,0.5799443762,3.29301
 88931,-1.1028507365\C,2.393577591,1.4071404509,0.6426842848\C,3.156964
 0818,0.3860920702,1.2143244647\C,2.7332519219,-0.2891808838,2.49647399
 13\C,0.6276287074,-2.130107531,-0.918622311\C,-0.7459849805,-2.3566103
 318,-0.942195389\C,-1.5998621083,-1.4258922789,-1.795823529\N,-2.49238
 02598,-0.5586477826,-1.0426181218\C,-2.0630451412,0.5983540859,-0.4868
 447756\O,-0.9099599763,1.0143746656,-0.583292935\O,-3.0595799293,1.200
 4987736,0.1988709867\C,-2.8304196144,2.5618531005,0.6672846766\C,-3.47
 97833043,3.5651741254,-0.2519083128\C,-4.8689536598,3.7493803397,-0.21
 75757093\C,-5.4845834033,4.6588075513,-1.0755248566\C,-4.7133673978,5.
 39853166,-1.9760882632\C,-3.3296880619,5.222887896,-2.013690092\C,-2.7
 119663769,4.3086264729,-1.1571574573\H,-5.0857950203,-4.2889456071,2.0
 521186405\H,-5.1111780333,-2.7168132519,2.8788885665\H,-5.5378165032,-
 2.8227715012,1.1583103698\H,-3.1804204872,-1.9274162403,1.4405751933\H
 ,-2.7353036944,-3.4003414097,2.3363379696\H,-0.7546433326,-5.158019925
 9,1.0084074741\H,1.6902847757,-4.716633548,1.0245866985\H,3.0659691037
 ,-1.7197507637,-0.7049366793\H,5.9647623293,-2.8174756972,0.9969147026
 \H,5.4867794414,-2.1133052927,-0.5705808417\H,6.094144162,-0.423061138
 4,-1.9486484326\H,6.5703552813,1.2527399339,-1.6969202527\H,6.88111583
 47,0.0449703423,-0.4359301079\H,4.3891078389,2.2571629277,-1.963818052
 5\H,3.502506071,4.3747079982,-1.5031911921\H,0.1525270759,2.4447840737
 ,-0.872028596\H,1.4539310716,1.6759686362,1.1194280151\H,1.8175261092,
 0.167012251,2.8837109587\H,2.5448241317,-1.3599984382,2.3620207097\H,3
 .5119147742,-0.2031701707,3.2623043358\H,1.0174157351,-1.2695522116,-1
 .4567591115\H,-2.219105879,-2.0072770642,-2.4784724424\H,-0.9339985135
 ,-0.7920211354,-2.3856967876\H,-3.4541251036,-0.8473631386,-0.92741309
 07\H,-3.2820065038,2.5801092503,1.6623834068\H,-1.7558914664,2.7276814
 914,0.7528678696\H,-5.4689598093,3.1754741996,0.4854714011\H,-6.562242
 5924,4.7949145974,-1.0393112601\H,-5.1910812944,6.1117047786,-2.642843
 2091\H,-2.7250330482,5.7982466731,-2.7094755517\H,-1.6333379764,4.1773
 258839,-1.192909943\\Version=ES64L-G16RevB.01\State=1-A\HF=-2181.98014
 98\RMSD=4.854e-09\RMSF=2.733e-06\Dipole=0.6635537,0.6846557,0.3784728\
 Quadrupole=17.9129186,-24.3769726,6.464054,-8.1361181,-15.9481824,0.31
 75999\PG=C01 [X(C27H31B1N2O8S1)]\\@


 LIFE IS A CONTINUAL STRUGGLE AGAINST THE TENDENCY TO PRODUCE ENTROPY.
 Job cpu time:       0 days 15 hours 58 minutes  1.6 seconds.
 Elapsed time:       0 days  2 hours 22 minutes 45.8 seconds.
 File lengths (MBytes):  RWF=    266 Int=      0 D2E=      0 Chk=     35 Scr=      1
 Normal termination of Gaussian 16 at Fri Nov  4 21:58:40 2022.
