 Entering Gaussian System, Link 0=/home/wykgroup/appl/g16/g16
 Input=./calculation/no_transfer_pubchem_sampling_3_b3lyp/64594203.com
 Output=./calculation/no_transfer_pubchem_sampling_3_b3lyp/64594203.log
 Initial command:
 /home/wykgroup/appl/g16/l1.exe "/userdata/scratch/wykgroup/khs/./calculation/no_transfer_pubchem_sampling_3_b3lyp/64594203/Gau-15076.inp" -scrdir="/userdata/scratch/wykgroup/khs/./calculation/no_transfer_pubchem_sampling_3_b3lyp/64594203/"
 Entering Link 1 = /home/wykgroup/appl/g16/l1.exe PID=     15077.
  
 Copyright (c) 1988-2017, Gaussian, Inc.  All Rights Reserved.
  
 This is part of the Gaussian(R) 16 program.  It is based on
 the Gaussian(R) 09 system (copyright 2009, Gaussian, Inc.),
 the Gaussian(R) 03 system (copyright 2003, Gaussian, Inc.),
 the Gaussian(R) 98 system (copyright 1998, Gaussian, Inc.),
 the Gaussian(R) 94 system (copyright 1995, Gaussian, Inc.),
 the Gaussian 92(TM) system (copyright 1992, Gaussian, Inc.),
 the Gaussian 90(TM) system (copyright 1990, Gaussian, Inc.),
 the Gaussian 88(TM) system (copyright 1988, Gaussian, Inc.),
 the Gaussian 86(TM) system (copyright 1986, Carnegie Mellon
 University), and the Gaussian 82(TM) system (copyright 1983,
 Carnegie Mellon University). Gaussian is a federally registered
 trademark of Gaussian, Inc.
  
 This software contains proprietary and confidential information,
 including trade secrets, belonging to Gaussian, Inc.
  
 This software is provided under written license and may be
 used, copied, transmitted, or stored only in accord with that
 written license.
  
 The following legend is applicable only to US Government
 contracts under FAR:
  
                    RESTRICTED RIGHTS LEGEND
  
 Use, reproduction and disclosure by the US Government is
 subject to restrictions as set forth in subparagraphs (a)
 and (c) of the Commercial Computer Software - Restricted
 Rights clause in FAR 52.227-19.
  
 Gaussian, Inc.
 340 Quinnipiac St., Bldg. 40, Wallingford CT 06492
  
  
 ---------------------------------------------------------------
 Warning -- This program may not be used in any manner that
 competes with the business of Gaussian, Inc. or will provide
 assistance to any competitor of Gaussian, Inc.  The licensee
 of this program is prohibited from giving any competitor of
 Gaussian, Inc. access to this program.  By using this program,
 the user acknowledges that Gaussian, Inc. is engaged in the
 business of creating and licensing software in the field of
 computational chemistry and represents and warrants to the
 licensee that it is not a competitor of Gaussian, Inc. and that
 it will not use this program in any manner prohibited above.
 ---------------------------------------------------------------
  

 Cite this work as:
 Gaussian 16, Revision B.01,
 M. J. Frisch, G. W. Trucks, H. B. Schlegel, G. E. Scuseria, 
 M. A. Robb, J. R. Cheeseman, G. Scalmani, V. Barone, 
 G. A. Petersson, H. Nakatsuji, X. Li, M. Caricato, A. V. Marenich, 
 J. Bloino, B. G. Janesko, R. Gomperts, B. Mennucci, H. P. Hratchian, 
 J. V. Ortiz, A. F. Izmaylov, J. L. Sonnenberg, D. Williams-Young, 
 F. Ding, F. Lipparini, F. Egidi, J. Goings, B. Peng, A. Petrone, 
 T. Henderson, D. Ranasinghe, V. G. Zakrzewski, J. Gao, N. Rega, 
 G. Zheng, W. Liang, M. Hada, M. Ehara, K. Toyota, R. Fukuda, 
 J. Hasegawa, M. Ishida, T. Nakajima, Y. Honda, O. Kitao, H. Nakai, 
 T. Vreven, K. Throssell, J. A. Montgomery, Jr., J. E. Peralta, 
 F. Ogliaro, M. J. Bearpark, J. J. Heyd, E. N. Brothers, K. N. Kudin, 
 V. N. Staroverov, T. A. Keith, R. Kobayashi, J. Normand, 
 K. Raghavachari, A. P. Rendell, J. C. Burant, S. S. Iyengar, 
 J. Tomasi, M. Cossi, J. M. Millam, M. Klene, C. Adamo, R. Cammi, 
 J. W. Ochterski, R. L. Martin, K. Morokuma, O. Farkas, 
 J. B. Foresman, and D. J. Fox, Gaussian, Inc., Wallingford CT, 2016.
 
 ******************************************
 Gaussian 16:  ES64L-G16RevB.01 20-Dec-2017
                 4-Nov-2022 
 ******************************************
 %chk=./calculation/no_transfer_pubchem_sampling_3_b3lyp/64594203.chk
 %nprocshared=7
 Will use up to    7 processors via shared memory.
 %mem=6GB
 -----------------------------
 #p b3lyp/6-31g(d) opt SCF=XQC
 -----------------------------
 1/18=20,19=15,26=3,38=1/1,3;
 2/9=110,12=2,17=6,18=5,40=1/2;
 3/5=1,6=6,7=1,11=2,25=1,30=1,71=1,74=-5/1,2,3;
 4//1;
 5/5=2,8=3,13=1,38=5/2,8;
 6/7=2,8=2,9=2,10=2,28=1/1;
 7//1,2,3,16;
 1/18=20,19=15,26=3/3(2);
 2/9=110/2;
 99//99;
 2/9=110/2;
 3/5=1,6=6,7=1,11=2,25=1,30=1,71=1,74=-5/1,2,3;
 4/5=5,16=3,69=1/1;
 5/5=2,8=3,13=1,38=5/2,8;
 7//1,2,3,16;
 1/18=20,19=15,26=3/3(-5);
 2/9=110/2;
 6/7=2,8=2,9=2,10=2,19=2,28=1/1;
 99/9=1/99;
 Leave Link    1 at Fri Nov  4 19:38:03 2022, MaxMem=   805306368 cpu:               0.6 elap:               0.1
 (Enter /home/wykgroup/appl/g16/l101.exe)
 ------------------------------
 Gaussian input prepared by ASE
 ------------------------------
 Symbolic Z-matrix:
 Charge =  0 Multiplicity = 1
 N                    -5.74059  -1.1038   -0.29257 
 C                    -4.6151   -0.85824  -0.82932 
 N                    -4.33243  -0.76013  -2.15391 
 C                    -3.45064  -0.61446   0.05413 
 C                    -3.59344  -0.58483   1.43522 
 C                    -2.46056  -0.37379   2.20516 
 C                    -1.23995  -0.18779   1.58392 
 C                    -1.20536  -0.21875   0.18673 
 O                    -0.06071  -0.11383  -0.53223 
 C                     0.99598   0.62887  -0.06137 
 C                     0.82877   1.83041   0.58162 
 C                     1.94436   2.57546   0.98618 
 C                     3.21072   2.12464   0.7421 
 C                     3.41834   0.90157   0.07088 
 C                     4.71083   0.40891  -0.20628 
 C                     4.88369  -0.78097  -0.85612 
 C                     3.77242  -1.53687  -1.25937 
 C                     2.50542  -1.08924  -1.00868 
 C                     2.29803   0.13483  -0.34168 
 N                    -2.27926  -0.43336  -0.55163 
 H                    -6.4925   -1.26096  -0.95951 
 H                    -3.36403  -0.65546  -2.40868 
 H                    -5.00657  -1.03203  -2.8475 
 H                    -4.57027  -0.73453   1.8613 
 H                    -2.52345  -0.36014   3.2835 
 H                    -0.33344  -0.03966   2.15033 
 H                    -0.16619   2.20767   0.76936 
 H                     1.78522   3.51649   1.49117 
 H                     4.06978   2.69958   1.05488 
 H                     5.56399   0.99432   0.10546 
 H                     5.87805  -1.14855  -1.06366 
 H                     3.9266   -2.476    -1.76991 
 H                     1.64229  -1.65935  -1.31671 
 
 ITRead=  0  0  0  0  0  0  0  0  0  0  0  0  0  0  0  0  0  0  0  0
 ITRead=  0  0  0  0  0  0  0  0  0  0  0  0  0
 MicOpt= -1 -1 -1 -1 -1 -1 -1 -1 -1 -1 -1 -1 -1 -1 -1 -1 -1 -1 -1 -1
 MicOpt= -1 -1 -1 -1 -1 -1 -1 -1 -1 -1 -1 -1 -1
 NAtoms=     33 NQM=       33 NQMF=       0 NMMI=      0 NMMIF=      0
                NMic=       0 NMicF=      0.
                    Isotopes and Nuclear Properties:
 (Nuclear quadrupole moments (NQMom) in fm**2, nuclear magnetic moments (NMagM)
  in nuclear magnetons)

  Atom         1           2           3           4           5           6           7           8           9          10
 IAtWgt=          14          12          14          12          12          12          12          12          16          12
 AtmWgt=  14.0030740  12.0000000  14.0030740  12.0000000  12.0000000  12.0000000  12.0000000  12.0000000  15.9949146  12.0000000
 NucSpn=           2           0           2           0           0           0           0           0           0           0
 AtZEff=  -0.0000000  -0.0000000  -0.0000000  -0.0000000  -0.0000000  -0.0000000  -0.0000000  -0.0000000  -0.0000000  -0.0000000
 NQMom=    2.0440000   0.0000000   2.0440000   0.0000000   0.0000000   0.0000000   0.0000000   0.0000000   0.0000000   0.0000000
 NMagM=    0.4037610   0.0000000   0.4037610   0.0000000   0.0000000   0.0000000   0.0000000   0.0000000   0.0000000   0.0000000
 AtZNuc=   7.0000000   6.0000000   7.0000000   6.0000000   6.0000000   6.0000000   6.0000000   6.0000000   8.0000000   6.0000000

  Atom        11          12          13          14          15          16          17          18          19          20
 IAtWgt=          12          12          12          12          12          12          12          12          12          14
 AtmWgt=  12.0000000  12.0000000  12.0000000  12.0000000  12.0000000  12.0000000  12.0000000  12.0000000  12.0000000  14.0030740
 NucSpn=           0           0           0           0           0           0           0           0           0           2
 AtZEff=  -0.0000000  -0.0000000  -0.0000000  -0.0000000  -0.0000000  -0.0000000  -0.0000000  -0.0000000  -0.0000000  -0.0000000
 NQMom=    0.0000000   0.0000000   0.0000000   0.0000000   0.0000000   0.0000000   0.0000000   0.0000000   0.0000000   2.0440000
 NMagM=    0.0000000   0.0000000   0.0000000   0.0000000   0.0000000   0.0000000   0.0000000   0.0000000   0.0000000   0.4037610
 AtZNuc=   6.0000000   6.0000000   6.0000000   6.0000000   6.0000000   6.0000000   6.0000000   6.0000000   6.0000000   7.0000000

  Atom        21          22          23          24          25          26          27          28          29          30
 IAtWgt=           1           1           1           1           1           1           1           1           1           1
 AtmWgt=   1.0078250   1.0078250   1.0078250   1.0078250   1.0078250   1.0078250   1.0078250   1.0078250   1.0078250   1.0078250
 NucSpn=           1           1           1           1           1           1           1           1           1           1
 AtZEff=  -0.0000000  -0.0000000  -0.0000000  -0.0000000  -0.0000000  -0.0000000  -0.0000000  -0.0000000  -0.0000000  -0.0000000
 NQMom=    0.0000000   0.0000000   0.0000000   0.0000000   0.0000000   0.0000000   0.0000000   0.0000000   0.0000000   0.0000000
 NMagM=    2.7928460   2.7928460   2.7928460   2.7928460   2.7928460   2.7928460   2.7928460   2.7928460   2.7928460   2.7928460
 AtZNuc=   1.0000000   1.0000000   1.0000000   1.0000000   1.0000000   1.0000000   1.0000000   1.0000000   1.0000000   1.0000000

  Atom        31          32          33
 IAtWgt=           1           1           1
 AtmWgt=   1.0078250   1.0078250   1.0078250
 NucSpn=           1           1           1
 AtZEff=  -0.0000000  -0.0000000  -0.0000000
 NQMom=    0.0000000   0.0000000   0.0000000
 NMagM=    2.7928460   2.7928460   2.7928460
 AtZNuc=   1.0000000   1.0000000   1.0000000
 Leave Link  101 at Fri Nov  4 19:38:04 2022, MaxMem=   805306368 cpu:               1.4 elap:               0.3
 (Enter /home/wykgroup/appl/g16/l103.exe)

 GradGradGradGradGradGradGradGradGradGradGradGradGradGradGradGradGradGrad
 Berny optimization.
 Initialization pass.
                           ----------------------------
                           !    Initial Parameters    !
                           ! (Angstroms and Degrees)  !
 --------------------------                            --------------------------
 ! Name  Definition              Value          Derivative Info.                !
 --------------------------------------------------------------------------------
 ! R1    R(1,2)                  1.2709         estimate D2E/DX2                !
 ! R2    R(1,21)                 1.0173         estimate D2E/DX2                !
 ! R3    R(2,3)                  1.358          estimate D2E/DX2                !
 ! R4    R(2,4)                  1.4818         estimate D2E/DX2                !
 ! R5    R(3,22)                 1.0068         estimate D2E/DX2                !
 ! R6    R(3,23)                 1.0047         estimate D2E/DX2                !
 ! R7    R(4,5)                  1.3888         estimate D2E/DX2                !
 ! R8    R(4,20)                 1.3311         estimate D2E/DX2                !
 ! R9    R(5,6)                  1.3859         estimate D2E/DX2                !
 ! R10   R(5,24)                 1.0762         estimate D2E/DX2                !
 ! R11   R(6,7)                  1.3822         estimate D2E/DX2                !
 ! R12   R(6,25)                 1.0803         estimate D2E/DX2                !
 ! R13   R(7,8)                  1.398          estimate D2E/DX2                !
 ! R14   R(7,26)                 1.0791         estimate D2E/DX2                !
 ! R15   R(8,9)                  1.3558         estimate D2E/DX2                !
 ! R16   R(8,20)                 1.3208         estimate D2E/DX2                !
 ! R17   R(9,10)                 1.3747         estimate D2E/DX2                !
 ! R18   R(10,11)                1.373          estimate D2E/DX2                !
 ! R19   R(10,19)                1.4206         estimate D2E/DX2                !
 ! R20   R(11,12)                1.4012         estimate D2E/DX2                !
 ! R21   R(11,27)                1.0805         estimate D2E/DX2                !
 ! R22   R(12,13)                1.3662         estimate D2E/DX2                !
 ! R23   R(12,28)                1.0798         estimate D2E/DX2                !
 ! R24   R(13,14)                1.4105         estimate D2E/DX2                !
 ! R25   R(13,29)                1.08           estimate D2E/DX2                !
 ! R26   R(14,15)                1.4107         estimate D2E/DX2                !
 ! R27   R(14,19)                1.4189         estimate D2E/DX2                !
 ! R28   R(15,16)                1.3667         estimate D2E/DX2                !
 ! R29   R(15,30)                1.0806         estimate D2E/DX2                !
 ! R30   R(16,17)                1.4032         estimate D2E/DX2                !
 ! R31   R(16,31)                1.0802         estimate D2E/DX2                !
 ! R32   R(17,18)                1.3669         estimate D2E/DX2                !
 ! R33   R(17,32)                1.08           estimate D2E/DX2                !
 ! R34   R(18,19)                1.4093         estimate D2E/DX2                !
 ! R35   R(18,33)                1.0793         estimate D2E/DX2                !
 ! A1    A(2,1,21)             114.0503         estimate D2E/DX2                !
 ! A2    A(1,2,3)              127.609          estimate D2E/DX2                !
 ! A3    A(1,2,4)              118.4189         estimate D2E/DX2                !
 ! A4    A(3,2,4)              113.958          estimate D2E/DX2                !
 ! A5    A(2,3,22)             117.0362         estimate D2E/DX2                !
 ! A6    A(2,3,23)             120.9399         estimate D2E/DX2                !
 ! A7    A(22,3,23)            119.9227         estimate D2E/DX2                !
 ! A8    A(2,4,5)              121.0373         estimate D2E/DX2                !
 ! A9    A(2,4,20)             116.2696         estimate D2E/DX2                !
 ! A10   A(5,4,20)             122.6928         estimate D2E/DX2                !
 ! A11   A(4,5,6)              118.1431         estimate D2E/DX2                !
 ! A12   A(4,5,24)             118.9531         estimate D2E/DX2                !
 ! A13   A(6,5,24)             122.9013         estimate D2E/DX2                !
 ! A14   A(5,6,7)              119.516          estimate D2E/DX2                !
 ! A15   A(5,6,25)             120.59           estimate D2E/DX2                !
 ! A16   A(7,6,25)             119.8928         estimate D2E/DX2                !
 ! A17   A(6,7,8)              117.9099         estimate D2E/DX2                !
 ! A18   A(6,7,26)             121.6281         estimate D2E/DX2                !
 ! A19   A(8,7,26)             120.4537         estimate D2E/DX2                !
 ! A20   A(7,8,9)              123.3107         estimate D2E/DX2                !
 ! A21   A(7,8,20)             122.8338         estimate D2E/DX2                !
 ! A22   A(9,8,20)             113.7394         estimate D2E/DX2                !
 ! A23   A(8,9,10)             120.6059         estimate D2E/DX2                !
 ! A24   A(9,10,11)            122.6549         estimate D2E/DX2                !
 ! A25   A(9,10,19)            116.6831         estimate D2E/DX2                !
 ! A26   A(11,10,19)           120.5563         estimate D2E/DX2                !
 ! A27   A(10,11,12)           120.2375         estimate D2E/DX2                !
 ! A28   A(10,11,27)           119.938          estimate D2E/DX2                !
 ! A29   A(12,11,27)           119.8225         estimate D2E/DX2                !
 ! A30   A(11,12,13)           120.7273         estimate D2E/DX2                !
 ! A31   A(11,12,28)           118.7573         estimate D2E/DX2                !
 ! A32   A(13,12,28)           120.5148         estimate D2E/DX2                !
 ! A33   A(12,13,14)           120.5033         estimate D2E/DX2                !
 ! A34   A(12,13,29)           120.6569         estimate D2E/DX2                !
 ! A35   A(14,13,29)           118.8391         estimate D2E/DX2                !
 ! A36   A(13,14,15)           122.0853         estimate D2E/DX2                !
 ! A37   A(13,14,19)           119.388          estimate D2E/DX2                !
 ! A38   A(15,14,19)           118.5268         estimate D2E/DX2                !
 ! A39   A(14,15,16)           120.8863         estimate D2E/DX2                !
 ! A40   A(14,15,30)           118.5208         estimate D2E/DX2                !
 ! A41   A(16,15,30)           120.5928         estimate D2E/DX2                !
 ! A42   A(15,16,17)           120.3625         estimate D2E/DX2                !
 ! A43   A(15,16,31)           120.2657         estimate D2E/DX2                !
 ! A44   A(17,16,31)           119.3718         estimate D2E/DX2                !
 ! A45   A(16,17,18)           120.3279         estimate D2E/DX2                !
 ! A46   A(16,17,32)           119.4214         estimate D2E/DX2                !
 ! A47   A(18,17,32)           120.2507         estimate D2E/DX2                !
 ! A48   A(17,18,19)           120.5051         estimate D2E/DX2                !
 ! A49   A(17,18,33)           121.0592         estimate D2E/DX2                !
 ! A50   A(19,18,33)           118.4355         estimate D2E/DX2                !
 ! A51   A(10,19,14)           118.581          estimate D2E/DX2                !
 ! A52   A(10,19,18)           122.0274         estimate D2E/DX2                !
 ! A53   A(14,19,18)           119.3911         estimate D2E/DX2                !
 ! A54   A(4,20,8)             118.8953         estimate D2E/DX2                !
 ! D1    D(21,1,2,3)             1.4817         estimate D2E/DX2                !
 ! D2    D(21,1,2,4)          -179.9739         estimate D2E/DX2                !
 ! D3    D(1,2,3,22)          -173.7126         estimate D2E/DX2                !
 ! D4    D(1,2,3,23)           -10.2072         estimate D2E/DX2                !
 ! D5    D(4,2,3,22)             7.6882         estimate D2E/DX2                !
 ! D6    D(4,2,3,23)           171.1937         estimate D2E/DX2                !
 ! D7    D(1,2,4,5)             -3.3045         estimate D2E/DX2                !
 ! D8    D(1,2,4,20)           176.4868         estimate D2E/DX2                !
 ! D9    D(3,2,4,5)            175.4338         estimate D2E/DX2                !
 ! D10   D(3,2,4,20)            -4.7749         estimate D2E/DX2                !
 ! D11   D(2,4,5,6)            178.9594         estimate D2E/DX2                !
 ! D12   D(2,4,5,24)            -0.4881         estimate D2E/DX2                !
 ! D13   D(20,4,5,6)            -0.8182         estimate D2E/DX2                !
 ! D14   D(20,4,5,24)          179.7343         estimate D2E/DX2                !
 ! D15   D(2,4,20,8)          -179.6618         estimate D2E/DX2                !
 ! D16   D(5,4,20,8)             0.1257         estimate D2E/DX2                !
 ! D17   D(4,5,6,7)              0.6492         estimate D2E/DX2                !
 ! D18   D(4,5,6,25)          -178.9496         estimate D2E/DX2                !
 ! D19   D(24,5,6,7)          -179.9266         estimate D2E/DX2                !
 ! D20   D(24,5,6,25)            0.4746         estimate D2E/DX2                !
 ! D21   D(5,6,7,8)              0.1424         estimate D2E/DX2                !
 ! D22   D(5,6,7,26)          -178.8127         estimate D2E/DX2                !
 ! D23   D(25,6,7,8)           179.7441         estimate D2E/DX2                !
 ! D24   D(25,6,7,26)            0.789          estimate D2E/DX2                !
 ! D25   D(6,7,8,9)           -176.7108         estimate D2E/DX2                !
 ! D26   D(6,7,8,20)            -0.877          estimate D2E/DX2                !
 ! D27   D(26,7,8,9)             2.2571         estimate D2E/DX2                !
 ! D28   D(26,7,8,20)          178.0909         estimate D2E/DX2                !
 ! D29   D(7,8,9,10)           -31.2585         estimate D2E/DX2                !
 ! D30   D(20,8,9,10)          152.5652         estimate D2E/DX2                !
 ! D31   D(7,8,20,4)             0.7444         estimate D2E/DX2                !
 ! D32   D(9,8,20,4)           176.9413         estimate D2E/DX2                !
 ! D33   D(8,9,10,11)          -39.6243         estimate D2E/DX2                !
 ! D34   D(8,9,10,19)          144.0989         estimate D2E/DX2                !
 ! D35   D(9,10,11,12)        -177.0389         estimate D2E/DX2                !
 ! D36   D(9,10,11,27)           2.4429         estimate D2E/DX2                !
 ! D37   D(19,10,11,12)         -0.9023         estimate D2E/DX2                !
 ! D38   D(19,10,11,27)        178.5794         estimate D2E/DX2                !
 ! D39   D(9,10,19,14)         177.0937         estimate D2E/DX2                !
 ! D40   D(9,10,19,18)          -3.1548         estimate D2E/DX2                !
 ! D41   D(11,10,19,14)          0.7339         estimate D2E/DX2                !
 ! D42   D(11,10,19,18)       -179.5146         estimate D2E/DX2                !
 ! D43   D(10,11,12,13)          0.3705         estimate D2E/DX2                !
 ! D44   D(10,11,12,28)       -179.9182         estimate D2E/DX2                !
 ! D45   D(27,11,12,13)       -179.1118         estimate D2E/DX2                !
 ! D46   D(27,11,12,28)          0.5995         estimate D2E/DX2                !
 ! D47   D(11,12,13,14)          0.3252         estimate D2E/DX2                !
 ! D48   D(11,12,13,29)       -179.9687         estimate D2E/DX2                !
 ! D49   D(28,12,13,14)       -179.381          estimate D2E/DX2                !
 ! D50   D(28,12,13,29)          0.3251         estimate D2E/DX2                !
 ! D51   D(12,13,14,15)        179.5728         estimate D2E/DX2                !
 ! D52   D(12,13,14,19)         -0.4768         estimate D2E/DX2                !
 ! D53   D(29,13,14,15)         -0.1385         estimate D2E/DX2                !
 ! D54   D(29,13,14,19)        179.8118         estimate D2E/DX2                !
 ! D55   D(13,14,15,16)        179.8709         estimate D2E/DX2                !
 ! D56   D(13,14,15,30)         -0.2219         estimate D2E/DX2                !
 ! D57   D(19,14,15,16)         -0.0799         estimate D2E/DX2                !
 ! D58   D(19,14,15,30)        179.8274         estimate D2E/DX2                !
 ! D59   D(13,14,19,10)         -0.0464         estimate D2E/DX2                !
 ! D60   D(13,14,19,18)       -179.8045         estimate D2E/DX2                !
 ! D61   D(15,14,19,10)        179.9057         estimate D2E/DX2                !
 ! D62   D(15,14,19,18)          0.1476         estimate D2E/DX2                !
 ! D63   D(14,15,16,17)         -0.0615         estimate D2E/DX2                !
 ! D64   D(14,15,16,31)        179.9704         estimate D2E/DX2                !
 ! D65   D(30,15,16,17)       -179.9668         estimate D2E/DX2                !
 ! D66   D(30,15,16,31)          0.0651         estimate D2E/DX2                !
 ! D67   D(15,16,17,18)          0.1369         estimate D2E/DX2                !
 ! D68   D(15,16,17,32)       -179.8672         estimate D2E/DX2                !
 ! D69   D(31,16,17,18)       -179.8948         estimate D2E/DX2                !
 ! D70   D(31,16,17,32)          0.1011         estimate D2E/DX2                !
 ! D71   D(16,17,18,19)         -0.0666         estimate D2E/DX2                !
 ! D72   D(16,17,18,33)        179.7793         estimate D2E/DX2                !
 ! D73   D(32,17,18,19)        179.9376         estimate D2E/DX2                !
 ! D74   D(32,17,18,33)         -0.2165         estimate D2E/DX2                !
 ! D75   D(17,18,19,10)       -179.8253         estimate D2E/DX2                !
 ! D76   D(17,18,19,14)         -0.0758         estimate D2E/DX2                !
 ! D77   D(33,18,19,10)          0.3248         estimate D2E/DX2                !
 ! D78   D(33,18,19,14)       -179.9257         estimate D2E/DX2                !
 --------------------------------------------------------------------------------
 Trust Radius=3.00D-01 FncErr=1.00D-07 GrdErr=1.00D-06 EigMax=2.50D+02 EigMin=1.00D-04
 Number of steps in this run=    177 maximum allowed number of steps=    198.
 GradGradGradGradGradGradGradGradGradGradGradGradGradGradGradGradGradGrad

 Leave Link  103 at Fri Nov  4 19:38:04 2022, MaxMem=   805306368 cpu:               0.1 elap:               0.0
 (Enter /home/wykgroup/appl/g16/l202.exe)
                          Input orientation:                          
 ---------------------------------------------------------------------
 Center     Atomic      Atomic             Coordinates (Angstroms)
 Number     Number       Type             X           Y           Z
 ---------------------------------------------------------------------
      1          7           0       -5.740591   -1.103801   -0.292569
      2          6           0       -4.615096   -0.858243   -0.829317
      3          7           0       -4.332425   -0.760127   -2.153911
      4          6           0       -3.450642   -0.614456    0.054127
      5          6           0       -3.593436   -0.584827    1.435219
      6          6           0       -2.460558   -0.373794    2.205157
      7          6           0       -1.239951   -0.187794    1.583921
      8          6           0       -1.205364   -0.218753    0.186735
      9          8           0       -0.060713   -0.113828   -0.532232
     10          6           0        0.995979    0.628871   -0.061374
     11          6           0        0.828771    1.830407    0.581615
     12          6           0        1.944364    2.575458    0.986182
     13          6           0        3.210722    2.124638    0.742102
     14          6           0        3.418342    0.901574    0.070876
     15          6           0        4.710828    0.408910   -0.206282
     16          6           0        4.883689   -0.780970   -0.856118
     17          6           0        3.772417   -1.536874   -1.259366
     18          6           0        2.505419   -1.089238   -1.008679
     19          6           0        2.298028    0.134831   -0.341681
     20          7           0       -2.279259   -0.433364   -0.551625
     21          1           0       -6.492501   -1.260963   -0.959506
     22          1           0       -3.364026   -0.655458   -2.408678
     23          1           0       -5.006571   -1.032031   -2.847500
     24          1           0       -4.570266   -0.734532    1.861301
     25          1           0       -2.523454   -0.360141    3.283496
     26          1           0       -0.333440   -0.039656    2.150331
     27          1           0       -0.166187    2.207666    0.769362
     28          1           0        1.785220    3.516495    1.491165
     29          1           0        4.069776    2.699582    1.054877
     30          1           0        5.563988    0.994318    0.105459
     31          1           0        5.878048   -1.148553   -1.063657
     32          1           0        3.926603   -2.476000   -1.769913
     33          1           0        1.642289   -1.659348   -1.316710
 ---------------------------------------------------------------------
                    Distance matrix (angstroms):
                    1          2          3          4          5
     1  N    0.000000
     2  C    1.270880   0.000000
     3  N    2.359161   1.357969   0.000000
     4  C    2.367176   1.481843   2.382057   0.000000
     5  C    2.804436   2.499334   3.668609   1.388770   0.000000
     6  C    4.186903   3.752967   4.759686   2.380150   1.385912
     7  C    4.961456   4.202955   4.884911   2.722034   2.391368
     8  C    4.645571   3.614911   3.943377   2.283734   2.719487
     9  O    5.770485   4.624372   4.614658   3.476502   4.070975
    10  C    6.959668   5.855375   5.890664   4.618619   4.977508
    11  C    7.247778   6.233399   6.389986   4.956710   5.110568
    12  C    8.615723   7.623179   7.770740   6.336432   6.391891
    13  C    9.571801   8.521172   8.579501   7.235311   7.356506
    14  C    9.382946   8.273054   8.233184   7.034314   7.296290
    15  C   10.560677   9.432217   9.324180   8.229501   8.523077
    16  C   10.644113   9.499138   9.307065   8.385545   8.783527
    17  C    9.571812   8.425905   8.190972   7.399237   7.900821
    18  C    8.277059   7.126519   6.940892   6.068743   6.589621
    19  C    8.133635   7.001091   6.931669   5.810792   6.195533
    20  N    3.535169   2.390350   2.624802   1.331116   2.386955
    21  H    1.017288   1.924521   2.518605   3.270830   3.820530
    22  H    3.213564   2.025014   1.006806   2.464669   3.851385
    23  H    2.659250   2.063132   1.004724   3.318843   4.531956
    24  H    2.478946   2.693834   4.022332   2.129285   1.076176
    25  H    4.867365   4.640938   5.744368   3.369448   2.147434
    26  H    6.028055   5.280243   5.919245   3.800186   3.381741
    27  H    6.570197   5.634568   5.891592   4.389029   4.470729
    28  H    9.009255   8.092405   8.306724   6.822323   6.764164
    29  H   10.607763   9.572634   9.636540   8.278952   8.346066
    30  H   11.504523  10.388433  10.301545   9.157202   9.387245
    31  H   11.644284  10.499775  10.275859   9.410588   9.811787
    32  H    9.875227   8.744283   8.444123   7.824079   8.390494
    33  H    7.474250   6.327258   6.099730   5.376703   6.011699
                    6          7          8          9         10
     6  C    0.000000
     7  C    1.382176   0.000000
     8  C    2.381927   1.397957   0.000000
     9  O    3.649676   2.423670   1.355783   0.000000
    10  C    4.253251   2.893669   2.371906   1.374739   0.000000
    11  C    4.279495   3.058981   2.914223   2.410785   1.372983
    12  C    5.439423   4.258253   4.285734   3.682143   2.405412
    13  C    6.367583   5.085714   5.030083   4.163766   2.790695
    14  C    6.383038   5.017541   4.758909   3.674045   2.441249
    15  C    7.606342   6.242808   5.962361   4.811144   3.724175
    16  C    7.967131   6.618506   6.203241   4.999710   4.211124
    17  C    7.225348   5.918457   5.348547   4.152912   3.719442
    18  C    5.958316   4.643487   3.994580   2.786299   2.475418
    19  C    5.421183   4.040956   3.560618   2.379454   1.420556
    20  N    2.763379   2.387682   1.320789   2.241523   3.477912
    21  H    5.201800   5.933802   5.509436   6.547242   7.775311
    22  H    4.709890   4.546565   3.403924   3.837484   5.115563
    23  H    5.696033   5.876875   4.931245   5.537605   6.822881
    24  H    2.167772   3.386276   3.793780   5.142990   6.044720
    25  H    1.080258   2.136735   3.368572   4.548136   4.955069
    26  H    2.153900   1.079132   2.155930   2.697411   2.665693
    27  H    3.740264   2.748582   2.703119   2.663570   2.129165
    28  H    5.802652   4.783515   4.959558   4.547620   3.372188
    29  H    7.308492   6.067127   6.090768   5.243580   3.870670
    30  H    8.406771   7.062353   6.877665   5.768180   4.585640
    31  H    8.989869   7.654974   7.252774   6.051607   5.291352
    32  H    7.811291   6.570949   5.938074   4.796916   4.598683
    33  H    5.557837   4.345853   3.527717   2.429867   2.688779
                   11         12         13         14         15
    11  C    0.000000
    12  C    1.401187   0.000000
    13  C    2.405414   1.366190   0.000000
    14  C    2.798117   2.410867   1.410509   0.000000
    15  C    4.208539   3.710690   2.468496   1.410693   0.000000
    16  C    5.032766   4.826936   3.714255   2.416095   1.366742
    17  C    4.836615   5.029467   4.210469   2.800168   2.403264
    18  C    3.723508   4.210017   3.727155   2.441761   2.784262
    19  C    2.426143   2.800885   2.442729   1.418873   2.432088
    20  N    4.008584   5.408960   6.193302   5.884915   7.049113
    21  H    8.095224   9.470192  10.416828  10.196228  11.352110
    22  H    5.718472   7.081165   7.802798   7.387357   8.437221
    23  H    7.348714   8.719323   9.506509   9.123316  10.172521
    24  H    6.112783   7.359503   8.364881   8.348672   9.577112
    25  H    4.830742   5.818659   6.746375   6.871520   8.068756
    26  H    2.703468   3.658204   4.385016   4.391573   5.585649
    27  H    1.080516   2.153302   3.378040   3.878480   5.288920
    28  H    2.141254   1.079762   2.128477   3.394424   4.593211
    29  H    3.388740   2.130141   1.079983   2.150688   2.692331
    30  H    4.831982   4.046894   2.687154   2.147928   1.080633
    31  H    6.089033   5.791715   4.592295   3.397108   2.126778
    32  H    5.802705   6.086259   5.290423   3.880057   3.373819
    33  H    4.055100   4.829922   4.584457   3.411463   3.863506
                   16         17         18         19         20
    16  C    0.000000
    17  C    1.403184   0.000000
    18  C    2.403014   1.366933   0.000000
    19  C    2.790875   2.410512   1.409341   0.000000
    20  N    7.177839   6.192045   4.851001   4.617194   0.000000
    21  H   11.386782  10.273003   8.999693   8.922072   4.313085
    22  H    8.393510   7.281939   6.049673   6.079136   2.162103
    23  H   10.091872   8.935753   7.733985   7.810113   3.614924
    24  H    9.836859   8.943304   7.643816   7.265149   3.340902
    25  H    8.495839   7.852407   6.651610   6.052569   3.843585
    26  H    6.066854   5.543082   4.374938   3.628387   3.352877
    27  H    6.088956   5.800855   4.600922   3.406379   3.631132
    28  H    5.794692   6.086946   5.289677   3.880457   6.024481
    29  H    4.053221   4.836497   4.589187   3.415760   7.259921
    30  H    2.130513   3.388127   3.864887   3.406633   7.999160
    31  H    1.080249   2.150064   3.373598   3.871029   8.204592
    32  H    2.150387   1.079995   2.126582   3.392424   6.645999
    33  H    3.389745   2.134417   1.079307   2.144704   4.179345
                   21         22         23         24         25
    21  H    0.000000
    22  H    3.500585   0.000000
    23  H    2.413487   1.741358   0.000000
    24  H    3.453849   4.437791   4.738319   0.000000
    25  H    5.879446   5.761477   6.648791   2.520367   0.000000
    26  H    7.006905   5.508922   6.913846   4.303149   2.486551
    27  H    7.419071   5.340748   6.856138   5.407843   4.297814
    28  H    9.866639   7.689519   9.254271   7.655093   6.066748
    29  H   11.458855   8.860808  10.560945   9.332406   7.602587
    30  H   12.311758   9.420832  11.160769  10.429526   8.794384
    31  H   12.371498   9.352441  11.030440  10.857903   9.492342
    32  H   10.520970   7.541595   9.113059   9.402936   8.462685
    33  H    8.152369   5.221434   6.851582   7.039238   6.340603
                   26         27         28         29         30
    26  H    0.000000
    27  H    2.643011   0.000000
    28  H    4.191591   2.458053   0.000000
    29  H    5.300166   4.273978   2.465135   0.000000
    30  H    6.326947   5.894734   4.749804   2.458046   0.000000
    31  H    7.081098   7.152408   6.711261   4.750387   2.461171
    32  H    6.281086   6.718301   7.150534   5.898016   4.270967
    33  H    4.306655   4.751429   5.890156   5.524255   4.944111
                   31         32         33
    31  H    0.000000
    32  H    2.463545   0.000000
    33  H    4.273945   2.467874   0.000000
 Stoichiometry    C16H13N3O
 Framework group  C1[X(C16H13N3O)]
 Deg. of freedom    93
 Full point group                 C1      NOp   1
 Largest Abelian subgroup         C1      NOp   1
 Largest concise Abelian subgroup C1      NOp   1
                         Standard orientation:                         
 ---------------------------------------------------------------------
 Center     Atomic      Atomic             Coordinates (Angstroms)
 Number     Number       Type             X           Y           Z
 ---------------------------------------------------------------------
      1          7           0       -5.731121   -0.387533    0.026061
      2          6           0       -4.580713   -0.728659   -0.392662
      3          7           0       -4.283242   -1.676579   -1.318426
      4          6           0       -3.396045   -0.016576    0.141528
      5          6           0       -3.537180    1.044973    1.025767
      6          6           0       -2.388069    1.653762    1.505004
      7          6           0       -1.151658    1.201596    1.083999
      8          6           0       -1.117789    0.137133    0.178429
      9          8           0        0.032269   -0.434422   -0.256128
     10          6           0        1.181803    0.309879   -0.376523
     11          6           0        1.183904    1.598172   -0.851264
     12          6           0        2.392271    2.289226   -1.011316
     13          6           0        3.583074    1.693028   -0.706337
     14          6           0        3.618025    0.365758   -0.230239
     15          6           0        4.828887   -0.285133    0.086317
     16          6           0        4.834047   -1.571344    0.548502
     17          6           0        3.628424   -2.268985    0.717898
     18          6           0        2.436519   -1.669910    0.419604
     19          6           0        2.401948   -0.345147   -0.060030
     20          7           0       -2.209103   -0.455923   -0.270795
     21          1           0       -6.495772   -0.919042   -0.383428
     22          1           0       -3.309037   -1.886287   -1.461970
     23          1           0       -4.987014   -2.310911   -1.652786
     24          1           0       -4.526575    1.353318    1.315898
     25          1           0       -2.451493    2.471871    2.207594
     26          1           0       -0.234938    1.638033    1.449613
     27          1           0        0.251571    2.078833   -1.110564
     28          1           0        2.366006    3.301844   -1.385215
     29          1           0        4.513737    2.226902   -0.829657
     30          1           0        5.755194    0.255427   -0.046039
     31          1           0        5.767207   -2.060301    0.787401
     32          1           0        3.650065   -3.284029    1.086145
     33          1           0        1.502488   -2.196681    0.542091
 ---------------------------------------------------------------------
 Rotational constants (GHZ):           0.8712118           0.1654197           0.1509787
 Leave Link  202 at Fri Nov  4 19:38:04 2022, MaxMem=   805306368 cpu:               0.1 elap:               0.0
 (Enter /home/wykgroup/appl/g16/l301.exe)
 Standard basis: 6-31G(d) (6D, 7F)
 Ernie: Thresh=  0.10000D-02 Tol=  0.10000D-05 Strict=F.
 There are   326 symmetry adapted cartesian basis functions of A   symmetry.
 There are   326 symmetry adapted basis functions of A   symmetry.
   326 basis functions,   612 primitive gaussians,   326 cartesian basis functions
    69 alpha electrons       69 beta electrons
       nuclear repulsion energy      1394.1835901045 Hartrees.
 IExCor=  402 DFT=T Ex+Corr=B3LYP ExCW=0 ScaHFX=  0.200000
 ScaDFX=  0.800000  0.720000  1.000000  0.810000 ScalE2=  1.000000  1.000000
 IRadAn=      5 IRanWt=     -1 IRanGd=            0 ICorTp=0 IEmpDi=  4
 NAtoms=   33 NActive=   33 NUniq=   33 SFac= 1.00D+00 NAtFMM=   60 NAOKFM=F Big=F
 Integral buffers will be    131072 words long.
 Raffenetti 2 integral format.
 Two-electron integral symmetry is turned on.
 Leave Link  301 at Fri Nov  4 19:38:04 2022, MaxMem=   805306368 cpu:               0.4 elap:               0.1
 (Enter /home/wykgroup/appl/g16/l302.exe)
 NPDir=0 NMtPBC=     1 NCelOv=     1 NCel=       1 NClECP=     1 NCelD=      1
         NCelK=      1 NCelE2=     1 NClLst=     1 CellRange=     0.0.
 One-electron integrals computed using PRISM.
 One-electron integral symmetry used in STVInt
 NBasis=   326 RedAO= T EigKep=  2.64D-04  NBF=   326
 NBsUse=   326 1.00D-06 EigRej= -1.00D+00 NBFU=   326
 Precomputing XC quadrature grid using
 IXCGrd= 4 IRadAn=           5 IRanWt=          -1 IRanGd=           0 AccXCQ= 0.00D+00.
 Generated NRdTot=       0 NPtTot=           0 NUsed=           0 NTot=          32
 NSgBfM=   324   324   324   324   324 MxSgAt=    33 MxSgA2=    33.
 Leave Link  302 at Fri Nov  4 19:38:04 2022, MaxMem=   805306368 cpu:               2.8 elap:               0.4
 (Enter /home/wykgroup/appl/g16/l303.exe)
 DipDrv:  MaxL=1.
 Leave Link  303 at Fri Nov  4 19:38:04 2022, MaxMem=   805306368 cpu:               0.3 elap:               0.1
 (Enter /home/wykgroup/appl/g16/l401.exe)
 ExpMin= 1.61D-01 ExpMax= 5.48D+03 ExpMxC= 8.25D+02 IAcc=3 IRadAn=         5 AccDes= 0.00D+00
 Harris functional with IExCor=  402 and IRadAn=       5 diagonalized for initial guess.
 HarFok:  IExCor=  402 AccDes= 0.00D+00 IRadAn=         5 IDoV= 1 UseB2=F ITyADJ=14
 ICtDFT=  3500011 ScaDFX=  1.000000  1.000000  1.000000  1.000000
 FoFCou: FMM=F IPFlag=           0 FMFlag=      100000 FMFlg1=           0
         NFxFlg=           0 DoJE=T BraDBF=F KetDBF=T FulRan=T
         wScrn=  0.000000 ICntrl=       500 IOpCl=  0 I1Cent=   200000004 NGrid=           0
         NMat0=    1 NMatS0=      1 NMatT0=    0 NMatD0=    1 NMtDS0=    0 NMtDT0=    0
 Petite list used in FoFCou.
 Harris En= -857.013501358691    
 JPrj=0 DoOrth=F DoCkMO=F.
 Leave Link  401 at Fri Nov  4 19:38:06 2022, MaxMem=   805306368 cpu:              10.9 elap:               1.6
 (Enter /home/wykgroup/appl/g16/l502.exe)
 Integral symmetry usage will be decided dynamically.
 Closed shell SCF:
 Using DIIS extrapolation, IDIIS=  1040.
 NGot=   805306368 LenX=   805088023 LenY=   804981306
 Requested convergence on RMS density matrix=1.00D-08 within  32 cycles.
 Requested convergence on MAX density matrix=1.00D-06.
 Requested convergence on             energy=1.00D-06.
 No special actions if energy rises.
 Fock matrices will be formed incrementally for  20 cycles.
 Integral accuracy reduced to 1.0D-05 until final iterations.

 Cycle   1  Pass 0  IDiag  1:
 FoFJK:  IHMeth= 1 ICntrl=       0 DoSepK=F KAlg= 0 I1Cent=           0 FoldK=F
 IRaf= 740000000 NMat=       1 IRICut=       1 DoRegI=T DoRafI=F ISym2E= 0 IDoP0=0 IntGTp=1.
 FoFCou: FMM=F IPFlag=           0 FMFlag=      100000 FMFlg1=           0
         NFxFlg=           0 DoJE=F BraDBF=F KetDBF=F FulRan=T
         wScrn=  0.000000 ICntrl=         0 IOpCl=  0 I1Cent=           0 NGrid=           0
         NMat0=    1 NMatS0=      1 NMatT0=    0 NMatD0=    1 NMtDS0=    0 NMtDT0=    0
 Symmetry not used in FoFCou.
 E= -856.559370920656    
 DIIS: error= 2.92D-02 at cycle   1 NSaved=   1.
 NSaved= 1 IEnMin= 1 EnMin= -856.559370920656     IErMin= 1 ErrMin= 2.92D-02
 ErrMax= 2.92D-02  0.00D+00 EMaxC= 1.00D-01 BMatC= 4.53D-01 BMatP= 4.53D-01
 IDIUse=3 WtCom= 7.08D-01 WtEn= 2.92D-01
 Coeff-Com:  0.100D+01
 Coeff-En:   0.100D+01
 Coeff:      0.100D+01
 Gap=     0.188 Goal=   None    Shift=    0.000
 GapD=    0.188 DampG=1.000 DampE=0.500 DampFc=0.5000 IDamp=-1.
 Damping current iteration by 5.00D-01
 RMSDP=5.73D-03 MaxDP=1.83D-01              OVMax= 2.82D-01

 Cycle   2  Pass 0  IDiag  1:
 RMSU=  2.81D-03    CP:  9.71D-01
 E= -856.737286562935     Delta-E=       -0.177915642279 Rises=F Damp=T
 DIIS: error= 6.88D-03 at cycle   2 NSaved=   2.
 NSaved= 2 IEnMin= 2 EnMin= -856.737286562935     IErMin= 2 ErrMin= 6.88D-03
 ErrMax= 6.88D-03  0.00D+00 EMaxC= 1.00D-01 BMatC= 4.51D-02 BMatP= 4.53D-01
 IDIUse=3 WtCom= 9.31D-01 WtEn= 6.88D-02
 Coeff-Com:  0.104D+00 0.896D+00
 Coeff-En:   0.190D+00 0.810D+00
 Coeff:      0.110D+00 0.890D+00
 Gap=     0.267 Goal=   None    Shift=    0.000
 RMSDP=2.10D-03 MaxDP=8.26D-02 DE=-1.78D-01 OVMax= 2.52D-01

 Cycle   3  Pass 0  IDiag  1:
 RMSU=  1.95D-03    CP:  9.51D-01  7.64D-01
 E= -856.938821910479     Delta-E=       -0.201535347544 Rises=F Damp=F
 DIIS: error= 9.87D-03 at cycle   3 NSaved=   3.
 NSaved= 3 IEnMin= 3 EnMin= -856.938821910479     IErMin= 2 ErrMin= 6.88D-03
 ErrMax= 9.87D-03  0.00D+00 EMaxC= 1.00D-01 BMatC= 6.82D-02 BMatP= 4.51D-02
 IDIUse=3 WtCom= 9.14D-02 WtEn= 9.09D-01
 Coeff-Com: -0.384D-02 0.560D+00 0.444D+00
 Coeff-En:   0.000D+00 0.000D+00 0.100D+01
 Coeff:     -0.351D-03 0.512D-01 0.949D+00
 Gap=     0.191 Goal=   None    Shift=    0.000
 RMSDP=2.95D-03 MaxDP=1.05D-01 DE=-2.02D-01 OVMax= 2.80D-01

 Cycle   4  Pass 0  IDiag  1:
 RMSU=  1.58D-03    CP:  9.55D-01  1.24D+00 -7.69D-02
 E= -856.687408602844     Delta-E=        0.251413307635 Rises=F Damp=F
 DIIS: error= 2.39D-02 at cycle   4 NSaved=   4.
 NSaved= 4 IEnMin= 3 EnMin= -856.938821910479     IErMin= 2 ErrMin= 6.88D-03
 ErrMax= 2.39D-02  0.00D+00 EMaxC= 1.00D-01 BMatC= 3.05D-01 BMatP= 4.51D-02
 IDIUse=2 WtCom= 0.00D+00 WtEn= 1.00D+00
 Coeff-En:   0.000D+00 0.000D+00 0.759D+00 0.241D+00
 Coeff:      0.000D+00 0.000D+00 0.759D+00 0.241D+00
 Gap=     0.191 Goal=   None    Shift=    0.000
 RMSDP=1.54D-03 MaxDP=6.82D-02 DE= 2.51D-01 OVMax= 1.42D-01

 Cycle   5  Pass 0  IDiag  1:
 RMSU=  2.57D-04    CP:  9.54D-01  9.49D-01  4.52D-01  5.19D-01
 E= -856.990801842781     Delta-E=       -0.303393239936 Rises=F Damp=F
 DIIS: error= 5.99D-03 at cycle   5 NSaved=   5.
 NSaved= 5 IEnMin= 5 EnMin= -856.990801842781     IErMin= 5 ErrMin= 5.99D-03
 ErrMax= 5.99D-03  0.00D+00 EMaxC= 1.00D-01 BMatC= 1.97D-02 BMatP= 4.51D-02
 IDIUse=3 WtCom= 9.40D-01 WtEn= 5.99D-02
 Coeff-Com:  0.151D-03 0.112D-01 0.298D+00-0.516D-01 0.742D+00
 Coeff-En:   0.000D+00 0.000D+00 0.277D+00 0.000D+00 0.723D+00
 Coeff:      0.142D-03 0.105D-01 0.297D+00-0.485D-01 0.741D+00
 Gap=     0.169 Goal=   None    Shift=    0.000
 RMSDP=5.27D-04 MaxDP=1.86D-02 DE=-3.03D-01 OVMax= 4.67D-02

 Cycle   6  Pass 0  IDiag  1:
 RMSU=  9.97D-05    CP:  9.53D-01  8.80D-01  6.43D-01  3.34D-01  7.26D-01
 E= -857.011317831559     Delta-E=       -0.020515988778 Rises=F Damp=F
 DIIS: error= 9.31D-04 at cycle   6 NSaved=   6.
 NSaved= 6 IEnMin= 6 EnMin= -857.011317831559     IErMin= 6 ErrMin= 9.31D-04
 ErrMax= 9.31D-04  0.00D+00 EMaxC= 1.00D-01 BMatC= 2.84D-04 BMatP= 1.97D-02
 IDIUse=3 WtCom= 9.91D-01 WtEn= 9.31D-03
 Coeff-Com: -0.264D-02 0.603D-02 0.132D+00-0.615D-01 0.482D+00 0.443D+00
 Coeff-En:   0.000D+00 0.000D+00 0.000D+00 0.000D+00 0.000D+00 0.100D+01
 Coeff:     -0.261D-02 0.597D-02 0.131D+00-0.609D-01 0.478D+00 0.448D+00
 Gap=     0.167 Goal=   None    Shift=    0.000
 RMSDP=6.09D-05 MaxDP=2.86D-03 DE=-2.05D-02 OVMax= 4.16D-03

 Cycle   7  Pass 0  IDiag  1:
 RMSU=  2.24D-05    CP:  9.53D-01  8.81D-01  6.39D-01  3.39D-01  8.31D-01
                    CP:  5.14D-01
 E= -857.011561497528     Delta-E=       -0.000243665969 Rises=F Damp=F
 DIIS: error= 1.75D-04 at cycle   7 NSaved=   7.
 NSaved= 7 IEnMin= 7 EnMin= -857.011561497528     IErMin= 7 ErrMin= 1.75D-04
 ErrMax= 1.75D-04  0.00D+00 EMaxC= 1.00D-01 BMatC= 1.16D-05 BMatP= 2.84D-04
 IDIUse=3 WtCom= 9.98D-01 WtEn= 1.75D-03
 Coeff-Com: -0.150D-02 0.361D-02 0.553D-01-0.323D-01 0.222D+00 0.245D+00
 Coeff-Com:  0.508D+00
 Coeff-En:   0.000D+00 0.000D+00 0.000D+00 0.000D+00 0.000D+00 0.000D+00
 Coeff-En:   0.100D+01
 Coeff:     -0.149D-02 0.361D-02 0.552D-01-0.323D-01 0.221D+00 0.245D+00
 Coeff:      0.509D+00
 Gap=     0.167 Goal=   None    Shift=    0.000
 RMSDP=1.41D-05 MaxDP=4.88D-04 DE=-2.44D-04 OVMax= 1.20D-03

 Cycle   8  Pass 0  IDiag  1:
 RMSU=  9.24D-06    CP:  9.53D-01  8.80D-01  6.40D-01  3.38D-01  8.28D-01
                    CP:  5.50D-01  5.79D-01
 E= -857.011571668840     Delta-E=       -0.000010171312 Rises=F Damp=F
 DIIS: error= 6.27D-05 at cycle   8 NSaved=   8.
 NSaved= 8 IEnMin= 8 EnMin= -857.011571668840     IErMin= 8 ErrMin= 6.27D-05
 ErrMax= 6.27D-05  0.00D+00 EMaxC= 1.00D-01 BMatC= 1.64D-06 BMatP= 1.16D-05
 IDIUse=1 WtCom= 1.00D+00 WtEn= 0.00D+00
 Coeff-Com: -0.281D-03 0.571D-03 0.135D-01-0.879D-02 0.545D-01 0.731D-01
 Coeff-Com:  0.302D+00 0.565D+00
 Coeff:     -0.281D-03 0.571D-03 0.135D-01-0.879D-02 0.545D-01 0.731D-01
 Coeff:      0.302D+00 0.565D+00
 Gap=     0.167 Goal=   None    Shift=    0.000
 RMSDP=5.18D-06 MaxDP=1.80D-04 DE=-1.02D-05 OVMax= 4.54D-04

 Initial convergence to 1.0D-05 achieved.  Increase integral accuracy.
 Cycle   9  Pass 1  IDiag  1:
 E= -857.011558119435     Delta-E=        0.000013549405 Rises=F Damp=F
 DIIS: error= 5.00D-05 at cycle   1 NSaved=   1.
 NSaved= 1 IEnMin= 1 EnMin= -857.011558119435     IErMin= 1 ErrMin= 5.00D-05
 ErrMax= 5.00D-05  0.00D+00 EMaxC= 1.00D-01 BMatC= 9.52D-07 BMatP= 9.52D-07
 IDIUse=1 WtCom= 1.00D+00 WtEn= 0.00D+00
 Coeff-Com:  0.100D+01
 Coeff:      0.100D+01
 Gap=     0.167 Goal=   None    Shift=    0.000
 RMSDP=5.18D-06 MaxDP=1.80D-04 DE= 1.35D-05 OVMax= 5.73D-04

 Cycle  10  Pass 1  IDiag  1:
 RMSU=  4.36D-05    CP:  1.00D+00
 E= -857.011557976429     Delta-E=        0.000000143005 Rises=F Damp=F
 DIIS: error= 4.55D-05 at cycle   2 NSaved=   2.
 NSaved= 2 IEnMin= 1 EnMin= -857.011558119435     IErMin= 2 ErrMin= 4.55D-05
 ErrMax= 4.55D-05  0.00D+00 EMaxC= 1.00D-01 BMatC= 8.89D-07 BMatP= 9.52D-07
 IDIUse=1 WtCom= 1.00D+00 WtEn= 0.00D+00
 Coeff-Com:  0.489D+00 0.511D+00
 Coeff:      0.489D+00 0.511D+00
 Gap=     0.167 Goal=   None    Shift=    0.000
 RMSDP=5.32D-06 MaxDP=2.31D-04 DE= 1.43D-07 OVMax= 6.69D-04

 Cycle  11  Pass 1  IDiag  1:
 RMSU=  5.31D-06    CP:  1.00D+00  9.92D-01
 E= -857.011558584599     Delta-E=       -0.000000608170 Rises=F Damp=F
 DIIS: error= 2.98D-05 at cycle   3 NSaved=   3.
 NSaved= 3 IEnMin= 3 EnMin= -857.011558584599     IErMin= 3 ErrMin= 2.98D-05
 ErrMax= 2.98D-05  0.00D+00 EMaxC= 1.00D-01 BMatC= 3.32D-07 BMatP= 8.89D-07
 IDIUse=1 WtCom= 1.00D+00 WtEn= 0.00D+00
 Coeff-Com:  0.365D-01 0.373D+00 0.590D+00
 Coeff:      0.365D-01 0.373D+00 0.590D+00
 Gap=     0.167 Goal=   None    Shift=    0.000
 RMSDP=2.38D-06 MaxDP=8.74D-05 DE=-6.08D-07 OVMax= 3.02D-04

 Cycle  12  Pass 1  IDiag  1:
 RMSU=  8.45D-07    CP:  1.00D+00  1.00D+00  5.88D-01
 E= -857.011558940282     Delta-E=       -0.000000355682 Rises=F Damp=F
 DIIS: error= 8.54D-06 at cycle   4 NSaved=   4.
 NSaved= 4 IEnMin= 4 EnMin= -857.011558940282     IErMin= 4 ErrMin= 8.54D-06
 ErrMax= 8.54D-06  0.00D+00 EMaxC= 1.00D-01 BMatC= 2.81D-08 BMatP= 3.32D-07
 IDIUse=1 WtCom= 1.00D+00 WtEn= 0.00D+00
 Coeff-Com: -0.262D-02 0.212D+00 0.375D+00 0.416D+00
 Coeff:     -0.262D-02 0.212D+00 0.375D+00 0.416D+00
 Gap=     0.167 Goal=   None    Shift=    0.000
 RMSDP=5.25D-07 MaxDP=2.48D-05 DE=-3.56D-07 OVMax= 4.23D-05

 Cycle  13  Pass 1  IDiag  1:
 RMSU=  1.40D-07    CP:  1.00D+00  1.00D+00  6.24D-01  4.49D-01
 E= -857.011558964770     Delta-E=       -0.000000024488 Rises=F Damp=F
 DIIS: error= 8.99D-07 at cycle   5 NSaved=   5.
 NSaved= 5 IEnMin= 5 EnMin= -857.011558964770     IErMin= 5 ErrMin= 8.99D-07
 ErrMax= 8.99D-07  0.00D+00 EMaxC= 1.00D-01 BMatC= 3.24D-10 BMatP= 2.81D-08
 IDIUse=1 WtCom= 1.00D+00 WtEn= 0.00D+00
 Coeff-Com: -0.205D-02 0.118D+00 0.210D+00 0.243D+00 0.431D+00
 Coeff:     -0.205D-02 0.118D+00 0.210D+00 0.243D+00 0.431D+00
 Gap=     0.167 Goal=   None    Shift=    0.000
 RMSDP=7.32D-08 MaxDP=3.21D-06 DE=-2.45D-08 OVMax= 4.64D-06

 Cycle  14  Pass 1  IDiag  1:
 RMSU=  4.71D-08    CP:  1.00D+00  1.00D+00  6.22D-01  4.46D-01  6.06D-01
 E= -857.011558965055     Delta-E=       -0.000000000285 Rises=F Damp=F
 DIIS: error= 1.49D-07 at cycle   6 NSaved=   6.
 NSaved= 6 IEnMin= 6 EnMin= -857.011558965055     IErMin= 6 ErrMin= 1.49D-07
 ErrMax= 1.49D-07  0.00D+00 EMaxC= 1.00D-01 BMatC= 1.83D-11 BMatP= 3.24D-10
 IDIUse=1 WtCom= 1.00D+00 WtEn= 0.00D+00
 Coeff-Com: -0.103D-02 0.552D-01 0.980D-01 0.115D+00 0.248D+00 0.485D+00
 Coeff:     -0.103D-02 0.552D-01 0.980D-01 0.115D+00 0.248D+00 0.485D+00
 Gap=     0.167 Goal=   None    Shift=    0.000
 RMSDP=1.89D-08 MaxDP=8.68D-07 DE=-2.85D-10 OVMax= 1.55D-06

 Cycle  15  Pass 1  IDiag  1:
 RMSU=  1.48D-08    CP:  1.00D+00  1.00D+00  6.22D-01  4.45D-01  6.48D-01
                    CP:  7.83D-01
 E= -857.011558965059     Delta-E=       -0.000000000004 Rises=F Damp=F
 DIIS: error= 6.74D-08 at cycle   7 NSaved=   7.
 NSaved= 7 IEnMin= 7 EnMin= -857.011558965059     IErMin= 7 ErrMin= 6.74D-08
 ErrMax= 6.74D-08  0.00D+00 EMaxC= 1.00D-01 BMatC= 2.11D-12 BMatP= 1.83D-11
 IDIUse=1 WtCom= 1.00D+00 WtEn= 0.00D+00
 Coeff-Com: -0.177D-03 0.806D-02 0.143D-01 0.179D-01 0.512D-01 0.265D+00
 Coeff-Com:  0.643D+00
 Coeff:     -0.177D-03 0.806D-02 0.143D-01 0.179D-01 0.512D-01 0.265D+00
 Coeff:      0.643D+00
 Gap=     0.167 Goal=   None    Shift=    0.000
 RMSDP=6.92D-09 MaxDP=2.86D-07 DE=-4.09D-12 OVMax= 6.46D-07

 SCF Done:  E(RB3LYP) =  -857.011558965     A.U. after   15 cycles
            NFock= 15  Conv=0.69D-08     -V/T= 2.0087
 KE= 8.496045240130D+02 PE=-4.779395171937D+03 EE= 1.678595498854D+03
 Leave Link  502 at Fri Nov  4 19:38:37 2022, MaxMem=   805306368 cpu:             220.5 elap:              31.5
 (Enter /home/wykgroup/appl/g16/l508.exe)
 QCSCF skips out because SCF is already converged.
 Leave Link  508 at Fri Nov  4 19:38:37 2022, MaxMem=   805306368 cpu:               0.0 elap:               0.0
 (Enter /home/wykgroup/appl/g16/l601.exe)
 Copying SCF densities to generalized density rwf, IOpCl= 0 IROHF=0.

 **********************************************************************

            Population analysis using the SCF Density.

 **********************************************************************

 Orbital symmetries:
       Occupied  (A) (A) (A) (A) (A) (A) (A) (A) (A) (A) (A) (A)
                 (A) (A) (A) (A) (A) (A) (A) (A) (A) (A) (A) (A)
                 (A) (A) (A) (A) (A) (A) (A) (A) (A) (A) (A) (A)
                 (A) (A) (A) (A) (A) (A) (A) (A) (A) (A) (A) (A)
                 (A) (A) (A) (A) (A) (A) (A) (A) (A) (A) (A) (A)
                 (A) (A) (A) (A) (A) (A) (A) (A) (A)
       Virtual   (A) (A) (A) (A) (A) (A) (A) (A) (A) (A) (A) (A)
                 (A) (A) (A) (A) (A) (A) (A) (A) (A) (A) (A) (A)
                 (A) (A) (A) (A) (A) (A) (A) (A) (A) (A) (A) (A)
                 (A) (A) (A) (A) (A) (A) (A) (A) (A) (A) (A) (A)
                 (A) (A) (A) (A) (A) (A) (A) (A) (A) (A) (A) (A)
                 (A) (A) (A) (A) (A) (A) (A) (A) (A) (A) (A) (A)
                 (A) (A) (A) (A) (A) (A) (A) (A) (A) (A) (A) (A)
                 (A) (A) (A) (A) (A) (A) (A) (A) (A) (A) (A) (A)
                 (A) (A) (A) (A) (A) (A) (A) (A) (A) (A) (A) (A)
                 (A) (A) (A) (A) (A) (A) (A) (A) (A) (A) (A) (A)
                 (A) (A) (A) (A) (A) (A) (A) (A) (A) (A) (A) (A)
                 (A) (A) (A) (A) (A) (A) (A) (A) (A) (A) (A) (A)
                 (A) (A) (A) (A) (A) (A) (A) (A) (A) (A) (A) (A)
                 (A) (A) (A) (A) (A) (A) (A) (A) (A) (A) (A) (A)
                 (A) (A) (A) (A) (A) (A) (A) (A) (A) (A) (A) (A)
                 (A) (A) (A) (A) (A) (A) (A) (A) (A) (A) (A) (A)
                 (A) (A) (A) (A) (A) (A) (A) (A) (A) (A) (A) (A)
                 (A) (A) (A) (A) (A) (A) (A) (A) (A) (A) (A) (A)
                 (A) (A) (A) (A) (A) (A) (A) (A) (A) (A) (A) (A)
                 (A) (A) (A) (A) (A) (A) (A) (A) (A) (A) (A) (A)
                 (A) (A) (A) (A) (A) (A) (A) (A) (A) (A) (A) (A)
                 (A) (A) (A) (A) (A)
 The electronic state is 1-A.
 Alpha  occ. eigenvalues --  -19.19930 -14.33695 -14.33400 -14.28331 -10.28736
 Alpha  occ. eigenvalues --  -10.25584 -10.24957 -10.23003 -10.20919 -10.20136
 Alpha  occ. eigenvalues --  -10.19934 -10.19886 -10.19438 -10.19242 -10.19059
 Alpha  occ. eigenvalues --  -10.18981 -10.18905 -10.18902 -10.18836 -10.18811
 Alpha  occ. eigenvalues --   -1.10208  -0.96645  -0.93048  -0.88039  -0.84290
 Alpha  occ. eigenvalues --   -0.82855  -0.81033  -0.78853  -0.76014  -0.74866
 Alpha  occ. eigenvalues --   -0.72335  -0.66808  -0.65729  -0.62672  -0.61993
 Alpha  occ. eigenvalues --   -0.60976  -0.57419  -0.54591  -0.52842  -0.52326
 Alpha  occ. eigenvalues --   -0.51955  -0.50693  -0.50038  -0.48391  -0.48161
 Alpha  occ. eigenvalues --   -0.46363  -0.43619  -0.43440  -0.42938  -0.42405
 Alpha  occ. eigenvalues --   -0.42133  -0.40852  -0.40120  -0.39137  -0.38065
 Alpha  occ. eigenvalues --   -0.37904  -0.37323  -0.35323  -0.34227  -0.33542
 Alpha  occ. eigenvalues --   -0.32622  -0.29062  -0.28318  -0.27841  -0.25139
 Alpha  occ. eigenvalues --   -0.24909  -0.24721  -0.22534  -0.20796
 Alpha virt. eigenvalues --   -0.04119  -0.03710  -0.00968  -0.00887   0.03637
 Alpha virt. eigenvalues --    0.07835   0.08865   0.09641   0.10277   0.10719
 Alpha virt. eigenvalues --    0.11138   0.13357   0.14247   0.15647   0.16230
 Alpha virt. eigenvalues --    0.16735   0.16957   0.17508   0.17601   0.19217
 Alpha virt. eigenvalues --    0.19701   0.20531   0.20763   0.25215   0.26111
 Alpha virt. eigenvalues --    0.27574   0.27967   0.29597   0.31024   0.31125
 Alpha virt. eigenvalues --    0.31764   0.32606   0.33338   0.33956   0.36150
 Alpha virt. eigenvalues --    0.37641   0.39728   0.41830   0.46275   0.47351
 Alpha virt. eigenvalues --    0.49589   0.50317   0.51062   0.51565   0.52367
 Alpha virt. eigenvalues --    0.53051   0.53589   0.54622   0.54935   0.55984
 Alpha virt. eigenvalues --    0.56237   0.56926   0.57236   0.58529   0.58811
 Alpha virt. eigenvalues --    0.59562   0.59710   0.60176   0.60647   0.60651
 Alpha virt. eigenvalues --    0.61217   0.61613   0.61806   0.62081   0.62230
 Alpha virt. eigenvalues --    0.63516   0.64352   0.64542   0.65706   0.66431
 Alpha virt. eigenvalues --    0.66919   0.68228   0.68511   0.69288   0.71077
 Alpha virt. eigenvalues --    0.73060   0.75108   0.75742   0.77444   0.80064
 Alpha virt. eigenvalues --    0.81935   0.82722   0.83099   0.83266   0.83704
 Alpha virt. eigenvalues --    0.84101   0.84917   0.85179   0.85452   0.86576
 Alpha virt. eigenvalues --    0.88250   0.88461   0.88720   0.89761   0.90050
 Alpha virt. eigenvalues --    0.91335   0.92795   0.93881   0.94647   0.95804
 Alpha virt. eigenvalues --    0.96169   0.97043   0.99109   1.00773   1.01503
 Alpha virt. eigenvalues --    1.02137   1.04985   1.05332   1.06724   1.08054
 Alpha virt. eigenvalues --    1.09224   1.10144   1.11223   1.14246   1.14968
 Alpha virt. eigenvalues --    1.18983   1.20533   1.22285   1.22699   1.23857
 Alpha virt. eigenvalues --    1.24177   1.25952   1.28144   1.29299   1.30422
 Alpha virt. eigenvalues --    1.31359   1.33087   1.35323   1.36301   1.38214
 Alpha virt. eigenvalues --    1.39756   1.41183   1.42809   1.43847   1.44991
 Alpha virt. eigenvalues --    1.46102   1.46364   1.47023   1.47226   1.48469
 Alpha virt. eigenvalues --    1.49334   1.49752   1.50154   1.50335   1.54275
 Alpha virt. eigenvalues --    1.55696   1.58332   1.63883   1.66221   1.70005
 Alpha virt. eigenvalues --    1.71093   1.72974   1.73417   1.77031   1.77648
 Alpha virt. eigenvalues --    1.79627   1.80723   1.82559   1.83136   1.85673
 Alpha virt. eigenvalues --    1.87599   1.88122   1.88939   1.90503   1.91417
 Alpha virt. eigenvalues --    1.92625   1.93086   1.93854   1.94800   1.95464
 Alpha virt. eigenvalues --    1.97409   1.98836   1.99888   2.02604   2.04890
 Alpha virt. eigenvalues --    2.05146   2.07699   2.08157   2.11813   2.14286
 Alpha virt. eigenvalues --    2.15150   2.17063   2.18036   2.19978   2.20399
 Alpha virt. eigenvalues --    2.20984   2.21285   2.22230   2.25954   2.26583
 Alpha virt. eigenvalues --    2.28293   2.29317   2.30292   2.31629   2.32505
 Alpha virt. eigenvalues --    2.33159   2.34669   2.35188   2.36458   2.40522
 Alpha virt. eigenvalues --    2.41613   2.42625   2.47725   2.51898   2.55725
 Alpha virt. eigenvalues --    2.56950   2.58134   2.61146   2.62570   2.63013
 Alpha virt. eigenvalues --    2.63637   2.64199   2.65971   2.66181   2.68310
 Alpha virt. eigenvalues --    2.69520   2.72168   2.73758   2.74577   2.76539
 Alpha virt. eigenvalues --    2.78950   2.80386   2.80873   2.81391   2.84673
 Alpha virt. eigenvalues --    2.88186   2.88704   2.93039   2.95833   3.01990
 Alpha virt. eigenvalues --    3.07383   3.14284   3.19866   3.33519   3.41120
 Alpha virt. eigenvalues --    3.48317   3.52731   3.86916   3.96897   4.06911
 Alpha virt. eigenvalues --    4.09534   4.10437   4.11730   4.12830   4.14936
 Alpha virt. eigenvalues --    4.17652   4.20163   4.27126   4.28225   4.34847
 Alpha virt. eigenvalues --    4.42969   4.44437   4.45459   4.51925   4.64753
 Alpha virt. eigenvalues --    4.74726   4.89141
          Condensed to atoms (all electrons):
               1          2          3          4          5          6
     1  N    6.917009   0.667699  -0.154532  -0.079067  -0.005246   0.000945
     2  C    0.667699   4.560345   0.249452   0.265383  -0.042218   0.006770
     3  N   -0.154532   0.249452   7.217540  -0.083216   0.014214  -0.000178
     4  C   -0.079067   0.265383  -0.083216   4.828893   0.432298  -0.018791
     5  C   -0.005246  -0.042218   0.014214   0.432298   5.125092   0.479429
     6  C    0.000945   0.006770  -0.000178  -0.018791   0.479429   4.886407
     7  C    0.000007   0.000736  -0.000017  -0.035825  -0.026166   0.512508
     8  C   -0.000077   0.004217  -0.000092  -0.032472  -0.046242  -0.019316
     9  O    0.000000  -0.000039   0.000006   0.001137   0.000266   0.002960
    10  C   -0.000000  -0.000006  -0.000000   0.000088   0.000059   0.000498
    11  C   -0.000000   0.000001   0.000000   0.000056  -0.000049  -0.000068
    12  C    0.000000   0.000000   0.000000  -0.000001   0.000000  -0.000003
    13  C   -0.000000  -0.000000  -0.000000   0.000000   0.000000  -0.000000
    14  C   -0.000000   0.000000   0.000000  -0.000000  -0.000000   0.000000
    15  C   -0.000000   0.000000   0.000000  -0.000000  -0.000000  -0.000000
    16  C    0.000000  -0.000000  -0.000000   0.000000  -0.000000   0.000000
    17  C   -0.000000   0.000000   0.000000   0.000000   0.000000  -0.000000
    18  C   -0.000000   0.000000   0.000000   0.000000   0.000000  -0.000002
    19  C    0.000000  -0.000000  -0.000000   0.000003   0.000002  -0.000010
    20  N    0.003949  -0.069231  -0.025896   0.421224  -0.092626  -0.028733
    21  H    0.287692  -0.062879  -0.023674   0.014468  -0.001325  -0.000012
    22  H    0.005758  -0.011331   0.276266  -0.011940   0.000390   0.000014
    23  H   -0.001603  -0.017351   0.308851   0.005644  -0.000173   0.000003
    24  H    0.017387  -0.005134   0.000524  -0.033516   0.356201  -0.045714
    25  H   -0.000009  -0.000154   0.000001   0.003926  -0.039073   0.363855
    26  H    0.000000   0.000022  -0.000000   0.000685   0.003704  -0.037288
    27  H    0.000000  -0.000002   0.000000   0.000019  -0.000033  -0.000013
    28  H    0.000000   0.000000   0.000000   0.000000  -0.000000  -0.000000
    29  H    0.000000  -0.000000  -0.000000  -0.000000   0.000000  -0.000000
    30  H   -0.000000   0.000000  -0.000000  -0.000000  -0.000000   0.000000
    31  H    0.000000  -0.000000  -0.000000   0.000000   0.000000  -0.000000
    32  H    0.000000   0.000000   0.000000  -0.000000  -0.000000   0.000000
    33  H   -0.000000  -0.000000  -0.000000   0.000003   0.000000  -0.000000
               7          8          9         10         11         12
     1  N    0.000007  -0.000077   0.000000  -0.000000  -0.000000   0.000000
     2  C    0.000736   0.004217  -0.000039  -0.000006   0.000001   0.000000
     3  N   -0.000017  -0.000092   0.000006  -0.000000   0.000000   0.000000
     4  C   -0.035825  -0.032472   0.001137   0.000088   0.000056  -0.000001
     5  C   -0.026166  -0.046242   0.000266   0.000059  -0.000049   0.000000
     6  C    0.512508  -0.019316   0.002960   0.000498  -0.000068  -0.000003
     7  C    5.107755   0.470175  -0.075009   0.002746  -0.004316  -0.000607
     8  C    0.470175   4.433575   0.263079  -0.026306  -0.007648   0.000363
     9  O   -0.075009   0.263079   8.303940   0.244789  -0.067188   0.004182
    10  C    0.002746  -0.026306   0.244789   4.842876   0.433769   0.018676
    11  C   -0.004316  -0.007648  -0.067188   0.433769   5.145155   0.451100
    12  C   -0.000607   0.000363   0.004182   0.018676   0.451100   4.909698
    13  C    0.000036  -0.000002   0.000091  -0.077756  -0.017298   0.506780
    14  C   -0.000085   0.000071   0.003203   0.006865  -0.058246   0.015104
    15  C   -0.000001   0.000003  -0.000076   0.015625  -0.000831   0.009580
    16  C    0.000000   0.000000   0.000004  -0.000657   0.000050  -0.000420
    17  C   -0.000001  -0.000000   0.000614   0.008507  -0.000424   0.000103
    18  C    0.000126  -0.000443  -0.001729  -0.106861   0.016231  -0.002231
    19  C    0.000728   0.001360  -0.065873   0.397197  -0.036092  -0.044984
    20  N   -0.084437   0.489223  -0.078703   0.000650  -0.000136   0.000001
    21  H   -0.000000   0.000008  -0.000000  -0.000000   0.000000   0.000000
    22  H    0.000193   0.000370  -0.000145   0.000012  -0.000001  -0.000000
    23  H    0.000001   0.000000  -0.000000  -0.000000  -0.000000  -0.000000
    24  H    0.004756   0.000527   0.000006  -0.000001   0.000000   0.000000
    25  H   -0.042893   0.004069  -0.000058   0.000001   0.000011  -0.000000
    26  H    0.349325  -0.035324  -0.004633   0.006462   0.004461   0.000102
    27  H    0.004252   0.006315  -0.007224  -0.038002   0.351151  -0.036903
    28  H    0.000007  -0.000014  -0.000055   0.003161  -0.038409   0.356551
    29  H    0.000000   0.000000   0.000002   0.000592   0.005137  -0.046409
    30  H    0.000000  -0.000000   0.000000  -0.000198   0.000024   0.000248
    31  H    0.000000  -0.000000   0.000000   0.000016  -0.000001   0.000004
    32  H   -0.000000  -0.000000  -0.000004  -0.000207   0.000004  -0.000001
    33  H    0.000072   0.000177   0.011288  -0.013298   0.000518  -0.000022
              13         14         15         16         17         18
     1  N   -0.000000  -0.000000  -0.000000   0.000000  -0.000000  -0.000000
     2  C   -0.000000   0.000000   0.000000  -0.000000   0.000000   0.000000
     3  N   -0.000000   0.000000   0.000000  -0.000000   0.000000   0.000000
     4  C    0.000000  -0.000000  -0.000000   0.000000   0.000000   0.000000
     5  C    0.000000  -0.000000  -0.000000  -0.000000   0.000000   0.000000
     6  C   -0.000000   0.000000  -0.000000   0.000000  -0.000000  -0.000002
     7  C    0.000036  -0.000085  -0.000001   0.000000  -0.000001   0.000126
     8  C   -0.000002   0.000071   0.000003   0.000000  -0.000000  -0.000443
     9  O    0.000091   0.003203  -0.000076   0.000004   0.000614  -0.001729
    10  C   -0.077756   0.006865   0.015625  -0.000657   0.008507  -0.106861
    11  C   -0.017298  -0.058246  -0.000831   0.000050  -0.000424   0.016231
    12  C    0.506780   0.015104   0.009580  -0.000420   0.000103  -0.002231
    13  C    5.130460   0.435444  -0.097768   0.009377  -0.000865   0.017801
    14  C    0.435444   4.693430   0.449021  -0.001913  -0.039484  -0.053265
    15  C   -0.097768   0.449021   5.112009   0.515506  -0.016905  -0.076365
    16  C    0.009377  -0.001913   0.515506   4.897685   0.496015  -0.017021
    17  C   -0.000865  -0.039484  -0.016905   0.496015   4.906713   0.505006
    18  C    0.017801  -0.053265  -0.076365  -0.017021   0.505006   5.147984
    19  C   -0.033061   0.483070  -0.023868  -0.044204   0.001582   0.418039
    20  N    0.000000   0.000003  -0.000000  -0.000000  -0.000000  -0.000068
    21  H   -0.000000   0.000000  -0.000000  -0.000000   0.000000   0.000000
    22  H    0.000000  -0.000000  -0.000000   0.000000   0.000000  -0.000000
    23  H    0.000000   0.000000  -0.000000  -0.000000   0.000000  -0.000000
    24  H   -0.000000   0.000000   0.000000  -0.000000  -0.000000  -0.000000
    25  H   -0.000000  -0.000000  -0.000000   0.000000   0.000000   0.000000
    26  H   -0.000063   0.000005   0.000000   0.000000   0.000000  -0.000043
    27  H    0.004341   0.000768   0.000007  -0.000000   0.000003  -0.000144
    28  H   -0.034654   0.002368  -0.000243   0.000004  -0.000001   0.000020
    29  H    0.356066  -0.042080  -0.009033   0.000212   0.000016  -0.000184
    30  H   -0.009640  -0.042637   0.355815  -0.047394   0.004795   0.000599
    31  H   -0.000211   0.002907  -0.037637   0.358165  -0.042376   0.004372
    32  H    0.000013   0.001153   0.004499  -0.042682   0.359073  -0.037515
    33  H   -0.000160   0.004633   0.000457   0.004694  -0.046443   0.360952
              19         20         21         22         23         24
     1  N    0.000000   0.003949   0.287692   0.005758  -0.001603   0.017387
     2  C   -0.000000  -0.069231  -0.062879  -0.011331  -0.017351  -0.005134
     3  N   -0.000000  -0.025896  -0.023674   0.276266   0.308851   0.000524
     4  C    0.000003   0.421224   0.014468  -0.011940   0.005644  -0.033516
     5  C    0.000002  -0.092626  -0.001325   0.000390  -0.000173   0.356201
     6  C   -0.000010  -0.028733  -0.000012   0.000014   0.000003  -0.045714
     7  C    0.000728  -0.084437  -0.000000   0.000193   0.000001   0.004756
     8  C    0.001360   0.489223   0.000008   0.000370   0.000000   0.000527
     9  O   -0.065873  -0.078703  -0.000000  -0.000145  -0.000000   0.000006
    10  C    0.397197   0.000650  -0.000000   0.000012  -0.000000  -0.000001
    11  C   -0.036092  -0.000136   0.000000  -0.000001  -0.000000   0.000000
    12  C   -0.044984   0.000001   0.000000  -0.000000  -0.000000   0.000000
    13  C   -0.033061   0.000000  -0.000000   0.000000   0.000000  -0.000000
    14  C    0.483070   0.000003   0.000000  -0.000000   0.000000   0.000000
    15  C   -0.023868  -0.000000  -0.000000  -0.000000  -0.000000   0.000000
    16  C   -0.044204  -0.000000  -0.000000   0.000000  -0.000000  -0.000000
    17  C    0.001582  -0.000000   0.000000   0.000000   0.000000  -0.000000
    18  C    0.418039  -0.000068   0.000000  -0.000000  -0.000000  -0.000000
    19  C    4.895290  -0.000107  -0.000000   0.000000  -0.000000   0.000000
    20  N   -0.000107   6.994362  -0.000134   0.041736   0.000558   0.004883
    21  H   -0.000000  -0.000134   0.513175   0.000172   0.006554  -0.000609
    22  H    0.000000   0.041736   0.000172   0.361400  -0.020988  -0.000078
    23  H   -0.000000   0.000558   0.006554  -0.020988   0.395487  -0.000014
    24  H    0.000000   0.004883  -0.000609  -0.000078  -0.000014   0.529024
    25  H    0.000000   0.000060  -0.000000   0.000001  -0.000000  -0.004595
    26  H   -0.000057   0.004565   0.000000  -0.000003  -0.000000  -0.000104
    27  H    0.004196  -0.000334  -0.000000   0.000000  -0.000000   0.000000
    28  H    0.001347  -0.000000  -0.000000  -0.000000  -0.000000   0.000000
    29  H    0.005107   0.000000   0.000000   0.000000   0.000000  -0.000000
    30  H    0.005307   0.000000   0.000000   0.000000   0.000000  -0.000000
    31  H    0.001107   0.000000  -0.000000   0.000000   0.000000  -0.000000
    32  H    0.002756   0.000000   0.000000  -0.000000   0.000000   0.000000
    33  H   -0.039313  -0.000001  -0.000000   0.000001   0.000000  -0.000000
              25         26         27         28         29         30
     1  N   -0.000009   0.000000   0.000000   0.000000   0.000000  -0.000000
     2  C   -0.000154   0.000022  -0.000002   0.000000  -0.000000   0.000000
     3  N    0.000001  -0.000000   0.000000   0.000000  -0.000000  -0.000000
     4  C    0.003926   0.000685   0.000019   0.000000  -0.000000  -0.000000
     5  C   -0.039073   0.003704  -0.000033  -0.000000   0.000000  -0.000000
     6  C    0.363855  -0.037288  -0.000013  -0.000000  -0.000000   0.000000
     7  C   -0.042893   0.349325   0.004252   0.000007   0.000000   0.000000
     8  C    0.004069  -0.035324   0.006315  -0.000014   0.000000  -0.000000
     9  O   -0.000058  -0.004633  -0.007224  -0.000055   0.000002   0.000000
    10  C    0.000001   0.006462  -0.038002   0.003161   0.000592  -0.000198
    11  C    0.000011   0.004461   0.351151  -0.038409   0.005137   0.000024
    12  C   -0.000000   0.000102  -0.036903   0.356551  -0.046409   0.000248
    13  C   -0.000000  -0.000063   0.004341  -0.034654   0.356066  -0.009640
    14  C   -0.000000   0.000005   0.000768   0.002368  -0.042080  -0.042637
    15  C   -0.000000   0.000000   0.000007  -0.000243  -0.009033   0.355815
    16  C    0.000000   0.000000  -0.000000   0.000004   0.000212  -0.047394
    17  C    0.000000   0.000000   0.000003  -0.000001   0.000016   0.004795
    18  C    0.000000  -0.000043  -0.000144   0.000020  -0.000184   0.000599
    19  C    0.000000  -0.000057   0.004196   0.001347   0.005107   0.005307
    20  N    0.000060   0.004565  -0.000334  -0.000000   0.000000   0.000000
    21  H   -0.000000   0.000000  -0.000000  -0.000000   0.000000   0.000000
    22  H    0.000001  -0.000003   0.000000  -0.000000   0.000000   0.000000
    23  H   -0.000000  -0.000000  -0.000000  -0.000000   0.000000   0.000000
    24  H   -0.004595  -0.000104   0.000000   0.000000  -0.000000  -0.000000
    25  H    0.571808  -0.005098   0.000006  -0.000000   0.000000   0.000000
    26  H   -0.005098   0.555232  -0.001233   0.000003   0.000000   0.000000
    27  H    0.000006  -0.001233   0.570027  -0.005267  -0.000182   0.000000
    28  H   -0.000000   0.000003  -0.005267   0.585955  -0.005295  -0.000010
    29  H    0.000000   0.000000  -0.000182  -0.005295   0.601066   0.006633
    30  H    0.000000   0.000000   0.000000  -0.000010   0.006633   0.602186
    31  H    0.000000  -0.000000   0.000000  -0.000000  -0.000013  -0.005813
    32  H   -0.000000   0.000000  -0.000000  -0.000000   0.000000  -0.000202
    33  H    0.000000  -0.000006  -0.000004   0.000000   0.000002   0.000020
              31         32         33
     1  N    0.000000   0.000000  -0.000000
     2  C   -0.000000   0.000000  -0.000000
     3  N   -0.000000   0.000000  -0.000000
     4  C    0.000000  -0.000000   0.000003
     5  C    0.000000  -0.000000   0.000000
     6  C   -0.000000   0.000000  -0.000000
     7  C    0.000000  -0.000000   0.000072
     8  C   -0.000000  -0.000000   0.000177
     9  O    0.000000  -0.000004   0.011288
    10  C    0.000016  -0.000207  -0.013298
    11  C   -0.000001   0.000004   0.000518
    12  C    0.000004  -0.000001  -0.000022
    13  C   -0.000211   0.000013  -0.000160
    14  C    0.002907   0.001153   0.004633
    15  C   -0.037637   0.004499   0.000457
    16  C    0.358165  -0.042682   0.004694
    17  C   -0.042376   0.359073  -0.046443
    18  C    0.004372  -0.037515   0.360952
    19  C    0.001107   0.002756  -0.039313
    20  N    0.000000   0.000000  -0.000001
    21  H   -0.000000   0.000000  -0.000000
    22  H    0.000000  -0.000000   0.000001
    23  H    0.000000   0.000000   0.000000
    24  H   -0.000000   0.000000  -0.000000
    25  H    0.000000  -0.000000   0.000000
    26  H   -0.000000   0.000000  -0.000006
    27  H    0.000000  -0.000000  -0.000004
    28  H   -0.000000  -0.000000   0.000000
    29  H   -0.000013   0.000000   0.000002
    30  H   -0.005813  -0.000202   0.000020
    31  H    0.594746  -0.005367  -0.000189
    32  H   -0.005367   0.592420  -0.005289
    33  H   -0.000189  -0.005289   0.570775
 Mulliken charges:
               1
     1  N   -0.659912
     2  C    0.453720
     3  N   -0.779247
     4  C    0.321002
     5  C   -0.158505
     6  C   -0.103260
     7  C   -0.184068
     8  C    0.494404
     9  O   -0.534829
    10  C    0.280707
    11  C   -0.176960
    12  C   -0.140909
    13  C   -0.188929
    14  C    0.139664
    15  C   -0.199794
    16  C   -0.127421
    17  C   -0.135927
    18  C   -0.175257
    19  C    0.070478
    20  N   -0.580805
    21  H    0.266565
    22  H    0.358173
    23  H    0.323030
    24  H    0.176457
    25  H    0.148143
    26  H    0.159285
    27  H    0.148257
    28  H    0.134533
    29  H    0.128365
    30  H    0.130266
    31  H    0.130289
    32  H    0.131351
    33  H    0.151132
 Sum of Mulliken charges =  -0.00000
 Mulliken charges with hydrogens summed into heavy atoms:
               1
     1  N   -0.393347
     2  C    0.453720
     3  N   -0.098045
     4  C    0.321002
     5  C    0.017952
     6  C    0.044883
     7  C   -0.024783
     8  C    0.494404
     9  O   -0.534829
    10  C    0.280707
    11  C   -0.028703
    12  C   -0.006375
    13  C   -0.060564
    14  C    0.139664
    15  C   -0.069528
    16  C    0.002868
    17  C   -0.004576
    18  C   -0.024125
    19  C    0.070478
    20  N   -0.580805
 Electronic spatial extent (au):  <R**2>=           6992.9659
 Charge=             -0.0000 electrons
 Dipole moment (field-independent basis, Debye):
    X=              1.8131    Y=             -0.0437    Z=             -0.1725  Tot=              1.8218
 Quadrupole moment (field-independent basis, Debye-Ang):
   XX=           -110.2449   YY=           -100.3511   ZZ=           -113.4697
   XY=              7.9191   XZ=              6.6984   YZ=              2.7565
 Traceless Quadrupole moment (field-independent basis, Debye-Ang):
   XX=             -2.2230   YY=              7.6708   ZZ=             -5.4478
   XY=              7.9191   XZ=              6.6984   YZ=              2.7565
 Octapole moment (field-independent basis, Debye-Ang**2):
  XXX=             63.0631  YYY=            -16.1083  ZZZ=             -2.9461  XYY=            -20.1159
  XXY=            -61.2073  XXZ=            -41.2931  XZZ=            -24.0030  YZZ=             -0.8545
  YYZ=             -5.3762  XYZ=            -36.7660
 Hexadecapole moment (field-independent basis, Debye-Ang**3):
 XXXX=          -7372.8948 YYYY=          -1201.1499 ZZZZ=           -515.2239 XXXY=            368.9670
 XXXZ=            324.6548 YYYX=             62.4054 YYYZ=              7.9857 ZZZX=             20.9469
 ZZZY=             34.9734 XXYY=          -1283.0933 XXZZ=          -1379.0905 YYZZ=           -262.3243
 XXYZ=             77.6391 YYXZ=             44.1110 ZZXY=             21.3879
 N-N= 1.394183590104D+03 E-N=-4.779395167606D+03  KE= 8.496045240130D+02
 No NMR shielding tensors so no spin-rotation constants.
 Leave Link  601 at Fri Nov  4 19:38:38 2022, MaxMem=   805306368 cpu:               0.9 elap:               0.2
 (Enter /home/wykgroup/appl/g16/l701.exe)
 ... and contract with generalized density number  0.
 Compute integral first derivatives.
 Leave Link  701 at Fri Nov  4 19:38:38 2022, MaxMem=   805306368 cpu:               0.9 elap:               0.2
 (Enter /home/wykgroup/appl/g16/l702.exe)
 L702 exits ... SP integral derivatives will be done elsewhere.
 Leave Link  702 at Fri Nov  4 19:38:38 2022, MaxMem=   805306368 cpu:               0.2 elap:               0.0
 (Enter /home/wykgroup/appl/g16/l703.exe)
 Integral derivatives from FoFJK, PRISM(SPDF).
 Compute integral first derivatives, UseDBF=F ICtDFT=           0.
 Calling FoFJK, ICntrl=      2127 FMM=F ISym2X=0 I1Cent= 0 IOpClX= 0 NMat=1 NMatS=1 NMatT=0.
 FoFJK:  IHMeth= 1 ICntrl=    2127 DoSepK=F KAlg= 0 I1Cent=           0 FoldK=F
 IRaf=         0 NMat=       1 IRICut=       1 DoRegI=T DoRafI=F ISym2E= 0 IDoP0=0 IntGTp=1.
 FoFCou: FMM=F IPFlag=           0 FMFlag=      100000 FMFlg1=         800
         NFxFlg=           0 DoJE=F BraDBF=F KetDBF=F FulRan=T
         wScrn=  0.000000 ICntrl=      2127 IOpCl=  0 I1Cent=           0 NGrid=           0
         NMat0=    1 NMatS0=      1 NMatT0=    0 NMatD0=    1 NMtDS0=    0 NMtDT0=    0
[...]
 Alpha virt. eigenvalues --    4.70684   4.84858
          Condensed to atoms (all electrons):
               1          2          3          4          5          6
     1  N    6.912977   0.648781  -0.136269  -0.078671  -0.003955   0.000832
     2  C    0.648781   4.577637   0.255215   0.283761  -0.043890   0.006085
     3  N   -0.136269   0.255215   7.177642  -0.079601   0.012305  -0.000155
     4  C   -0.078671   0.283761  -0.079601   4.810892   0.440075  -0.018486
     5  C   -0.003955  -0.043890   0.012305   0.440075   5.107774   0.482821
     6  C    0.000832   0.006085  -0.000155  -0.018486   0.482821   4.890716
     7  C    0.000006   0.000740  -0.000024  -0.036212  -0.028147   0.507793
     8  C   -0.000080   0.004287  -0.000061  -0.030937  -0.043881  -0.016770
     9  O    0.000000  -0.000041   0.000006   0.001279   0.000236   0.002966
    10  C   -0.000000  -0.000003  -0.000000   0.000046   0.000021   0.000440
    11  C   -0.000000   0.000000   0.000000   0.000019  -0.000015   0.000075
    12  C   -0.000000   0.000000   0.000000  -0.000000   0.000000  -0.000001
    13  C    0.000000  -0.000000  -0.000000  -0.000000   0.000000  -0.000001
    14  C   -0.000000   0.000000   0.000000  -0.000000  -0.000000   0.000001
    15  C    0.000000   0.000000   0.000000  -0.000000  -0.000000  -0.000000
    16  C    0.000000  -0.000000  -0.000000   0.000000  -0.000000   0.000000
    17  C   -0.000000   0.000000   0.000000   0.000000   0.000000  -0.000000
    18  C   -0.000000   0.000000   0.000000   0.000000   0.000001  -0.000014
    19  C    0.000000   0.000000  -0.000000   0.000002  -0.000001  -0.000001
    20  N    0.003546  -0.066882  -0.024092   0.417329  -0.086303  -0.027549
    21  H    0.281489  -0.059925  -0.023059   0.013659  -0.001174  -0.000009
    22  H    0.005120  -0.013257   0.278143  -0.011902   0.000428   0.000008
    23  H   -0.002122  -0.019165   0.306842   0.005551  -0.000161   0.000002
    24  H    0.016173  -0.005105   0.000452  -0.032565   0.356391  -0.043972
    25  H   -0.000008  -0.000146   0.000001   0.003919  -0.038442   0.362200
    26  H    0.000000   0.000020  -0.000000   0.000642   0.003516  -0.037697
    27  H    0.000000  -0.000000  -0.000000   0.000006  -0.000000  -0.000056
    28  H    0.000000  -0.000000   0.000000   0.000000  -0.000000   0.000000
    29  H    0.000000  -0.000000  -0.000000  -0.000000  -0.000000  -0.000000
    30  H   -0.000000   0.000000   0.000000  -0.000000  -0.000000   0.000000
    31  H    0.000000  -0.000000  -0.000000  -0.000000   0.000000  -0.000000
    32  H   -0.000000   0.000000   0.000000  -0.000000   0.000000   0.000000
    33  H   -0.000000  -0.000000  -0.000000   0.000008   0.000001  -0.000004
               7          8          9         10         11         12
     1  N    0.000006  -0.000080   0.000000  -0.000000  -0.000000  -0.000000
     2  C    0.000740   0.004287  -0.000041  -0.000003   0.000000   0.000000
     3  N   -0.000024  -0.000061   0.000006  -0.000000   0.000000   0.000000
     4  C   -0.036212  -0.030937   0.001279   0.000046   0.000019  -0.000000
     5  C   -0.028147  -0.043881   0.000236   0.000021  -0.000015   0.000000
     6  C    0.507793  -0.016770   0.002966   0.000440   0.000075  -0.000001
     7  C    5.113832   0.462955  -0.078086   0.009953   0.001388  -0.000548
     8  C    0.462955   4.438309   0.267801  -0.022854  -0.009328   0.000150
     9  O   -0.078086   0.267801   8.332344   0.216583  -0.063273   0.004421
    10  C    0.009953  -0.022854   0.216583   4.836046   0.469466   0.015841
    11  C    0.001388  -0.009328  -0.063273   0.469466   5.100727   0.438623
    12  C   -0.000548   0.000150   0.004421   0.015841   0.438623   4.934720
    13  C    0.000025   0.000014   0.000056  -0.070119  -0.020430   0.507821
    14  C   -0.000216   0.000117   0.003678   0.005368  -0.053680   0.011617
    15  C   -0.000001   0.000001  -0.000069   0.013163  -0.000465   0.008192
    16  C    0.000001   0.000000  -0.000003  -0.000526   0.000034  -0.000356
    17  C   -0.000021  -0.000003   0.000693   0.007624  -0.000358   0.000085
    18  C    0.000529  -0.000594  -0.002004  -0.095351   0.014216  -0.002017
    19  C    0.000893  -0.002702  -0.065168   0.393732  -0.040408  -0.042650
    20  N   -0.083175   0.477280  -0.076423   0.000149  -0.000281   0.000003
    21  H   -0.000000   0.000008  -0.000000  -0.000000   0.000000   0.000000
    22  H    0.000176   0.000291  -0.000130   0.000008  -0.000000  -0.000000
    23  H    0.000001   0.000000  -0.000000  -0.000000  -0.000000  -0.000000
    24  H    0.004355   0.000459   0.000005  -0.000001   0.000000   0.000000
    25  H   -0.042079   0.003880  -0.000052   0.000006   0.000004  -0.000000
    26  H    0.351234  -0.035892  -0.005434   0.008698   0.002390   0.000179
    27  H    0.001077   0.002365  -0.004344  -0.033672   0.351674  -0.039596
    28  H    0.000003  -0.000008  -0.000057   0.002853  -0.035801   0.355394
    29  H    0.000000   0.000000   0.000002   0.000597   0.004455  -0.044025
    30  H    0.000000   0.000000   0.000000  -0.000168   0.000017   0.000227
    31  H   -0.000000   0.000000   0.000000   0.000014  -0.000000   0.000003
    32  H   -0.000000  -0.000001  -0.000001  -0.000183   0.000003  -0.000001
    33  H    0.000157   0.000783   0.009369  -0.012162   0.000357  -0.000014
              13         14         15         16         17         18
     1  N    0.000000  -0.000000   0.000000   0.000000  -0.000000  -0.000000
     2  C   -0.000000   0.000000   0.000000  -0.000000   0.000000   0.000000
     3  N   -0.000000   0.000000   0.000000  -0.000000   0.000000   0.000000
     4  C   -0.000000  -0.000000  -0.000000   0.000000   0.000000   0.000000
     5  C    0.000000  -0.000000  -0.000000  -0.000000   0.000000   0.000001
     6  C   -0.000001   0.000001  -0.000000   0.000000  -0.000000  -0.000014
     7  C    0.000025  -0.000216  -0.000001   0.000001  -0.000021   0.000529
     8  C    0.000014   0.000117   0.000001   0.000000  -0.000003  -0.000594
     9  O    0.000056   0.003678  -0.000069  -0.000003   0.000693  -0.002004
    10  C   -0.070119   0.005368   0.013163  -0.000526   0.007624  -0.095351
    11  C   -0.020430  -0.053680  -0.000465   0.000034  -0.000358   0.014216
    12  C    0.507821   0.011617   0.008192  -0.000356   0.000085  -0.002017
    13  C    5.109391   0.438313  -0.088863   0.008264  -0.000701   0.015522
    14  C    0.438313   4.726512   0.450110  -0.006739  -0.034898  -0.057471
    15  C   -0.088863   0.450110   5.089148   0.520004  -0.019872  -0.067165
    16  C    0.008264  -0.006739   0.520004   4.901169   0.492314  -0.019748
    17  C   -0.000701  -0.034898  -0.019872   0.492314   4.908943   0.505553
    18  C    0.015522  -0.057471  -0.067165  -0.019748   0.505553   5.140632
    19  C   -0.035053   0.464302  -0.023039  -0.040816  -0.001430   0.425120
    20  N   -0.000000   0.000005  -0.000000   0.000000  -0.000001  -0.000228
    21  H   -0.000000   0.000000  -0.000000  -0.000000  -0.000000   0.000000
    22  H    0.000000  -0.000000  -0.000000   0.000000   0.000000  -0.000000
    23  H    0.000000   0.000000  -0.000000  -0.000000   0.000000  -0.000000
    24  H   -0.000000   0.000000   0.000000  -0.000000   0.000000   0.000000
    25  H   -0.000000  -0.000000  -0.000000   0.000000  -0.000000   0.000000
    26  H   -0.000066   0.000031   0.000001  -0.000001  -0.000003  -0.000018
    27  H    0.004277   0.000507   0.000007  -0.000000   0.000002  -0.000132
    28  H   -0.034343   0.002337  -0.000218   0.000003  -0.000000   0.000018
    29  H    0.356201  -0.040792  -0.007907   0.000178   0.000014  -0.000168
    30  H   -0.008509  -0.042043   0.355462  -0.045429   0.004568   0.000501
    31  H   -0.000188   0.002835  -0.037020   0.358109  -0.040886   0.004090
    32  H    0.000011   0.001013   0.004236  -0.041297   0.359016  -0.036969
    33  H   -0.000143   0.004480   0.000390   0.004386  -0.044141   0.359352
              19         20         21         22         23         24
     1  N    0.000000   0.003546   0.281489   0.005120  -0.002122   0.016173
     2  C    0.000000  -0.066882  -0.059925  -0.013257  -0.019165  -0.005105
     3  N   -0.000000  -0.024092  -0.023059   0.278143   0.306842   0.000452
     4  C    0.000002   0.417329   0.013659  -0.011902   0.005551  -0.032565
     5  C   -0.000001  -0.086303  -0.001174   0.000428  -0.000161   0.356391
     6  C   -0.000001  -0.027549  -0.000009   0.000008   0.000002  -0.043972
     7  C    0.000893  -0.083175  -0.000000   0.000176   0.000001   0.004355
     8  C   -0.002702   0.477280   0.000008   0.000291   0.000000   0.000459
     9  O   -0.065168  -0.076423  -0.000000  -0.000130  -0.000000   0.000005
    10  C    0.393732   0.000149  -0.000000   0.000008  -0.000000  -0.000001
    11  C   -0.040408  -0.000281   0.000000  -0.000000  -0.000000   0.000000
    12  C   -0.042650   0.000003   0.000000  -0.000000  -0.000000   0.000000
    13  C   -0.035053  -0.000000  -0.000000   0.000000   0.000000  -0.000000
    14  C    0.464302   0.000005   0.000000  -0.000000   0.000000   0.000000
    15  C   -0.023039  -0.000000  -0.000000  -0.000000  -0.000000   0.000000
    16  C   -0.040816   0.000000  -0.000000   0.000000  -0.000000  -0.000000
    17  C   -0.001430  -0.000001  -0.000000   0.000000   0.000000   0.000000
    18  C    0.425120  -0.000228   0.000000  -0.000000  -0.000000   0.000000
    19  C    4.886291  -0.000002   0.000000   0.000000  -0.000000   0.000000
    20  N   -0.000002   6.996566  -0.000131   0.040042   0.000478   0.004518
    21  H    0.000000  -0.000131   0.516687   0.000156   0.006652  -0.000528
    22  H    0.000000   0.040042   0.000156   0.365875  -0.022114  -0.000068
    23  H   -0.000000   0.000478   0.006652  -0.022114   0.403421  -0.000012
    24  H    0.000000   0.004518  -0.000528  -0.000068  -0.000012   0.526915
    25  H    0.000000   0.000092  -0.000000   0.000001  -0.000000  -0.004320
    26  H    0.000696   0.004090   0.000000  -0.000002  -0.000000  -0.000095
    27  H    0.005016  -0.000245  -0.000000   0.000000  -0.000000   0.000000
    28  H    0.001196  -0.000000  -0.000000  -0.000000  -0.000000   0.000000
    29  H    0.004451   0.000000   0.000000   0.000000   0.000000  -0.000000
    30  H    0.004750   0.000000   0.000000   0.000000   0.000000  -0.000000
    31  H    0.000966   0.000000  -0.000000   0.000000   0.000000  -0.000000
    32  H    0.002666  -0.000000   0.000000  -0.000000   0.000000   0.000000
    33  H   -0.037683   0.000021  -0.000000   0.000002   0.000000  -0.000000
              25         26         27         28         29         30
     1  N   -0.000008   0.000000   0.000000   0.000000   0.000000  -0.000000
     2  C   -0.000146   0.000020  -0.000000  -0.000000  -0.000000   0.000000
     3  N    0.000001  -0.000000  -0.000000   0.000000  -0.000000   0.000000
     4  C    0.003919   0.000642   0.000006   0.000000  -0.000000  -0.000000
     5  C   -0.038442   0.003516  -0.000000  -0.000000  -0.000000  -0.000000
     6  C    0.362200  -0.037697  -0.000056   0.000000  -0.000000   0.000000
     7  C   -0.042079   0.351234   0.001077   0.000003   0.000000   0.000000
     8  C    0.003880  -0.035892   0.002365  -0.000008   0.000000   0.000000
     9  O   -0.000052  -0.005434  -0.004344  -0.000057   0.000002   0.000000
    10  C    0.000006   0.008698  -0.033672   0.002853   0.000597  -0.000168
    11  C    0.000004   0.002390   0.351674  -0.035801   0.004455   0.000017
    12  C   -0.000000   0.000179  -0.039596   0.355394  -0.044025   0.000227
    13  C   -0.000000  -0.000066   0.004277  -0.034343   0.356201  -0.008509
    14  C   -0.000000   0.000031   0.000507   0.002337  -0.040792  -0.042043
    15  C   -0.000000   0.000001   0.000007  -0.000218  -0.007907   0.355462
    16  C    0.000000  -0.000001  -0.000000   0.000003   0.000178  -0.045429
    17  C   -0.000000  -0.000003   0.000002  -0.000000   0.000014   0.004568
    18  C    0.000000  -0.000018  -0.000132   0.000018  -0.000168   0.000501
    19  C    0.000000   0.000696   0.005016   0.001196   0.004451   0.004750
    20  N    0.000092   0.004090  -0.000245  -0.000000   0.000000   0.000000
    21  H   -0.000000   0.000000  -0.000000  -0.000000   0.000000   0.000000
    22  H    0.000001  -0.000002   0.000000  -0.000000   0.000000   0.000000
    23  H   -0.000000  -0.000000  -0.000000  -0.000000   0.000000   0.000000
    24  H   -0.004320  -0.000095   0.000000   0.000000  -0.000000  -0.000000
    25  H    0.571792  -0.004759   0.000001  -0.000000   0.000000   0.000000
    26  H   -0.004759   0.553580  -0.000056   0.000001  -0.000000   0.000000
    27  H    0.000001  -0.000056   0.571135  -0.004828  -0.000163  -0.000000
    28  H   -0.000000   0.000001  -0.004828   0.580237  -0.004883  -0.000008
    29  H    0.000000  -0.000000  -0.000163  -0.004883   0.593174   0.006247
    30  H    0.000000   0.000000  -0.000000  -0.000008   0.006247   0.596914
    31  H    0.000000   0.000000   0.000000  -0.000000  -0.000011  -0.005467
    32  H   -0.000000   0.000000  -0.000000  -0.000000   0.000000  -0.000181
    33  H    0.000000  -0.000021  -0.000005   0.000000   0.000002   0.000018
              31         32         33
     1  N    0.000000  -0.000000  -0.000000
     2  C   -0.000000   0.000000  -0.000000
     3  N   -0.000000   0.000000  -0.000000
     4  C   -0.000000  -0.000000   0.000008
     5  C    0.000000   0.000000   0.000001
     6  C   -0.000000   0.000000  -0.000004
     7  C   -0.000000  -0.000000   0.000157
     8  C    0.000000  -0.000001   0.000783
     9  O    0.000000  -0.000001   0.009369
    10  C    0.000014  -0.000183  -0.012162
    11  C   -0.000000   0.000003   0.000357
    12  C    0.000003  -0.000001  -0.000014
    13  C   -0.000188   0.000011  -0.000143
    14  C    0.002835   0.001013   0.004480
    15  C   -0.037020   0.004236   0.000390
    16  C    0.358109  -0.041297   0.004386
    17  C   -0.040886   0.359016  -0.044141
    18  C    0.004090  -0.036969   0.359352
    19  C    0.000966   0.002666  -0.037683
    20  N    0.000000  -0.000000   0.000021
    21  H   -0.000000   0.000000  -0.000000
    22  H    0.000000  -0.000000   0.000002
    23  H    0.000000   0.000000   0.000000
    24  H   -0.000000   0.000000  -0.000000
    25  H    0.000000  -0.000000   0.000000
    26  H    0.000000   0.000000  -0.000021
    27  H    0.000000  -0.000000  -0.000005
    28  H   -0.000000  -0.000000   0.000000
    29  H   -0.000011   0.000000   0.000002
    30  H   -0.005467  -0.000181   0.000018
    31  H    0.588858  -0.004809  -0.000171
    32  H   -0.004809   0.586654  -0.004939
    33  H   -0.000171  -0.004939   0.566496
 Mulliken charges:
               1
     1  N   -0.647817
     2  C    0.431889
     3  N   -0.767344
     4  C    0.311186
     5  C   -0.157600
     6  C   -0.109224
     7  C   -0.186608
     8  C    0.504413
     9  O   -0.544356
    10  C    0.254434
    11  C   -0.159408
    12  C   -0.148068
    13  C   -0.181478
    14  C    0.124612
    15  C   -0.196094
    16  C   -0.129546
    17  C   -0.136497
    18  C   -0.183653
    19  C    0.098873
    20  N   -0.578803
    21  H    0.266177
    22  H    0.357224
    23  H    0.320626
    24  H    0.177398
    25  H    0.147910
    26  H    0.158965
    27  H    0.147032
    28  H    0.138106
    29  H    0.132629
    30  H    0.133103
    31  H    0.133677
    32  H    0.134781
    33  H    0.153462
 Sum of Mulliken charges =  -0.00000
 Mulliken charges with hydrogens summed into heavy atoms:
               1
     1  N   -0.381641
     2  C    0.431889
     3  N   -0.089495
     4  C    0.311186
     5  C    0.019799
     6  C    0.038686
     7  C   -0.027643
     8  C    0.504413
     9  O   -0.544356
    10  C    0.254434
    11  C   -0.012376
    12  C   -0.009962
    13  C   -0.048849
    14  C    0.124612
    15  C   -0.062991
    16  C    0.004131
    17  C   -0.001716
    18  C   -0.030191
    19  C    0.098873
    20  N   -0.578803
 Electronic spatial extent (au):  <R**2>=           6837.7195
 Charge=             -0.0000 electrons
 Dipole moment (field-independent basis, Debye):
    X=              2.3644    Y=             -0.1517    Z=             -0.0181  Tot=              2.3694
 Quadrupole moment (field-independent basis, Debye-Ang):
   XX=           -108.7767   YY=           -103.2460   ZZ=           -112.5004
   XY=              6.7071   XZ=             10.9947   YZ=              3.6647
 Traceless Quadrupole moment (field-independent basis, Debye-Ang):
   XX=             -0.6023   YY=              4.9284   ZZ=             -4.3261
   XY=              6.7071   XZ=             10.9947   YZ=              3.6647
 Octapole moment (field-independent basis, Debye-Ang**2):
  XXX=             46.9611  YYY=             -8.5005  ZZZ=             -2.6866  XYY=              4.7697
  XXY=            -42.8642  XXZ=            -53.6046  XZZ=            -32.0241  YZZ=             -0.1608
  YYZ=             -9.0426  XYZ=            -31.9129
 Hexadecapole moment (field-independent basis, Debye-Ang**3):
 XXXX=          -6946.2739 YYYY=          -1140.2843 ZZZZ=           -628.7307 XXXY=            275.3820
 XXXZ=            496.1581 YYYX=             25.5023 YYYZ=            -20.5017 ZZZX=             30.1118
 ZZZY=             54.0373 XXYY=          -1299.3035 XXZZ=          -1336.6621 YYZZ=           -306.0196
 XXYZ=             96.1725 YYXZ=             45.2632 ZZXY=             27.5222
 N-N= 1.390988966833D+03 E-N=-4.772474279846D+03  KE= 8.489202715211D+02
 No NMR shielding tensors so no spin-rotation constants.
 Leave Link  601 at Fri Nov  4 19:51:17 2022, MaxMem=   805306368 cpu:               1.8 elap:               0.3
 (Enter /home/wykgroup/appl/g16/l9999.exe)
 1\1\GINC-NODE74\FOpt\RB3LYP\6-31G(d)\C16H13N3O1\WYKGROUP\04-Nov-2022\0
 \\#p b3lyp/6-31g(d) opt SCF=XQC\\Gaussian input prepared by ASE\\0,1\N
 ,-5.5764439442,-1.5958089763,-0.2039192044\C,-4.5893000392,-1.01813543
 15,-0.7935077644\N,-4.5103801453,-0.5915830418,-2.0970114319\C,-3.3599
 597992,-0.7161062506,0.015328308\C,-3.3347595783,-0.9560412781,1.39003
 17709\C,-2.1578721196,-0.6655065226,2.0765977053\C,-1.0594011673,-0.15
 01986165,1.3922962128\C,-1.1998130898,0.0543450797,0.0135033395\O,-0.1
 912507514,0.5281852731,-0.7890081327\C,0.9594150223,1.0637524553,-0.22
 49195255\C,0.9331582842,2.310434,0.3580137585\C,2.1276607397,2.8743965
 15,0.8641919671\C,3.3182017029,2.1898342792,0.7706992324\C,3.371482538
 4,0.9066701729,0.1631887909\C,4.5840706031,0.1748715562,0.0462410314\C
 ,4.6066124234,-1.0668360124,-0.5469196151\C,3.4142928072,-1.6376245116
 ,-1.0557382906\C,2.2196752948,-0.959831219,-0.9616126904\C,2.167392487
 ,0.3208700577,-0.3502624244\N,-2.3098352021,-0.2201725744,-0.658943604
 9\H,-6.3567999948,-1.7415326175,-0.8518625666\H,-3.5862649383,-0.33623
 20211,-2.4241310733\H,-5.1512710564,-0.9823541444,-2.7719796266\H,-4.2
 153704881,-1.3580422339,1.8746392581\H,-2.0893978378,-0.841892344,3.14
 66953338\H,-0.1314264154,0.080386356,1.9007479681\H,-0.0057616103,2.85
 19479816,0.4178145677\H,2.0959013211,3.8583245772,1.3233627152\H,4.236
 1695246,2.6250097931,1.1574039131\H,5.4983646848,0.6169663972,0.434838
 2915\H,5.5418994936,-1.6138195449,-0.6292384743\H,3.4457722007,-2.6169
 735863,-1.525259307\H,1.3052400497,-1.3873045672,-1.3584734323\\Versio
 n=ES64L-G16RevB.01\State=1-A\HF=-857.0156232\RMSD=4.683e-09\RMSF=2.537
 e-06\Dipole=0.9235084,0.1266205,-0.0084643\Quadrupole=-0.8674464,-1.22
 63275,2.0937739,-0.550186,8.5472472,5.8664258\PG=C01 [X(C16H13N3O1)]\\
 @


 FLOATING POINT NUMBERS ARE LIKE SANDPILES:
 EVERY TIME THAT YOU MOVE ONE, YOU LOSE A LITTLE SAND 
 AND YOU PICK UP A LITTLE DIRT.
 Job cpu time:       0 days  1 hours 30 minutes 16.6 seconds.
 Elapsed time:       0 days  0 hours 13 minutes 11.1 seconds.
 File lengths (MBytes):  RWF=     72 Int=      0 D2E=      0 Chk=     10 Scr=      1
 Normal termination of Gaussian 16 at Fri Nov  4 19:51:17 2022.
