 Entering Gaussian System, Link 0=/home/wykgroup/appl/g16/g16
 Input=calculation/no_transfer_pubchem_sampling_3_b3lyp/97948996_rwf.com
 Output=calculation/no_transfer_pubchem_sampling_3_b3lyp/97948996_rwf.log
 Initial command:
 /home/wykgroup/appl/g16/l1.exe "/userdata/scratch/wykgroup/khs/calculation/no_transfer_pubchem_sampling_3_b3lyp/97948996_rwf/Gau-4917.inp" -scrdir="/userdata/scratch/wykgroup/khs/calculation/no_transfer_pubchem_sampling_3_b3lyp/97948996_rwf/"
 Entering Link 1 = /home/wykgroup/appl/g16/l1.exe PID=      4918.
  
 Copyright (c) 1988-2017, Gaussian, Inc.  All Rights Reserved.
  
 This is part of the Gaussian(R) 16 program.  It is based on
 the Gaussian(R) 09 system (copyright 2009, Gaussian, Inc.),
 the Gaussian(R) 03 system (copyright 2003, Gaussian, Inc.),
 the Gaussian(R) 98 system (copyright 1998, Gaussian, Inc.),
 the Gaussian(R) 94 system (copyright 1995, Gaussian, Inc.),
 the Gaussian 92(TM) system (copyright 1992, Gaussian, Inc.),
 the Gaussian 90(TM) system (copyright 1990, Gaussian, Inc.),
 the Gaussian 88(TM) system (copyright 1988, Gaussian, Inc.),
 the Gaussian 86(TM) system (copyright 1986, Carnegie Mellon
 University), and the Gaussian 82(TM) system (copyright 1983,
 Carnegie Mellon University). Gaussian is a federally registered
 trademark of Gaussian, Inc.
  
 This software contains proprietary and confidential information,
 including trade secrets, belonging to Gaussian, Inc.
  
 This software is provided under written license and may be
 used, copied, transmitted, or stored only in accord with that
 written license.
  
 The following legend is applicable only to US Government
 contracts under FAR:
  
                    RESTRICTED RIGHTS LEGEND
  
 Use, reproduction and disclosure by the US Government is
 subject to restrictions as set forth in subparagraphs (a)
 and (c) of the Commercial Computer Software - Restricted
 Rights clause in FAR 52.227-19.
  
 Gaussian, Inc.
 340 Quinnipiac St., Bldg. 40, Wallingford CT 06492
  
  
 ---------------------------------------------------------------
 Warning -- This program may not be used in any manner that
 competes with the business of Gaussian, Inc. or will provide
 assistance to any competitor of Gaussian, Inc.  The licensee
 of this program is prohibited from giving any competitor of
 Gaussian, Inc. access to this program.  By using this program,
 the user acknowledges that Gaussian, Inc. is engaged in the
 business of creating and licensing software in the field of
 computational chemistry and represents and warrants to the
 licensee that it is not a competitor of Gaussian, Inc. and that
 it will not use this program in any manner prohibited above.
 ---------------------------------------------------------------
  

 Cite this work as:
 Gaussian 16, Revision B.01,
 M. J. Frisch, G. W. Trucks, H. B. Schlegel, G. E. Scuseria, 
 M. A. Robb, J. R. Cheeseman, G. Scalmani, V. Barone, 
 G. A. Petersson, H. Nakatsuji, X. Li, M. Caricato, A. V. Marenich, 
 J. Bloino, B. G. Janesko, R. Gomperts, B. Mennucci, H. P. Hratchian, 
 J. V. Ortiz, A. F. Izmaylov, J. L. Sonnenberg, D. Williams-Young, 
 F. Ding, F. Lipparini, F. Egidi, J. Goings, B. Peng, A. Petrone, 
 T. Henderson, D. Ranasinghe, V. G. Zakrzewski, J. Gao, N. Rega, 
 G. Zheng, W. Liang, M. Hada, M. Ehara, K. Toyota, R. Fukuda, 
 J. Hasegawa, M. Ishida, T. Nakajima, Y. Honda, O. Kitao, H. Nakai, 
 T. Vreven, K. Throssell, J. A. Montgomery, Jr., J. E. Peralta, 
 F. Ogliaro, M. J. Bearpark, J. J. Heyd, E. N. Brothers, K. N. Kudin, 
 V. N. Staroverov, T. A. Keith, R. Kobayashi, J. Normand, 
 K. Raghavachari, A. P. Rendell, J. C. Burant, S. S. Iyengar, 
 J. Tomasi, M. Cossi, J. M. Millam, M. Klene, C. Adamo, R. Cammi, 
 J. W. Ochterski, R. L. Martin, K. Morokuma, O. Farkas, 
 J. B. Foresman, and D. J. Fox, Gaussian, Inc., Wallingford CT, 2016.
 
 ******************************************
 Gaussian 16:  ES64L-G16RevB.01 20-Dec-2017
                 5-Nov-2022 
 ******************************************
 %chk=calculation/no_transfer_pubchem_sampling_3_b3lyp/97948996_rwf.chk
 %rwf=calculation/no_transfer_pubchem_sampling_3_b3lyp/97948996_rwf.rwf
 %nprocshared=14
 Will use up to   14 processors via shared memory.
 %mem=3GB
 -------------------------------------------------------------------
 #p b3lyp/6-31g(d) 6D 10F nosymm GFInput td=(50-50,nstate=2) SCF=XQC
 -------------------------------------------------------------------
 1/38=1,172=1/1;
 2/12=2,15=1,17=6,18=5,40=1/2;
 3/5=1,6=6,7=1,8=22,11=9,24=10,25=1,30=1,74=-5/1,2,3,8;
 4//1;
 5/5=2,8=3,13=1,38=5/2,8;
 8/6=1,10=2,108=2/1;
 9/41=2,42=1,48=2,70=2/14;
 6/7=2,8=2,9=2,10=2/1;
 99/5=1,9=1/99;
 Leave Link    1 at Sat Nov  5 11:56:26 2022, MaxMem=   402653184 cpu:               3.5 elap:               0.3
 (Enter /home/wykgroup/appl/g16/l101.exe)
 ------------------------------
 Gaussian input prepared by ASE
 ------------------------------
 Symbolic Z-matrix:
 Charge =  0 Multiplicity = 1
 C                     9.34064   0.70752  -3.23827 
 C                     9.28755   0.75857  -1.71833 
 O                     7.97478   0.41047  -1.22371 
 C                     7.06538   1.41413  -1.16247 
 O                     7.30954   2.56037  -1.49332 
 C                     5.75076   0.95491  -0.64482 
 C                     4.72113   1.89974  -0.52542 
 C                     3.47504   1.52491  -0.04819 
 C                     3.22683   0.18999   0.32266 
 N                     1.93545  -0.1052    0.79703 
 C                     1.42542  -1.31568   1.18975 
 O                     2.04165  -2.37318   1.19655 
 C                    -0.03988  -1.273     1.6568 
 C                    -1.03705  -0.65959   0.63997 
 C                    -1.21877   0.84403   0.82728 
 O                    -0.3323    1.68425   0.86879 
 N                    -2.5685    1.06964   0.98253 
 C                    -3.12259   2.37475   1.20771 
 C                    -3.88798   2.9894    0.22119 
 C                    -4.41005   4.26593   0.4299 
 C                    -4.15188   4.93273   1.63492 
 O                    -4.60624   6.17754   1.94233 
 C                    -5.40601   6.86144   0.98778 
 C                    -3.37266   4.31052   2.62319 
 C                    -2.86434   3.03761   2.41148 
 C                    -3.30777  -0.13851   0.93887 
 S                    -4.95641  -0.25762   1.0593 
 N                    -2.40775  -1.14672   0.78329 
 C                    -2.7893   -2.52457   0.48075 
 C                    -3.02518  -2.77218  -1.02475 
 C                    -3.42875  -4.20663  -1.28984 
 C                    -2.47328  -5.17324  -1.62934 
 C                    -2.84374  -6.503    -1.83567 
 C                    -4.17941  -6.88559  -1.70294 
 C                    -5.14076  -5.9312   -1.36382 
 C                    -4.76711  -4.60291  -1.15865 
 C                     4.25252  -0.76331   0.20629 
 C                     5.49883  -0.37277  -0.27421 
 H                     10.3638   0.89985  -3.58174 
 H                     8.68436   1.46791  -3.67049 
 H                     9.03352  -0.27713  -3.606 
 H                     9.55186   1.75177  -1.34738 
 H                     9.95092   0.01453  -1.26975 
 H                     4.91932   2.9269   -0.81304 
 H                     2.68066   2.26205   0.04072 
 H                     1.29395   0.68945   0.84403 
 H                    -0.30704  -2.31412   1.84429 
 H                    -0.11261  -0.73901   2.61225 
 H                    -0.67716  -0.84568  -0.38295 
 H                    -4.08639   2.46906  -0.70977 
 H                    -5.00939   4.72525  -0.34694 
 H                    -6.33067   6.3115    0.77035 
 H                    -4.85725   7.03347   0.05281 
 H                    -5.65505   7.8218    1.44198 
 H                    -3.18351   4.84451   3.54846 
 H                    -2.26514   2.55538   3.17719 
 H                    -2.00051  -3.18531   0.8525 
 H                    -3.7001   -2.74059   1.04265 
 H                    -3.80832  -2.08552  -1.36475 
 H                    -2.11116  -2.53096  -1.58221 
 H                    -1.43077  -4.88135  -1.73978 
 H                    -2.08933  -7.23805  -2.10343 
 H                    -4.47013  -7.91987  -1.86595 
 H                    -6.18364  -6.21993  -1.26265 
 H                    -5.52005  -3.86219  -0.89788 
 H                     4.06237  -1.78804   0.49149 
 H                     6.28962  -1.10924  -0.36305 
 
 ITRead=  0  0  0  0  0  0  0  0  0  0  0  0  0  0  0  0  0  0  0  0
 ITRead=  0  0  0  0  0  0  0  0  0  0  0  0  0  0  0  0  0  0  0  0
 ITRead=  0  0  0  0  0  0  0  0  0  0  0  0  0  0  0  0  0  0  0  0
 ITRead=  0  0  0  0  0  0  0
 MicOpt= -1 -1 -1 -1 -1 -1 -1 -1 -1 -1 -1 -1 -1 -1 -1 -1 -1 -1 -1 -1
 MicOpt= -1 -1 -1 -1 -1 -1 -1 -1 -1 -1 -1 -1 -1 -1 -1 -1 -1 -1 -1 -1
 MicOpt= -1 -1 -1 -1 -1 -1 -1 -1 -1 -1 -1 -1 -1 -1 -1 -1 -1 -1 -1 -1
 MicOpt= -1 -1 -1 -1 -1 -1 -1
 NAtoms=     67 NQM=       67 NQMF=       0 NMMI=      0 NMMIF=      0
                NMic=       0 NMicF=      0.
                    Isotopes and Nuclear Properties:
 (Nuclear quadrupole moments (NQMom) in fm**2, nuclear magnetic moments (NMagM)
  in nuclear magnetons)

  Atom         1           2           3           4           5           6           7           8           9          10
 IAtWgt=          12          12          16          12          16          12          12          12          12          14
 AtmWgt=  12.0000000  12.0000000  15.9949146  12.0000000  15.9949146  12.0000000  12.0000000  12.0000000  12.0000000  14.0030740
 NucSpn=           0           0           0           0           0           0           0           0           0           2
 AtZEff=  -0.0000000  -0.0000000  -0.0000000  -0.0000000  -0.0000000  -0.0000000  -0.0000000  -0.0000000  -0.0000000  -0.0000000
 NQMom=    0.0000000   0.0000000   0.0000000   0.0000000   0.0000000   0.0000000   0.0000000   0.0000000   0.0000000   2.0440000
 NMagM=    0.0000000   0.0000000   0.0000000   0.0000000   0.0000000   0.0000000   0.0000000   0.0000000   0.0000000   0.4037610
 AtZNuc=   6.0000000   6.0000000   8.0000000   6.0000000   8.0000000   6.0000000   6.0000000   6.0000000   6.0000000   7.0000000

  Atom        11          12          13          14          15          16          17          18          19          20
 IAtWgt=          12          16          12          12          12          16          14          12          12          12
 AtmWgt=  12.0000000  15.9949146  12.0000000  12.0000000  12.0000000  15.9949146  14.0030740  12.0000000  12.0000000  12.0000000
 NucSpn=           0           0           0           0           0           0           2           0           0           0
 AtZEff=  -0.0000000  -0.0000000  -0.0000000  -0.0000000  -0.0000000  -0.0000000  -0.0000000  -0.0000000  -0.0000000  -0.0000000
 NQMom=    0.0000000   0.0000000   0.0000000   0.0000000   0.0000000   0.0000000   2.0440000   0.0000000   0.0000000   0.0000000
 NMagM=    0.0000000   0.0000000   0.0000000   0.0000000   0.0000000   0.0000000   0.4037610   0.0000000   0.0000000   0.0000000
 AtZNuc=   6.0000000   8.0000000   6.0000000   6.0000000   6.0000000   8.0000000   7.0000000   6.0000000   6.0000000   6.0000000

  Atom        21          22          23          24          25          26          27          28          29          30
 IAtWgt=          12          16          12          12          12          12          32          14          12          12
 AtmWgt=  12.0000000  15.9949146  12.0000000  12.0000000  12.0000000  12.0000000  31.9720718  14.0030740  12.0000000  12.0000000
 NucSpn=           0           0           0           0           0           0           0           2           0           0
 AtZEff=  -0.0000000  -0.0000000  -0.0000000  -0.0000000  -0.0000000  -0.0000000  -0.0000000  -0.0000000  -0.0000000  -0.0000000
 NQMom=    0.0000000   0.0000000   0.0000000   0.0000000   0.0000000   0.0000000   0.0000000   2.0440000   0.0000000   0.0000000
 NMagM=    0.0000000   0.0000000   0.0000000   0.0000000   0.0000000   0.0000000   0.0000000   0.4037610   0.0000000   0.0000000
 AtZNuc=   6.0000000   8.0000000   6.0000000   6.0000000   6.0000000   6.0000000  16.0000000   7.0000000   6.0000000   6.0000000

  Atom        31          32          33          34          35          36          37          38          39          40
 IAtWgt=          12          12          12          12          12          12          12          12           1           1
 AtmWgt=  12.0000000  12.0000000  12.0000000  12.0000000  12.0000000  12.0000000  12.0000000  12.0000000   1.0078250   1.0078250
 NucSpn=           0           0           0           0           0           0           0           0           1           1
 AtZEff=  -0.0000000  -0.0000000  -0.0000000  -0.0000000  -0.0000000  -0.0000000  -0.0000000  -0.0000000  -0.0000000  -0.0000000
 NQMom=    0.0000000   0.0000000   0.0000000   0.0000000   0.0000000   0.0000000   0.0000000   0.0000000   0.0000000   0.0000000
 NMagM=    0.0000000   0.0000000   0.0000000   0.0000000   0.0000000   0.0000000   0.0000000   0.0000000   2.7928460   2.7928460
 AtZNuc=   6.0000000   6.0000000   6.0000000   6.0000000   6.0000000   6.0000000   6.0000000   6.0000000   1.0000000   1.0000000

  Atom        41          42          43          44          45          46          47          48          49          50
 IAtWgt=           1           1           1           1           1           1           1           1           1           1
 AtmWgt=   1.0078250   1.0078250   1.0078250   1.0078250   1.0078250   1.0078250   1.0078250   1.0078250   1.0078250   1.0078250
 NucSpn=           1           1           1           1           1           1           1           1           1           1
 AtZEff=  -0.0000000  -0.0000000  -0.0000000  -0.0000000  -0.0000000  -0.0000000  -0.0000000  -0.0000000  -0.0000000  -0.0000000
 NQMom=    0.0000000   0.0000000   0.0000000   0.0000000   0.0000000   0.0000000   0.0000000   0.0000000   0.0000000   0.0000000
 NMagM=    2.7928460   2.7928460   2.7928460   2.7928460   2.7928460   2.7928460   2.7928460   2.7928460   2.7928460   2.7928460
 AtZNuc=   1.0000000   1.0000000   1.0000000   1.0000000   1.0000000   1.0000000   1.0000000   1.0000000   1.0000000   1.0000000

  Atom        51          52          53          54          55          56          57          58          59          60
 IAtWgt=           1           1           1           1           1           1           1           1           1           1
 AtmWgt=   1.0078250   1.0078250   1.0078250   1.0078250   1.0078250   1.0078250   1.0078250   1.0078250   1.0078250   1.0078250
 NucSpn=           1           1           1           1           1           1           1           1           1           1
 AtZEff=  -0.0000000  -0.0000000  -0.0000000  -0.0000000  -0.0000000  -0.0000000  -0.0000000  -0.0000000  -0.0000000  -0.0000000
 NQMom=    0.0000000   0.0000000   0.0000000   0.0000000   0.0000000   0.0000000   0.0000000   0.0000000   0.0000000   0.0000000
 NMagM=    2.7928460   2.7928460   2.7928460   2.7928460   2.7928460   2.7928460   2.7928460   2.7928460   2.7928460   2.7928460
 AtZNuc=   1.0000000   1.0000000   1.0000000   1.0000000   1.0000000   1.0000000   1.0000000   1.0000000   1.0000000   1.0000000

  Atom        61          62          63          64          65          66          67
 IAtWgt=           1           1           1           1           1           1           1
 AtmWgt=   1.0078250   1.0078250   1.0078250   1.0078250   1.0078250   1.0078250   1.0078250
 NucSpn=           1           1           1           1           1           1           1
 AtZEff=  -0.0000000  -0.0000000  -0.0000000  -0.0000000  -0.0000000  -0.0000000  -0.0000000
 NQMom=    0.0000000   0.0000000   0.0000000   0.0000000   0.0000000   0.0000000   0.0000000
 NMagM=    2.7928460   2.7928460   2.7928460   2.7928460   2.7928460   2.7928460   2.7928460
 AtZNuc=   1.0000000   1.0000000   1.0000000   1.0000000   1.0000000   1.0000000   1.0000000
 Leave Link  101 at Sat Nov  5 11:56:26 2022, MaxMem=   402653184 cpu:               1.9 elap:               0.2
 (Enter /home/wykgroup/appl/g16/l202.exe)
 Symmetry turned off by external request.
 Stoichiometry    C29H29N3O5S
 Framework group  C1[X(C29H29N3O5S)]
 Deg. of freedom   195
 Full point group                 C1      NOp   1
                          Input orientation:                          
 ---------------------------------------------------------------------
 Center     Atomic      Atomic             Coordinates (Angstroms)
 Number     Number       Type             X           Y           Z
 ---------------------------------------------------------------------
      1          6           0        9.340644    0.707523   -3.238268
      2          6           0        9.287553    0.758567   -1.718334
      3          8           0        7.974784    0.410469   -1.223710
      4          6           0        7.065379    1.414135   -1.162473
      5          8           0        7.309544    2.560373   -1.493321
      6          6           0        5.750760    0.954914   -0.644823
      7          6           0        4.721128    1.899738   -0.525416
      8          6           0        3.475038    1.524915   -0.048188
      9          6           0        3.226831    0.189995    0.322663
     10          7           0        1.935448   -0.105202    0.797033
     11          6           0        1.425423   -1.315681    1.189752
     12          8           0        2.041651   -2.373179    1.196554
     13          6           0       -0.039882   -1.272996    1.656795
     14          6           0       -1.037047   -0.659586    0.639969
     15          6           0       -1.218769    0.844027    0.827280
     16          8           0       -0.332296    1.684248    0.868791
     17          7           0       -2.568497    1.069644    0.982527
     18          6           0       -3.122595    2.374746    1.207710
     19          6           0       -3.887981    2.989402    0.221187
     20          6           0       -4.410050    4.265927    0.429900
     21          6           0       -4.151878    4.932731    1.634916
     22          8           0       -4.606245    6.177543    1.942329
     23          6           0       -5.406009    6.861437    0.987783
     24          6           0       -3.372658    4.310522    2.623192
     25          6           0       -2.864344    3.037609    2.411483
     26          6           0       -3.307771   -0.138512    0.938871
     27         16           0       -4.956412   -0.257620    1.059302
     28          7           0       -2.407746   -1.146721    0.783290
     29          6           0       -2.789297   -2.524574    0.480748
     30          6           0       -3.025184   -2.772182   -1.024749
     31          6           0       -3.428753   -4.206625   -1.289840
     32          6           0       -2.473277   -5.173240   -1.629338
     33          6           0       -2.843744   -6.502997   -1.835665
     34          6           0       -4.179414   -6.885592   -1.702942
     35          6           0       -5.140759   -5.931203   -1.363821
     36          6           0       -4.767113   -4.602910   -1.158653
     37          6           0        4.252521   -0.763313    0.206293
     38          6           0        5.498835   -0.372767   -0.274208
     39          1           0       10.363803    0.899851   -3.581738
     40          1           0        8.684361    1.467905   -3.670486
     41          1           0        9.033520   -0.277127   -3.605996
     42          1           0        9.551864    1.751775   -1.347375
     43          1           0        9.950919    0.014534   -1.269751
     44          1           0        4.919317    2.926897   -0.813043
     45          1           0        2.680657    2.262051    0.040723
     46          1           0        1.293948    0.689449    0.844026
     47          1           0       -0.307039   -2.314121    1.844290
     48          1           0       -0.112608   -0.739010    2.612255
     49          1           0       -0.677157   -0.845683   -0.382950
     50          1           0       -4.086387    2.469058   -0.709768
     51          1           0       -5.009394    4.725252   -0.346944
     52          1           0       -6.330672    6.311501    0.770354
     53          1           0       -4.857247    7.033472    0.052811
     54          1           0       -5.655049    7.821802    1.441979
     55          1           0       -3.183508    4.844509    3.548461
     56          1           0       -2.265142    2.555385    3.177187
     57          1           0       -2.000513   -3.185312    0.852503
     58          1           0       -3.700098   -2.740586    1.042653
     59          1           0       -3.808319   -2.085516   -1.364749
     60          1           0       -2.111160   -2.530957   -1.582209
     61          1           0       -1.430766   -4.881355   -1.739781
     62          1           0       -2.089327   -7.238049   -2.103426
     63          1           0       -4.470128   -7.919873   -1.865952
     64          1           0       -6.183637   -6.219934   -1.262655
     65          1           0       -5.520047   -3.862192   -0.897884
     66          1           0        4.062367   -1.788040    0.491491
     67          1           0        6.289621   -1.109245   -0.363055
 ---------------------------------------------------------------------
 Rotational constants (GHZ):           0.0803221           0.0426319           0.0293624
 Leave Link  202 at Sat Nov  5 11:56:26 2022, MaxMem=   402653184 cpu:               1.0 elap:               0.1
 (Enter /home/wykgroup/appl/g16/l301.exe)
 Standard basis: 6-31G(d) (6D, 10F)
 Ernie: Thresh=  0.10000D-02 Tol=  0.10000D-05 Strict=F.
 AO basis set in the form of general basis input (Overlap normalization):
      1 0
 S   6 1.00       0.000000000000
      0.3047524880D+04  0.1834737132D-02
      0.4573695180D+03  0.1403732281D-01
      0.1039486850D+03  0.6884262226D-01
      0.2921015530D+02  0.2321844432D+00
      0.9286662960D+01  0.4679413484D+00
      0.3163926960D+01  0.3623119853D+00
 SP   3 1.00       0.000000000000
      0.7868272350D+01 -0.1193324198D+00  0.6899906659D-01
      0.1881288540D+01 -0.1608541517D+00  0.3164239610D+00
      0.5442492580D+00  0.1143456438D+01  0.7443082909D+00
 SP   1 1.00       0.000000000000
      0.1687144782D+00  0.1000000000D+01  0.1000000000D+01
 D   1 1.00       0.000000000000
      0.8000000000D+00  0.1000000000D+01
 ****
      2 0
 S   6 1.00       0.000000000000
      0.3047524880D+04  0.1834737132D-02
      0.4573695180D+03  0.1403732281D-01
      0.1039486850D+03  0.6884262226D-01
      0.2921015530D+02  0.2321844432D+00
      0.9286662960D+01  0.4679413484D+00
      0.3163926960D+01  0.3623119853D+00
 SP   3 1.00       0.000000000000
      0.7868272350D+01 -0.1193324198D+00  0.6899906659D-01
      0.1881288540D+01 -0.1608541517D+00  0.3164239610D+00
      0.5442492580D+00  0.1143456438D+01  0.7443082909D+00
 SP   1 1.00       0.000000000000
      0.1687144782D+00  0.1000000000D+01  0.1000000000D+01
 D   1 1.00       0.000000000000
      0.8000000000D+00  0.1000000000D+01
 ****
      3 0
 S   6 1.00       0.000000000000
      0.5484671660D+04  0.1831074430D-02
      0.8252349460D+03  0.1395017220D-01
      0.1880469580D+03  0.6844507810D-01
      0.5296450000D+02  0.2327143360D+00
      0.1689757040D+02  0.4701928980D+00
      0.5799635340D+01  0.3585208530D+00
 SP   3 1.00       0.000000000000
      0.1553961625D+02 -0.1107775495D+00  0.7087426823D-01
      0.3599933586D+01 -0.1480262627D+00  0.3397528391D+00
      0.1013761750D+01  0.1130767015D+01  0.7271585773D+00
 SP   1 1.00       0.000000000000
      0.2700058226D+00  0.1000000000D+01  0.1000000000D+01
 D   1 1.00       0.000000000000
      0.8000000000D+00  0.1000000000D+01
 ****
      4 0
 S   6 1.00       0.000000000000
      0.3047524880D+04  0.1834737132D-02
      0.4573695180D+03  0.1403732281D-01
      0.1039486850D+03  0.6884262226D-01
      0.2921015530D+02  0.2321844432D+00
      0.9286662960D+01  0.4679413484D+00
      0.3163926960D+01  0.3623119853D+00
 SP   3 1.00       0.000000000000
      0.7868272350D+01 -0.1193324198D+00  0.6899906659D-01
      0.1881288540D+01 -0.1608541517D+00  0.3164239610D+00
      0.5442492580D+00  0.1143456438D+01  0.7443082909D+00
 SP   1 1.00       0.000000000000
      0.1687144782D+00  0.1000000000D+01  0.1000000000D+01
 D   1 1.00       0.000000000000
      0.8000000000D+00  0.1000000000D+01
 ****
      5 0
 S   6 1.00       0.000000000000
      0.5484671660D+04  0.1831074430D-02
      0.8252349460D+03  0.1395017220D-01
      0.1880469580D+03  0.6844507810D-01
      0.5296450000D+02  0.2327143360D+00
      0.1689757040D+02  0.4701928980D+00
      0.5799635340D+01  0.3585208530D+00
 SP   3 1.00       0.000000000000
      0.1553961625D+02 -0.1107775495D+00  0.7087426823D-01
      0.3599933586D+01 -0.1480262627D+00  0.3397528391D+00
      0.1013761750D+01  0.1130767015D+01  0.7271585773D+00
 SP   1 1.00       0.000000000000
      0.2700058226D+00  0.1000000000D+01  0.1000000000D+01
 D   1 1.00       0.000000000000
      0.8000000000D+00  0.1000000000D+01
 ****
      6 0
 S   6 1.00       0.000000000000
      0.3047524880D+04  0.1834737132D-02
      0.4573695180D+03  0.1403732281D-01
      0.1039486850D+03  0.6884262226D-01
      0.2921015530D+02  0.2321844432D+00
      0.9286662960D+01  0.4679413484D+00
      0.3163926960D+01  0.3623119853D+00
 SP   3 1.00       0.000000000000
      0.7868272350D+01 -0.1193324198D+00  0.6899906659D-01
      0.1881288540D+01 -0.1608541517D+00  0.3164239610D+00
      0.5442492580D+00  0.1143456438D+01  0.7443082909D+00
 SP   1 1.00       0.000000000000
      0.1687144782D+00  0.1000000000D+01  0.1000000000D+01
 D   1 1.00       0.000000000000
      0.8000000000D+00  0.1000000000D+01
 ****
      7 0
 S   6 1.00       0.000000000000
      0.3047524880D+04  0.1834737132D-02
      0.4573695180D+03  0.1403732281D-01
      0.1039486850D+03  0.6884262226D-01
      0.2921015530D+02  0.2321844432D+00
      0.9286662960D+01  0.4679413484D+00
      0.3163926960D+01  0.3623119853D+00
 SP   3 1.00       0.000000000000
      0.7868272350D+01 -0.1193324198D+00  0.6899906659D-01
      0.1881288540D+01 -0.1608541517D+00  0.3164239610D+00
      0.5442492580D+00  0.1143456438D+01  0.7443082909D+00
 SP   1 1.00       0.000000000000
      0.1687144782D+00  0.1000000000D+01  0.1000000000D+01
 D   1 1.00       0.000000000000
      0.8000000000D+00  0.1000000000D+01
 ****
      8 0
 S   6 1.00       0.000000000000
      0.3047524880D+04  0.1834737132D-02
      0.4573695180D+03  0.1403732281D-01
      0.1039486850D+03  0.6884262226D-01
      0.2921015530D+02  0.2321844432D+00
      0.9286662960D+01  0.4679413484D+00
      0.3163926960D+01  0.3623119853D+00
 SP   3 1.00       0.000000000000
      0.7868272350D+01 -0.1193324198D+00  0.6899906659D-01
      0.1881288540D+01 -0.1608541517D+00  0.3164239610D+00
      0.5442492580D+00  0.1143456438D+01  0.7443082909D+00
 SP   1 1.00       0.000000000000
      0.1687144782D+00  0.1000000000D+01  0.1000000000D+01
 D   1 1.00       0.000000000000
      0.8000000000D+00  0.1000000000D+01
 ****
      9 0
 S   6 1.00       0.000000000000
      0.3047524880D+04  0.1834737132D-02
      0.4573695180D+03  0.1403732281D-01
      0.1039486850D+03  0.6884262226D-01
      0.2921015530D+02  0.2321844432D+00
      0.9286662960D+01  0.4679413484D+00
      0.3163926960D+01  0.3623119853D+00
 SP   3 1.00       0.000000000000
      0.7868272350D+01 -0.1193324198D+00  0.6899906659D-01
      0.1881288540D+01 -0.1608541517D+00  0.3164239610D+00
      0.5442492580D+00  0.1143456438D+01  0.7443082909D+00
 SP   1 1.00       0.000000000000
      0.1687144782D+00  0.1000000000D+01  0.1000000000D+01
 D   1 1.00       0.000000000000
      0.8000000000D+00  0.1000000000D+01
 ****
     10 0
 S   6 1.00       0.000000000000
      0.4173511460D+04  0.1834772160D-02
      0.6274579110D+03  0.1399462700D-01
      0.1429020930D+03  0.6858655181D-01
      0.4023432930D+02  0.2322408730D+00
      0.1282021290D+02  0.4690699481D+00
      0.4390437010D+01  0.3604551991D+00
 SP   3 1.00       0.000000000000
      0.1162636186D+02 -0.1149611817D+00  0.6757974388D-01
      0.2716279807D+01 -0.1691174786D+00  0.3239072959D+00
      0.7722183966D+00  0.1145851947D+01  0.7408951398D+00
 SP   1 1.00       0.000000000000
      0.2120314975D+00  0.1000000000D+01  0.1000000000D+01
 D   1 1.00       0.000000000000
      0.8000000000D+00  0.1000000000D+01
 ****
     11 0
 S   6 1.00       0.000000000000
      0.3047524880D+04  0.1834737132D-02
      0.4573695180D+03  0.1403732281D-01
      0.1039486850D+03  0.6884262226D-01
      0.2921015530D+02  0.2321844432D+00
      0.9286662960D+01  0.4679413484D+00
      0.3163926960D+01  0.3623119853D+00
 SP   3 1.00       0.000000000000
      0.7868272350D+01 -0.1193324198D+00  0.6899906659D-01
      0.1881288540D+01 -0.1608541517D+00  0.3164239610D+00
      0.5442492580D+00  0.1143456438D+01  0.7443082909D+00
 SP   1 1.00       0.000000000000
      0.1687144782D+00  0.1000000000D+01  0.1000000000D+01
 D   1 1.00       0.000000000000
      0.8000000000D+00  0.1000000000D+01
 ****
     12 0
 S   6 1.00       0.000000000000
      0.5484671660D+04  0.1831074430D-02
      0.8252349460D+03  0.1395017220D-01
      0.1880469580D+03  0.6844507810D-01
      0.5296450000D+02  0.2327143360D+00
      0.1689757040D+02  0.4701928980D+00
      0.5799635340D+01  0.3585208530D+00
 SP   3 1.00       0.000000000000
      0.1553961625D+02 -0.1107775495D+00  0.7087426823D-01
      0.3599933586D+01 -0.1480262627D+00  0.3397528391D+00
      0.1013761750D+01  0.1130767015D+01  0.7271585773D+00
 SP   1 1.00       0.000000000000
      0.2700058226D+00  0.1000000000D+01  0.1000000000D+01
 D   1 1.00       0.000000000000
      0.8000000000D+00  0.1000000000D+01
 ****
     13 0
 S   6 1.00       0.000000000000
      0.3047524880D+04  0.1834737132D-02
      0.4573695180D+03  0.1403732281D-01
      0.1039486850D+03  0.6884262226D-01
      0.2921015530D+02  0.2321844432D+00
      0.9286662960D+01  0.4679413484D+00
      0.3163926960D+01  0.3623119853D+00
 SP   3 1.00       0.000000000000
      0.7868272350D+01 -0.1193324198D+00  0.6899906659D-01
      0.1881288540D+01 -0.1608541517D+00  0.3164239610D+00
      0.5442492580D+00  0.1143456438D+01  0.7443082909D+00
 SP   1 1.00       0.000000000000
      0.1687144782D+00  0.1000000000D+01  0.1000000000D+01
 D   1 1.00       0.000000000000
      0.8000000000D+00  0.1000000000D+01
 ****
     14 0
 S   6 1.00       0.000000000000
      0.3047524880D+04  0.1834737132D-02
      0.4573695180D+03  0.1403732281D-01
      0.1039486850D+03  0.6884262226D-01
      0.2921015530D+02  0.2321844432D+00
      0.9286662960D+01  0.4679413484D+00
      0.3163926960D+01  0.3623119853D+00
 SP   3 1.00       0.000000000000
      0.7868272350D+01 -0.1193324198D+00  0.6899906659D-01
      0.1881288540D+01 -0.1608541517D+00  0.3164239610D+00
      0.5442492580D+00  0.1143456438D+01  0.7443082909D+00
 SP   1 1.00       0.000000000000
      0.1687144782D+00  0.1000000000D+01  0.1000000000D+01
 D   1 1.00       0.000000000000
      0.8000000000D+00  0.1000000000D+01
 ****
     15 0
 S   6 1.00       0.000000000000
      0.3047524880D+04  0.1834737132D-02
      0.4573695180D+03  0.1403732281D-01
      0.1039486850D+03  0.6884262226D-01
      0.2921015530D+02  0.2321844432D+00
      0.9286662960D+01  0.4679413484D+00
      0.3163926960D+01  0.3623119853D+00
 SP   3 1.00       0.000000000000
      0.7868272350D+01 -0.1193324198D+00  0.6899906659D-01
      0.1881288540D+01 -0.1608541517D+00  0.3164239610D+00
      0.5442492580D+00  0.1143456438D+01  0.7443082909D+00
 SP   1 1.00       0.000000000000
      0.1687144782D+00  0.1000000000D+01  0.1000000000D+01
 D   1 1.00       0.000000000000
      0.8000000000D+00  0.1000000000D+01
 ****
     16 0
 S   6 1.00       0.000000000000
      0.5484671660D+04  0.1831074430D-02
      0.8252349460D+03  0.1395017220D-01
      0.1880469580D+03  0.6844507810D-01
      0.5296450000D+02  0.2327143360D+00
      0.1689757040D+02  0.4701928980D+00
      0.5799635340D+01  0.3585208530D+00
 SP   3 1.00       0.000000000000
      0.1553961625D+02 -0.1107775495D+00  0.7087426823D-01
      0.3599933586D+01 -0.1480262627D+00  0.3397528391D+00
      0.1013761750D+01  0.1130767015D+01  0.7271585773D+00
 SP   1 1.00       0.000000000000
      0.2700058226D+00  0.1000000000D+01  0.1000000000D+01
 D   1 1.00       0.000000000000
      0.8000000000D+00  0.1000000000D+01
 ****
     17 0
 S   6 1.00       0.000000000000
      0.4173511460D+04  0.1834772160D-02
      0.6274579110D+03  0.1399462700D-01
      0.1429020930D+03  0.6858655181D-01
      0.4023432930D+02  0.2322408730D+00
      0.1282021290D+02  0.4690699481D+00
      0.4390437010D+01  0.3604551991D+00
 SP   3 1.00       0.000000000000
      0.1162636186D+02 -0.1149611817D+00  0.6757974388D-01
      0.2716279807D+01 -0.1691174786D+00  0.3239072959D+00
      0.7722183966D+00  0.1145851947D+01  0.7408951398D+00
 SP   1 1.00       0.000000000000
      0.2120314975D+00  0.1000000000D+01  0.1000000000D+01
 D   1 1.00       0.000000000000
      0.8000000000D+00  0.1000000000D+01
 ****
     18 0
 S   6 1.00       0.000000000000
      0.3047524880D+04  0.1834737132D-02
      0.4573695180D+03  0.1403732281D-01
      0.1039486850D+03  0.6884262226D-01
      0.2921015530D+02  0.2321844432D+00
      0.9286662960D+01  0.4679413484D+00
      0.3163926960D+01  0.3623119853D+00
 SP   3 1.00       0.000000000000
      0.7868272350D+01 -0.1193324198D+00  0.6899906659D-01
      0.1881288540D+01 -0.1608541517D+00  0.3164239610D+00
      0.5442492580D+00  0.1143456438D+01  0.7443082909D+00
 SP   1 1.00       0.000000000000
      0.1687144782D+00  0.1000000000D+01  0.1000000000D+01
 D   1 1.00       0.000000000000
      0.8000000000D+00  0.1000000000D+01
 ****
     19 0
 S   6 1.00       0.000000000000
      0.3047524880D+04  0.1834737132D-02
      0.4573695180D+03  0.1403732281D-01
      0.1039486850D+03  0.6884262226D-01
      0.2921015530D+02  0.2321844432D+00
      0.9286662960D+01  0.4679413484D+00
      0.3163926960D+01  0.3623119853D+00
 SP   3 1.00       0.000000000000
      0.7868272350D+01 -0.1193324198D+00  0.6899906659D-01
      0.1881288540D+01 -0.1608541517D+00  0.3164239610D+00
      0.5442492580D+00  0.1143456438D+01  0.7443082909D+00
 SP   1 1.00       0.000000000000
      0.1687144782D+00  0.1000000000D+01  0.1000000000D+01
 D   1 1.00       0.000000000000
      0.8000000000D+00  0.1000000000D+01
 ****
     20 0
 S   6 1.00       0.000000000000
      0.3047524880D+04  0.1834737132D-02
      0.4573695180D+03  0.1403732281D-01
      0.1039486850D+03  0.6884262226D-01
      0.2921015530D+02  0.2321844432D+00
      0.9286662960D+01  0.4679413484D+00
      0.3163926960D+01  0.3623119853D+00
 SP   3 1.00       0.000000000000
      0.7868272350D+01 -0.1193324198D+00  0.6899906659D-01
      0.1881288540D+01 -0.1608541517D+00  0.3164239610D+00
      0.5442492580D+00  0.1143456438D+01  0.7443082909D+00
 SP   1 1.00       0.000000000000
      0.1687144782D+00  0.1000000000D+01  0.1000000000D+01
 D   1 1.00       0.000000000000
      0.8000000000D+00  0.1000000000D+01
 ****
     21 0
 S   6 1.00       0.000000000000
      0.3047524880D+04  0.1834737132D-02
      0.4573695180D+03  0.1403732281D-01
      0.1039486850D+03  0.6884262226D-01
      0.2921015530D+02  0.2321844432D+00
      0.9286662960D+01  0.4679413484D+00
      0.3163926960D+01  0.3623119853D+00
 SP   3 1.00       0.000000000000
      0.7868272350D+01 -0.1193324198D+00  0.6899906659D-01
      0.1881288540D+01 -0.1608541517D+00  0.3164239610D+00
      0.5442492580D+00  0.1143456438D+01  0.7443082909D+00
 SP   1 1.00       0.000000000000
      0.1687144782D+00  0.1000000000D+01  0.1000000000D+01
 D   1 1.00       0.000000000000
      0.8000000000D+00  0.1000000000D+01
 ****
     22 0
 S   6 1.00       0.000000000000
      0.5484671660D+04  0.1831074430D-02
      0.8252349460D+03  0.1395017220D-01
      0.1880469580D+03  0.6844507810D-01
      0.5296450000D+02  0.2327143360D+00
      0.1689757040D+02  0.4701928980D+00
      0.5799635340D+01  0.3585208530D+00
 SP   3 1.00       0.000000000000
      0.1553961625D+02 -0.1107775495D+00  0.7087426823D-01
      0.3599933586D+01 -0.1480262627D+00  0.3397528391D+00
      0.1013761750D+01  0.1130767015D+01  0.7271585773D+00
 SP   1 1.00       0.000000000000
      0.2700058226D+00  0.1000000000D+01  0.1000000000D+01
 D   1 1.00       0.000000000000
      0.8000000000D+00  0.1000000000D+01
 ****
     23 0
 S   6 1.00       0.000000000000
      0.3047524880D+04  0.1834737132D-02
      0.4573695180D+03  0.1403732281D-01
      0.1039486850D+03  0.6884262226D-01
      0.2921015530D+02  0.2321844432D+00
      0.9286662960D+01  0.4679413484D+00
      0.3163926960D+01  0.3623119853D+00
 SP   3 1.00       0.000000000000
      0.7868272350D+01 -0.1193324198D+00  0.6899906659D-01
      0.1881288540D+01 -0.1608541517D+00  0.3164239610D+00
      0.5442492580D+00  0.1143456438D+01  0.7443082909D+00
 SP   1 1.00       0.000000000000
      0.1687144782D+00  0.1000000000D+01  0.1000000000D+01
 D   1 1.00       0.000000000000
      0.8000000000D+00  0.1000000000D+01
 ****
     24 0
 S   6 1.00       0.000000000000
      0.3047524880D+04  0.1834737132D-02
      0.4573695180D+03  0.1403732281D-01
      0.1039486850D+03  0.6884262226D-01
      0.2921015530D+02  0.2321844432D+00
      0.9286662960D+01  0.4679413484D+00
      0.3163926960D+01  0.3623119853D+00
 SP   3 1.00       0.000000000000
      0.7868272350D+01 -0.1193324198D+00  0.6899906659D-01
      0.1881288540D+01 -0.1608541517D+00  0.3164239610D+00
      0.5442492580D+00  0.1143456438D+01  0.7443082909D+00
 SP   1 1.00       0.000000000000
      0.1687144782D+00  0.1000000000D+01  0.1000000000D+01
 D   1 1.00       0.000000000000
      0.8000000000D+00  0.1000000000D+01
 ****
     25 0
 S   6 1.00       0.000000000000
      0.3047524880D+04  0.1834737132D-02
      0.4573695180D+03  0.1403732281D-01
      0.1039486850D+03  0.6884262226D-01
      0.2921015530D+02  0.2321844432D+00
      0.9286662960D+01  0.4679413484D+00
      0.3163926960D+01  0.3623119853D+00
 SP   3 1.00       0.000000000000
      0.7868272350D+01 -0.1193324198D+00  0.6899906659D-01
      0.1881288540D+01 -0.1608541517D+00  0.3164239610D+00
      0.5442492580D+00  0.1143456438D+01  0.7443082909D+00
 SP   1 1.00       0.000000000000
      0.1687144782D+00  0.1000000000D+01  0.1000000000D+01
 D   1 1.00       0.000000000000
      0.8000000000D+00  0.1000000000D+01
 ****
     26 0
 S   6 1.00       0.000000000000
      0.3047524880D+04  0.1834737132D-02
      0.4573695180D+03  0.1403732281D-01
      0.1039486850D+03  0.6884262226D-01
      0.2921015530D+02  0.2321844432D+00
      0.9286662960D+01  0.4679413484D+00
      0.3163926960D+01  0.3623119853D+00
 SP   3 1.00       0.000000000000
      0.7868272350D+01 -0.1193324198D+00  0.6899906659D-01
      0.1881288540D+01 -0.1608541517D+00  0.3164239610D+00
      0.5442492580D+00  0.1143456438D+01  0.7443082909D+00
 SP   1 1.00       0.000000000000
      0.1687144782D+00  0.1000000000D+01  0.1000000000D+01
 D   1 1.00       0.000000000000
      0.8000000000D+00  0.1000000000D+01
 ****
     27 0
 S   6 1.00       0.000000000000
      0.2191710000D+05  0.1869240849D-02
      0.3301490000D+04  0.1423030646D-01
      0.7541460000D+03  0.6969623166D-01
      0.2127110000D+03  0.2384871083D+00
      0.6798960000D+02  0.4833072195D+00
      0.2305150000D+02  0.3380741536D+00
 SP   6 1.00       0.000000000000
      0.4237350000D+03 -0.2376770499D-02  0.4061009982D-02
      0.1007100000D+03 -0.3169300665D-01  0.3068129986D-01
      0.3215990000D+02 -0.1133170238D+00  0.1304519994D+00
      0.1180790000D+02  0.5609001177D-01  0.3272049985D+00
      0.4631100000D+01  0.5922551243D+00  0.4528509980D+00
      0.1870250000D+01  0.4550060955D+00  0.2560419989D+00
 SP   3 1.00       0.000000000000
      0.2615840000D+01 -0.2503731142D+00 -0.1451048955D-01
      0.9221670000D+00  0.6695676310D-01  0.3102627765D+00
      0.3412870000D+00  0.1054506269D+01  0.7544824565D+00
 SP   1 1.00       0.000000000000
      0.1171670000D+00  0.1000000000D+01  0.1000000000D+01
 D   1 1.00       0.000000000000
      0.6500000000D+00  0.1000000000D+01
 ****
     28 0
 S   6 1.00       0.000000000000
      0.4173511460D+04  0.1834772160D-02
      0.6274579110D+03  0.1399462700D-01
      0.1429020930D+03  0.6858655181D-01
      0.4023432930D+02  0.2322408730D+00
      0.1282021290D+02  0.4690699481D+00
      0.4390437010D+01  0.3604551991D+00
 SP   3 1.00       0.000000000000
      0.1162636186D+02 -0.1149611817D+00  0.6757974388D-01
      0.2716279807D+01 -0.1691174786D+00  0.3239072959D+00
      0.7722183966D+00  0.1145851947D+01  0.7408951398D+00
 SP   1 1.00       0.000000000000
      0.2120314975D+00  0.1000000000D+01  0.1000000000D+01
 D   1 1.00       0.000000000000
      0.8000000000D+00  0.1000000000D+01
 ****
     29 0
 S   6 1.00       0.000000000000
      0.3047524880D+04  0.1834737132D-02
      0.4573695180D+03  0.1403732281D-01
      0.1039486850D+03  0.6884262226D-01
      0.2921015530D+02  0.2321844432D+00
      0.9286662960D+01  0.4679413484D+00
      0.3163926960D+01  0.3623119853D+00
 SP   3 1.00       0.000000000000
      0.7868272350D+01 -0.1193324198D+00  0.6899906659D-01
      0.1881288540D+01 -0.1608541517D+00  0.3164239610D+00
      0.5442492580D+00  0.1143456438D+01  0.7443082909D+00
 SP   1 1.00       0.000000000000
      0.1687144782D+00  0.1000000000D+01  0.1000000000D+01
 D   1 1.00       0.000000000000
      0.8000000000D+00  0.1000000000D+01
 ****
     30 0
 S   6 1.00       0.000000000000
      0.3047524880D+04  0.1834737132D-02
      0.4573695180D+03  0.1403732281D-01
      0.1039486850D+03  0.6884262226D-01
      0.2921015530D+02  0.2321844432D+00
      0.9286662960D+01  0.4679413484D+00
      0.3163926960D+01  0.3623119853D+00
 SP   3 1.00       0.000000000000
      0.7868272350D+01 -0.1193324198D+00  0.6899906659D-01
      0.1881288540D+01 -0.1608541517D+00  0.3164239610D+00
      0.5442492580D+00  0.1143456438D+01  0.7443082909D+00
 SP   1 1.00       0.000000000000
      0.1687144782D+00  0.1000000000D+01  0.1000000000D+01
 D   1 1.00       0.000000000000
      0.8000000000D+00  0.1000000000D+01
 ****
     31 0
 S   6 1.00       0.000000000000
      0.3047524880D+04  0.1834737132D-02
      0.4573695180D+03  0.1403732281D-01
      0.1039486850D+03  0.6884262226D-01
      0.2921015530D+02  0.2321844432D+00
      0.9286662960D+01  0.4679413484D+00
      0.3163926960D+01  0.3623119853D+00
 SP   3 1.00       0.000000000000
      0.7868272350D+01 -0.1193324198D+00  0.6899906659D-01
      0.1881288540D+01 -0.1608541517D+00  0.3164239610D+00
      0.5442492580D+00  0.1143456438D+01  0.7443082909D+00
 SP   1 1.00       0.000000000000
      0.1687144782D+00  0.1000000000D+01  0.1000000000D+01
 D   1 1.00       0.000000000000
      0.8000000000D+00  0.1000000000D+01
 ****
     32 0
 S   6 1.00       0.000000000000
      0.3047524880D+04  0.1834737132D-02
      0.4573695180D+03  0.1403732281D-01
      0.1039486850D+03  0.6884262226D-01
      0.2921015530D+02  0.2321844432D+00
      0.9286662960D+01  0.4679413484D+00
      0.3163926960D+01  0.3623119853D+00
 SP   3 1.00       0.000000000000
      0.7868272350D+01 -0.1193324198D+00  0.6899906659D-01
      0.1881288540D+01 -0.1608541517D+00  0.3164239610D+00
      0.5442492580D+00  0.1143456438D+01  0.7443082909D+00
 SP   1 1.00       0.000000000000
      0.1687144782D+00  0.1000000000D+01  0.1000000000D+01
 D   1 1.00       0.000000000000
      0.8000000000D+00  0.1000000000D+01
 ****
     33 0
 S   6 1.00       0.000000000000
      0.3047524880D+04  0.1834737132D-02
      0.4573695180D+03  0.1403732281D-01
      0.1039486850D+03  0.6884262226D-01
      0.2921015530D+02  0.2321844432D+00
      0.9286662960D+01  0.4679413484D+00
      0.3163926960D+01  0.3623119853D+00
 SP   3 1.00       0.000000000000
      0.7868272350D+01 -0.1193324198D+00  0.6899906659D-01
      0.1881288540D+01 -0.1608541517D+00  0.3164239610D+00
      0.5442492580D+00  0.1143456438D+01  0.7443082909D+00
 SP   1 1.00       0.000000000000
      0.1687144782D+00  0.1000000000D+01  0.1000000000D+01
 D   1 1.00       0.000000000000
      0.8000000000D+00  0.1000000000D+01
 ****
     34 0
 S   6 1.00       0.000000000000
      0.3047524880D+04  0.1834737132D-02
      0.4573695180D+03  0.1403732281D-01
      0.1039486850D+03  0.6884262226D-01
      0.2921015530D+02  0.2321844432D+00
      0.9286662960D+01  0.4679413484D+00
      0.3163926960D+01  0.3623119853D+00
 SP   3 1.00       0.000000000000
      0.7868272350D+01 -0.1193324198D+00  0.6899906659D-01
      0.1881288540D+01 -0.1608541517D+00  0.3164239610D+00
      0.5442492580D+00  0.1143456438D+01  0.7443082909D+00
 SP   1 1.00       0.000000000000
      0.1687144782D+00  0.1000000000D+01  0.1000000000D+01
 D   1 1.00       0.000000000000
      0.8000000000D+00  0.1000000000D+01
 ****
     35 0
 S   6 1.00       0.000000000000
      0.3047524880D+04  0.1834737132D-02
      0.4573695180D+03  0.1403732281D-01
      0.1039486850D+03  0.6884262226D-01
      0.2921015530D+02  0.2321844432D+00
      0.9286662960D+01  0.4679413484D+00
      0.3163926960D+01  0.3623119853D+00
 SP   3 1.00       0.000000000000
      0.7868272350D+01 -0.1193324198D+00  0.6899906659D-01
      0.1881288540D+01 -0.1608541517D+00  0.3164239610D+00
      0.5442492580D+00  0.1143456438D+01  0.7443082909D+00
 SP   1 1.00       0.000000000000
      0.1687144782D+00  0.1000000000D+01  0.1000000000D+01
 D   1 1.00       0.000000000000
      0.8000000000D+00  0.1000000000D+01
 ****
     36 0
 S   6 1.00       0.000000000000
      0.3047524880D+04  0.1834737132D-02
      0.4573695180D+03  0.1403732281D-01
      0.1039486850D+03  0.6884262226D-01
      0.2921015530D+02  0.2321844432D+00
      0.9286662960D+01  0.4679413484D+00
      0.3163926960D+01  0.3623119853D+00
 SP   3 1.00       0.000000000000
      0.7868272350D+01 -0.1193324198D+00  0.6899906659D-01
      0.1881288540D+01 -0.1608541517D+00  0.3164239610D+00
      0.5442492580D+00  0.1143456438D+01  0.7443082909D+00
 SP   1 1.00       0.000000000000
      0.1687144782D+00  0.1000000000D+01  0.1000000000D+01
 D   1 1.00       0.000000000000
      0.8000000000D+00  0.1000000000D+01
 ****
     37 0
 S   6 1.00       0.000000000000
      0.3047524880D+04  0.1834737132D-02
      0.4573695180D+03  0.1403732281D-01
      0.1039486850D+03  0.6884262226D-01
      0.2921015530D+02  0.2321844432D+00
      0.9286662960D+01  0.4679413484D+00
      0.3163926960D+01  0.3623119853D+00
 SP   3 1.00       0.000000000000
      0.7868272350D+01 -0.1193324198D+00  0.6899906659D-01
      0.1881288540D+01 -0.1608541517D+00  0.3164239610D+00
      0.5442492580D+00  0.1143456438D+01  0.7443082909D+00
 SP   1 1.00       0.000000000000
      0.1687144782D+00  0.1000000000D+01  0.1000000000D+01
 D   1 1.00       0.000000000000
      0.8000000000D+00  0.1000000000D+01
 ****
     38 0
 S   6 1.00       0.000000000000
      0.3047524880D+04  0.1834737132D-02
      0.4573695180D+03  0.1403732281D-01
      0.1039486850D+03  0.6884262226D-01
      0.2921015530D+02  0.2321844432D+00
      0.9286662960D+01  0.4679413484D+00
      0.3163926960D+01  0.3623119853D+00
 SP   3 1.00       0.000000000000
      0.7868272350D+01 -0.1193324198D+00  0.6899906659D-01
      0.1881288540D+01 -0.1608541517D+00  0.3164239610D+00
      0.5442492580D+00  0.1143456438D+01  0.7443082909D+00
 SP   1 1.00       0.000000000000
      0.1687144782D+00  0.1000000000D+01  0.1000000000D+01
 D   1 1.00       0.000000000000
      0.8000000000D+00  0.1000000000D+01
 ****
     39 0
 S   3 1.00       0.000000000000
      0.1873113696D+02  0.3349460434D-01
      0.2825394365D+01  0.2347269535D+00
      0.6401216923D+00  0.8137573261D+00
 S   1 1.00       0.000000000000
      0.1612777588D+00  0.1000000000D+01
 ****
     40 0
 S   3 1.00       0.000000000000
      0.1873113696D+02  0.3349460434D-01
      0.2825394365D+01  0.2347269535D+00
      0.6401216923D+00  0.8137573261D+00
 S   1 1.00       0.000000000000
      0.1612777588D+00  0.1000000000D+01
 ****
     41 0
 S   3 1.00       0.000000000000
      0.1873113696D+02  0.3349460434D-01
      0.2825394365D+01  0.2347269535D+00
      0.6401216923D+00  0.8137573261D+00
 S   1 1.00       0.000000000000
      0.1612777588D+00  0.1000000000D+01
 ****
     42 0
 S   3 1.00       0.000000000000
      0.1873113696D+02  0.3349460434D-01
      0.2825394365D+01  0.2347269535D+00
      0.6401216923D+00  0.8137573261D+00
 S   1 1.00       0.000000000000
      0.1612777588D+00  0.1000000000D+01
 ****
     43 0
 S   3 1.00       0.000000000000
      0.1873113696D+02  0.3349460434D-01
      0.2825394365D+01  0.2347269535D+00
      0.6401216923D+00  0.8137573261D+00
 S   1 1.00       0.000000000000
      0.1612777588D+00  0.1000000000D+01
 ****
     44 0
 S   3 1.00       0.000000000000
      0.1873113696D+02  0.3349460434D-01
      0.2825394365D+01  0.2347269535D+00
      0.6401216923D+00  0.8137573261D+00
 S   1 1.00       0.000000000000
      0.1612777588D+00  0.1000000000D+01
 ****
     45 0
 S   3 1.00       0.000000000000
      0.1873113696D+02  0.3349460434D-01
      0.2825394365D+01  0.2347269535D+00
      0.6401216923D+00  0.8137573261D+00
 S   1 1.00       0.000000000000
      0.1612777588D+00  0.1000000000D+01
 ****
     46 0
 S   3 1.00       0.000000000000
      0.1873113696D+02  0.3349460434D-01
      0.2825394365D+01  0.2347269535D+00
      0.6401216923D+00  0.8137573261D+00
 S   1 1.00       0.000000000000
      0.1612777588D+00  0.1000000000D+01
 ****
     47 0
 S   3 1.00       0.000000000000
      0.1873113696D+02  0.3349460434D-01
      0.2825394365D+01  0.2347269535D+00
      0.6401216923D+00  0.8137573261D+00
 S   1 1.00       0.000000000000
      0.1612777588D+00  0.1000000000D+01
 ****
     48 0
 S   3 1.00       0.000000000000
      0.1873113696D+02  0.3349460434D-01
      0.2825394365D+01  0.2347269535D+00
      0.6401216923D+00  0.8137573261D+00
 S   1 1.00       0.000000000000
      0.1612777588D+00  0.1000000000D+01
 ****
     49 0
 S   3 1.00       0.000000000000
      0.1873113696D+02  0.3349460434D-01
      0.2825394365D+01  0.2347269535D+00
      0.6401216923D+00  0.8137573261D+00
 S   1 1.00       0.000000000000
      0.1612777588D+00  0.1000000000D+01
 ****
     50 0
 S   3 1.00       0.000000000000
      0.1873113696D+02  0.3349460434D-01
      0.2825394365D+01  0.2347269535D+00
      0.6401216923D+00  0.8137573261D+00
 S   1 1.00       0.000000000000
      0.1612777588D+00  0.1000000000D+01
 ****
     51 0
 S   3 1.00       0.000000000000
      0.1873113696D+02  0.3349460434D-01
      0.2825394365D+01  0.2347269535D+00
      0.6401216923D+00  0.8137573261D+00
 S   1 1.00       0.000000000000
      0.1612777588D+00  0.1000000000D+01
 ****
     52 0
 S   3 1.00       0.000000000000
      0.1873113696D+02  0.3349460434D-01
      0.2825394365D+01  0.2347269535D+00
      0.6401216923D+00  0.8137573261D+00
 S   1 1.00       0.000000000000
      0.1612777588D+00  0.1000000000D+01
 ****
     53 0
 S   3 1.00       0.000000000000
      0.1873113696D+02  0.3349460434D-01
      0.2825394365D+01  0.2347269535D+00
      0.6401216923D+00  0.8137573261D+00
 S   1 1.00       0.000000000000
      0.1612777588D+00  0.1000000000D+01
 ****
     54 0
 S   3 1.00       0.000000000000
      0.1873113696D+02  0.3349460434D-01
      0.2825394365D+01  0.2347269535D+00
      0.6401216923D+00  0.8137573261D+00
 S   1 1.00       0.000000000000
      0.1612777588D+00  0.1000000000D+01
 ****
     55 0
 S   3 1.00       0.000000000000
      0.1873113696D+02  0.3349460434D-01
      0.2825394365D+01  0.2347269535D+00
      0.6401216923D+00  0.8137573261D+00
 S   1 1.00       0.000000000000
      0.1612777588D+00  0.1000000000D+01
 ****
     56 0
 S   3 1.00       0.000000000000
      0.1873113696D+02  0.3349460434D-01
      0.2825394365D+01  0.2347269535D+00
      0.6401216923D+00  0.8137573261D+00
 S   1 1.00       0.000000000000
      0.1612777588D+00  0.1000000000D+01
 ****
     57 0
 S   3 1.00       0.000000000000
      0.1873113696D+02  0.3349460434D-01
      0.2825394365D+01  0.2347269535D+00
      0.6401216923D+00  0.8137573261D+00
 S   1 1.00       0.000000000000
      0.1612777588D+00  0.1000000000D+01
 ****
     58 0
 S   3 1.00       0.000000000000
      0.1873113696D+02  0.3349460434D-01
      0.2825394365D+01  0.2347269535D+00
      0.6401216923D+00  0.8137573261D+00
 S   1 1.00       0.000000000000
      0.1612777588D+00  0.1000000000D+01
 ****
     59 0
 S   3 1.00       0.000000000000
      0.1873113696D+02  0.3349460434D-01
      0.2825394365D+01  0.2347269535D+00
      0.6401216923D+00  0.8137573261D+00
 S   1 1.00       0.000000000000
      0.1612777588D+00  0.1000000000D+01
 ****
     60 0
 S   3 1.00       0.000000000000
      0.1873113696D+02  0.3349460434D-01
      0.2825394365D+01  0.2347269535D+00
      0.6401216923D+00  0.8137573261D+00
 S   1 1.00       0.000000000000
      0.1612777588D+00  0.1000000000D+01
 ****
     61 0
 S   3 1.00       0.000000000000
      0.1873113696D+02  0.3349460434D-01
      0.2825394365D+01  0.2347269535D+00
      0.6401216923D+00  0.8137573261D+00
 S   1 1.00       0.000000000000
      0.1612777588D+00  0.1000000000D+01
 ****
     62 0
 S   3 1.00       0.000000000000
      0.1873113696D+02  0.3349460434D-01
      0.2825394365D+01  0.2347269535D+00
      0.6401216923D+00  0.8137573261D+00
 S   1 1.00       0.000000000000
      0.1612777588D+00  0.1000000000D+01
 ****
     63 0
 S   3 1.00       0.000000000000
      0.1873113696D+02  0.3349460434D-01
      0.2825394365D+01  0.2347269535D+00
      0.6401216923D+00  0.8137573261D+00
 S   1 1.00       0.000000000000
      0.1612777588D+00  0.1000000000D+01
 ****
     64 0
 S   3 1.00       0.000000000000
      0.1873113696D+02  0.3349460434D-01
      0.2825394365D+01  0.2347269535D+00
      0.6401216923D+00  0.8137573261D+00
 S   1 1.00       0.000000000000
      0.1612777588D+00  0.1000000000D+01
 ****
     65 0
 S   3 1.00       0.000000000000
      0.1873113696D+02  0.3349460434D-01
      0.2825394365D+01  0.2347269535D+00
      0.6401216923D+00  0.8137573261D+00
 S   1 1.00       0.000000000000
      0.1612777588D+00  0.1000000000D+01
 ****
     66 0
 S   3 1.00       0.000000000000
      0.1873113696D+02  0.3349460434D-01
      0.2825394365D+01  0.2347269535D+00
      0.6401216923D+00  0.8137573261D+00
 S   1 1.00       0.000000000000
      0.1612777588D+00  0.1000000000D+01
 ****
     67 0
 S   3 1.00       0.000000000000
      0.1873113696D+02  0.3349460434D-01
      0.2825394365D+01  0.2347269535D+00
      0.6401216923D+00  0.8137573261D+00
 S   1 1.00       0.000000000000
      0.1612777588D+00  0.1000000000D+01
 ****

   632 basis functions,  1204 primitive gaussians,   632 cartesian basis functions
   140 alpha electrons      140 beta electrons
       nuclear repulsion energy      3996.5028053806 Hartrees.
 IExCor=  402 DFT=T Ex+Corr=B3LYP ExCW=0 ScaHFX=  0.200000
 ScaDFX=  0.800000  0.720000  1.000000  0.810000 ScalE2=  1.000000  1.000000
 IRadAn=      5 IRanWt=     -1 IRanGd=            0 ICorTp=0 IEmpDi=  4
 NAtoms=   67 NActive=   67 NUniq=   67 SFac= 1.00D+00 NAtFMM=   60 NAOKFM=T Big=T
 Integral buffers will be    131072 words long.
 Regular integral format.
 Two-electron integral symmetry is turned off.
 Leave Link  301 at Sat Nov  5 11:56:27 2022, MaxMem=   402653184 cpu:               1.6 elap:               0.2
 (Enter /home/wykgroup/appl/g16/l302.exe)
 NPDir=0 NMtPBC=     1 NCelOv=     1 NCel=       1 NClECP=     1 NCelD=      1
         NCelK=      1 NCelE2=     1 NClLst=     1 CellRange=     0.0.
 One-electron integrals computed using PRISM.
 NBasis=   632 RedAO= T EigKep=  4.06D-04  NBF=   632
 NBsUse=   632 1.00D-06 EigRej= -1.00D+00 NBFU=   632
 Precomputing XC quadrature grid using
 IXCGrd= 4 IRadAn=           5 IRanWt=          -1 IRanGd=           0 AccXCQ= 0.00D+00.
 Generated NRdTot=       0 NPtTot=           0 NUsed=           0 NTot=          32
 NSgBfM=   585   585   585   585   585 MxSgAt=    67 MxSgA2=    67.
 Leave Link  302 at Sat Nov  5 11:56:28 2022, MaxMem=   402653184 cpu:              18.1 elap:               1.5
 (Enter /home/wykgroup/appl/g16/l303.exe)
 DipDrv:  MaxL=1.
 Leave Link  303 at Sat Nov  5 11:56:29 2022, MaxMem=   402653184 cpu:               3.1 elap:               0.3
 (Enter /home/wykgroup/appl/g16/l308.exe)
 Leave Link  308 at Sat Nov  5 11:56:29 2022, MaxMem=   402653184 cpu:               2.5 elap:               0.3
 (Enter /home/wykgroup/appl/g16/l401.exe)
 ExpMin= 1.17D-01 ExpMax= 2.19D+04 ExpMxC= 3.30D+03 IAcc=3 IRadAn=         5 AccDes= 0.00D+00
 Harris functional with IExCor=  402 and IRadAn=       5 diagonalized for initial guess.
 HarFok:  IExCor=  402 AccDes= 0.00D+00 IRadAn=         5 IDoV= 1 UseB2=F ITyADJ=14
 ICtDFT=  3500011 ScaDFX=  1.000000  1.000000  1.000000  1.000000
 FoFCou: FMM=F IPFlag=           0 FMFlag=      100000 FMFlg1=        2001
         NFxFlg=           0 DoJE=T BraDBF=F KetDBF=T FulRan=T
         wScrn=  0.000000 ICntrl=       500 IOpCl=  0 I1Cent=   200000004 NGrid=           0
         NMat0=    1 NMatS0=      1 NMatT0=    0 NMatD0=    1 NMtDS0=    0 NMtDT0=    0
 Symmetry not used in FoFCou.
 Harris En= -2061.10156309161    
 JPrj=0 DoOrth=F DoCkMO=F.
 Leave Link  401 at Sat Nov  5 11:56:33 2022, MaxMem=   402653184 cpu:              45.5 elap:               4.0
 (Enter /home/wykgroup/appl/g16/l502.exe)
 Two-electron integral symmetry not used.
 Closed shell SCF:
 Using DIIS extrapolation, IDIIS=  1040.
 NGot=   402653184 LenX=   401840085 LenY=   401440029
 Requested convergence on RMS density matrix=1.00D-08 within  32 cycles.
 Requested convergence on MAX density matrix=1.00D-06.
 Requested convergence on             energy=1.00D-06.
 No special actions if energy rises.
 Fock matrices will be formed incrementally for  20 cycles.
 Integral accuracy reduced to 1.0D-05 until final iterations.

 Cycle   1  Pass 0  IDiag  1:
 FoFJK:  IHMeth= 1 ICntrl=       0 DoSepK=F KAlg= 0 I1Cent=           0 FoldK=F
 IRaf= 710000000 NMat=       1 IRICut=       1 DoRegI=T DoRafI=F ISym2E= 0 IDoP0=0 IntGTp=1.
 FoFCou: FMM=T IPFlag=           0 FMFlag=      100000 FMFlg1=        2001
         NFxFlg=           0 DoJE=F BraDBF=F KetDBF=F FulRan=T
         wScrn=  0.000000 ICntrl=         0 IOpCl=  0 I1Cent=           0 NGrid=           0
         NMat0=    1 NMatS0=      1 NMatT0=    0 NMatD0=    1 NMtDS0=    0 NMtDT0=    0
 Symmetry not used in FoFCou.
 FMM levels:  10  Number of levels for PrismC:   9
 E= -2060.35614862589    
 DIIS: error= 3.90D-02 at cycle   1 NSaved=   1.
 NSaved= 1 IEnMin= 1 EnMin= -2060.35614862589     IErMin= 1 ErrMin= 3.90D-02
 ErrMax= 3.90D-02  0.00D+00 EMaxC= 1.00D-01 BMatC= 8.78D-01 BMatP= 8.78D-01
 IDIUse=3 WtCom= 6.10D-01 WtEn= 3.90D-01
 Coeff-Com:  0.100D+01
 Coeff-En:   0.100D+01
 Coeff:      0.100D+01
 Gap=     0.249 Goal=   None    Shift=    0.000
 GapD=    0.249 DampG=1.000 DampE=0.500 DampFc=0.5000 IDamp=-1.
 Damping current iteration by 5.00D-01
 RMSDP=3.72D-03 MaxDP=2.20D-01              OVMax= 2.23D-01

 Cycle   2  Pass 0  IDiag  1:
 RMSU=  1.85D-03    CP:  9.84D-01
 E= -2060.61146041417     Delta-E=       -0.255311788284 Rises=F Damp=T
 DIIS: error= 1.43D-02 at cycle   2 NSaved=   2.
 NSaved= 2 IEnMin= 2 EnMin= -2060.61146041417     IErMin= 2 ErrMin= 1.43D-02
 ErrMax= 1.43D-02  0.00D+00 EMaxC= 1.00D-01 BMatC= 1.47D-01 BMatP= 8.78D-01
 IDIUse=3 WtCom= 8.57D-01 WtEn= 1.43D-01
 Coeff-Com:  0.200D+00 0.800D+00
 Coeff-En:   0.301D+00 0.699D+00
 Coeff:      0.214D+00 0.786D+00
 Gap=     0.240 Goal=   None    Shift=    0.000
 RMSDP=1.27D-03 MaxDP=1.13D-01 DE=-2.55D-01 OVMax= 1.77D-01

 Cycle   3  Pass 0  IDiag  1:
 RMSU=  1.14D-03    CP:  9.72D-01  7.12D-01
 E= -2061.03655125813     Delta-E=       -0.425090843961 Rises=F Damp=F
 DIIS: error= 1.80D-02 at cycle   3 NSaved=   3.
 NSaved= 3 IEnMin= 3 EnMin= -2061.03655125813     IErMin= 2 ErrMin= 1.43D-02
 ErrMax= 1.80D-02  0.00D+00 EMaxC= 1.00D-01 BMatC= 1.70D-01 BMatP= 1.47D-01
 IDIUse=2 WtCom= 0.00D+00 WtEn= 1.00D+00
 Coeff-En:   0.000D+00 0.000D+00 0.100D+01
 Coeff:      0.000D+00 0.000D+00 0.100D+01
 Gap=     0.161 Goal=   None    Shift=    0.000
 RMSDP=2.29D-03 MaxDP=2.13D-01 DE=-4.25D-01 OVMax= 2.98D-01

 Cycle   4  Pass 0  IDiag  1:
 RMSU=  1.07D-03    CP:  9.83D-01  1.29D+00 -4.93D-01
 E= -2060.27676447061     Delta-E=        0.759786787519 Rises=F Damp=F
 DIIS: error= 4.63D-02 at cycle   4 NSaved=   4.
 NSaved= 4 IEnMin= 3 EnMin= -2061.03655125813     IErMin= 2 ErrMin= 1.43D-02
 ErrMax= 4.63D-02  0.00D+00 EMaxC= 1.00D-01 BMatC= 1.10D+00 BMatP= 1.47D-01
 IDIUse=2 WtCom= 0.00D+00 WtEn= 1.00D+00
 Coeff-En:   0.000D+00 0.000D+00 0.805D+00 0.195D+00
 Coeff:      0.000D+00 0.000D+00 0.805D+00 0.195D+00
 Gap=     0.176 Goal=   None    Shift=    0.000
 RMSDP=1.26D-03 MaxDP=1.31D-01 DE= 7.60D-01 OVMax= 1.42D-01

 Cycle   5  Pass 0  IDiag  1:
 RMSU=  2.03D-04    CP:  9.80D-01  9.05D-01  2.67D-01  4.98D-01
 E= -2061.11686931313     Delta-E=       -0.840104842519 Rises=F Damp=F
 DIIS: error= 1.14D-02 at cycle   5 NSaved=   5.
 NSaved= 5 IEnMin= 5 EnMin= -2061.11686931313     IErMin= 5 ErrMin= 1.14D-02
 ErrMax= 1.14D-02  0.00D+00 EMaxC= 1.00D-01 BMatC= 8.14D-02 BMatP= 1.47D-01
 IDIUse=3 WtCom= 8.86D-01 WtEn= 1.14D-01
 Coeff-Com: -0.382D-03 0.360D-01 0.346D+00-0.612D-01 0.680D+00
 Coeff-En:   0.000D+00 0.000D+00 0.357D+00 0.000D+00 0.643D+00
 Coeff:     -0.338D-03 0.319D-01 0.347D+00-0.542D-01 0.676D+00
 Gap=     0.168 Goal=   None    Shift=    0.000
 RMSDP=4.47D-04 MaxDP=3.56D-02 DE=-8.40D-01 OVMax= 4.83D-02

 Cycle   6  Pass 0  IDiag  1:
 RMSU=  9.78D-05    CP:  9.77D-01  8.17D-01  5.63D-01  3.02D-01  6.74D-01
 E= -2061.18388261795     Delta-E=       -0.067013304817 Rises=F Damp=F
 DIIS: error= 1.12D-03 at cycle   6 NSaved=   6.
 NSaved= 6 IEnMin= 6 EnMin= -2061.18388261795     IErMin= 6 ErrMin= 1.12D-03
 ErrMax= 1.12D-03  0.00D+00 EMaxC= 1.00D-01 BMatC= 1.19D-03 BMatP= 8.14D-02
 IDIUse=3 WtCom= 9.89D-01 WtEn= 1.12D-02
 Coeff-Com: -0.674D-02 0.240D-01 0.167D+00-0.682D-01 0.466D+00 0.418D+00
 Coeff-En:   0.000D+00 0.000D+00 0.000D+00 0.000D+00 0.000D+00 0.100D+01
 Coeff:     -0.666D-02 0.237D-01 0.165D+00-0.675D-01 0.460D+00 0.425D+00
 Gap=     0.169 Goal=   None    Shift=    0.000
 RMSDP=6.79D-05 MaxDP=6.19D-03 DE=-6.70D-02 OVMax= 8.54D-03

 Cycle   7  Pass 0  IDiag  1:
 RMSU=  2.50D-05    CP:  9.77D-01  8.20D-01  5.60D-01  2.95D-01  7.79D-01
                    CP:  4.01D-01
 E= -2061.18493465512     Delta-E=       -0.001052037169 Rises=F Damp=F
 DIIS: error= 2.67D-04 at cycle   7 NSaved=   7.
 NSaved= 7 IEnMin= 7 EnMin= -2061.18493465512     IErMin= 7 ErrMin= 2.67D-04
 ErrMax= 2.67D-04  0.00D+00 EMaxC= 1.00D-01 BMatC= 5.15D-05 BMatP= 1.19D-03
 IDIUse=3 WtCom= 9.97D-01 WtEn= 2.67D-03
 Coeff-Com: -0.257D-02 0.708D-02 0.598D-01-0.268D-01 0.173D+00 0.226D+00
 Coeff-Com:  0.564D+00
 Coeff-En:   0.000D+00 0.000D+00 0.000D+00 0.000D+00 0.000D+00 0.000D+00
 Coeff-En:   0.100D+01
 Coeff:     -0.256D-02 0.706D-02 0.596D-01-0.268D-01 0.172D+00 0.225D+00
 Coeff:      0.565D+00
 Gap=     0.169 Goal=   None    Shift=    0.000
 RMSDP=1.35D-05 MaxDP=9.20D-04 DE=-1.05D-03 OVMax= 1.89D-03

 Cycle   8  Pass 0  IDiag  1:
 RMSU=  9.51D-06    CP:  9.77D-01  8.19D-01  5.62D-01  2.96D-01  7.75D-01
                    CP:  4.44D-01  6.74D-01
 E= -2061.18497069291     Delta-E=       -0.000036037794 Rises=F Damp=F
 DIIS: error= 8.34D-05 at cycle   8 NSaved=   8.
 NSaved= 8 IEnMin= 8 EnMin= -2061.18497069291     IErMin= 8 ErrMin= 8.34D-05
 ErrMax= 8.34D-05  0.00D+00 EMaxC= 1.00D-01 BMatC= 9.10D-06 BMatP= 5.15D-05
 IDIUse=1 WtCom= 1.00D+00 WtEn= 0.00D+00
 Coeff-Com: -0.325D-03 0.107D-03 0.132D-01-0.567D-02 0.356D-01 0.832D-01
 Coeff-Com:  0.366D+00 0.508D+00
 Coeff:     -0.325D-03 0.107D-03 0.132D-01-0.567D-02 0.356D-01 0.832D-01
 Coeff:      0.366D+00 0.508D+00
 Gap=     0.169 Goal=   None    Shift=    0.000
 RMSDP=5.35D-06 MaxDP=4.81D-04 DE=-3.60D-05 OVMax= 7.58D-04

 Initial convergence to 1.0D-05 achieved.  Increase integral accuracy.
 Cycle   9  Pass 1  IDiag  1:
 E= -2061.18496226440     Delta-E=        0.000008428511 Rises=F Damp=F
 DIIS: error= 9.13D-05 at cycle   1 NSaved=   1.
 NSaved= 1 IEnMin= 1 EnMin= -2061.18496226440     IErMin= 1 ErrMin= 9.13D-05
 ErrMax= 9.13D-05  0.00D+00 EMaxC= 1.00D-01 BMatC= 4.58D-06 BMatP= 4.58D-06
 IDIUse=1 WtCom= 1.00D+00 WtEn= 0.00D+00
 Coeff-Com:  0.100D+01
 Coeff:      0.100D+01
 Gap=     0.169 Goal=   None    Shift=    0.000
 RMSDP=5.35D-06 MaxDP=4.81D-04 DE= 8.43D-06 OVMax= 3.71D-04

 Cycle  10  Pass 1  IDiag  1:
 RMSU=  4.68D-05    CP:  1.00D+00
 E= -2061.18496514589     Delta-E=       -0.000002881494 Rises=F Damp=F
 DIIS: error= 4.72D-05 at cycle   2 NSaved=   2.
 NSaved= 2 IEnMin= 2 EnMin= -2061.18496514589     IErMin= 2 ErrMin= 4.72D-05
 ErrMax= 4.72D-05  0.00D+00 EMaxC= 1.00D-01 BMatC= 1.71D-06 BMatP= 4.58D-06
 IDIUse=1 WtCom= 1.00D+00 WtEn= 0.00D+00
 Coeff-Com:  0.318D+00 0.682D+00
 Coeff:      0.318D+00 0.682D+00
 Gap=     0.169 Goal=   None    Shift=    0.000
 RMSDP=4.62D-06 MaxDP=3.87D-04 DE=-2.88D-06 OVMax= 5.67D-04

 Cycle  11  Pass 1  IDiag  1:
 RMSU=  4.61D-06    CP:  1.00D+00  1.00D+00
 E= -2061.18496466578     Delta-E=        0.000000480118 Rises=F Damp=F
 DIIS: error= 5.83D-05 at cycle   3 NSaved=   3.
 NSaved= 3 IEnMin= 2 EnMin= -2061.18496514589     IErMin= 2 ErrMin= 4.72D-05
 ErrMax= 5.83D-05  0.00D+00 EMaxC= 1.00D-01 BMatC= 2.27D-06 BMatP= 1.71D-06
 IDIUse=1 WtCom= 1.00D+00 WtEn= 0.00D+00
 Coeff-Com:  0.572D-02 0.534D+00 0.460D+00
 Coeff:      0.572D-02 0.534D+00 0.460D+00
 Gap=     0.169 Goal=   None    Shift=    0.000
 RMSDP=2.59D-06 MaxDP=2.46D-04 DE= 4.80D-07 OVMax= 3.35D-04

 Cycle  12  Pass 1  IDiag  1:
 RMSU=  6.15D-07    CP:  1.00D+00  1.01D+00  4.62D-01
 E= -2061.18496659650     Delta-E=       -0.000001930725 Rises=F Damp=F
 DIIS: error= 6.50D-06 at cycle   4 NSaved=   4.
 NSaved= 4 IEnMin= 4 EnMin= -2061.18496659650     IErMin= 4 ErrMin= 6.50D-06
 ErrMax= 6.50D-06  0.00D+00 EMaxC= 1.00D-01 BMatC= 4.36D-08 BMatP= 1.71D-06
 IDIUse=1 WtCom= 1.00D+00 WtEn= 0.00D+00
 Coeff-Com: -0.324D-02 0.315D+00 0.284D+00 0.405D+00
 Coeff:     -0.324D-02 0.315D+00 0.284D+00 0.405D+00
 Gap=     0.169 Goal=   None    Shift=    0.000
 RMSDP=3.45D-07 MaxDP=3.52D-05 DE=-1.93D-06 OVMax= 4.52D-05

 Cycle  13  Pass 1  IDiag  1:
 RMSU=  1.40D-07    CP:  1.00D+00  1.01D+00  4.77D-01  4.99D-01
 E= -2061.18496663401     Delta-E=       -0.000000037503 Rises=F Damp=F
 DIIS: error= 1.56D-06 at cycle   5 NSaved=   5.
 NSaved= 5 IEnMin= 5 EnMin= -2061.18496663401     IErMin= 5 ErrMin= 1.56D-06
 ErrMax= 1.56D-06  0.00D+00 EMaxC= 1.00D-01 BMatC= 1.50D-09 BMatP= 4.36D-08
 IDIUse=1 WtCom= 1.00D+00 WtEn= 0.00D+00
 Coeff-Com: -0.218D-02 0.174D+00 0.157D+00 0.250D+00 0.421D+00
 Coeff:     -0.218D-02 0.174D+00 0.157D+00 0.250D+00 0.421D+00
 Gap=     0.169 Goal=   None    Shift=    0.000
 RMSDP=7.17D-08 MaxDP=7.52D-06 DE=-3.75D-08 OVMax= 9.65D-06

 Cycle  14  Pass 1  IDiag  1:
 RMSU=  5.20D-08    CP:  1.00D+00  1.01D+00  4.76D-01  4.81D-01  6.61D-01
 E= -2061.18496663517     Delta-E=       -0.000000001166 Rises=F Damp=F
 DIIS: error= 3.53D-07 at cycle   6 NSaved=   6.
 NSaved= 6 IEnMin= 6 EnMin= -2061.18496663517     IErMin= 6 ErrMin= 3.53D-07
 ErrMax= 3.53D-07  0.00D+00 EMaxC= 1.00D-01 BMatC= 8.25D-11 BMatP= 1.50D-09
 IDIUse=1 WtCom= 1.00D+00 WtEn= 0.00D+00
 Coeff-Com: -0.981D-03 0.735D-01 0.665D-01 0.109D+00 0.244D+00 0.508D+00
 Coeff:     -0.981D-03 0.735D-01 0.665D-01 0.109D+00 0.244D+00 0.508D+00
 Gap=     0.169 Goal=   None    Shift=    0.000
 RMSDP=1.90D-08 MaxDP=2.02D-06 DE=-1.17D-09 OVMax= 3.08D-06

 Cycle  15  Pass 1  IDiag  1:
 RMSU=  1.50D-08    CP:  1.00D+00  1.01D+00  4.75D-01  4.86D-01  6.87D-01
                    CP:  8.08D-01
 E= -2061.18496663519     Delta-E=       -0.000000000015 Rises=F Damp=F
 DIIS: error= 8.43D-08 at cycle   7 NSaved=   7.
 NSaved= 7 IEnMin= 7 EnMin= -2061.18496663519     IErMin= 7 ErrMin= 8.43D-08
 ErrMax= 8.43D-08  0.00D+00 EMaxC= 1.00D-01 BMatC= 7.82D-12 BMatP= 8.25D-11
 IDIUse=1 WtCom= 1.00D+00 WtEn= 0.00D+00
 Coeff-Com: -0.330D-03 0.237D-01 0.214D-01 0.357D-01 0.943D-01 0.287D+00
 Coeff-Com:  0.538D+00
 Coeff:     -0.330D-03 0.237D-01 0.214D-01 0.357D-01 0.943D-01 0.287D+00
 Coeff:      0.538D+00
 Gap=     0.169 Goal=   None    Shift=    0.000
 RMSDP=6.68D-09 MaxDP=5.80D-07 DE=-1.55D-11 OVMax= 8.06D-07

 SCF Done:  E(RB3LYP) =  -2061.18496664     A.U. after   15 cycles
            NFock= 15  Conv=0.67D-08     -V/T= 2.0083
 KE= 2.044271553272D+03 PE=-1.280616041681D+04 EE= 4.704201091526D+03
 Leave Link  502 at Sat Nov  5 11:57:40 2022, MaxMem=   402653184 cpu:             841.9 elap:              67.0
 (Enter /home/wykgroup/appl/g16/l508.exe)
 QCSCF skips out because SCF is already converged.
 Leave Link  508 at Sat Nov  5 11:57:40 2022, MaxMem=   402653184 cpu:               0.5 elap:               0.1
 (Enter /home/wykgroup/appl/g16/l801.exe)
 DoSCS=F DFT=T ScalE2(SS,OS)=  1.000000  1.000000
 ExpMin= 1.17D-01 ExpMax= 2.19D+04 ExpMxC= 3.30D+03 IAcc=3 IRadAn=         5 AccDes= 0.00D+00
 HarFok:  IExCor=  205 AccDes= 0.00D+00 IRadAn=         5 IDoV=-2 UseB2=F ITyADJ=14
 ICtDFT= 12500011 ScaDFX=  1.000000  1.000000  1.000000  1.000000
 GSVD:  LWork=       -2100 too small for GESVD, short by        9450 words or        9450 for optimal perf.
 Largest valence mixing into a core orbital is  1.05D-04
 Largest core mixing into a valence orbital is  1.42D-05
 Range of M.O.s used for correlation:    43   632
 NBasis=   632 NAE=   140 NBE=   140 NFC=    42 NFV=     0
 NROrb=    590 NOA=    98 NOB=    98 NVA=   492 NVB=   492
 Leave Link  801 at Sat Nov  5 11:57:41 2022, MaxMem=   402653184 cpu:               3.9 elap:               0.3
 (Enter /home/wykgroup/appl/g16/l914.exe)
 RHF ground state
 Two-electron integral symmetry not used.
 MDV=   402653184 DFT=T DoStab=F Mixed=T DoRPA=T DoScal=F NonHer=T
 Making orbital integer symmetry assigments:
    16 initial guesses have been made.
 Convergence on wavefunction:    0.001000000000000
 Davidson Disk Diagonalization:  ConvIn= 1.00D-03 SkipCon=T Conv= 1.00D-03.
 Max sub-space:  2000 roots to seek:    16 dimension of matrix:        96432
 Iteration     1 Dimension    16 NMult     0 NNew     16
 CISAX will form    16 AO SS matrices at one time.
 NMat=    16 NSing=     8 JSym2X= 0.
 FoFJK:  IHMeth= 1 ICntrl=       0 DoSepK=F KAlg= 0 I1Cent=           0 FoldK=F
 IRaf= 710000000 NMat=      32 IRICut=       1 DoRegI=T DoRafI=F ISym2E= 0 IDoP0=0 IntGTp=1.
 FoFCou: FMM=T IPFlag=           0 FMFlag=      100000 FMFlg1=        2001
         NFxFlg=           0 DoJE=F BraDBF=F KetDBF=F FulRan=T
         wScrn=  0.000000 ICntrl=         0 IOpCl=  0 I1Cent=           0 NGrid=           0
         NMat0=   32 NMatS0=      8 NMatT0=    8 NMatD0=   32 NMtDS0=    0 NMtDT0=    0
 Symmetry not used in FoFCou.
 FMM levels:  10  Number of levels for PrismC:   9
 New state      1 was old state      2
 New state      2 was old state     10
 New state      3 was old state      8
 New state      4 was old state      1
 New state      5 was old state      4
 New state      6 was old state      3
 New state      7 was old state      6
 New state      8 was old state      5
 Excitation Energies [eV] at current iteration:
 Root      1 :     3.397682957515129
 Root      2 :     3.562015856734535
 Root      3 :     3.583925575379308
 Root      4 :     3.598260514868405
 Root      5 :     4.114470181229853
 Root      6 :     4.120650868728302
 Root      7 :     4.167063201274032
 Root      8 :     4.281575974462738
 Root      9 :     4.659396154517242
 Root     10 :     4.659598692398810
 Root     11 :     4.747651111653700
 Root     12 :     4.756434011380811
 Root     13 :     4.925737485016293
 Root     14 :     4.931712739984314
 Root     15 :     5.349192742245607
 Root     16 :     5.649492521748623
 Vector   3 SDiff=2.69D-01 TDiff=3.65D+00 assumed to be singlet.
 Vector   7 SDiff=2.88D-01 TDiff=3.53D+00 assumed to be singlet.
 Iteration     2 Dimension    24 NMult    16 NNew      8
 CISAX will form     8 AO SS matrices at one time.
 NMat=     8 NSing=     4 JSym2X= 0.
 Root      1 not converged, maximum delta is    0.236331698638219
 Root      2 not converged, maximum delta is    0.195975484444321
 New state      3 was old state      4
 Root      3 not converged, maximum delta is    0.048744903845948
 New state      4 was old state      6
 Root      4 not converged, maximum delta is    0.007965909485486
 Excitation Energies [eV] at current iteration:
 Root      1 :     3.254800878520798   Change is   -0.142882078994331
 Root      2 :     3.298263368747304   Change is   -0.263752487987230
 Root      3 :     3.534158605790275   Change is   -0.064101909078130
 Root      4 :     4.114556696263677   Change is   -0.006094172464625
 Iteration     3 Dimension    32 NMult    24 NNew      8
 CISAX will form     8 AO SS matrices at one time.
 NMat=     8 NSing=     4 JSym2X= 0.
 Root      1 not converged, maximum delta is    0.042766643563614
 Root      2 not converged, maximum delta is    0.036860350887263
 Root      3 not converged, maximum delta is    0.003948314907592
 Root      4 not converged, maximum delta is    0.024889281528774
 Excitation Energies [eV] at current iteration:
 Root      1 :     3.250139748948544   Change is   -0.004661129572255
 Root      2 :     3.289881808983165   Change is   -0.008381559764140
 Root      3 :     3.529164694480134   Change is   -0.004993911310142
 Root      4 :     4.105417754451699   Change is   -0.009138941811978
 Iteration     4 Dimension    40 NMult    32 NNew      8
 CISAX will form     8 AO SS matrices at one time.
 NMat=     8 NSing=     4 JSym2X= 0.
 Root      1 not converged, maximum delta is    0.004511969413702
 Root      2 not converged, maximum delta is    0.006620937992614
 Root      3 not converged, maximum delta is    0.003491687770851
 Root      4 not converged, maximum delta is    0.001885125936330
 Excitation Energies [eV] at current iteration:
 Root      1 :     3.249733768063833   Change is   -0.000405980884711
 Root      2 :     3.288996393472454   Change is   -0.000885415510711
 Root      3 :     3.528209776484462   Change is   -0.000954917995672
 Root      4 :     4.105180334162166   Change is   -0.000237420289533
 Iteration     5 Dimension    48 NMult    40 NNew      8
 CISAX will form     8 AO SS matrices at one time.
 NMat=     8 NSing=     4 JSym2X= 0.
 Root      1 not converged, maximum delta is    0.007593745690943
 Root      2 not converged, maximum delta is    0.041410921892518
 Root      3 has converged.
 Root      4 has converged.
 Excitation Energies [eV] at current iteration:
 Root      1 :     3.249636148526216   Change is   -0.000097619537617
 Root      2 :     3.288367053450560   Change is   -0.000629340021894
 Root      3 :     3.528115332493430   Change is   -0.000094443991032
 Root      4 :     4.105136487288985   Change is   -0.000043846873181
 Iteration     6 Dimension    52 NMult    48 NNew      4
 CISAX will form     4 AO SS matrices at one time.
 NMat=     4 NSing=     0 JSym2X= 0.
 New state      1 was old state      2
 Root      1 not converged, maximum delta is    0.459188402883681
 New state      2 was old state      1
 Root      2 not converged, maximum delta is    0.064776941036699
 Root      3 has converged.
 Root      4 has converged.
 Excitation Energies [eV] at current iteration:
 Root      1 :     3.233685626168048   Change is   -0.054681427282512
 Root      2 :     3.249831852584143   Change is    0.000195704057927
 Root      3 :     3.528115332493499   Change is    0.000000000000069
 Root      4 :     4.105136487288905   Change is   -0.000000000000080
 Iteration     7 Dimension    56 NMult    52 NNew      4
 CISAX will form     4 AO SS matrices at one time.
 NMat=     4 NSing=     0 JSym2X= 0.
 Root      1 not converged, maximum delta is    0.041599946992598
 Root      2 not converged, maximum delta is    0.035395006239423
 Root      3 has converged.
 Root      4 has converged.
 Excitation Energies [eV] at current iteration:
 Root      1 :     3.211527108926413   Change is   -0.022158517241635
 Root      2 :     3.249691437593066   Change is   -0.000140414991077
 Root      3 :     3.528115332493383   Change is   -0.000000000000116
 Root      4 :     4.105136487288905   Change is    0.000000000000000
 Iteration     8 Dimension    60 NMult    56 NNew      4
 CISAX will form     4 AO SS matrices at one time.
 NMat=     4 NSing=     0 JSym2X= 0.
 Root      1 not converged, maximum delta is    0.014268621765838
 Root      2 not converged, maximum delta is    0.002740629182552
 Root      3 has converged.
 Root      4 has converged.
 Excitation Energies [eV] at current iteration:
 Root      1 :     3.207633262344199   Change is   -0.003893846582214
 Root      2 :     3.249679145166354   Change is   -0.000012292426711
 Root      3 :     3.528115332493499   Change is    0.000000000000116
 Root      4 :     4.105136487288985   Change is    0.000000000000080
 Iteration     9 Dimension    64 NMult    60 NNew      4
 CISAX will form     4 AO SS matrices at one time.
 NMat=     4 NSing=     0 JSym2X= 0.
 Root      1 not converged, maximum delta is    0.002721163852236
 Root      2 has converged.
 Root      3 has converged.
 Root      4 has converged.
 Excitation Energies [eV] at current iteration:
 Root      1 :     3.207168899725624   Change is   -0.000464362618576
 Root      2 :     3.249677803039893   Change is   -0.000001342126461
 Root      3 :     3.528115332493383   Change is   -0.000000000000116
 Root      4 :     4.105136487288965   Change is   -0.000000000000020
 Iteration    10 Dimension    66 NMult    64 NNew      2
 CISAX will form     2 AO SS matrices at one time.
 NMat=     2 NSing=     0 JSym2X= 0.
 Root      1 not converged, maximum delta is    0.001768141831391
 Root      2 has converged.
 Root      3 has converged.
 Root      4 has converged.
 Excitation Energies [eV] at current iteration:
 Root      1 :     3.207089727369260   Change is   -0.000079172356363
 Root      2 :     3.249677610290393   Change is   -0.000000192749501
 Root      3 :     3.528115332493406   Change is    0.000000000000023
 Root      4 :     4.105136487288945   Change is   -0.000000000000020
 Iteration    11 Dimension    68 NMult    66 NNew      2
 CISAX will form     2 AO SS matrices at one time.
 NMat=     2 NSing=     0 JSym2X= 0.
 Root      1 not converged, maximum delta is    0.001332230105151
 Root      2 has converged.
 Root      3 has converged.
 Root      4 has converged.
 Excitation Energies [eV] at current iteration:
 Root      1 :     3.207061787207754   Change is   -0.000027940161507
 Root      2 :     3.249677549726787   Change is   -0.000000060563606
 Root      3 :     3.528115332493523   Change is    0.000000000000116
 Root      4 :     4.105136487288925   Change is   -0.000000000000020
 Iteration    12 Dimension    70 NMult    68 NNew      2
 CISAX will form     2 AO SS matrices at one time.
 NMat=     2 NSing=     0 JSym2X= 0.
 Root      1 has converged.
 Root      2 has converged.
 Root      3 has converged.
 Root      4 has converged.
 Excitation Energies [eV] at current iteration:
 Root      1 :     3.207051993960361   Change is   -0.000009793247392
 Root      2 :     3.249677545543780   Change is   -0.000000004183007
 Root      3 :     3.528115332493569   Change is    0.000000000000047
 Root      4 :     4.105136487289005   Change is    0.000000000000080
 Convergence achieved on expansion vectors.
 ***********************************************************************
[...]
 Excited State   3:      Singlet-?Sym    3.5281 eV  351.42 nm  f=0.0003  <S**2>=0.000
     137 ->141        -0.12953
     138 ->141         0.17916
     139 ->141         0.43898
     140 ->141         0.49249
 
 Excited state symmetry could not be determined.
 Excited State   4:      Singlet-?Sym    4.1051 eV  302.02 nm  f=0.0002  <S**2>=0.000
     139 ->141         0.51812
     140 ->141        -0.47637
 SavETr:  write IOETrn=   770 NScale= 10 NData=  16 NLR=1 NState=    4 LETran=      82.
 Leave Link  914 at Sat Nov  5 12:08:04 2022, MaxMem=   402653184 cpu:            7872.0 elap:             623.4
 (Enter /home/wykgroup/appl/g16/l601.exe)
 Copying SCF densities to generalized density rwf, IOpCl= 0 IROHF=0.

 **********************************************************************

            Population analysis using the SCF Density.

 **********************************************************************

 Alpha  occ. eigenvalues --  -88.84395 -19.19114 -19.18099 -19.17000 -19.13054
 Alpha  occ. eigenvalues --  -19.12366 -14.41939 -14.40519 -14.37779 -10.33446
 Alpha  occ. eigenvalues --  -10.32419 -10.30635 -10.30615 -10.27802 -10.26378
 Alpha  occ. eigenvalues --  -10.25126 -10.24415 -10.24315 -10.24142 -10.23718
 Alpha  occ. eigenvalues --  -10.22670 -10.21081 -10.21007 -10.20552 -10.20346
 Alpha  occ. eigenvalues --  -10.20334 -10.19971 -10.19493 -10.19441 -10.19416
 Alpha  occ. eigenvalues --  -10.19396 -10.19396 -10.19383 -10.19353 -10.19294
 Alpha  occ. eigenvalues --  -10.19253 -10.18581 -10.17777  -7.90641  -5.87174
 Alpha  occ. eigenvalues --   -5.86642  -5.86211  -1.09256  -1.08889  -1.07759
 Alpha  occ. eigenvalues --   -1.04840  -1.03720  -1.00130  -0.95608  -0.94660
 Alpha  occ. eigenvalues --   -0.86652  -0.86011  -0.85427  -0.82998  -0.80284
 Alpha  occ. eigenvalues --   -0.77960  -0.77503  -0.76655  -0.76323  -0.74917
 Alpha  occ. eigenvalues --   -0.74739  -0.74579  -0.73682  -0.71227  -0.69012
 Alpha  occ. eigenvalues --   -0.66907  -0.66117  -0.64047  -0.63342  -0.62828
 Alpha  occ. eigenvalues --   -0.62311  -0.61046  -0.60929  -0.58784  -0.58267
 Alpha  occ. eigenvalues --   -0.57391  -0.55506  -0.55246  -0.54645  -0.53608
 Alpha  occ. eigenvalues --   -0.53101  -0.52015  -0.51684  -0.50707  -0.49469
 Alpha  occ. eigenvalues --   -0.48709  -0.48144  -0.47959  -0.47459  -0.47165
 Alpha  occ. eigenvalues --   -0.46553  -0.46382  -0.45793  -0.45307  -0.44883
 Alpha  occ. eigenvalues --   -0.44523  -0.44156  -0.43905  -0.43382  -0.43313
 Alpha  occ. eigenvalues --   -0.43204  -0.42573  -0.42273  -0.42221  -0.41727
 Alpha  occ. eigenvalues --   -0.41510  -0.40643  -0.40443  -0.40136  -0.39849
 Alpha  occ. eigenvalues --   -0.39339  -0.38998  -0.38688  -0.38591  -0.38175
 Alpha  occ. eigenvalues --   -0.37637  -0.36966  -0.36376  -0.35960  -0.35837
 Alpha  occ. eigenvalues --   -0.34743  -0.34638  -0.34263  -0.34051  -0.33552
 Alpha  occ. eigenvalues --   -0.33229  -0.30826  -0.30462  -0.29006  -0.28833
 Alpha  occ. eigenvalues --   -0.26732  -0.26607  -0.26145  -0.25379  -0.25374
 Alpha  occ. eigenvalues --   -0.25142  -0.23831  -0.23533  -0.22578  -0.22414
 Alpha virt. eigenvalues --   -0.05544  -0.04176  -0.01701  -0.01364  -0.00577
 Alpha virt. eigenvalues --   -0.00491  -0.00165   0.01025   0.01439   0.07090
 Alpha virt. eigenvalues --    0.07684   0.07853   0.08464   0.08821   0.09430
 Alpha virt. eigenvalues --    0.09738   0.10137   0.10430   0.11229   0.11607
 Alpha virt. eigenvalues --    0.12002   0.12377   0.12725   0.13487   0.13750
 Alpha virt. eigenvalues --    0.14061   0.14534   0.14648   0.14893   0.15099
 Alpha virt. eigenvalues --    0.15256   0.15850   0.15993   0.16110   0.16178
 Alpha virt. eigenvalues --    0.16896   0.17308   0.17790   0.18045   0.18298
 Alpha virt. eigenvalues --    0.18594   0.18760   0.18865   0.19251   0.19393
 Alpha virt. eigenvalues --    0.19610   0.19876   0.20988   0.21622   0.22252
 Alpha virt. eigenvalues --    0.22800   0.23514   0.23639   0.24357   0.25004
 Alpha virt. eigenvalues --    0.25215   0.26081   0.27088   0.27910   0.29051
 Alpha virt. eigenvalues --    0.29485   0.29954   0.30250   0.31171   0.31745
 Alpha virt. eigenvalues --    0.32067   0.32417   0.32891   0.33291   0.33597
 Alpha virt. eigenvalues --    0.33785   0.34436   0.34723   0.35367   0.37189
 Alpha virt. eigenvalues --    0.38847   0.40040   0.40208   0.41701   0.43273
 Alpha virt. eigenvalues --    0.44578   0.45788   0.46291   0.48039   0.48445
 Alpha virt. eigenvalues --    0.49233   0.49646   0.49780   0.49850   0.50590
 Alpha virt. eigenvalues --    0.51016   0.51278   0.51640   0.52047   0.52247
 Alpha virt. eigenvalues --    0.52738   0.53141   0.53408   0.53868   0.54361
 Alpha virt. eigenvalues --    0.54658   0.54957   0.55022   0.55363   0.55700
 Alpha virt. eigenvalues --    0.55774   0.56230   0.56469   0.56935   0.57275
 Alpha virt. eigenvalues --    0.58079   0.58118   0.58484   0.58714   0.58938
 Alpha virt. eigenvalues --    0.59105   0.59178   0.59221   0.59768   0.59928
 Alpha virt. eigenvalues --    0.60098   0.60759   0.60953   0.61319   0.61824
 Alpha virt. eigenvalues --    0.62047   0.62635   0.62717   0.63020   0.63373
 Alpha virt. eigenvalues --    0.64096   0.64602   0.64982   0.65599   0.66286
 Alpha virt. eigenvalues --    0.66498   0.66780   0.67160   0.67317   0.67754
 Alpha virt. eigenvalues --    0.68884   0.70200   0.70906   0.71896   0.72198
 Alpha virt. eigenvalues --    0.72956   0.73353   0.73883   0.75151   0.75942
 Alpha virt. eigenvalues --    0.76662   0.77512   0.78204   0.79155   0.79362
 Alpha virt. eigenvalues --    0.79870   0.80129   0.80457   0.81177   0.81748
 Alpha virt. eigenvalues --    0.82268   0.82523   0.82706   0.83032   0.83492
 Alpha virt. eigenvalues --    0.83599   0.83692   0.83959   0.84098   0.84358
 Alpha virt. eigenvalues --    0.84695   0.85082   0.85281   0.85630   0.85967
 Alpha virt. eigenvalues --    0.86087   0.86505   0.86967   0.87452   0.87553
 Alpha virt. eigenvalues --    0.88502   0.89189   0.89705   0.89940   0.90585
 Alpha virt. eigenvalues --    0.91046   0.91330   0.91469   0.92314   0.92558
 Alpha virt. eigenvalues --    0.93481   0.94030   0.94415   0.94711   0.95076
 Alpha virt. eigenvalues --    0.95975   0.96428   0.96763   0.97359   0.97493
 Alpha virt. eigenvalues --    0.98041   0.98582   0.98988   0.99382   0.99877
 Alpha virt. eigenvalues --    1.00339   1.00575   1.01773   1.01924   1.02326
 Alpha virt. eigenvalues --    1.03192   1.03915   1.04205   1.04589   1.06657
 Alpha virt. eigenvalues --    1.07097   1.08120   1.08788   1.09816   1.10713
 Alpha virt. eigenvalues --    1.11229   1.12294   1.12561   1.14284   1.15096
 Alpha virt. eigenvalues --    1.15541   1.16275   1.17162   1.17294   1.18070
 Alpha virt. eigenvalues --    1.18926   1.19196   1.20218   1.22079   1.23430
 Alpha virt. eigenvalues --    1.24052   1.24714   1.25554   1.26042   1.26841
 Alpha virt. eigenvalues --    1.28400   1.28879   1.29093   1.30360   1.31459
 Alpha virt. eigenvalues --    1.32000   1.32049   1.33133   1.34459   1.35399
 Alpha virt. eigenvalues --    1.35912   1.36410   1.37819   1.38507   1.38843
 Alpha virt. eigenvalues --    1.40081   1.40879   1.41902   1.42648   1.43539
 Alpha virt. eigenvalues --    1.43855   1.44130   1.44502   1.44991   1.45654
 Alpha virt. eigenvalues --    1.46238   1.46720   1.47879   1.47994   1.48891
 Alpha virt. eigenvalues --    1.49047   1.49139   1.49696   1.50661   1.50978
 Alpha virt. eigenvalues --    1.51086   1.51375   1.52458   1.53800   1.54603
 Alpha virt. eigenvalues --    1.55258   1.57347   1.57832   1.59898   1.61857
 Alpha virt. eigenvalues --    1.64293   1.66285   1.66858   1.68391   1.68955
 Alpha virt. eigenvalues --    1.69984   1.72160   1.72638   1.73932   1.74297
 Alpha virt. eigenvalues --    1.75730   1.76431   1.77232   1.77817   1.78780
 Alpha virt. eigenvalues --    1.79497   1.79912   1.80123   1.80398   1.80899
 Alpha virt. eigenvalues --    1.81089   1.81585   1.82004   1.82938   1.83695
 Alpha virt. eigenvalues --    1.84093   1.84974   1.85339   1.86295   1.86919
 Alpha virt. eigenvalues --    1.87886   1.87958   1.88684   1.89817   1.90282
 Alpha virt. eigenvalues --    1.91782   1.92041   1.92500   1.92743   1.93713
 Alpha virt. eigenvalues --    1.94325   1.95391   1.95828   1.96397   1.96547
 Alpha virt. eigenvalues --    1.96684   1.97186   1.97345   1.98441   1.99614
 Alpha virt. eigenvalues --    2.00055   2.00739   2.01030   2.03052   2.03764
 Alpha virt. eigenvalues --    2.04343   2.05321   2.05444   2.05758   2.06686
 Alpha virt. eigenvalues --    2.06968   2.07764   2.08657   2.09289   2.09920
 Alpha virt. eigenvalues --    2.11078   2.11868   2.12382   2.12943   2.13545
 Alpha virt. eigenvalues --    2.13748   2.13905   2.14192   2.14459   2.14825
 Alpha virt. eigenvalues --    2.16211   2.17370   2.17606   2.18823   2.19566
 Alpha virt. eigenvalues --    2.21025   2.21843   2.22543   2.23691   2.24177
 Alpha virt. eigenvalues --    2.24529   2.26355   2.28274   2.28843   2.29778
 Alpha virt. eigenvalues --    2.29958   2.30580   2.30832   2.30993   2.32029
 Alpha virt. eigenvalues --    2.33309   2.33755   2.34289   2.35103   2.36523
 Alpha virt. eigenvalues --    2.37545   2.37675   2.38688   2.39331   2.40115
 Alpha virt. eigenvalues --    2.40337   2.40909   2.45456   2.46626   2.47367
 Alpha virt. eigenvalues --    2.47843   2.50527   2.50965   2.51415   2.52323
 Alpha virt. eigenvalues --    2.52983   2.55466   2.56248   2.56979   2.57299
 Alpha virt. eigenvalues --    2.58242   2.60166   2.61998   2.62863   2.63073
 Alpha virt. eigenvalues --    2.63803   2.65086   2.65661   2.66009   2.67054
 Alpha virt. eigenvalues --    2.68030   2.68970   2.69563   2.70460   2.71957
 Alpha virt. eigenvalues --    2.72415   2.73853   2.74143   2.74748   2.75267
 Alpha virt. eigenvalues --    2.75839   2.76295   2.78168   2.78618   2.80405
 Alpha virt. eigenvalues --    2.82074   2.83034   2.84129   2.85354   2.88569
 Alpha virt. eigenvalues --    2.91461   2.93346   2.94043   2.94680   2.96245
 Alpha virt. eigenvalues --    2.98396   2.99252   3.01675   3.03657   3.04700
 Alpha virt. eigenvalues --    3.08790   3.13741   3.16979   3.18901   3.21402
 Alpha virt. eigenvalues --    3.30846   3.40465   3.42674   3.44983   3.96172
 Alpha virt. eigenvalues --    3.98663   4.01415   4.03581   4.06648   4.08939
 Alpha virt. eigenvalues --    4.09165   4.09901   4.10498   4.11192   4.11557
 Alpha virt. eigenvalues --    4.12960   4.13445   4.14154   4.16356   4.18549
 Alpha virt. eigenvalues --    4.20988   4.22727   4.23926   4.29671   4.31083
 Alpha virt. eigenvalues --    4.31659   4.32628   4.32960   4.35360   4.39353
 Alpha virt. eigenvalues --    4.41109   4.42809   4.44791   4.47001   4.48818
 Alpha virt. eigenvalues --    4.53695   4.54892   4.63362   4.69881   4.74261
 Alpha virt. eigenvalues --    4.76316   4.80517
          Condensed to atoms (all electrons):
 Mulliken charges:
               1
     1  C   -0.461500
     2  C   -0.040048
     3  O   -0.479775
     4  C    0.592265
     5  O   -0.500542
     6  C    0.058476
     7  C   -0.161336
     8  C   -0.215849
     9  C    0.364137
    10  N   -0.751537
    11  C    0.590328
    12  O   -0.494711
    13  C   -0.380007
    14  C   -0.061364
    15  C    0.615892
    16  O   -0.503525
    17  N   -0.588055
    18  C    0.269104
    19  C   -0.113731
    20  C   -0.211030
    21  C    0.394011
    22  O   -0.503781
    23  C   -0.220181
    24  C   -0.188704
    25  C   -0.118122
    26  C    0.356067
    27  S   -0.230122
    28  N   -0.438939
    29  C   -0.152902
    30  C   -0.360181
    31  C    0.161177
    32  C   -0.182765
    33  C   -0.127519
    34  C   -0.129070
    35  C   -0.128074
    36  C   -0.182468
    37  C   -0.169215
    38  C   -0.181178
    39  H    0.147791
    40  H    0.177214
    41  H    0.155756
    42  H    0.169956
    43  H    0.149920
    44  H    0.162943
    45  H    0.151492
    46  H    0.398595
    47  H    0.197843
    48  H    0.183866
    49  H    0.199347
    50  H    0.151386
    51  H    0.142557
    52  H    0.158298
    53  H    0.156404
    54  H    0.175891
    55  H    0.150067
    56  H    0.144142
    57  H    0.166667
    58  H    0.203766
    59  H    0.175528
    60  H    0.144636
    61  H    0.126857
    62  H    0.133583
    63  H    0.132133
    64  H    0.133786
    65  H    0.142048
    66  H    0.185528
    67  H    0.156774
 Sum of Mulliken charges =  -0.00000
 Mulliken charges with hydrogens summed into heavy atoms:
               1
     1  C    0.019261
     2  C    0.279827
     3  O   -0.479775
     4  C    0.592265
     5  O   -0.500542
     6  C    0.058476
     7  C    0.001606
     8  C   -0.064357
     9  C    0.364137
    10  N   -0.352942
    11  C    0.590328
    12  O   -0.494711
    13  C    0.001701
    14  C    0.137983
    15  C    0.615892
    16  O   -0.503525
    17  N   -0.588055
    18  C    0.269104
    19  C    0.037655
    20  C   -0.068474
    21  C    0.394011
    22  O   -0.503781
    23  C    0.270412
    24  C   -0.038637
    25  C    0.026020
    26  C    0.356067
    27  S   -0.230122
    28  N   -0.438939
    29  C    0.217531
    30  C   -0.040016
    31  C    0.161177
    32  C   -0.055907
    33  C    0.006064
    34  C    0.003062
    35  C    0.005712
    36  C   -0.040420
    37  C    0.016313
    38  C   -0.024403
 Electronic spatial extent (au):  <R**2>=          34569.1041
 Charge=             -0.0000 electrons
 Dipole moment (field-independent basis, Debye):
    X=             -3.0068    Y=              0.4332    Z=             -1.1789  Tot=              3.2586
 Quadrupole moment (field-independent basis, Debye-Ang):
   XX=           -225.3461   YY=           -207.9879   ZZ=           -225.8720
   XY=            -22.8327   XZ=              4.6573   YZ=              4.0143
 Traceless Quadrupole moment (field-independent basis, Debye-Ang):
   XX=             -5.6108   YY=             11.7474   ZZ=             -6.1367
   XY=            -22.8327   XZ=              4.6573   YZ=              4.0143
 Octapole moment (field-independent basis, Debye-Ang**2):
  XXX=            299.3916  YYY=             32.3846  ZZZ=            -30.1709  XYY=           -188.7735
  XXY=             -4.7866  XXZ=           -111.2956  XZZ=             75.4564  YZZ=              0.4532
  YYZ=            -51.4862  XYZ=             35.8431
 Hexadecapole moment (field-independent basis, Debye-Ang**3):
 XXXX=         -25906.0158 YYYY=         -12885.9975 ZZZZ=          -2776.3913 XXXY=          -1864.5670
 XXXZ=           1669.4213 YYYX=          -1625.0287 YYYZ=          -1241.8687 ZZZX=           1839.6143
 ZZZY=          -1512.0544 XXYY=          -6477.6803 XXZZ=          -5295.6169 YYZZ=          -3011.4536
 XXYZ=           -379.6120 YYXZ=            810.2899 ZZXY=           -327.0985
 N-N= 3.996502805381D+03 E-N=-1.280616041228D+04  KE= 2.044271553272D+03
 Leave Link  601 at Sat Nov  5 12:08:05 2022, MaxMem=   402653184 cpu:               2.3 elap:               0.3
 (Enter /home/wykgroup/appl/g16/l9999.exe)
 Electronic transition elements 
                 1             2             3             4 
      1  -0.206107D+04 -0.206107D+04 -0.206106D+04 -0.206103D+04
      2   0.000000D+00  0.000000D+00 -0.298106D-01 -0.202573D-01
      3   0.000000D+00  0.000000D+00  0.503600D-01  0.337901D-01
      4   0.000000D+00  0.000000D+00 -0.674811D-02 -0.268780D-01
      5   0.000000D+00  0.000000D+00  0.396809D-02  0.210421D-02
      6   0.000000D+00  0.000000D+00 -0.751281D-02 -0.268334D-02
      7   0.000000D+00  0.000000D+00 -0.656201D-02  0.831681D-03
      8   0.000000D+00  0.000000D+00 -0.635048D+00  0.256719D-01
      9   0.000000D+00  0.000000D+00 -0.136995D+00 -0.567413D-01
     10   0.000000D+00  0.000000D+00  0.602295D-01 -0.519654D-01
     11   0.000000D+00  0.000000D+00  0.268557D-01 -0.104449D+00
     12   0.000000D+00  0.000000D+00  0.155943D-01  0.130942D-01
     13   0.000000D+00  0.000000D+00 -0.307971D-01 -0.157995D-01
     14   0.000000D+00  0.000000D+00  0.326293D-01 -0.217824D-01
     15   0.000000D+00  0.000000D+00  0.572448D-01  0.346681D-01
     16   0.000000D+00  0.000000D+00 -0.731294D-01 -0.694313D-02
 1\1\GINC-NODE68\SP\RB3LYP TD-FC\6-31G(d)\C29H29N3O5S1\WYKGROUP\05-Nov-
 2022\0\\#p b3lyp/6-31g(d) 6D 10F nosymm GFInput td=(50-50,nstate=2) SC
 F=XQC\\Gaussian input prepared by ASE\\0,1\C,0,9.3406441785,0.70752334
 14,-3.2382677722\C,0,9.2875531321,0.7585665659,-1.7183337646\O,0,7.974
 784059,0.4104689354,-1.2237104735\C,0,7.0653786893,1.4141349704,-1.162
 473289\O,0,7.3095441934,2.5603725912,-1.4933206712\C,0,5.7507599635,0.
 9549139034,-0.6448234922\C,0,4.7211281847,1.8997377938,-0.5254158906\C
 ,0,3.4750382858,1.5249148189,-0.0481884537\C,0,3.2268311918,0.18999495
 15,0.3226626919\N,0,1.9354478118,-0.105201857,0.7970331231\C,0,1.42542
 32785,-1.3156805435,1.1897519764\O,0,2.0416513611,-2.3731785659,1.1965
 537495\C,0,-0.0398816622,-1.2729964791,1.6567951926\C,0,-1.0370471116,
 -0.6595861743,0.6399693585\C,0,-1.2187693593,0.8440268758,0.8272799847
 \O,0,-0.3322955874,1.684248051,0.8687911228\N,0,-2.5684971299,1.069643
 894,0.9825269935\C,0,-3.1225947141,2.374745839,1.2077095436\C,0,-3.887
 9809433,2.9894017374,0.2211873238\C,0,-4.4100497419,4.265927289,0.4299
 003837\C,0,-4.1518784466,4.9327307885,1.634916192\O,0,-4.6062446967,6.
 1775430924,1.942328809\C,0,-5.4060087492,6.8614370784,0.9877825346\C,0
 ,-3.372657551,4.3105222476,2.6231917618\C,0,-2.864343746,3.0376092549,
 2.4114826403\C,0,-3.3077712771,-0.1385117421,0.9388709182\S,0,-4.95641
 22672,-0.2576195695,1.0593024971\N,0,-2.4077459124,-1.1467206747,0.783
 2904873\C,0,-2.7892967431,-2.5245744183,0.480747733\C,0,-3.0251840725,
 -2.772182459,-1.0247491594\C,0,-3.428752673,-4.2066254928,-1.289840441
 8\C,0,-2.4732771956,-5.1732403425,-1.629338238\C,0,-2.8437443775,-6.50
 29973879,-1.8356650056\C,0,-4.1794142669,-6.8855924089,-1.7029421636\C
 ,0,-5.140759123,-5.9312031601,-1.3638207802\C,0,-4.7671129001,-4.60290
 98378,-1.1586531583\C,0,4.2525208736,-0.7633134039,0.2062925654\C,0,5.
 4988345721,-0.3727668424,-0.274207787\H,0,10.3638031132,0.8998508944,-
 3.5817383827\H,0,8.6843609589,1.46790531,-3.6704864555\H,0,9.033519912
 1,-0.2771269181,-3.6059956907\H,0,9.5518640638,1.7517749803,-1.3473754
 018\H,0,9.9509186711,0.0145343216,-1.2697511504\H,0,4.9193165195,2.926
 8969137,-0.8130428018\H,0,2.6806567017,2.2620514344,0.0407230558\H,0,1
 .2939483356,0.6894490191,0.8440264486\H,0,-0.3070386933,-2.3141208648,
 1.8442899971\H,0,-0.1126081463,-0.7390101778,2.6122545651\H,0,-0.67715
 67156,-0.8456834905,-0.3829495839\H,0,-4.0863870547,2.4690582256,-0.70
 97681394\H,0,-5.0093940356,4.7252519089,-0.3469441774\H,0,-6.330671648
 8,6.3115005392,0.7703536898\H,0,-4.8572466089,7.0334719317,0.052811426
 7\H,0,-5.6550486156,7.8218023879,1.4419787674\H,0,-3.1835077499,4.8445
 092532,3.5484613917\H,0,-2.265142185,2.5553846888,3.1771865598\H,0,-2.
 000512692,-3.1853115124,0.8525033242\H,0,-3.7000980599,-2.7405862144,1
 .0426529209\H,0,-3.8083188738,-2.0855155429,-1.3647492878\H,0,-2.11115
 98371,-2.5309570618,-1.5822094019\H,0,-1.4307660715,-4.8813547423,-1.7
 397813568\H,0,-2.0893273355,-7.2380489802,-2.1034260708\H,0,-4.4701278
 31,-7.9198727229,-1.8659524986\H,0,-6.1836365935,-6.2199340651,-1.2626
 546947\H,0,-5.5200470718,-3.8621919704,-0.8978835446\H,0,4.0623668841,
 -1.7880402116,0.4914913123\H,0,6.2896211321,-1.1092449932,-0.363054861
 8\\Version=ES64L-G16RevB.01\HF=-2061.1849666\RMSD=6.678e-09\PG=C01 [X(
 C29H29N3O5S1)]\\@


 THERE'S A SUCKER BORN EVERY MINUTE

              -- PHINEAS TAYLOR (P.T.) BARNUM
 Job cpu time:       0 days  2 hours 26 minutes 40.4 seconds.
 Elapsed time:       0 days  0 hours 11 minutes 38.1 seconds.
 File lengths (MBytes):  RWF=   2353 Int=      0 D2E=      0 Chk=     83 Scr=      1
 Normal termination of Gaussian 16 at Sat Nov  5 12:08:05 2022.
