 Entering Gaussian System, Link 0=/home/wykgroup/appl/g16/g16
 Input=./calculation/no_transfer_pubchem_sampling_7_b3lyp/118410584.com
 Output=./calculation/no_transfer_pubchem_sampling_7_b3lyp/118410584.log
 Initial command:
 /home/wykgroup/appl/g16/l1.exe "/userdata/scratch/wykgroup/khs/./calculation/no_transfer_pubchem_sampling_7_b3lyp/118410584/Gau-27943.inp" -scrdir="/userdata/scratch/wykgroup/khs/./calculation/no_transfer_pubchem_sampling_7_b3lyp/118410584/"
 Entering Link 1 = /home/wykgroup/appl/g16/l1.exe PID=     27950.
  
 Copyright (c) 1988-2017, Gaussian, Inc.  All Rights Reserved.
  
 This is part of the Gaussian(R) 16 program.  It is based on
 the Gaussian(R) 09 system (copyright 2009, Gaussian, Inc.),
 the Gaussian(R) 03 system (copyright 2003, Gaussian, Inc.),
 the Gaussian(R) 98 system (copyright 1998, Gaussian, Inc.),
 the Gaussian(R) 94 system (copyright 1995, Gaussian, Inc.),
 the Gaussian 92(TM) system (copyright 1992, Gaussian, Inc.),
 the Gaussian 90(TM) system (copyright 1990, Gaussian, Inc.),
 the Gaussian 88(TM) system (copyright 1988, Gaussian, Inc.),
 the Gaussian 86(TM) system (copyright 1986, Carnegie Mellon
 University), and the Gaussian 82(TM) system (copyright 1983,
 Carnegie Mellon University). Gaussian is a federally registered
 trademark of Gaussian, Inc.
  
 This software contains proprietary and confidential information,
 including trade secrets, belonging to Gaussian, Inc.
  
 This software is provided under written license and may be
 used, copied, transmitted, or stored only in accord with that
 written license.
  
 The following legend is applicable only to US Government
 contracts under FAR:
  
                    RESTRICTED RIGHTS LEGEND
  
 Use, reproduction and disclosure by the US Government is
 subject to restrictions as set forth in subparagraphs (a)
 and (c) of the Commercial Computer Software - Restricted
 Rights clause in FAR 52.227-19.
  
 Gaussian, Inc.
 340 Quinnipiac St., Bldg. 40, Wallingford CT 06492
  
  
 ---------------------------------------------------------------
 Warning -- This program may not be used in any manner that
 competes with the business of Gaussian, Inc. or will provide
 assistance to any competitor of Gaussian, Inc.  The licensee
 of this program is prohibited from giving any competitor of
 Gaussian, Inc. access to this program.  By using this program,
 the user acknowledges that Gaussian, Inc. is engaged in the
 business of creating and licensing software in the field of
 computational chemistry and represents and warrants to the
 licensee that it is not a competitor of Gaussian, Inc. and that
 it will not use this program in any manner prohibited above.
 ---------------------------------------------------------------
  

 Cite this work as:
 Gaussian 16, Revision B.01,
 M. J. Frisch, G. W. Trucks, H. B. Schlegel, G. E. Scuseria, 
 M. A. Robb, J. R. Cheeseman, G. Scalmani, V. Barone, 
 G. A. Petersson, H. Nakatsuji, X. Li, M. Caricato, A. V. Marenich, 
 J. Bloino, B. G. Janesko, R. Gomperts, B. Mennucci, H. P. Hratchian, 
 J. V. Ortiz, A. F. Izmaylov, J. L. Sonnenberg, D. Williams-Young, 
 F. Ding, F. Lipparini, F. Egidi, J. Goings, B. Peng, A. Petrone, 
 T. Henderson, D. Ranasinghe, V. G. Zakrzewski, J. Gao, N. Rega, 
 G. Zheng, W. Liang, M. Hada, M. Ehara, K. Toyota, R. Fukuda, 
 J. Hasegawa, M. Ishida, T. Nakajima, Y. Honda, O. Kitao, H. Nakai, 
 T. Vreven, K. Throssell, J. A. Montgomery, Jr., J. E. Peralta, 
 F. Ogliaro, M. J. Bearpark, J. J. Heyd, E. N. Brothers, K. N. Kudin, 
 V. N. Staroverov, T. A. Keith, R. Kobayashi, J. Normand, 
 K. Raghavachari, A. P. Rendell, J. C. Burant, S. S. Iyengar, 
 J. Tomasi, M. Cossi, J. M. Millam, M. Klene, C. Adamo, R. Cammi, 
 J. W. Ochterski, R. L. Martin, K. Morokuma, O. Farkas, 
 J. B. Foresman, and D. J. Fox, Gaussian, Inc., Wallingford CT, 2016.
 
 ******************************************
 Gaussian 16:  ES64L-G16RevB.01 20-Dec-2017
                 4-Nov-2022 
 ******************************************
 %chk=./calculation/no_transfer_pubchem_sampling_7_b3lyp/118410584.chk
 %nprocshared=7
 Will use up to    7 processors via shared memory.
 %mem=6GB
 -----------------------------
 #p b3lyp/6-31g(d) opt SCF=XQC
 -----------------------------
 1/18=20,19=15,26=3,38=1/1,3;
 2/9=110,12=2,17=6,18=5,40=1/2;
 3/5=1,6=6,7=1,11=2,25=1,30=1,71=1,74=-5/1,2,3;
 4//1;
 5/5=2,8=3,13=1,38=5/2,8;
 6/7=2,8=2,9=2,10=2,28=1/1;
 7//1,2,3,16;
 1/18=20,19=15,26=3/3(2);
 2/9=110/2;
 99//99;
 2/9=110/2;
 3/5=1,6=6,7=1,11=2,25=1,30=1,71=1,74=-5/1,2,3;
 4/5=5,16=3,69=1/1;
 5/5=2,8=3,13=1,38=5/2,8;
 7//1,2,3,16;
 1/18=20,19=15,26=3/3(-5);
 2/9=110/2;
 6/7=2,8=2,9=2,10=2,19=2,28=1/1;
 99/9=1/99;
 Leave Link    1 at Fri Nov  4 23:00:33 2022, MaxMem=   805306368 cpu:               0.7 elap:               0.1
 (Enter /home/wykgroup/appl/g16/l101.exe)
 ------------------------------
 Gaussian input prepared by ASE
 ------------------------------
 Symbolic Z-matrix:
 Charge =  0 Multiplicity = 1
 C                     5.17424  -0.73909   0.74293 
 S                     4.65658  -0.75875  -1.00546 
 C                     2.90843  -0.48026  -0.74173 
 C                     2.06367  -1.58174  -0.56329 
 C                     2.54972  -2.90553  -0.63829 
 C                     1.70938  -3.96379  -0.44844 
 C                     0.35759  -3.75312  -0.17575 
 C                    -0.1785   -2.47937  -0.09607 
 C                    -1.58775  -2.25058   0.1831 
 C                    -2.48207  -3.28764   0.38901 
 C                    -3.8334   -3.05548   0.65657 
 C                    -4.31535  -1.78043   0.7227 
 C                    -3.45001  -0.68161   0.52113 
 C                    -3.9261    0.62502   0.58481 
 C                    -3.08783   1.71874   0.38717 
 C                    -3.58822   3.03859   0.45375 
 C                    -2.75368   4.10035   0.25721 
 C                    -1.39842   3.89417  -0.01179 
 C                    -0.85224   2.62396  -0.08892 
 C                     0.55718   2.39629  -0.36813 
 C                     1.44287   3.4394   -0.57707 
 C                     2.79215   3.21213  -0.84884 
 C                     3.28077   1.93941  -0.90864 
 C                     2.42812   0.83356  -0.69806 
 C                     1.04333   1.0588   -0.42903 
 C                     0.18322  -0.04029  -0.22621 
 C                     0.67851  -1.359    -0.29411 
 C                    -1.207     0.18478   0.04796 
 C                    -2.06844  -0.91339   0.24826 
 C                    -1.70387   1.50274   0.11343 
 H                     6.24694  -0.90042   0.75172 
 H                     4.93289   0.22629   1.17858 
 H                     4.66685  -1.53732   1.27717 
 H                     3.59374  -3.0626   -0.86066 
 H                     2.0853   -4.9746   -0.5092 
 H                    -0.26534  -4.62055  -0.03108 
 H                    -2.15222  -4.31285   0.3468 
 H                    -4.49125  -3.89858   0.80981 
 H                    -5.35818  -1.58808   0.92803 
 H                    -4.97336   0.79462   0.7924 
 H                    -4.63798   3.18505   0.66164 
 H                    -3.13181   5.11109   0.30698 
 H                    -0.78233   4.76603  -0.15988 
 H                     1.10514   4.46205  -0.53786 
 H                     3.44773   4.05474  -1.01302 
 H                     4.321     1.75725  -1.12963 
 
 ITRead=  0  0  0  0  0  0  0  0  0  0  0  0  0  0  0  0  0  0  0  0
 ITRead=  0  0  0  0  0  0  0  0  0  0  0  0  0  0  0  0  0  0  0  0
 ITRead=  0  0  0  0  0  0
 MicOpt= -1 -1 -1 -1 -1 -1 -1 -1 -1 -1 -1 -1 -1 -1 -1 -1 -1 -1 -1 -1
 MicOpt= -1 -1 -1 -1 -1 -1 -1 -1 -1 -1 -1 -1 -1 -1 -1 -1 -1 -1 -1 -1
 MicOpt= -1 -1 -1 -1 -1 -1
 NAtoms=     46 NQM=       46 NQMF=       0 NMMI=      0 NMMIF=      0
                NMic=       0 NMicF=      0.
                    Isotopes and Nuclear Properties:
 (Nuclear quadrupole moments (NQMom) in fm**2, nuclear magnetic moments (NMagM)
  in nuclear magnetons)

  Atom         1           2           3           4           5           6           7           8           9          10
 IAtWgt=          12          32          12          12          12          12          12          12          12          12
 AtmWgt=  12.0000000  31.9720718  12.0000000  12.0000000  12.0000000  12.0000000  12.0000000  12.0000000  12.0000000  12.0000000
 NucSpn=           0           0           0           0           0           0           0           0           0           0
 AtZEff=  -0.0000000  -0.0000000  -0.0000000  -0.0000000  -0.0000000  -0.0000000  -0.0000000  -0.0000000  -0.0000000  -0.0000000
 NQMom=    0.0000000   0.0000000   0.0000000   0.0000000   0.0000000   0.0000000   0.0000000   0.0000000   0.0000000   0.0000000
 NMagM=    0.0000000   0.0000000   0.0000000   0.0000000   0.0000000   0.0000000   0.0000000   0.0000000   0.0000000   0.0000000
 AtZNuc=   6.0000000  16.0000000   6.0000000   6.0000000   6.0000000   6.0000000   6.0000000   6.0000000   6.0000000   6.0000000

  Atom        11          12          13          14          15          16          17          18          19          20
 IAtWgt=          12          12          12          12          12          12          12          12          12          12
 AtmWgt=  12.0000000  12.0000000  12.0000000  12.0000000  12.0000000  12.0000000  12.0000000  12.0000000  12.0000000  12.0000000
 NucSpn=           0           0           0           0           0           0           0           0           0           0
 AtZEff=  -0.0000000  -0.0000000  -0.0000000  -0.0000000  -0.0000000  -0.0000000  -0.0000000  -0.0000000  -0.0000000  -0.0000000
 NQMom=    0.0000000   0.0000000   0.0000000   0.0000000   0.0000000   0.0000000   0.0000000   0.0000000   0.0000000   0.0000000
 NMagM=    0.0000000   0.0000000   0.0000000   0.0000000   0.0000000   0.0000000   0.0000000   0.0000000   0.0000000   0.0000000
 AtZNuc=   6.0000000   6.0000000   6.0000000   6.0000000   6.0000000   6.0000000   6.0000000   6.0000000   6.0000000   6.0000000

  Atom        21          22          23          24          25          26          27          28          29          30
 IAtWgt=          12          12          12          12          12          12          12          12          12          12
 AtmWgt=  12.0000000  12.0000000  12.0000000  12.0000000  12.0000000  12.0000000  12.0000000  12.0000000  12.0000000  12.0000000
 NucSpn=           0           0           0           0           0           0           0           0           0           0
 AtZEff=  -0.0000000  -0.0000000  -0.0000000  -0.0000000  -0.0000000  -0.0000000  -0.0000000  -0.0000000  -0.0000000  -0.0000000
 NQMom=    0.0000000   0.0000000   0.0000000   0.0000000   0.0000000   0.0000000   0.0000000   0.0000000   0.0000000   0.0000000
 NMagM=    0.0000000   0.0000000   0.0000000   0.0000000   0.0000000   0.0000000   0.0000000   0.0000000   0.0000000   0.0000000
 AtZNuc=   6.0000000   6.0000000   6.0000000   6.0000000   6.0000000   6.0000000   6.0000000   6.0000000   6.0000000   6.0000000

  Atom        31          32          33          34          35          36          37          38          39          40
 IAtWgt=           1           1           1           1           1           1           1           1           1           1
 AtmWgt=   1.0078250   1.0078250   1.0078250   1.0078250   1.0078250   1.0078250   1.0078250   1.0078250   1.0078250   1.0078250
 NucSpn=           1           1           1           1           1           1           1           1           1           1
 AtZEff=  -0.0000000  -0.0000000  -0.0000000  -0.0000000  -0.0000000  -0.0000000  -0.0000000  -0.0000000  -0.0000000  -0.0000000
 NQMom=    0.0000000   0.0000000   0.0000000   0.0000000   0.0000000   0.0000000   0.0000000   0.0000000   0.0000000   0.0000000
 NMagM=    2.7928460   2.7928460   2.7928460   2.7928460   2.7928460   2.7928460   2.7928460   2.7928460   2.7928460   2.7928460
 AtZNuc=   1.0000000   1.0000000   1.0000000   1.0000000   1.0000000   1.0000000   1.0000000   1.0000000   1.0000000   1.0000000

  Atom        41          42          43          44          45          46
 IAtWgt=           1           1           1           1           1           1
 AtmWgt=   1.0078250   1.0078250   1.0078250   1.0078250   1.0078250   1.0078250
 NucSpn=           1           1           1           1           1           1
 AtZEff=  -0.0000000  -0.0000000  -0.0000000  -0.0000000  -0.0000000  -0.0000000
 NQMom=    0.0000000   0.0000000   0.0000000   0.0000000   0.0000000   0.0000000
 NMagM=    2.7928460   2.7928460   2.7928460   2.7928460   2.7928460   2.7928460
 AtZNuc=   1.0000000   1.0000000   1.0000000   1.0000000   1.0000000   1.0000000
 Leave Link  101 at Fri Nov  4 23:00:33 2022, MaxMem=   805306368 cpu:               1.6 elap:               0.3
 (Enter /home/wykgroup/appl/g16/l103.exe)

 GradGradGradGradGradGradGradGradGradGradGradGradGradGradGradGradGradGrad
 Berny optimization.
 Initialization pass.
                           ----------------------------
                           !    Initial Parameters    !
                           ! (Angstroms and Degrees)  !
 --------------------------                            --------------------------
 ! Name  Definition              Value          Derivative Info.                !
 --------------------------------------------------------------------------------
 ! R1    R(1,2)                  1.8235         estimate D2E/DX2                !
 ! R2    R(1,31)                 1.0848         estimate D2E/DX2                !
 ! R3    R(1,32)                 1.0863         estimate D2E/DX2                !
 ! R4    R(1,33)                 1.0863         estimate D2E/DX2                !
 ! R5    R(2,3)                  1.7897         estimate D2E/DX2                !
 ! R6    R(3,4)                  1.3995         estimate D2E/DX2                !
 ! R7    R(3,24)                 1.3995         estimate D2E/DX2                !
 ! R8    R(4,5)                  1.4122         estimate D2E/DX2                !
 ! R9    R(4,27)                 1.4286         estimate D2E/DX2                !
 ! R10   R(5,6)                  1.3646         estimate D2E/DX2                !
 ! R11   R(5,34)                 1.0789         estimate D2E/DX2                !
 ! R12   R(6,7)                  1.395          estimate D2E/DX2                !
 ! R13   R(6,35)                 1.0802         estimate D2E/DX2                !
 ! R14   R(7,8)                  1.3843         estimate D2E/DX2                !
 ! R15   R(7,36)                 1.0777         estimate D2E/DX2                !
 ! R16   R(8,9)                  1.4547         estimate D2E/DX2                !
 ! R17   R(8,27)                 1.4244         estimate D2E/DX2                !
 ! R18   R(9,10)                 1.3848         estimate D2E/DX2                !
 ! R19   R(9,29)                 1.4225         estimate D2E/DX2                !
 ! R20   R(10,11)                1.397          estimate D2E/DX2                !
 ! R21   R(10,37)                1.0778         estimate D2E/DX2                !
 ! R22   R(11,12)                1.3647         estimate D2E/DX2                !
 ! R23   R(11,38)                1.0803         estimate D2E/DX2                !
 ! R24   R(12,13)                1.4131         estimate D2E/DX2                !
 ! R25   R(12,39)                1.0801         estimate D2E/DX2                !
 ! R26   R(13,14)                1.3921         estimate D2E/DX2                !
 ! R27   R(13,29)                1.4272         estimate D2E/DX2                !
 ! R28   R(14,15)                1.3921         estimate D2E/DX2                !
 ! R29   R(14,40)                1.081          estimate D2E/DX2                !
 ! R30   R(15,16)                1.4131         estimate D2E/DX2                !
 ! R31   R(15,30)                1.4272         estimate D2E/DX2                !
 ! R32   R(16,17)                1.3647         estimate D2E/DX2                !
 ! R33   R(16,41)                1.0801         estimate D2E/DX2                !
 ! R34   R(17,18)                1.397          estimate D2E/DX2                !
 ! R35   R(17,42)                1.0803         estimate D2E/DX2                !
 ! R36   R(18,19)                1.3848         estimate D2E/DX2                !
 ! R37   R(18,43)                1.0778         estimate D2E/DX2                !
 ! R38   R(19,20)                1.4547         estimate D2E/DX2                !
 ! R39   R(19,30)                1.4225         estimate D2E/DX2                !
 ! R40   R(20,21)                1.3843         estimate D2E/DX2                !
 ! R41   R(20,25)                1.4244         estimate D2E/DX2                !
 ! R42   R(21,22)                1.395          estimate D2E/DX2                !
 ! R43   R(21,44)                1.0777         estimate D2E/DX2                !
 ! R44   R(22,23)                1.3646         estimate D2E/DX2                !
 ! R45   R(22,45)                1.0802         estimate D2E/DX2                !
 ! R46   R(23,24)                1.4122         estimate D2E/DX2                !
 ! R47   R(23,46)                1.0789         estimate D2E/DX2                !
 ! R48   R(24,25)                1.4286         estimate D2E/DX2                !
 ! R49   R(25,26)                1.4103         estimate D2E/DX2                !
 ! R50   R(26,27)                1.4103         estimate D2E/DX2                !
 ! R51   R(26,28)                1.4348         estimate D2E/DX2                !
 ! R52   R(28,29)                1.41           estimate D2E/DX2                !
 ! R53   R(28,30)                1.41           estimate D2E/DX2                !
 ! A1    A(2,1,31)             106.6711         estimate D2E/DX2                !
 ! A2    A(2,1,32)             109.331          estimate D2E/DX2                !
 ! A3    A(2,1,33)             109.3307         estimate D2E/DX2                !
 ! A4    A(31,1,32)            110.4029         estimate D2E/DX2                !
 ! A5    A(31,1,33)            110.4028         estimate D2E/DX2                !
 ! A6    A(32,1,33)            110.6113         estimate D2E/DX2                !
 ! A7    A(1,2,3)               97.7192         estimate D2E/DX2                !
 ! A8    A(2,3,4)              119.0711         estimate D2E/DX2                !
 ! A9    A(2,3,24)             119.0709         estimate D2E/DX2                !
 ! A10   A(4,3,24)             121.8497         estimate D2E/DX2                !
 ! A11   A(3,4,5)              121.5503         estimate D2E/DX2                !
 ! A12   A(3,4,27)             119.1155         estimate D2E/DX2                !
 ! A13   A(5,4,27)             119.3337         estimate D2E/DX2                !
 ! A14   A(4,5,6)              120.5059         estimate D2E/DX2                !
 ! A15   A(4,5,34)             118.7148         estimate D2E/DX2                !
 ! A16   A(6,5,34)             120.7747         estimate D2E/DX2                !
 ! A17   A(5,6,7)              120.4514         estimate D2E/DX2                !
 ! A18   A(5,6,35)             120.237          estimate D2E/DX2                !
 ! A19   A(7,6,35)             119.3115         estimate D2E/DX2                !
 ! A20   A(6,7,8)              121.7015         estimate D2E/DX2                !
 ! A21   A(6,7,36)             117.697          estimate D2E/DX2                !
 ! A22   A(8,7,36)             120.6011         estimate D2E/DX2                !
 ! A23   A(7,8,9)              122.0686         estimate D2E/DX2                !
 ! A24   A(7,8,27)             118.8648         estimate D2E/DX2                !
 ! A25   A(9,8,27)             119.0667         estimate D2E/DX2                !
 ! A26   A(8,9,10)             122.4367         estimate D2E/DX2                !
 ! A27   A(8,9,29)             118.947          estimate D2E/DX2                !
 ! A28   A(10,9,29)            118.6162         estimate D2E/DX2                !
 ! A29   A(9,10,11)            121.9194         estimate D2E/DX2                !
 ! A30   A(9,10,37)            120.5894         estimate D2E/DX2                !
 ! A31   A(11,10,37)           117.4911         estimate D2E/DX2                !
 ! A32   A(10,11,12)           120.408          estimate D2E/DX2                !
 ! A33   A(10,11,38)           119.112          estimate D2E/DX2                !
 ! A34   A(12,11,38)           120.48           estimate D2E/DX2                !
 ! A35   A(11,12,13)           120.2217         estimate D2E/DX2                !
 ! A36   A(11,12,39)           121.1013         estimate D2E/DX2                !
 ! A37   A(13,12,39)           118.677          estimate D2E/DX2                !
 ! A38   A(12,13,14)           120.9235         estimate D2E/DX2                !
 ! A39   A(12,13,29)           119.5891         estimate D2E/DX2                !
 ! A40   A(14,13,29)           119.4874         estimate D2E/DX2                !
 ! A41   A(13,14,15)           121.6667         estimate D2E/DX2                !
 ! A42   A(13,14,40)           119.1666         estimate D2E/DX2                !
 ! A43   A(15,14,40)           119.1666         estimate D2E/DX2                !
 ! A44   A(14,15,16)           120.9235         estimate D2E/DX2                !
 ! A45   A(14,15,30)           119.4874         estimate D2E/DX2                !
 ! A46   A(16,15,30)           119.5891         estimate D2E/DX2                !
 ! A47   A(15,16,17)           120.2217         estimate D2E/DX2                !
 ! A48   A(15,16,41)           118.677          estimate D2E/DX2                !
 ! A49   A(17,16,41)           121.1013         estimate D2E/DX2                !
 ! A50   A(16,17,18)           120.408          estimate D2E/DX2                !
 ! A51   A(16,17,42)           120.48           estimate D2E/DX2                !
 ! A52   A(18,17,42)           119.112          estimate D2E/DX2                !
 ! A53   A(17,18,19)           121.9194         estimate D2E/DX2                !
 ! A54   A(17,18,43)           117.4911         estimate D2E/DX2                !
 ! A55   A(19,18,43)           120.5894         estimate D2E/DX2                !
 ! A56   A(18,19,20)           122.4367         estimate D2E/DX2                !
 ! A57   A(18,19,30)           118.6163         estimate D2E/DX2                !
 ! A58   A(20,19,30)           118.947          estimate D2E/DX2                !
 ! A59   A(19,20,21)           122.0685         estimate D2E/DX2                !
 ! A60   A(19,20,25)           119.0667         estimate D2E/DX2                !
 ! A61   A(21,20,25)           118.8648         estimate D2E/DX2                !
 ! A62   A(20,21,22)           121.7015         estimate D2E/DX2                !
 ! A63   A(20,21,44)           120.6011         estimate D2E/DX2                !
 ! A64   A(22,21,44)           117.697          estimate D2E/DX2                !
 ! A65   A(21,22,23)           120.4514         estimate D2E/DX2                !
 ! A66   A(21,22,45)           119.3115         estimate D2E/DX2                !
 ! A67   A(23,22,45)           120.237          estimate D2E/DX2                !
 ! A68   A(22,23,24)           120.5059         estimate D2E/DX2                !
 ! A69   A(22,23,46)           120.7746         estimate D2E/DX2                !
 ! A70   A(24,23,46)           118.7149         estimate D2E/DX2                !
 ! A71   A(3,24,23)            121.5503         estimate D2E/DX2                !
 ! A72   A(3,24,25)            119.1156         estimate D2E/DX2                !
 ! A73   A(23,24,25)           119.3337         estimate D2E/DX2                !
 ! A74   A(20,25,24)           119.1401         estimate D2E/DX2                !
 ! A75   A(20,25,26)           121.1637         estimate D2E/DX2                !
 ! A76   A(24,25,26)           119.6961         estimate D2E/DX2                !
 ! A77   A(25,26,27)           120.5054         estimate D2E/DX2                !
 ! A78   A(25,26,28)           119.7472         estimate D2E/DX2                !
 ! A79   A(27,26,28)           119.7472         estimate D2E/DX2                !
 ! A80   A(4,27,8)             119.1401         estimate D2E/DX2                !
 ! A81   A(4,27,26)            119.6961         estimate D2E/DX2                !
 ! A82   A(8,27,26)            121.1637         estimate D2E/DX2                !
 ! A83   A(26,28,29)           119.798          estimate D2E/DX2                !
 ! A84   A(26,28,30)           119.798          estimate D2E/DX2                !
 ! A85   A(29,28,30)           120.4039         estimate D2E/DX2                !
 ! A86   A(9,29,13)            119.2455         estimate D2E/DX2                !
 ! A87   A(9,29,28)            121.2773         estimate D2E/DX2                !
 ! A88   A(13,29,28)           119.4772         estimate D2E/DX2                !
 ! A89   A(15,30,19)           119.2455         estimate D2E/DX2                !
 ! A90   A(15,30,28)           119.4772         estimate D2E/DX2                !
 ! A91   A(19,30,28)           121.2773         estimate D2E/DX2                !
 ! D1    D(31,1,2,3)          -179.9987         estimate D2E/DX2                !
 ! D2    D(32,1,2,3)           -60.6113         estimate D2E/DX2                !
 ! D3    D(33,1,2,3)            60.6142         estimate D2E/DX2                !
 ! D4    D(1,2,3,4)            -89.4921         estimate D2E/DX2                !
 ! D5    D(1,2,3,24)            89.479          estimate D2E/DX2                !
 ! D6    D(2,3,4,5)             -2.4958         estimate D2E/DX2                !
 ! D7    D(2,3,4,27)           177.2672         estimate D2E/DX2                !
 ! D8    D(24,3,4,5)           178.5629         estimate D2E/DX2                !
 ! D9    D(24,3,4,27)           -1.6742         estimate D2E/DX2                !
 ! D10   D(2,3,24,23)            2.4961         estimate D2E/DX2                !
 ! D11   D(2,3,24,25)         -177.2673         estimate D2E/DX2                !
 ! D12   D(4,3,24,23)         -178.5626         estimate D2E/DX2                !
 ! D13   D(4,3,24,25)            1.6741         estimate D2E/DX2                !
 ! D14   D(3,4,5,6)            179.3842         estimate D2E/DX2                !
 ! D15   D(3,4,5,34)            -1.3857         estimate D2E/DX2                !
 ! D16   D(27,4,5,6)            -0.3782         estimate D2E/DX2                !
 ! D17   D(27,4,5,34)          178.8519         estimate D2E/DX2                !
 ! D18   D(3,4,27,8)          -179.2323         estimate D2E/DX2                !
 ! D19   D(3,4,27,26)            0.6443         estimate D2E/DX2                !
 ! D20   D(5,4,27,8)             0.536          estimate D2E/DX2                !
 ! D21   D(5,4,27,26)         -179.5875         estimate D2E/DX2                !
 ! D22   D(4,5,6,7)             -0.0793         estimate D2E/DX2                !
 ! D23   D(4,5,6,35)           179.8488         estimate D2E/DX2                !
 ! D24   D(34,5,6,7)          -179.2934         estimate D2E/DX2                !
 ! D25   D(34,5,6,35)            0.6347         estimate D2E/DX2                !
 ! D26   D(5,6,7,8)              0.387          estimate D2E/DX2                !
 ! D27   D(5,6,7,36)          -179.8518         estimate D2E/DX2                !
 ! D28   D(35,6,7,8)          -179.5417         estimate D2E/DX2                !
 ! D29   D(35,6,7,36)            0.2195         estimate D2E/DX2                !
 ! D30   D(6,7,8,9)            179.7769         estimate D2E/DX2                !
 ! D31   D(6,7,8,27)            -0.2168         estimate D2E/DX2                !
 ! D32   D(36,7,8,9)             0.0225         estimate D2E/DX2                !
 ! D33   D(36,7,8,27)         -179.9712         estimate D2E/DX2                !
 ! D34   D(7,8,9,10)             0.112          estimate D2E/DX2                !
 ! D35   D(7,8,9,29)          -179.9131         estimate D2E/DX2                !
 ! D36   D(27,8,9,10)         -179.8942         estimate D2E/DX2                !
 ! D37   D(27,8,9,29)            0.0807         estimate D2E/DX2                !
 ! D38   D(7,8,27,4)            -0.2432         estimate D2E/DX2                !
 ! D39   D(7,8,27,26)          179.8822         estimate D2E/DX2                !
 ! D40   D(9,8,27,4)           179.7629         estimate D2E/DX2                !
 ! D41   D(9,8,27,26)           -0.1118         estimate D2E/DX2                !
 ! D42   D(8,9,10,11)          179.9914         estimate D2E/DX2                !
 ! D43   D(8,9,10,37)           -0.03           estimate D2E/DX2                !
 ! D44   D(29,9,10,11)           0.0164         estimate D2E/DX2                !
 ! D45   D(29,9,10,37)         179.995          estimate D2E/DX2                !
 ! D46   D(8,9,29,13)          179.9711         estimate D2E/DX2                !
 ! D47   D(8,9,29,28)            0.0045         estimate D2E/DX2                !
 ! D48   D(10,9,29,13)          -0.053          estimate D2E/DX2                !
 ! D49   D(10,9,29,28)         179.9804         estimate D2E/DX2                !
 ! D50   D(9,10,11,12)           0.0206         estimate D2E/DX2                !
 ! D51   D(9,10,11,38)         179.99           estimate D2E/DX2                !
 ! D52   D(37,10,11,12)       -179.9587         estimate D2E/DX2                !
 ! D53   D(37,10,11,38)          0.0107         estimate D2E/DX2                !
 ! D54   D(10,11,12,13)         -0.0195         estimate D2E/DX2                !
 ! D55   D(10,11,12,39)        179.9498         estimate D2E/DX2                !
 ! D56   D(38,11,12,13)       -179.9885         estimate D2E/DX2                !
 ! D57   D(38,11,12,39)         -0.0193         estimate D2E/DX2                !
 ! D58   D(11,12,13,14)        179.977          estimate D2E/DX2                !
 ! D59   D(11,12,13,29)         -0.018          estimate D2E/DX2                !
 ! D60   D(39,12,13,14)          0.007          estimate D2E/DX2                !
 ! D61   D(39,12,13,29)       -179.9879         estimate D2E/DX2                !
 ! D62   D(12,13,14,15)       -179.9217         estimate D2E/DX2                !
 ! D63   D(12,13,14,40)          0.0412         estimate D2E/DX2                !
 ! D64   D(29,13,14,15)          0.0733         estimate D2E/DX2                !
 ! D65   D(29,13,14,40)       -179.9638         estimate D2E/DX2                !
 ! D66   D(12,13,29,9)           0.0542         estimate D2E/DX2                !
 ! D67   D(12,13,29,28)       -179.9786         estimate D2E/DX2                !
 ! D68   D(14,13,29,9)        -179.9408         estimate D2E/DX2                !
 ! D69   D(14,13,29,28)          0.0264         estimate D2E/DX2                !
 ! D70   D(13,14,15,16)        179.9214         estimate D2E/DX2                !
 ! D71   D(13,14,15,30)         -0.0736         estimate D2E/DX2                !
 ! D72   D(40,14,15,16)         -0.0415         estimate D2E/DX2                !
 ! D73   D(40,14,15,30)        179.9634         estimate D2E/DX2                !
 ! D74   D(14,15,16,17)       -179.9769         estimate D2E/DX2                !
 ! D75   D(14,15,16,41)         -0.0071         estimate D2E/DX2                !
 ! D76   D(30,15,16,17)          0.0181         estimate D2E/DX2                !
 ! D77   D(30,15,16,41)        179.988          estimate D2E/DX2                !
 ! D78   D(14,15,30,19)        179.9413         estimate D2E/DX2                !
 ! D79   D(14,15,30,28)         -0.0257         estimate D2E/DX2                !
 ! D80   D(16,15,30,19)         -0.0538         estimate D2E/DX2                !
 ! D81   D(16,15,30,28)        179.9792         estimate D2E/DX2                !
 ! D82   D(15,16,17,18)          0.0191         estimate D2E/DX2                !
 ! D83   D(15,16,17,42)        179.9882         estimate D2E/DX2                !
 ! D84   D(41,16,17,18)       -179.95           estimate D2E/DX2                !
 ! D85   D(41,16,17,42)          0.0191         estimate D2E/DX2                !
 ! D86   D(16,17,18,19)         -0.0206         estimate D2E/DX2                !
 ! D87   D(16,17,18,43)        179.9586         estimate D2E/DX2                !
 ! D88   D(42,17,18,19)       -179.9901         estimate D2E/DX2                !
 ! D89   D(42,17,18,43)         -0.0109         estimate D2E/DX2                !
 ! D90   D(17,18,19,20)       -179.991          estimate D2E/DX2                !
 ! D91   D(17,18,19,30)         -0.0157         estimate D2E/DX2                !
 ! D92   D(43,18,19,20)          0.0304         estimate D2E/DX2                !
 ! D93   D(43,18,19,30)       -179.9943         estimate D2E/DX2                !
 ! D94   D(18,19,20,21)         -0.1104         estimate D2E/DX2                !
 ! D95   D(18,19,20,25)        179.8958         estimate D2E/DX2                !
 ! D96   D(30,19,20,21)        179.9143         estimate D2E/DX2                !
 ! D97   D(30,19,20,25)         -0.0794         estimate D2E/DX2                !
 ! D98   D(18,19,30,15)          0.0521         estimate D2E/DX2                !
 ! D99   D(18,19,30,28)       -179.9815         estimate D2E/DX2                !
 ! D100  D(20,19,30,15)       -179.9717         estimate D2E/DX2                !
 ! D101  D(20,19,30,28)         -0.0053         estimate D2E/DX2                !
 ! D102  D(19,20,21,22)       -179.7758         estimate D2E/DX2                !
 ! D103  D(19,20,21,44)         -0.0217         estimate D2E/DX2                !
 ! D104  D(25,20,21,22)          0.218          estimate D2E/DX2                !
 ! D105  D(25,20,21,44)        179.9721         estimate D2E/DX2                !
 ! D106  D(19,20,25,24)       -179.7637         estimate D2E/DX2                !
 ! D107  D(19,20,25,26)          0.111          estimate D2E/DX2                !
 ! D108  D(21,20,25,24)          0.2423         estimate D2E/DX2                !
 ! D109  D(21,20,25,26)       -179.883          estimate D2E/DX2                !
 ! D110  D(20,21,22,23)         -0.3874         estimate D2E/DX2                !
 ! D111  D(20,21,22,45)        179.5411         estimate D2E/DX2                !
 ! D112  D(44,21,22,23)        179.8517         estimate D2E/DX2                !
 ! D113  D(44,21,22,45)         -0.2199         estimate D2E/DX2                !
 ! D114  D(21,22,23,24)          0.0786         estimate D2E/DX2                !
 ! D115  D(21,22,23,46)        179.2925         estimate D2E/DX2                !
 ! D116  D(45,22,23,24)       -179.8492         estimate D2E/DX2                !
 ! D117  D(45,22,23,46)         -0.6353         estimate D2E/DX2                !
 ! D118  D(22,23,24,3)        -179.3837         estimate D2E/DX2                !
 ! D119  D(22,23,24,25)          0.3791         estimate D2E/DX2                !
 ! D120  D(46,23,24,3)           1.3864         estimate D2E/DX2                !
 ! D121  D(46,23,24,25)       -178.8508         estimate D2E/DX2                !
 ! D122  D(3,24,25,20)         179.2326         estimate D2E/DX2                !
 ! D123  D(3,24,25,26)          -0.644          estimate D2E/DX2                !
 ! D124  D(23,24,25,20)         -0.5361         estimate D2E/DX2                !
 ! D125  D(23,24,25,26)        179.5873         estimate D2E/DX2                !
 ! D126  D(20,25,26,27)        179.7847         estimate D2E/DX2                !
 ! D127  D(20,25,26,28)         -0.0567         estimate D2E/DX2                !
 ! D128  D(24,25,26,27)         -0.3413         estimate D2E/DX2                !
 ! D129  D(24,25,26,28)        179.8173         estimate D2E/DX2                !
 ! D130  D(25,26,27,4)           0.3412         estimate D2E/DX2                !
 ! D131  D(25,26,27,8)        -179.7848         estimate D2E/DX2                !
 ! D132  D(28,26,27,4)        -179.8174         estimate D2E/DX2                !
 ! D133  D(28,26,27,8)           0.0565         estimate D2E/DX2                !
 ! D134  D(25,26,28,29)        179.8732         estimate D2E/DX2                !
 ! D135  D(25,26,28,30)         -0.03           estimate D2E/DX2                !
 ! D136  D(27,26,28,29)          0.0306         estimate D2E/DX2                !
 ! D137  D(27,26,28,30)       -179.8725         estimate D2E/DX2                !
 ! D138  D(26,28,29,9)          -0.0606         estimate D2E/DX2                !
 ! D139  D(26,28,29,13)        179.9729         estimate D2E/DX2                !
 ! D140  D(30,28,29,9)         179.8419         estimate D2E/DX2                !
 ! D141  D(30,28,29,13)         -0.1246         estimate D2E/DX2                !
 ! D142  D(26,28,30,15)       -179.9732         estimate D2E/DX2                !
 ! D143  D(26,28,30,19)          0.0605         estimate D2E/DX2                !
 ! D144  D(29,28,30,15)          0.1242         estimate D2E/DX2                !
 ! D145  D(29,28,30,19)       -179.8421         estimate D2E/DX2                !
 --------------------------------------------------------------------------------
 Trust Radius=3.00D-01 FncErr=1.00D-07 GrdErr=1.00D-06 EigMax=2.50D+02 EigMin=1.00D-04
 Number of steps in this run=    276 maximum allowed number of steps=    276.
 GradGradGradGradGradGradGradGradGradGradGradGradGradGradGradGradGradGrad

 Leave Link  103 at Fri Nov  4 23:00:33 2022, MaxMem=   805306368 cpu:               0.3 elap:               0.1
 (Enter /home/wykgroup/appl/g16/l202.exe)
                          Input orientation:                          
 ---------------------------------------------------------------------
 Center     Atomic      Atomic             Coordinates (Angstroms)
 Number     Number       Type             X           Y           Z
 ---------------------------------------------------------------------
      1          6           0        5.174242   -0.739095    0.742934
      2         16           0        4.656583   -0.758753   -1.005461
      3          6           0        2.908433   -0.480262   -0.741728
      4          6           0        2.063675   -1.581745   -0.563289
      5          6           0        2.549718   -2.905529   -0.638289
      6          6           0        1.709378   -3.963792   -0.448443
      7          6           0        0.357593   -3.753116   -0.175749
      8          6           0       -0.178503   -2.479370   -0.096065
      9          6           0       -1.587749   -2.250578    0.183100
     10          6           0       -2.482069   -3.287638    0.389007
     11          6           0       -3.833405   -3.055481    0.656573
     12          6           0       -4.315348   -1.780425    0.722698
     13          6           0       -3.450012   -0.681608    0.521127
     14          6           0       -3.926103    0.625020    0.584810
     15          6           0       -3.087828    1.718741    0.387167
     16          6           0       -3.588218    3.038595    0.453750
     17          6           0       -2.753678    4.100350    0.257210
     18          6           0       -1.398420    3.894170   -0.011793
     19          6           0       -0.852236    2.623960   -0.088921
     20          6           0        0.557182    2.396287   -0.368128
     21          6           0        1.442871    3.439396   -0.577074
     22          6           0        2.792152    3.212128   -0.848845
     23          6           0        3.280768    1.939410   -0.908636
     24          6           0        2.428119    0.833555   -0.698059
     25          6           0        1.043327    1.058801   -0.429027
     26          6           0        0.183222   -0.040289   -0.226206
     27          6           0        0.678505   -1.359000   -0.294114
     28          6           0       -1.207000    0.184779    0.047962
     29          6           0       -2.068440   -0.913392    0.248263
     30          6           0       -1.703874    1.502736    0.113430
     31          1           0        6.246942   -0.900419    0.751725
     32          1           0        4.932886    0.226295    1.178580
     33          1           0        4.666849   -1.537317    1.277171
     34          1           0        3.593735   -3.062597   -0.860664
     35          1           0        2.085298   -4.974597   -0.509199
     36          1           0       -0.265337   -4.620551   -0.031081
     37          1           0       -2.152224   -4.312850    0.346797
     38          1           0       -4.491252   -3.898575    0.809810
     39          1           0       -5.358183   -1.588076    0.928028
     40          1           0       -4.973356    0.794623    0.792404
     41          1           0       -4.637977    3.185054    0.661636
     42          1           0       -3.131805    5.111090    0.306978
     43          1           0       -0.782330    4.766032   -0.159880
     44          1           0        1.105138    4.462045   -0.537861
     45          1           0        3.447735    4.054740   -1.013017
     46          1           0        4.320996    1.757249   -1.129626
 ---------------------------------------------------------------------
                    Distance matrix (angstroms):
                    1          2          3          4          5
     1  C    0.000000
     2  S    1.823526   0.000000
     3  C    2.721232   1.789731   0.000000
     4  C    3.477342   2.756085   1.399544   0.000000
     5  C    3.672785   3.030238   2.453834   1.412185   0.000000
     6  C    4.880915   4.389596   3.695772   2.410988   1.364599
     7  C    5.755729   5.304333   4.187923   2.788504   2.395362
     8  C    5.690725   5.212061   3.733964   2.459957   2.814037
     9  C    6.951440   6.529157   4.919856   3.786466   4.268755
    10  C    8.077093   7.700659   6.182025   4.947800   5.149778
    11  C    9.301118   8.950821   7.351148   6.199638   6.514860
    12  C    9.546576   9.193797   7.484517   6.510390   7.088531
    13  C    8.627297   8.249442   6.485767   5.690953   6.502832
    14  C    9.203374   8.837776   7.049273   6.485783   7.476430
    15  C    8.627243   8.249442   6.485767   6.191491   7.363244
    16  C    9.546479   9.193796   7.484517   7.370604   8.613908
    17  C    9.300971   8.950820   7.351149   7.494419   8.832342
    18  C    8.076920   7.700657   6.182026   6.501991   7.887724
    19  C    6.951299   6.529156   4.919856   5.139603   6.515393
    20  C    5.690546   5.212059   3.733965   4.258209   5.670312
    21  C    5.755461   5.304330   4.187923   5.059392   6.441035
    22  C    4.880601   4.389593   3.695772   4.857307   6.126078
    23  C    3.672508   3.030235   2.453834   3.741539   4.907235
    24  C    3.477194   2.756083   1.399544   2.446356   3.741539
    25  C    4.655146   4.085511   2.438262   2.834011   4.246047
    26  C    5.132041   4.597215   2.808223   2.454753   3.738946
    27  C    4.655255   4.085512   2.438261   1.428553   2.451865
    28  C    6.485119   6.031712   4.242957   3.767167   4.912624
    29  C    7.261647   6.842636   5.092834   4.263764   5.107050
    30  C    7.261581   6.842635   5.092834   4.915933   6.171785
    31  H    1.084799   2.374240   3.681382   4.437701   4.429681
    32  H    1.086286   2.411783   2.878405   3.812544   4.334608
    33  H    1.086286   2.411779   2.878428   3.188383   3.165950
    34  H    3.235459   2.541320   2.674367   2.149986   1.078932
    35  H    5.389703   4.962975   4.575006   3.393353   2.124475
    36  H    6.727096   6.331523   5.264962   3.865473   3.351795
    37  H    8.161235   7.798721   6.440797   5.104997   5.005916
    38  H   10.169000   9.840557   8.297438   7.086619   7.256609
    39  H   10.568207  10.233361   8.506015   7.570207   8.168471
    40  H   10.262966   9.918720   8.130282   7.550154   8.504977
    41  H   10.568122  10.233361   8.506015   8.314743   9.510414
    42  H   10.168832   9.840556   8.297439   8.517301   9.871141
    43  H    8.161020   7.798720   6.440798   6.968268   8.377605
    44  H    6.726804   6.331520   5.264963   6.119382   7.508532
    45  H    5.389345   4.962971   4.575006   5.821326   7.027958
    46  H    3.235158   2.541319   2.674370   4.070027   5.012020
                    6          7          8          9         10
     6  C    0.000000
     7  C    1.395016   0.000000
     8  C    2.427298   1.384261   0.000000
     9  C    3.768951   2.484099   1.454734   0.000000
    10  C    4.327440   2.932456   2.488977   1.384810   0.000000
    11  C    5.724381   4.329425   3.775801   2.432080   1.396996
    12  C    6.514292   5.151223   4.274621   2.819931   2.396655
    13  C    6.191293   4.941422   3.783602   2.458446   2.783121
    14  C    7.340535   6.172243   4.913790   3.728048   4.175220
    15  C    7.483489   6.490687   5.130479   4.248220   5.042893
    16  C    8.826772   7.879913   6.509715   5.661315   6.422537
    17  C    9.243765   8.458392   7.074535   6.457490   7.394153
    18  C    8.461479   7.848022   6.489784   6.150753   7.274152
    19  C    7.077401   6.491404   5.147615   4.937216   6.150753
    20  C    6.464102   6.155649   4.938348   5.147615   6.489785
    21  C    7.409100   7.284993   6.155649   6.491404   7.848022
    22  C    7.268187   7.409100   6.464102   7.077401   8.461479
    23  C    6.126078   6.441035   5.670312   6.515393   7.887724
    24  C    4.857307   5.059391   4.258209   5.139602   6.501991
    25  C    5.066600   4.867127   3.757976   4.271914   5.655892
    26  C    4.215734   3.717262   2.469189   2.861686   4.245884
    27  C    2.805611   2.418427   1.424400   2.481643   3.765040
    28  C    5.095323   4.243232   2.859412   2.468643   3.714807
    29  C    4.905328   3.758917   2.478449   1.422455   2.414112
    30  C    6.469074   5.653075   4.269404   3.755757   4.860989
    31  H    5.604832   6.609275   6.670695   7.970486   9.056821
    32  H    5.531278   6.213150   5.922131   7.045889   8.243343
    33  H    4.196684   5.058698   5.123541   6.389501   7.413466
    34  H    2.129056   3.379133   3.892884   5.347578   6.207070
    35  H    1.080155   2.142002   3.394354   4.625022   4.951106
    36  H    2.122504   1.077689   2.143926   2.722392   2.620502
    37  H    3.958057   2.624030   2.730083   2.144387   1.077794
    38  H    6.327343   4.950129   4.629747   3.396909   2.141760
    39  H    7.582158   6.210943   5.354648   3.900000   3.383945
    40  H    8.297056   7.073773   5.873586   4.594218   4.799384
    41  H    9.624302   8.590410   7.248911   6.251319   6.827738
    42  H   10.313157   9.538505   8.154724   7.522873   8.424222
    43  H    9.083045   8.595090   7.270799   7.071008   8.249363
    44  H    8.447948   8.257047   7.072917   7.268476   8.589803
    45  H    8.224200   8.438756   7.528943   8.157440   9.541422
    46  H    6.325730   6.854383   6.265994   7.259421   8.604581
                   11         12         13         14         15
    11  C    0.000000
    12  C    1.364701   0.000000
    13  C    2.408445   1.413095   0.000000
    14  C    3.682367   2.440633   1.392119   0.000000
    15  C    4.839592   3.723379   2.431213   1.392119   0.000000
    16  C    6.102377   4.880984   3.723379   2.440633   1.413095
    17  C    7.247842   6.102377   4.839592   3.682367   2.408445
    18  C    7.394153   6.422537   5.042893   4.175220   2.783121
    19  C    6.457490   5.661315   4.248221   3.728048   2.458446
    20  C    7.074535   6.509715   5.130479   4.913790   3.783602
    21  C    8.458392   7.879913   6.490687   6.172242   4.941422
    22  C    9.243765   8.826772   7.483489   7.340535   6.191292
    23  C    8.832342   8.613908   7.363243   7.476430   6.502832
    24  C    7.494418   7.370603   6.191490   6.485783   5.690952
    25  C    6.472121   6.172768   4.911405   5.090311   4.262409
    26  C    5.099408   4.915854   3.764330   4.241101   3.764330
    27  C    4.913165   5.113715   4.262409   5.090311   4.911405
    28  C    4.215174   3.738867   2.450635   2.806340   2.450635
    29  C    2.805416   2.454675   1.427207   2.435342   2.826052
    30  C    5.060360   4.239122   2.826052   2.435342   1.427207
    31  H   10.308576  10.598926   9.702163  10.288133   9.702104
    32  H    9.374988   9.474418   8.457512   8.887814   8.196681
    33  H    8.657036   9.002578   8.196784   8.887851   8.457484
    34  H    7.580532   8.167289   7.562594   8.499170   8.310329
    35  H    6.330330   7.258690   7.080324   8.287914   8.506791
    36  H    3.956441   5.003708   5.095327   6.426239   6.951835
    37  H    2.122100   3.351654   3.860125   5.252224   6.103857
    38  H    1.080302   2.127226   3.393582   4.564311   5.805383
    39  H    2.133521   1.080121   2.151365   2.658278   4.047478
    40  H    4.017615   2.658703   2.138557   1.081017   2.138557
    41  H    6.292188   4.976324   4.047478   2.658278   2.151365
    42  H    8.204105   7.004754   5.805383   4.564311   3.393582
    43  H    8.435147   7.491146   6.103858   5.252224   3.860125
    44  H    9.073537   8.362961   6.951835   6.426239   5.095327
    45  H   10.312989   9.865460   8.506791   8.287914   7.080324
    46  H    9.635721   9.514867   8.310329   8.499170   7.562594
                   16         17         18         19         20
    16  C    0.000000
    17  C    1.364701   0.000000
    18  C    2.396655   1.396996   0.000000
    19  C    2.819931   2.432080   1.384810   0.000000
    20  C    4.274621   3.775801   2.488977   1.454734   0.000000
    21  C    5.151223   4.329424   2.932456   2.484099   1.384261
    22  C    6.514291   5.724380   4.327439   3.768951   2.427298
    23  C    7.088531   6.514860   5.149778   4.268754   2.814037
    24  C    6.510389   6.199638   4.947800   3.786466   2.459957
    25  C    5.113715   4.913165   3.765040   2.481643   1.424400
    26  C    4.915854   5.099408   4.245884   2.861686   2.469189
    27  C    6.172768   6.472121   5.655892   4.271914   3.757976
    28  C    3.738867   4.215174   3.714807   2.468643   2.859412
    29  C    4.239122   5.060360   4.860989   3.755757   4.269404
    30  C    2.454675   2.805416   2.414112   1.422455   2.478449
    31  H   10.598820  10.308414   9.056633   7.970336   6.670510
    32  H    9.002423   8.656818   7.413213   6.389287   5.123276
    33  H    9.474340   9.374851   8.243177   7.045760   5.921960
    34  H    9.514866   9.635720   8.604580   7.259420   6.265993
    35  H    9.865460  10.312989   9.541422   8.157440   7.528943
    36  H    8.362961   9.073537   8.589803   7.268476   7.072917
    37  H    7.491146   8.435147   8.249363   7.071008   7.270799
    38  H    7.004754   8.204105   8.424222   7.522873   8.154724
    39  H    4.976324   6.292188   6.827738   6.251319   7.248912
    40  H    2.658703   4.017615   4.799384   4.594218   5.873586
    41  H    1.080121   2.133521   3.383945   3.900000   5.354648
    42  H    2.127226   1.080302   2.141760   3.396909   4.629747
    43  H    3.351654   2.122100   1.077794   2.144387   2.730083
    44  H    5.003708   3.956441   2.620502   2.722392   2.143926
    45  H    7.258690   6.330330   4.951105   4.625022   3.394354
    46  H    8.167288   7.580531   6.207069   5.347578   3.892884
                   21         22         23         24         25
    21  C    0.000000
    22  C    1.395016   0.000000
    23  C    2.395362   1.364599   0.000000
    24  C    2.788504   2.410988   1.412185   0.000000
    25  C    2.418427   2.805611   2.451865   1.428553   0.000000
    26  C    3.717262   4.215734   3.738945   2.454753   1.410289
    27  C    4.867127   5.066600   4.246047   2.834011   2.448889
    28  C    4.243232   5.095323   4.912623   3.767167   2.460772
    29  C    5.653075   6.469074   6.171784   4.915933   3.745845
    30  C    3.758916   4.905328   5.107050   4.263764   2.835216
    31  H    6.608993   5.604501   4.429403   4.437561   5.684217
    32  H    5.058314   4.196235   3.165553   3.188165   4.290237
    33  H    6.212884   5.530973   4.334351   3.812412   4.772929
    34  H    6.854382   6.325729   5.012018   4.070025   4.865883
    35  H    8.438756   8.224200   7.027958   5.821326   6.123237
    36  H    8.257047   8.447948   7.508531   6.119382   5.841746
    37  H    8.595090   9.083045   8.377605   6.968267   6.298260
    38  H    9.538505  10.313157   9.871141   8.517301   7.532719
    39  H    8.590410   9.624302   9.510413   8.314743   7.058816
    40  H    7.073773   8.297056   8.504977   7.550153   6.145091
    41  H    6.210943   7.582158   8.168471   7.570207   6.163417
    42  H    4.950129   6.327342   7.256609   7.086619   5.864681
    43  H    2.624030   3.958057   5.005916   5.104997   4.141138
    44  H    1.077689   2.122504   3.351795   3.865473   3.405545
    45  H    2.142002   1.080155   2.124475   3.393353   3.885598
    46  H    3.379132   2.129055   1.078932   2.149987   3.423710
                   26         27         28         29         30
    26  C    0.000000
    27  C    1.410289   0.000000
    28  C    1.434761   2.460772   0.000000
    29  C    2.461181   2.835216   1.410029   0.000000
    30  C    2.461181   3.745845   1.410029   2.447195   0.000000
    31  H    6.202006   5.684326   7.565328   8.330619   8.330549
    32  H    4.960222   4.773022   6.243254   7.154226   6.841815
    33  H    4.960257   4.290410   6.243290   6.841933   7.154182
    34  H    4.600922   3.423709   5.866695   6.157031   7.060863
    35  H    5.295789   3.885598   6.145634   5.858385   7.530029
    36  H    4.606308   3.405545   4.897364   4.131857   6.291654
    37  H    4.902796   4.141138   4.605586   3.401917   5.837510
    38  H    6.149016   5.864681   5.295329   3.885443   6.117891
    39  H    5.868140   6.163417   4.598897   3.426323   4.854963
    40  H    5.322117   6.145091   3.887356   3.413494   3.413494
    41  H    5.868140   7.058815   4.598897   4.854963   3.426323
    42  H    6.149016   7.532719   5.295329   6.117891   3.885443
    43  H    4.902797   6.298260   4.605586   5.837510   3.401917
    44  H    4.606308   5.841746   4.897364   6.291655   4.131857
    45  H    5.295789   6.123237   6.145634   7.530030   5.858385
    46  H    4.600923   4.865884   5.866695   7.060864   6.157031
                   31         32         33         34         35
    31  H    0.000000
    32  H    1.782816   0.000000
    33  H    1.782815   1.786288   0.000000
    34  H    3.783427   4.094955   2.836969   0.000000
    35  H    5.958871   6.164952   4.655149   2.460621   0.000000
    36  H    7.540686   7.209488   5.961904   4.243567   2.424754
    37  H    9.074946   8.455441   7.420844   6.003094   4.373469
    38  H   11.149041  10.293926   9.469148   8.297973   6.793277
    39  H   11.626817  10.452790  10.031238   9.247187   8.302985
    40  H   11.347682   9.930043   9.930080   9.539697   9.208836
    41  H   11.626722  10.031097  10.452725  10.445651  10.637349
    42  H   11.148854   9.468905  10.293765  10.649200  11.384437
    43  H    9.074709   7.420538   8.455228   8.996026  10.159979
    44  H    7.540371   5.961493   7.209194   7.932059   9.487453
    45  H    5.958479   4.654649   6.164601   7.120464   9.145436
    46  H    3.783113   2.836555   4.094686   4.881820   7.120466
                   36         37         38         39         40
    36  H    0.000000
    37  H    1.948798   0.000000
    38  H    4.368833   2.420136   0.000000
    39  H    6.004405   4.247399   2.470618   0.000000
    40  H    7.222719   5.851806   4.717927   2.417383   0.000000
    41  H    8.973701   7.905483   7.086698   4.834504   2.417383
    42  H   10.150654   9.474799   9.125514   7.086698   4.717927
    43  H    9.401692   9.195620   9.474799   7.905483   5.851806
    44  H    9.199379   9.401692  10.150654   8.973701   7.222719
    45  H    9.487453  10.159980  11.384438  10.637350   9.208836
    46  H    7.932060   8.996027  10.649201  10.445652   9.539697
                   41         42         43         44         45
    41  H    0.000000
    42  H    2.470618   0.000000
    43  H    4.247399   2.420136   0.000000
    44  H    6.004405   4.368833   1.948798   0.000000
    45  H    8.302985   6.793277   4.373468   2.424754   0.000000
    46  H    9.247186   8.297972   6.003093   4.243566   2.460619
                   46
    46  H    0.000000
 Stoichiometry    C29H16S
 Framework group  C1[X(C29H16S)]
 Deg. of freedom   132
 Full point group                 C1      NOp   1
 Largest Abelian subgroup         C1      NOp   1
 Largest concise Abelian subgroup C1      NOp   1
                         Standard orientation:                         
 ---------------------------------------------------------------------
 Center     Atomic      Atomic             Coordinates (Angstroms)
 Number     Number       Type             X           Y           Z
 ---------------------------------------------------------------------
      1          6           0        4.944399    0.000113    1.551760
      2         16           0        4.679609   -0.000086   -0.252438
      3          6           0        2.889986   -0.000058   -0.232755
      4          6           0        2.210099   -1.223225   -0.214298
      5          6           0        2.901373   -2.453676   -0.263265
      6          6           0        2.217544   -3.634140   -0.231440
      7          6           0        0.825029   -3.642520   -0.148367
      8          6           0        0.091911   -2.469185   -0.103620
      9          6           0       -1.360519   -2.468595   -0.021773
     10          6           0       -2.102647   -3.637051    0.018914
     11          6           0       -3.497357   -3.623872    0.097699
     12          6           0       -4.175845   -2.440432    0.136839
     13          6           0       -3.472253   -1.215558    0.098361
     14          6           0       -4.149583    0.000060    0.136984
     15          6           0       -3.472213    1.215655    0.098342
     16          6           0       -4.175766    2.440552    0.136795
     17          6           0       -3.497239    3.623970    0.097635
     18          6           0       -2.102528    3.637102    0.018862
     19          6           0       -1.360437    2.468621   -0.021792
     20          6           0        0.091994    2.469163   -0.103618
     21          6           0        0.825152    3.642473   -0.148344
     22          6           0        2.217667    3.634047   -0.231419
     23          6           0        2.901455    2.453559   -0.263260
     24          6           0        2.210140    1.223131   -0.214292
     25          6           0        0.783569    1.224422   -0.139082
     26          6           0        0.084968   -0.000011   -0.098628
     27          6           0        0.783528   -1.224467   -0.139085
     28          6           0       -1.347589    0.000013   -0.019121
     29          6           0       -2.047295   -1.223573    0.018680
     30          6           0       -2.047255    1.223622    0.018669
     31          1           0        6.017775    0.000139    1.708767
     32          1           0        4.498936    0.893298    1.980479
     33          1           0        4.498953   -0.892990    1.980668
     34          1           0        3.977578   -2.440985   -0.338873
     35          1           0        2.750546   -4.572773   -0.271592
     36          1           0        0.330458   -4.599705   -0.123665
     37          1           0       -1.615020   -4.597793   -0.009983
     38          1           0       -4.031039   -4.562699    0.126690
     39          1           0       -5.254042   -2.417174    0.196942
     40          1           0       -5.228881    0.000078    0.197929
     41          1           0       -5.253964    2.417330    0.196893
     42          1           0       -4.030891    4.562815    0.126602
     43          1           0       -1.614870    4.597828   -0.010052
     44          1           0        0.330615    4.599675   -0.123629
     45          1           0        2.750700    4.572662   -0.271566
     46          1           0        3.977658    2.440835   -0.338884
 ---------------------------------------------------------------------
 Rotational constants (GHZ):           0.2260687           0.1513704           0.0922999
 Leave Link  202 at Fri Nov  4 23:00:33 2022, MaxMem=   805306368 cpu:               0.2 elap:               0.1
 (Enter /home/wykgroup/appl/g16/l301.exe)
 Standard basis: 6-31G(d) (6D, 7F)
 Ernie: Thresh=  0.10000D-02 Tol=  0.10000D-05 Strict=F.
 There are   486 symmetry adapted cartesian basis functions of A   symmetry.
 There are   486 symmetry adapted basis functions of A   symmetry.
   486 basis functions,   928 primitive gaussians,   486 cartesian basis functions
   103 alpha electrons      103 beta electrons
       nuclear repulsion energy      2817.7030886780 Hartrees.
 IExCor=  402 DFT=T Ex+Corr=B3LYP ExCW=0 ScaHFX=  0.200000
 ScaDFX=  0.800000  0.720000  1.000000  0.810000 ScalE2=  1.000000  1.000000
 IRadAn=      5 IRanWt=     -1 IRanGd=            0 ICorTp=0 IEmpDi=  4
 NAtoms=   46 NActive=   46 NUniq=   46 SFac= 1.00D+00 NAtFMM=   60 NAOKFM=F Big=F
 Integral buffers will be    131072 words long.
 Raffenetti 2 integral format.
 Two-electron integral symmetry is turned on.
 Leave Link  301 at Fri Nov  4 23:00:33 2022, MaxMem=   805306368 cpu:               0.5 elap:               0.1
 (Enter /home/wykgroup/appl/g16/l302.exe)
 NPDir=0 NMtPBC=     1 NCelOv=     1 NCel=       1 NClECP=     1 NCelD=      1
         NCelK=      1 NCelE2=     1 NClLst=     1 CellRange=     0.0.
 One-electron integrals computed using PRISM.
 One-electron integral symmetry used in STVInt
 NBasis=   486 RedAO= T EigKep=  6.32D-05  NBF=   486
 NBsUse=   486 1.00D-06 EigRej= -1.00D+00 NBFU=   486
 Precomputing XC quadrature grid using
 IXCGrd= 4 IRadAn=           5 IRanWt=          -1 IRanGd=           0 AccXCQ= 0.00D+00.
 Generated NRdTot=       0 NPtTot=           0 NUsed=           0 NTot=          32
 NSgBfM=   484   484   484   484   484 MxSgAt=    46 MxSgA2=    46.
 Leave Link  302 at Fri Nov  4 23:00:34 2022, MaxMem=   805306368 cpu:               5.1 elap:               0.8
 (Enter /home/wykgroup/appl/g16/l303.exe)
 DipDrv:  MaxL=1.
 Leave Link  303 at Fri Nov  4 23:00:34 2022, MaxMem=   805306368 cpu:               0.7 elap:               0.2
 (Enter /home/wykgroup/appl/g16/l401.exe)
 ExpMin= 1.17D-01 ExpMax= 2.19D+04 ExpMxC= 3.30D+03 IAcc=3 IRadAn=         5 AccDes= 0.00D+00
 Harris functional with IExCor=  402 and IRadAn=       5 diagonalized for initial guess.
 HarFok:  IExCor=  402 AccDes= 0.00D+00 IRadAn=         5 IDoV= 1 UseB2=F ITyADJ=14
 ICtDFT=  3500011 ScaDFX=  1.000000  1.000000  1.000000  1.000000
 FoFCou: FMM=F IPFlag=           0 FMFlag=      100000 FMFlg1=           0
         NFxFlg=           0 DoJE=T BraDBF=F KetDBF=T FulRan=T
         wScrn=  0.000000 ICntrl=       500 IOpCl=  0 I1Cent=   200000004 NGrid=           0
         NMat0=    1 NMatS0=      1 NMatT0=    0 NMatD0=    1 NMtDS0=    0 NMtDT0=    0
 Petite list used in FoFCou.
 Harris En= -1512.93860514025    
 JPrj=0 DoOrth=F DoCkMO=F.
 Leave Link  401 at Fri Nov  4 23:00:38 2022, MaxMem=   805306368 cpu:              27.6 elap:               4.1
 (Enter /home/wykgroup/appl/g16/l502.exe)
 Integral symmetry usage will be decided dynamically.
 Closed shell SCF:
 Using DIIS extrapolation, IDIIS=  1040.
 NGot=   805306368 LenX=   804825427 LenY=   804588745
 Requested convergence on RMS density matrix=1.00D-08 within  32 cycles.
 Requested convergence on MAX density matrix=1.00D-06.
 Requested convergence on             energy=1.00D-06.
 No special actions if energy rises.
 Fock matrices will be formed incrementally for  20 cycles.
 Integral accuracy reduced to 1.0D-05 until final iterations.

 Cycle   1  Pass 0  IDiag  1:
 FoFJK:  IHMeth= 1 ICntrl=       0 DoSepK=F KAlg= 0 I1Cent=           0 FoldK=F
 IRaf= 730000000 NMat=       1 IRICut=       1 DoRegI=T DoRafI=F ISym2E= 0 IDoP0=0 IntGTp=1.
 FoFCou: FMM=F IPFlag=           0 FMFlag=      100000 FMFlg1=           0
         NFxFlg=           0 DoJE=F BraDBF=F KetDBF=F FulRan=T
         wScrn=  0.000000 ICntrl=         0 IOpCl=  0 I1Cent=           0 NGrid=           0
         NMat0=    1 NMatS0=      1 NMatT0=    0 NMatD0=    1 NMtDS0=    0 NMtDT0=    0
 Symmetry not used in FoFCou.
 E= -1512.44289799721    
 DIIS: error= 4.24D-02 at cycle   1 NSaved=   1.
 NSaved= 1 IEnMin= 1 EnMin= -1512.44289799721     IErMin= 1 ErrMin= 4.24D-02
 ErrMax= 4.24D-02  0.00D+00 EMaxC= 1.00D-01 BMatC= 5.08D-01 BMatP= 5.08D-01
 IDIUse=3 WtCom= 5.76D-01 WtEn= 4.24D-01
 Coeff-Com:  0.100D+01
 Coeff-En:   0.100D+01
 Coeff:      0.100D+01
 Gap=     0.257 Goal=   None    Shift=    0.000
 GapD=    0.257 DampG=1.000 DampE=0.500 DampFc=0.5000 IDamp=-1.
 Damping current iteration by 5.00D-01
 RMSDP=5.99D-03 MaxDP=1.89D-01              OVMax= 2.21D-01

 Cycle   2  Pass 0  IDiag  1:
 RMSU=  2.55D-03    CP:  9.17D-01
 E= -1512.71044701280     Delta-E=       -0.267549015591 Rises=F Damp=T
 DIIS: error= 8.28D-03 at cycle   2 NSaved=   2.
 NSaved= 2 IEnMin= 2 EnMin= -1512.71044701280     IErMin= 2 ErrMin= 8.28D-03
 ErrMax= 8.28D-03  0.00D+00 EMaxC= 1.00D-01 BMatC= 3.52D-02 BMatP= 5.08D-01
 IDIUse=3 WtCom= 9.17D-01 WtEn= 8.28D-02
 Coeff-Com: -0.464D-01 0.105D+01
 Coeff-En:   0.000D+00 0.100D+01
 Coeff:     -0.426D-01 0.104D+01
 Gap=     0.064 Goal=   None    Shift=    0.000
 RMSDP=2.38D-03 MaxDP=1.11D-01 DE=-2.68D-01 OVMax= 2.72D-01

 Cycle   3  Pass 0  IDiag  1:
 RMSU=  1.71D-03    CP:  8.51D-01  1.44D+00
 E= -1512.95106289096     Delta-E=       -0.240615878167 Rises=F Damp=F
 DIIS: error= 1.31D-02 at cycle   3 NSaved=   3.
 NSaved= 3 IEnMin= 3 EnMin= -1512.95106289096     IErMin= 2 ErrMin= 8.28D-03
 ErrMax= 1.31D-02  0.00D+00 EMaxC= 1.00D-01 BMatC= 3.26D-02 BMatP= 3.52D-02
 IDIUse=3 WtCom= 8.69D-01 WtEn= 1.31D-01
 Coeff-Com: -0.797D-01 0.545D+00 0.535D+00
 Coeff-En:   0.000D+00 0.000D+00 0.100D+01
 Coeff:     -0.693D-01 0.473D+00 0.596D+00
 Gap=     0.063 Goal=   None    Shift=    0.000
 RMSDP=1.09D-03 MaxDP=6.09D-02 DE=-2.41D-01 OVMax= 3.20D-01

 Cycle   4  Pass 0  IDiag  1:
 RMSU=  9.37D-04    CP:  8.56D-01  1.46D+00  6.76D-01
 E= -1512.94222939848     Delta-E=        0.008833492484 Rises=F Damp=F
 DIIS: error= 1.72D-02 at cycle   4 NSaved=   4.
 NSaved= 4 IEnMin= 3 EnMin= -1512.95106289096     IErMin= 2 ErrMin= 8.28D-03
 ErrMax= 1.72D-02  0.00D+00 EMaxC= 1.00D-01 BMatC= 3.56D-02 BMatP= 3.26D-02
 IDIUse=3 WtCom= 8.28D-01 WtEn= 1.72D-01
 Coeff-Com: -0.489D-01 0.223D+00 0.483D+00 0.343D+00
 Coeff-En:   0.000D+00 0.000D+00 0.536D+00 0.464D+00
 Coeff:     -0.405D-01 0.185D+00 0.492D+00 0.364D+00
 Gap=     0.062 Goal=   None    Shift=    0.000
 RMSDP=7.17D-04 MaxDP=4.10D-02 DE= 8.83D-03 OVMax= 2.21D-01

 Cycle   5  Pass 0  IDiag  1:
 RMSU=  2.48D-04    CP:  8.56D-01  1.45D+00  7.62D-01  2.99D-01
 E= -1512.98918247436     Delta-E=       -0.046953075875 Rises=F Damp=F
 DIIS: error= 3.97D-03 at cycle   5 NSaved=   5.
 NSaved= 5 IEnMin= 5 EnMin= -1512.98918247436     IErMin= 5 ErrMin= 3.97D-03
 ErrMax= 3.97D-03  0.00D+00 EMaxC= 1.00D-01 BMatC= 2.04D-03 BMatP= 3.26D-02
 IDIUse=3 WtCom= 9.60D-01 WtEn= 3.97D-02
 Coeff-Com: -0.160D-01 0.570D-01 0.254D+00 0.237D+00 0.468D+00
 Coeff-En:   0.000D+00 0.000D+00 0.000D+00 0.160D-01 0.984D+00
 Coeff:     -0.154D-01 0.547D-01 0.244D+00 0.228D+00 0.489D+00
 Gap=     0.064 Goal=   None    Shift=    0.000
 RMSDP=1.92D-04 MaxDP=9.79D-03 DE=-4.70D-02 OVMax= 5.82D-02

 Cycle   6  Pass 0  IDiag  1:
 RMSU=  1.16D-04    CP:  8.56D-01  1.45D+00  7.62D-01  3.94D-01  5.00D-01
 E= -1512.99117225843     Delta-E=       -0.001989784074 Rises=F Damp=F
 DIIS: error= 1.80D-03 at cycle   6 NSaved=   6.
 NSaved= 6 IEnMin= 6 EnMin= -1512.99117225843     IErMin= 6 ErrMin= 1.80D-03
 ErrMax= 1.80D-03  0.00D+00 EMaxC= 1.00D-01 BMatC= 4.73D-04 BMatP= 2.04D-03
 IDIUse=3 WtCom= 9.82D-01 WtEn= 1.80D-02
 Coeff-Com: -0.438D-02 0.113D-01 0.101D+00 0.103D+00 0.353D+00 0.435D+00
 Coeff-En:   0.000D+00 0.000D+00 0.000D+00 0.000D+00 0.240D+00 0.760D+00
 Coeff:     -0.430D-02 0.111D-01 0.997D-01 0.101D+00 0.351D+00 0.441D+00
 Gap=     0.065 Goal=   None    Shift=    0.000
 RMSDP=8.04D-05 MaxDP=3.95D-03 DE=-1.99D-03 OVMax= 2.21D-02

 Cycle   7  Pass 0  IDiag  1:
 RMSU=  4.15D-05    CP:  8.55D-01  1.45D+00  7.72D-01  3.72D-01  6.03D-01
                    CP:  5.07D-01
 E= -1512.99176272511     Delta-E=       -0.000590466685 Rises=F Damp=F
 DIIS: error= 4.24D-04 at cycle   7 NSaved=   7.
 NSaved= 7 IEnMin= 7 EnMin= -1512.99176272511     IErMin= 7 ErrMin= 4.24D-04
 ErrMax= 4.24D-04  0.00D+00 EMaxC= 1.00D-01 BMatC= 5.57D-05 BMatP= 4.73D-04
 IDIUse=3 WtCom= 9.96D-01 WtEn= 4.24D-03
 Coeff-Com: -0.474D-03-0.127D-02 0.275D-01 0.300D-01 0.162D+00 0.302D+00
 Coeff-Com:  0.480D+00
 Coeff-En:   0.000D+00 0.000D+00 0.000D+00 0.000D+00 0.000D+00 0.793D-01
 Coeff-En:   0.921D+00
 Coeff:     -0.472D-03-0.126D-02 0.274D-01 0.299D-01 0.162D+00 0.301D+00
 Coeff:      0.481D+00
 Gap=     0.065 Goal=   None    Shift=    0.000
 RMSDP=2.46D-05 MaxDP=1.51D-03 DE=-5.90D-04 OVMax= 3.83D-03

 Cycle   8  Pass 0  IDiag  1:
 RMSU=  1.58D-05    CP:  8.55D-01  1.45D+00  7.72D-01  3.78D-01  6.00D-01
                    CP:  5.58D-01  5.99D-01
 E= -1512.99182777664     Delta-E=       -0.000065051525 Rises=F Damp=F
 DIIS: error= 1.19D-04 at cycle   8 NSaved=   8.
 NSaved= 8 IEnMin= 8 EnMin= -1512.99182777664     IErMin= 8 ErrMin= 1.19D-04
 ErrMax= 1.19D-04  0.00D+00 EMaxC= 1.00D-01 BMatC= 4.12D-06 BMatP= 5.57D-05
 IDIUse=3 WtCom= 9.99D-01 WtEn= 1.19D-03
 Coeff-Com:  0.106D-03-0.156D-02 0.533D-02 0.600D-02 0.554D-01 0.128D+00
 Coeff-Com:  0.279D+00 0.527D+00
 Coeff-En:   0.000D+00 0.000D+00 0.000D+00 0.000D+00 0.000D+00 0.000D+00
 Coeff-En:   0.000D+00 0.100D+01
 Coeff:      0.106D-03-0.155D-02 0.533D-02 0.599D-02 0.553D-01 0.128D+00
 Coeff:      0.279D+00 0.527D+00
 Gap=     0.065 Goal=   None    Shift=    0.000
 RMSDP=9.67D-06 MaxDP=6.44D-04 DE=-6.51D-05 OVMax= 1.45D-03

 Initial convergence to 1.0D-05 achieved.  Increase integral accuracy.
 Cycle   9  Pass 1  IDiag  1:
 E= -1512.99174015680     Delta-E=        0.000087619840 Rises=F Damp=F
 DIIS: error= 3.64D-04 at cycle   1 NSaved=   1.
 NSaved= 1 IEnMin= 1 EnMin= -1512.99174015680     IErMin= 1 ErrMin= 3.64D-04
 ErrMax= 3.64D-04  0.00D+00 EMaxC= 1.00D-01 BMatC= 1.10D-05 BMatP= 1.10D-05
 IDIUse=3 WtCom= 9.96D-01 WtEn= 3.64D-03
 Coeff-Com:  0.100D+01
 Coeff-En:   0.100D+01
 Coeff:      0.100D+01
 Gap=     0.065 Goal=   None    Shift=    0.000
 RMSDP=9.67D-06 MaxDP=6.44D-04 DE= 8.76D-05 OVMax= 1.51D-03

 Cycle  10  Pass 1  IDiag  1:
 RMSU=  3.25D-04    CP:  1.00D+00
 E= -1512.99174352757     Delta-E=       -0.000003370770 Rises=F Damp=F
 DIIS: error= 1.27D-04 at cycle   2 NSaved=   2.
 NSaved= 2 IEnMin= 2 EnMin= -1512.99174352757     IErMin= 2 ErrMin= 1.27D-04
 ErrMax= 1.27D-04  0.00D+00 EMaxC= 1.00D-01 BMatC= 4.36D-06 BMatP= 1.10D-05
 IDIUse=3 WtCom= 9.99D-01 WtEn= 1.27D-03
 Coeff-Com:  0.325D+00 0.675D+00
 Coeff-En:   0.278D+00 0.722D+00
 Coeff:      0.325D+00 0.675D+00
 Gap=     0.065 Goal=   None    Shift=    0.000
 RMSDP=1.36D-05 MaxDP=8.41D-04 DE=-3.37D-06 OVMax= 3.15D-03

 Cycle  11  Pass 1  IDiag  1:
 RMSU=  1.36D-05    CP:  1.00D+00  1.00D+00
 E= -1512.99173930601     Delta-E=        0.000004221556 Rises=F Damp=F
 DIIS: error= 1.67D-04 at cycle   3 NSaved=   3.
 NSaved= 3 IEnMin= 2 EnMin= -1512.99174352757     IErMin= 2 ErrMin= 1.27D-04
 ErrMax= 1.67D-04  0.00D+00 EMaxC= 1.00D-01 BMatC= 7.49D-06 BMatP= 4.36D-06
 IDIUse=3 WtCom= 4.36D-01 WtEn= 5.64D-01
 Coeff-Com:  0.790D-02 0.565D+00 0.427D+00
 Coeff-En:   0.000D+00 0.602D+00 0.398D+00
 Coeff:      0.345D-02 0.586D+00 0.411D+00
 Gap=     0.065 Goal=   None    Shift=    0.000
 RMSDP=7.81D-06 MaxDP=5.41D-04 DE= 4.22D-06 OVMax= 2.15D-03

 Cycle  12  Pass 1  IDiag  1:
 RMSU=  2.20D-06    CP:  1.00D+00  1.01D+00  4.56D-01
 E= -1512.99174857804     Delta-E=       -0.000009272026 Rises=F Damp=F
 DIIS: error= 3.30D-05 at cycle   4 NSaved=   4.
 NSaved= 4 IEnMin= 4 EnMin= -1512.99174857804     IErMin= 4 ErrMin= 3.30D-05
 ErrMax= 3.30D-05  0.00D+00 EMaxC= 1.00D-01 BMatC= 2.81D-07 BMatP= 4.36D-06
 IDIUse=1 WtCom= 1.00D+00 WtEn= 0.00D+00
 Coeff-Com: -0.255D-02 0.395D+00 0.284D+00 0.324D+00
 Coeff:     -0.255D-02 0.395D+00 0.284D+00 0.324D+00
 Gap=     0.065 Goal=   None    Shift=    0.000
 RMSDP=1.82D-06 MaxDP=1.13D-04 DE=-9.27D-06 OVMax= 4.30D-04

 Cycle  13  Pass 1  IDiag  1:
 RMSU=  6.08D-07    CP:  1.00D+00  1.01D+00  4.34D-01  2.33D-01
 E= -1512.99174889114     Delta-E=       -0.000000313096 Rises=F Damp=F
 DIIS: error= 9.63D-06 at cycle   5 NSaved=   5.
 NSaved= 5 IEnMin= 5 EnMin= -1512.99174889114     IErMin= 5 ErrMin= 9.63D-06
 ErrMax= 9.63D-06  0.00D+00 EMaxC= 1.00D-01 BMatC= 1.29D-08 BMatP= 2.81D-07
 IDIUse=1 WtCom= 1.00D+00 WtEn= 0.00D+00
 Coeff-Com: -0.221D-02 0.244D+00 0.174D+00 0.231D+00 0.353D+00
 Coeff:     -0.221D-02 0.244D+00 0.174D+00 0.231D+00 0.353D+00
 Gap=     0.065 Goal=   None    Shift=    0.000
 RMSDP=4.28D-07 MaxDP=2.81D-05 DE=-3.13D-07 OVMax= 1.12D-04

 Cycle  14  Pass 1  IDiag  1:
 RMSU=  2.02D-07    CP:  1.00D+00  1.01D+00  4.34D-01  3.39D-01  5.17D-01
 E= -1512.99174890748     Delta-E=       -0.000000016341 Rises=F Damp=F
 DIIS: error= 1.51D-06 at cycle   6 NSaved=   6.
 NSaved= 6 IEnMin= 6 EnMin= -1512.99174890748     IErMin= 6 ErrMin= 1.51D-06
 ErrMax= 1.51D-06  0.00D+00 EMaxC= 1.00D-01 BMatC= 6.04D-10 BMatP= 1.29D-08
 IDIUse=1 WtCom= 1.00D+00 WtEn= 0.00D+00
 Coeff-Com: -0.123D-02 0.129D+00 0.918D-01 0.128D+00 0.228D+00 0.423D+00
 Coeff:     -0.123D-02 0.129D+00 0.918D-01 0.128D+00 0.228D+00 0.423D+00
 Gap=     0.065 Goal=   None    Shift=    0.000
 RMSDP=9.17D-08 MaxDP=3.29D-06 DE=-1.63D-08 OVMax= 1.85D-05

 Cycle  15  Pass 1  IDiag  1:
 RMSU=  7.59D-08    CP:  1.00D+00  1.01D+00  4.35D-01  3.36D-01  5.41D-01
                    CP:  7.65D-01
 E= -1512.99174890811     Delta-E=       -0.000000000633 Rises=F Damp=F
 DIIS: error= 5.10D-07 at cycle   7 NSaved=   7.
 NSaved= 7 IEnMin= 7 EnMin= -1512.99174890811     IErMin= 7 ErrMin= 5.10D-07
 ErrMax= 5.10D-07  0.00D+00 EMaxC= 1.00D-01 BMatC= 8.05D-11 BMatP= 6.04D-10
 IDIUse=1 WtCom= 1.00D+00 WtEn= 0.00D+00
 Coeff-Com: -0.401D-03 0.392D-01 0.275D-01 0.419D-01 0.800D-01 0.278D+00
 Coeff-Com:  0.533D+00
 Coeff:     -0.401D-03 0.392D-01 0.275D-01 0.419D-01 0.800D-01 0.278D+00
 Coeff:      0.533D+00
 Gap=     0.065 Goal=   None    Shift=    0.000
 RMSDP=3.15D-08 MaxDP=1.35D-06 DE=-6.33D-10 OVMax= 6.26D-06

 Cycle  16  Pass 1  IDiag  1:
 RMSU=  2.49D-08    CP:  1.00D+00  1.01D+00  4.35D-01  3.40D-01  5.38D-01
                    CP:  8.24D-01  8.50D-01
 E= -1512.99174890820     Delta-E=       -0.000000000087 Rises=F Damp=F
 DIIS: error= 1.51D-07 at cycle   8 NSaved=   8.
 NSaved= 8 IEnMin= 8 EnMin= -1512.99174890820     IErMin= 8 ErrMin= 1.51D-07
 ErrMax= 1.51D-07  0.00D+00 EMaxC= 1.00D-01 BMatC= 8.37D-12 BMatP= 8.05D-11
 IDIUse=1 WtCom= 1.00D+00 WtEn= 0.00D+00
 Coeff-Com:  0.538D-04-0.712D-02-0.533D-02-0.507D-02-0.795D-02 0.682D-01
 Coeff-Com:  0.283D+00 0.675D+00
 Coeff:      0.538D-04-0.712D-02-0.533D-02-0.507D-02-0.795D-02 0.682D-01
 Coeff:      0.283D+00 0.675D+00
 Gap=     0.065 Goal=   None    Shift=    0.000
 RMSDP=1.18D-08 MaxDP=5.62D-07 DE=-8.73D-11 OVMax= 2.20D-06

 Cycle  17  Pass 1  IDiag  1:
 RMSU=  1.00D-08    CP:  1.00D+00  1.01D+00  4.35D-01  3.40D-01  5.43D-01
                    CP:  8.34D-01  8.72D-01  8.36D-01
 E= -1512.99174890825     Delta-E=       -0.000000000052 Rises=F Damp=F
 DIIS: error= 5.26D-08 at cycle   9 NSaved=   9.
 NSaved= 9 IEnMin= 9 EnMin= -1512.99174890825     IErMin= 9 ErrMin= 5.26D-08
 ErrMax= 5.26D-08  0.00D+00 EMaxC= 1.00D-01 BMatC= 1.47D-12 BMatP= 8.37D-12
 IDIUse=1 WtCom= 1.00D+00 WtEn= 0.00D+00
 Coeff-Com:  0.788D-04-0.876D-02-0.635D-02-0.779D-02-0.145D-01 0.888D-02
 Coeff-Com:  0.975D-01 0.386D+00 0.545D+00
 Coeff:      0.788D-04-0.876D-02-0.635D-02-0.779D-02-0.145D-01 0.888D-02
 Coeff:      0.975D-01 0.386D+00 0.545D+00
 Gap=     0.065 Goal=   None    Shift=    0.000
 RMSDP=4.45D-09 MaxDP=2.02D-07 DE=-5.18D-11 OVMax= 6.01D-07

 SCF Done:  E(RB3LYP) =  -1512.99174891     A.U. after   17 cycles
            NFock= 17  Conv=0.45D-08     -V/T= 2.0073
 KE= 1.502083830259D+03 PE=-9.164024006563D+03 EE= 3.331245338718D+03
 Leave Link  502 at Fri Nov  4 23:02:40 2022, MaxMem=   805306368 cpu:             843.1 elap:             121.3
 (Enter /home/wykgroup/appl/g16/l508.exe)
 QCSCF skips out because SCF is already converged.
 Leave Link  508 at Fri Nov  4 23:02:40 2022, MaxMem=   805306368 cpu:               0.0 elap:               0.0
 (Enter /home/wykgroup/appl/g16/l601.exe)
 Copying SCF densities to generalized density rwf, IOpCl= 0 IROHF=0.

 **********************************************************************

            Population analysis using the SCF Density.

 **********************************************************************

 Orbital symmetries:
       Occupied  (A) (A) (A) (A) (A) (A) (A) (A) (A) (A) (A) (A)
                 (A) (A) (A) (A) (A) (A) (A) (A) (A) (A) (A) (A)
                 (A) (A) (A) (A) (A) (A) (A) (A) (A) (A) (A) (A)
                 (A) (A) (A) (A) (A) (A) (A) (A) (A) (A) (A) (A)
                 (A) (A) (A) (A) (A) (A) (A) (A) (A) (A) (A) (A)
                 (A) (A) (A) (A) (A) (A) (A) (A) (A) (A) (A) (A)
                 (A) (A) (A) (A) (A) (A) (A) (A) (A) (A) (A) (A)
                 (A) (A) (A) (A) (A) (A) (A) (A) (A) (A) (A) (A)
                 (A) (A) (A) (A) (A) (A) (A)
       Virtual   (A) (A) (A) (A) (A) (A) (A) (A) (A) (A) (A) (A)
                 (A) (A) (A) (A) (A) (A) (A) (A) (A) (A) (A) (A)
                 (A) (A) (A) (A) (A) (A) (A) (A) (A) (A) (A) (A)
                 (A) (A) (A) (A) (A) (A) (A) (A) (A) (A) (A) (A)
                 (A) (A) (A) (A) (A) (A) (A) (A) (A) (A) (A) (A)
                 (A) (A) (A) (A) (A) (A) (A) (A) (A) (A) (A) (A)
                 (A) (A) (A) (A) (A) (A) (A) (A) (A) (A) (A) (A)
                 (A) (A) (A) (A) (A) (A) (A) (A) (A) (A) (A) (A)
                 (A) (A) (A) (A) (A) (A) (A) (A) (A) (A) (A) (A)
                 (A) (A) (A) (A) (A) (A) (A) (A) (A) (A) (A) (A)
                 (A) (A) (A) (A) (A) (A) (A) (A) (A) (A) (A) (A)
                 (A) (A) (A) (A) (A) (A) (A) (A) (A) (A) (A) (A)
                 (A) (A) (A) (A) (A) (A) (A) (A) (A) (A) (A) (A)
                 (A) (A) (A) (A) (A) (A) (A) (A) (A) (A) (A) (A)
                 (A) (A) (A) (A) (A) (A) (A) (A) (A) (A) (A) (A)
                 (A) (A) (A) (A) (A) (A) (A) (A) (A) (A) (A) (A)
                 (A) (A) (A) (A) (A) (A) (A) (A) (A) (A) (A) (A)
                 (A) (A) (A) (A) (A) (A) (A) (A) (A) (A) (A) (A)
                 (A) (A) (A) (A) (A) (A) (A) (A) (A) (A) (A) (A)
                 (A) (A) (A) (A) (A) (A) (A) (A) (A) (A) (A) (A)
                 (A) (A) (A) (A) (A) (A) (A) (A) (A) (A) (A) (A)
                 (A) (A) (A) (A) (A) (A) (A) (A) (A) (A) (A) (A)
                 (A) (A) (A) (A) (A) (A) (A) (A) (A) (A) (A) (A)
                 (A) (A) (A) (A) (A) (A) (A) (A) (A) (A) (A) (A)
                 (A) (A) (A) (A) (A) (A) (A) (A) (A) (A) (A) (A)
                 (A) (A) (A) (A) (A) (A) (A) (A) (A) (A) (A) (A)
                 (A) (A) (A) (A) (A) (A) (A) (A) (A) (A) (A) (A)
                 (A) (A) (A) (A) (A) (A) (A) (A) (A) (A) (A) (A)
                 (A) (A) (A) (A) (A) (A) (A) (A) (A) (A) (A) (A)
                 (A) (A) (A) (A) (A) (A) (A) (A) (A) (A) (A) (A)
                 (A) (A) (A) (A) (A) (A) (A) (A) (A) (A) (A) (A)
                 (A) (A) (A) (A) (A) (A) (A) (A) (A) (A) (A)
 The electronic state is 1-A.
 Alpha  occ. eigenvalues --  -88.86855 -10.21080 -10.20554 -10.20195 -10.20063
 Alpha  occ. eigenvalues --  -10.20063 -10.20000 -10.19996 -10.19993 -10.19946
 Alpha  occ. eigenvalues --  -10.19942 -10.19897 -10.19895 -10.19890 -10.19879
[...]
    44  H   -0.015853  -0.025524   0.342918  -0.044750   0.004105   0.000912
    45  H   -0.000245   0.001518  -0.035722   0.355628  -0.034199   0.001803
    46  H    0.000012   0.000770   0.004119  -0.043224   0.355985  -0.031663
              25         26         27         28         29         30
     1  C   -0.000067   0.000006  -0.000067  -0.000000  -0.000000  -0.000000
     2  S    0.004475   0.000114   0.004475   0.000022  -0.000000  -0.000000
     3  C   -0.010204  -0.100039  -0.010205  -0.001154   0.000020   0.000020
     4  C   -0.063331  -0.027926   0.395175   0.013236  -0.001840  -0.000004
     5  C    0.000192   0.016950  -0.019142  -0.000236   0.000053  -0.000002
     6  C    0.000014  -0.002254  -0.045668   0.000082  -0.000305   0.000001
     7  C   -0.000042   0.019907  -0.068063  -0.002357   0.015909  -0.000029
     8  C    0.014784  -0.002061   0.295027  -0.092518   0.065741  -0.002488
     9  C   -0.002308  -0.094111   0.062853  -0.008902   0.279519   0.016401
    10  C   -0.000028  -0.002478   0.015327   0.020098  -0.068401  -0.000020
    11  C    0.000001   0.000072  -0.000267  -0.002333  -0.046738   0.000019
    12  C   -0.000002  -0.000215   0.000044   0.017019  -0.015026   0.000364
    13  C    0.000006   0.012870  -0.001732  -0.032071   0.416513  -0.056126
    14  C    0.000036  -0.001670   0.000036  -0.121351   0.004647   0.004647
    15  C   -0.001732   0.012870   0.000006  -0.032071  -0.056126   0.416513
    16  C    0.000044  -0.000215  -0.000002   0.017019   0.000364  -0.015026
    17  C   -0.000267   0.000072   0.000001  -0.002333   0.000019  -0.046738
    18  C    0.015327  -0.002478  -0.000028   0.020098  -0.000020  -0.068401
    19  C    0.062854  -0.094111  -0.002308  -0.008901   0.016401   0.279519
    20  C    0.295027  -0.002061   0.014784  -0.092518  -0.002488   0.065741
    21  C   -0.068063   0.019907  -0.000042  -0.002357  -0.000029   0.015909
    22  C   -0.045667  -0.002254   0.000014   0.000082   0.000001  -0.000305
    23  C   -0.019141   0.016950   0.000192  -0.000236  -0.000002   0.000053
    24  C    0.395178  -0.027926  -0.063331   0.013236  -0.000004  -0.001840
    25  C    5.316309   0.238887  -0.068622   0.002962   0.021149  -0.112630
    26  C    0.238887   5.565320   0.238888   0.191345   0.004171   0.004171
    27  C   -0.068622   0.238888   5.316315   0.002961  -0.112630   0.021148
    28  C    0.002962   0.191345   0.002961   5.588682   0.237221   0.237221
    29  C    0.021149   0.004171  -0.112630   0.237221   5.316899  -0.073425
    30  C   -0.112630   0.004171   0.021148   0.237221  -0.073425   5.316899
    31  H    0.000001  -0.000000   0.000001   0.000000   0.000000   0.000000
    32  H   -0.000071  -0.000007   0.000009  -0.000000   0.000000  -0.000000
    33  H    0.000009  -0.000007  -0.000071  -0.000000  -0.000000   0.000000
    34  H    0.000001  -0.000169   0.003591   0.000002  -0.000000   0.000000
    35  H   -0.000001   0.000032   0.001752  -0.000001   0.000003  -0.000000
    36  H    0.000002  -0.000244   0.004143   0.000033  -0.000298   0.000000
    37  H    0.000000   0.000036  -0.000340  -0.000246   0.004396   0.000002
    38  H   -0.000000  -0.000001   0.000002   0.000034   0.001752  -0.000001
    39  H    0.000000   0.000003  -0.000001  -0.000170   0.003403   0.000002
    40  H   -0.000000   0.000026  -0.000000   0.001177   0.003047   0.003047
    41  H   -0.000001   0.000003   0.000000  -0.000170   0.000002   0.003403
    42  H    0.000002  -0.000001  -0.000000   0.000034  -0.000001   0.001752
    43  H   -0.000340   0.000036   0.000000  -0.000246   0.000002   0.004396
    44  H    0.004143  -0.000244   0.000002   0.000033   0.000000  -0.000298
    45  H    0.001752   0.000032  -0.000001  -0.000001  -0.000000   0.000003
    46  H    0.003590  -0.000169   0.000001   0.000002   0.000000  -0.000000
              31         32         33         34         35         36
     1  C    0.361846   0.367821   0.367822  -0.001330   0.000000   0.000000
     2  S   -0.030749  -0.043356  -0.043349   0.016837   0.000031   0.000000
     3  C    0.003190  -0.005069  -0.005067  -0.013374  -0.000229   0.000014
     4  C    0.000021  -0.000640   0.003879  -0.031661   0.001803   0.000912
     5  C   -0.000021   0.000026   0.002143   0.355986  -0.034199   0.004105
     6  C    0.000000   0.000004  -0.000130  -0.043225   0.355628  -0.044750
     7  C    0.000000  -0.000000   0.000000   0.004119  -0.035722   0.342918
     8  C   -0.000000  -0.000000   0.000001   0.000770   0.001518  -0.025524
     9  C    0.000000  -0.000000  -0.000000   0.000012  -0.000245  -0.015853
    10  C   -0.000000   0.000000   0.000000  -0.000000   0.000007   0.005803
    11  C    0.000000   0.000000  -0.000000  -0.000000  -0.000000   0.000413
    12  C    0.000000  -0.000000  -0.000000   0.000000  -0.000000  -0.000008
    13  C    0.000000   0.000000  -0.000000  -0.000000   0.000000  -0.000004
    14  C   -0.000000   0.000000   0.000000   0.000000   0.000000   0.000000
    15  C    0.000000  -0.000000   0.000000   0.000000   0.000000  -0.000000
    16  C    0.000000  -0.000000  -0.000000  -0.000000   0.000000  -0.000000
    17  C    0.000000  -0.000000   0.000000   0.000000  -0.000000   0.000000
    18  C   -0.000000   0.000000   0.000000  -0.000000   0.000000  -0.000000
    19  C    0.000000  -0.000000  -0.000000  -0.000000   0.000000  -0.000000
    20  C   -0.000000   0.000001  -0.000000   0.000000  -0.000000   0.000000
    21  C    0.000000   0.000000  -0.000000   0.000000   0.000000   0.000000
    22  C    0.000000  -0.000130   0.000004  -0.000000   0.000000  -0.000000
    23  C   -0.000021   0.002147   0.000026   0.000002  -0.000000  -0.000000
    24  C    0.000021   0.003881  -0.000640   0.000370   0.000003  -0.000000
    25  C    0.000001  -0.000071   0.000009   0.000001  -0.000001   0.000002
    26  C   -0.000000  -0.000007  -0.000007  -0.000169   0.000032  -0.000244
    27  C    0.000001   0.000009  -0.000071   0.003591   0.001752   0.004143
    28  C    0.000000  -0.000000  -0.000000   0.000002  -0.000001   0.000033
    29  C    0.000000   0.000000  -0.000000  -0.000000   0.000003  -0.000298
    30  C    0.000000  -0.000000   0.000000   0.000000  -0.000000   0.000000
    31  H    0.537016  -0.025514  -0.025514   0.000062  -0.000000  -0.000000
    32  H   -0.025514   0.550692  -0.035830   0.000035   0.000000   0.000000
    33  H   -0.025514  -0.035830   0.550686   0.000124  -0.000003  -0.000000
    34  H    0.000062   0.000035   0.000124   0.548879  -0.004442  -0.000197
    35  H   -0.000000   0.000000  -0.000003  -0.004442   0.586233  -0.004218
    36  H   -0.000000   0.000000  -0.000000  -0.000197  -0.004218   0.591998
    37  H   -0.000000   0.000000   0.000000  -0.000000   0.000002   0.006667
    38  H   -0.000000  -0.000000   0.000000  -0.000000   0.000000   0.000002
    39  H    0.000000  -0.000000  -0.000000   0.000000  -0.000000  -0.000000
    40  H    0.000000  -0.000000  -0.000000   0.000000  -0.000000  -0.000000
    41  H    0.000000  -0.000000  -0.000000   0.000000   0.000000  -0.000000
    42  H   -0.000000   0.000000  -0.000000   0.000000  -0.000000   0.000000
    43  H   -0.000000   0.000000   0.000000  -0.000000   0.000000  -0.000000
    44  H   -0.000000  -0.000000   0.000000  -0.000000   0.000000  -0.000000
    45  H   -0.000000  -0.000003   0.000000  -0.000000  -0.000000   0.000000
    46  H    0.000063   0.000125   0.000035   0.000004  -0.000000  -0.000000
              37         38         39         40         41         42
     1  C   -0.000000   0.000000  -0.000000  -0.000000  -0.000000   0.000000
     2  S    0.000000  -0.000000   0.000000   0.000000   0.000000  -0.000000
     3  C    0.000000   0.000000   0.000000   0.000000   0.000000   0.000000
     4  C   -0.000004   0.000000  -0.000000  -0.000000   0.000000   0.000000
     5  C   -0.000006  -0.000000   0.000000   0.000000  -0.000000   0.000000
     6  C    0.000393  -0.000000  -0.000000   0.000000   0.000000  -0.000000
     7  C    0.006000   0.000008  -0.000000  -0.000000  -0.000000   0.000000
     8  C   -0.015721  -0.000233   0.000015   0.000002  -0.000000   0.000000
     9  C   -0.024431   0.001496   0.000790  -0.000216  -0.000000  -0.000000
    10  C    0.342371  -0.034568   0.004238   0.000014   0.000000   0.000000
    11  C   -0.045305   0.354576  -0.042739   0.000259  -0.000000   0.000000
    12  C    0.004222  -0.033354   0.355881  -0.007120  -0.000004  -0.000000
    13  C    0.000890   0.001656  -0.041152  -0.039394   0.000370   0.000004
    14  C    0.000008  -0.000254  -0.007820   0.349770  -0.007820  -0.000254
    15  C   -0.000000   0.000004   0.000370  -0.039394  -0.041152   0.001656
    16  C    0.000000  -0.000000  -0.000004  -0.007120   0.355881  -0.033354
    17  C   -0.000000   0.000000  -0.000000   0.000259  -0.042739   0.354576
    18  C    0.000000   0.000000   0.000000   0.000014   0.004238  -0.034568
    19  C   -0.000000  -0.000000  -0.000000  -0.000216   0.000790   0.001496
    20  C   -0.000000   0.000000  -0.000000   0.000002   0.000015  -0.000233
    21  C   -0.000000   0.000000  -0.000000  -0.000000  -0.000000   0.000008
    22  C    0.000000  -0.000000   0.000000   0.000000  -0.000000  -0.000000
    23  C   -0.000000   0.000000  -0.000000   0.000000   0.000000  -0.000000
    24  C   -0.000000   0.000000   0.000000  -0.000000  -0.000000   0.000000
    25  C    0.000000  -0.000000   0.000000  -0.000000  -0.000001   0.000002
    26  C    0.000036  -0.000001   0.000003   0.000026   0.000003  -0.000001
    27  C   -0.000340   0.000002  -0.000001  -0.000000   0.000000  -0.000000
    28  C   -0.000246   0.000034  -0.000170   0.001177  -0.000170   0.000034
    29  C    0.004396   0.001752   0.003403   0.003047   0.000002  -0.000001
    30  C    0.000002  -0.000001   0.000002   0.003047   0.003403   0.001752
    31  H   -0.000000  -0.000000   0.000000   0.000000   0.000000  -0.000000
    32  H    0.000000  -0.000000  -0.000000  -0.000000  -0.000000   0.000000
    33  H    0.000000   0.000000  -0.000000  -0.000000  -0.000000  -0.000000
    34  H   -0.000000  -0.000000   0.000000   0.000000   0.000000   0.000000
    35  H    0.000002   0.000000  -0.000000  -0.000000   0.000000  -0.000000
    36  H    0.006667   0.000002  -0.000000  -0.000000  -0.000000   0.000000
    37  H    0.590356  -0.004301  -0.000208  -0.000000   0.000000   0.000000
    38  H   -0.004301   0.585251  -0.004607  -0.000013  -0.000000  -0.000000
    39  H   -0.000208  -0.004607   0.593716   0.006546   0.000003  -0.000000
    40  H   -0.000000  -0.000013   0.006546   0.591410   0.006546  -0.000013
    41  H    0.000000  -0.000000   0.000003   0.006546   0.593716  -0.004607
    42  H    0.000000  -0.000000  -0.000000  -0.000013  -0.004607   0.585251
    43  H   -0.000000   0.000000   0.000000  -0.000000  -0.000208  -0.004301
    44  H   -0.000000   0.000000  -0.000000  -0.000000  -0.000000   0.000002
    45  H    0.000000  -0.000000   0.000000  -0.000000  -0.000000   0.000000
    46  H   -0.000000   0.000000   0.000000   0.000000   0.000000  -0.000000
              43         44         45         46
     1  C   -0.000000   0.000000   0.000000  -0.001331
     2  S    0.000000   0.000000   0.000031   0.016838
     3  C    0.000000   0.000014  -0.000229  -0.013373
     4  C   -0.000000  -0.000000   0.000003   0.000370
     5  C   -0.000000  -0.000000  -0.000000   0.000002
     6  C    0.000000  -0.000000   0.000000  -0.000000
     7  C   -0.000000   0.000000   0.000000   0.000000
     8  C   -0.000000   0.000000  -0.000000   0.000000
     9  C   -0.000000  -0.000000   0.000000  -0.000000
    10  C    0.000000  -0.000000   0.000000  -0.000000
    11  C   -0.000000   0.000000  -0.000000   0.000000
    12  C    0.000000  -0.000000   0.000000  -0.000000
    13  C   -0.000000  -0.000000   0.000000   0.000000
    14  C    0.000008   0.000000   0.000000   0.000000
    15  C    0.000890  -0.000004   0.000000  -0.000000
    16  C    0.004222  -0.000008  -0.000000   0.000000
    17  C   -0.045305   0.000413  -0.000000  -0.000000
    18  C    0.342371   0.005803   0.000007  -0.000000
    19  C   -0.024431  -0.015853  -0.000245   0.000012
    20  C   -0.015721  -0.025524   0.001518   0.000770
    21  C    0.006000   0.342918  -0.035722   0.004119
    22  C    0.000393  -0.044750   0.355628  -0.043224
    23  C   -0.000006   0.004105  -0.034199   0.355985
    24  C   -0.000004   0.000912   0.001803  -0.031663
    25  C   -0.000340   0.004143   0.001752   0.003590
    26  C    0.000036  -0.000244   0.000032  -0.000169
    27  C    0.000000   0.000002  -0.000001   0.000001
    28  C   -0.000246   0.000033  -0.000001   0.000002
    29  C    0.000002   0.000000  -0.000000   0.000000
    30  C    0.004396  -0.000298   0.000003  -0.000000
    31  H   -0.000000  -0.000000  -0.000000   0.000063
    32  H    0.000000  -0.000000  -0.000003   0.000125
    33  H    0.000000   0.000000   0.000000   0.000035
    34  H   -0.000000  -0.000000  -0.000000   0.000004
    35  H    0.000000   0.000000  -0.000000  -0.000000
    36  H   -0.000000  -0.000000   0.000000  -0.000000
    37  H   -0.000000  -0.000000   0.000000  -0.000000
    38  H    0.000000   0.000000  -0.000000   0.000000
    39  H    0.000000  -0.000000   0.000000   0.000000
    40  H   -0.000000  -0.000000  -0.000000   0.000000
    41  H   -0.000208  -0.000000  -0.000000   0.000000
    42  H   -0.004301   0.000002   0.000000  -0.000000
    43  H    0.590356   0.006667   0.000002  -0.000000
    44  H    0.006667   0.591998  -0.004218  -0.000197
    45  H    0.000002  -0.004218   0.586233  -0.004442
    46  H   -0.000000  -0.000197  -0.004442   0.548883
 Mulliken charges:
               1
     1  C   -0.580810
     2  S    0.089765
     3  C   -0.301833
     4  C    0.142807
     5  C   -0.217633
     6  C   -0.123820
     7  C   -0.238668
     8  C    0.094211
     9  C    0.097982
    10  C   -0.239198
    11  C   -0.127819
    12  C   -0.201099
    13  C    0.174874
    14  C   -0.330881
    15  C    0.174874
    16  C   -0.201099
    17  C   -0.127819
    18  C   -0.239198
    19  C    0.097981
    20  C    0.094211
    21  C   -0.238668
    22  C   -0.123821
    23  C   -0.217638
    24  C    0.142814
    25  C    0.015771
    26  C    0.017968
    27  C    0.015770
    28  C    0.037571
    29  C   -0.013896
    30  C   -0.013895
    31  H    0.179598
    32  H    0.185881
    33  H    0.185882
    34  H    0.163605
    35  H    0.132047
    36  H    0.134083
    37  H    0.135218
    38  H    0.132550
    39  H    0.131732
    40  H    0.131369
    41  H    0.131732
    42  H    0.132550
    43  H    0.135218
    44  H    0.134083
    45  H    0.132047
    46  H    0.163602
 Sum of Mulliken charges =  -0.00000
 Mulliken charges with hydrogens summed into heavy atoms:
               1
     1  C   -0.029449
     2  S    0.089765
     3  C   -0.301833
     4  C    0.142807
     5  C   -0.054029
     6  C    0.008226
     7  C   -0.104585
     8  C    0.094211
     9  C    0.097982
    10  C   -0.103980
    11  C    0.004731
    12  C   -0.069367
    13  C    0.174874
    14  C   -0.199512
    15  C    0.174874
    16  C   -0.069366
    17  C    0.004731
    18  C   -0.103980
    19  C    0.097981
    20  C    0.094211
    21  C   -0.104585
    22  C    0.008226
    23  C   -0.054036
    24  C    0.142814
    25  C    0.015771
    26  C    0.017968
    27  C    0.015770
    28  C    0.037571
    29  C   -0.013896
    30  C   -0.013895
 Electronic spatial extent (au):  <R**2>=          11270.4141
 Charge=             -0.0000 electrons
 Dipole moment (field-independent basis, Debye):
    X=             -1.3128    Y=              0.0002    Z=              1.4085  Tot=              1.9254
 Quadrupole moment (field-independent basis, Debye-Ang):
   XX=           -159.0507   YY=           -152.4854   ZZ=           -182.4208
   XY=              0.0013   XZ=              6.4555   YZ=              0.0001
 Traceless Quadrupole moment (field-independent basis, Debye-Ang):
   XX=              5.6016   YY=             12.1669   ZZ=            -17.7685
   XY=              0.0013   XZ=              6.4555   YZ=              0.0001
 Octapole moment (field-independent basis, Debye-Ang**2):
  XXX=            -45.6519  YYY=              0.0007  ZZZ=              3.9928  XYY=            -11.2996
  XXY=              0.0071  XXZ=             44.4843  XZZ=             19.2317  YZZ=             -0.0005
  YYZ=             -0.0766  XYZ=              0.0001
 Hexadecapole moment (field-independent basis, Debye-Ang**3):
 XXXX=          -8489.9792 YYYY=          -5470.6007 ZZZZ=           -328.9751 XXXY=              0.0373
 XXXZ=            193.1050 YYYX=              0.0038 YYYZ=             -0.0027 ZZZX=             21.3910
 ZZZY=              0.0001 XXYY=          -2345.8250 XXZZ=          -1641.6686 YYZZ=          -1173.7363
 XXYZ=              0.0046 YYXZ=             -8.5210 ZZXY=             -0.0022
 N-N= 2.790992993895D+03 E-N=-9.109592241729D+03  KE= 1.500925040336D+03
 No NMR shielding tensors so no spin-rotation constants.
 Leave Link  601 at Fri Nov  4 23:19:52 2022, MaxMem=   805306368 cpu:               2.8 elap:               0.5
 (Enter /home/wykgroup/appl/g16/l9999.exe)
 1\1\GINC-NODE83\FOpt\RB3LYP\6-31G(d)\C29H16S1\WYKGROUP\04-Nov-2022\0\\
 #p b3lyp/6-31g(d) opt SCF=XQC\\Gaussian input prepared by ASE\\0,1\C,5
 .3637248057,-0.7722560189,0.6594316608\S,4.6992670061,-0.7679375246,-1
 .054145982\C,2.9500601607,-0.4857882343,-0.7278463478\C,2.0846011374,-
 1.591296212,-0.54185607\C,2.558300092,-2.9347351536,-0.5984192262\C,1.
 7055282449,-3.9911586347,-0.4032478801\C,0.3409608368,-3.7728100431,-0
 .1435580402\C,-0.1916514562,-2.4921999172,-0.0795952977\C,-1.619819559
 6,-2.2606875807,0.1870758624\C,-2.5215927882,-3.300528033,0.3861891171
 \C,-3.8887668619,-3.0686599211,0.6427513825\C,-4.375789738,-1.78763195
 32,0.7035745915\C,-3.5037100004,-0.6798890331,0.507355166\C,-3.9823796
 368,0.6323747473,0.5644409694\C,-3.139860974,1.7314030846,0.3728200052
 \C,-3.6441398371,3.0611380479,0.4330471289\C,-2.8028893076,4.127643112
 2,0.241245398\C,-1.4324059184,3.9177178653,-0.0165503949\C,-0.87982489
 77,2.6434092658,-0.086556634\C,0.5486720586,2.4141036943,-0.3533725568
 \C,1.4333066637,3.4664581453,-0.5475420514\C,2.797265553,3.2441210486,
 -0.8070436102\C,3.2982107494,1.9689097386,-0.8721062949\C,2.4512730272
 ,0.8387624794,-0.6774758983\C,1.047965814,1.0644925084,-0.4152660466\C
 ,0.1777612394,-0.0390054525,-0.2177383197\C,0.6814807052,-1.3642990438
 ,-0.2797346728\C,-1.2339159779,0.188861494,0.0484838153\C,-2.105627517
 6,-0.9123746347,0.2452330587\C,-1.7397500153,1.5123670808,0.1099423948
 \H,6.4416388001,-0.9394098578,0.5784758763\H,5.1833029112,0.1883781871
 ,1.1486317565\H,4.9168228128,-1.5779411363,1.2475101469\H,3.6062532349
 ,-3.1043915779,-0.8123547685\H,2.0816849455,-5.0095229794,-0.451866499
 1\H,-0.2941437102,-4.6383055813,0.004749997\H,-2.185079971,-4.32999179
 6,0.3467070675\H,-4.5512425056,-3.9169690324,0.7911637814\H,-5.4274512
 363,-1.5963154265,0.9002859196\H,-5.0382187601,0.8027416276,0.76244336
 84\H,-4.7021698835,3.2102428898,0.6321186021\H,-3.1839712692,5.1441745
 998,0.2856168116\H,-0.8086373933,4.7919493581,-0.1622468901\H,1.083430
 9762,4.4912452781,-0.5047176825\H,3.4554943058,4.0951556575,-0.9600095
 973\H,4.3460351347,1.7984538671,-1.0860391172\\Version=ES64L-G16RevB.0
 1\State=1-A\HF=-1512.9974688\RMSD=4.543e-09\RMSF=6.691e-06\Dipole=-0.4
 28258,0.0991244,0.6169421\Quadrupole=5.2463818,8.8512952,-14.097677,0.
 6924821,2.1204483,-1.6112195\PG=C01 [X(C29H16S1)]\\@


 A MAN THINKING OR WORKING IS ALWAYS ALONE, 
 LET HIM BE WHERE HE WILL.

                                    -- THOREAU
 Job cpu time:       0 days  2 hours 13 minutes 16.0 seconds.
 Elapsed time:       0 days  0 hours 19 minutes 18.1 seconds.
 File lengths (MBytes):  RWF=    152 Int=      0 D2E=      0 Chk=     20 Scr=      1
 Normal termination of Gaussian 16 at Fri Nov  4 23:19:52 2022.
