 Entering Gaussian System, Link 0=/home/wykgroup/appl/g16/g16
 Input=calculation/no_transfer_pubchem_sampling_7_b3lyp/12062041_rwf.com
 Output=calculation/no_transfer_pubchem_sampling_7_b3lyp/12062041_rwf.log
 Initial command:
 /home/wykgroup/appl/g16/l1.exe "/userdata/scratch/wykgroup/khs/calculation/no_transfer_pubchem_sampling_7_b3lyp/12062041_rwf/Gau-27665.inp" -scrdir="/userdata/scratch/wykgroup/khs/calculation/no_transfer_pubchem_sampling_7_b3lyp/12062041_rwf/"
 Entering Link 1 = /home/wykgroup/appl/g16/l1.exe PID=     27666.
  
 Copyright (c) 1988-2017, Gaussian, Inc.  All Rights Reserved.
  
 This is part of the Gaussian(R) 16 program.  It is based on
 the Gaussian(R) 09 system (copyright 2009, Gaussian, Inc.),
 the Gaussian(R) 03 system (copyright 2003, Gaussian, Inc.),
 the Gaussian(R) 98 system (copyright 1998, Gaussian, Inc.),
 the Gaussian(R) 94 system (copyright 1995, Gaussian, Inc.),
 the Gaussian 92(TM) system (copyright 1992, Gaussian, Inc.),
 the Gaussian 90(TM) system (copyright 1990, Gaussian, Inc.),
 the Gaussian 88(TM) system (copyright 1988, Gaussian, Inc.),
 the Gaussian 86(TM) system (copyright 1986, Carnegie Mellon
 University), and the Gaussian 82(TM) system (copyright 1983,
 Carnegie Mellon University). Gaussian is a federally registered
 trademark of Gaussian, Inc.
  
 This software contains proprietary and confidential information,
 including trade secrets, belonging to Gaussian, Inc.
  
 This software is provided under written license and may be
 used, copied, transmitted, or stored only in accord with that
 written license.
  
 The following legend is applicable only to US Government
 contracts under FAR:
  
                    RESTRICTED RIGHTS LEGEND
  
 Use, reproduction and disclosure by the US Government is
 subject to restrictions as set forth in subparagraphs (a)
 and (c) of the Commercial Computer Software - Restricted
 Rights clause in FAR 52.227-19.
  
 Gaussian, Inc.
 340 Quinnipiac St., Bldg. 40, Wallingford CT 06492
  
  
 ---------------------------------------------------------------
 Warning -- This program may not be used in any manner that
 competes with the business of Gaussian, Inc. or will provide
 assistance to any competitor of Gaussian, Inc.  The licensee
 of this program is prohibited from giving any competitor of
 Gaussian, Inc. access to this program.  By using this program,
 the user acknowledges that Gaussian, Inc. is engaged in the
 business of creating and licensing software in the field of
 computational chemistry and represents and warrants to the
 licensee that it is not a competitor of Gaussian, Inc. and that
 it will not use this program in any manner prohibited above.
 ---------------------------------------------------------------
  

 Cite this work as:
 Gaussian 16, Revision B.01,
 M. J. Frisch, G. W. Trucks, H. B. Schlegel, G. E. Scuseria, 
 M. A. Robb, J. R. Cheeseman, G. Scalmani, V. Barone, 
 G. A. Petersson, H. Nakatsuji, X. Li, M. Caricato, A. V. Marenich, 
 J. Bloino, B. G. Janesko, R. Gomperts, B. Mennucci, H. P. Hratchian, 
 J. V. Ortiz, A. F. Izmaylov, J. L. Sonnenberg, D. Williams-Young, 
 F. Ding, F. Lipparini, F. Egidi, J. Goings, B. Peng, A. Petrone, 
 T. Henderson, D. Ranasinghe, V. G. Zakrzewski, J. Gao, N. Rega, 
 G. Zheng, W. Liang, M. Hada, M. Ehara, K. Toyota, R. Fukuda, 
 J. Hasegawa, M. Ishida, T. Nakajima, Y. Honda, O. Kitao, H. Nakai, 
 T. Vreven, K. Throssell, J. A. Montgomery, Jr., J. E. Peralta, 
 F. Ogliaro, M. J. Bearpark, J. J. Heyd, E. N. Brothers, K. N. Kudin, 
 V. N. Staroverov, T. A. Keith, R. Kobayashi, J. Normand, 
 K. Raghavachari, A. P. Rendell, J. C. Burant, S. S. Iyengar, 
 J. Tomasi, M. Cossi, J. M. Millam, M. Klene, C. Adamo, R. Cammi, 
 J. W. Ochterski, R. L. Martin, K. Morokuma, O. Farkas, 
 J. B. Foresman, and D. J. Fox, Gaussian, Inc., Wallingford CT, 2016.
 
 ******************************************
 Gaussian 16:  ES64L-G16RevB.01 20-Dec-2017
                 5-Nov-2022 
 ******************************************
 %chk=calculation/no_transfer_pubchem_sampling_7_b3lyp/12062041_rwf.chk
 %rwf=calculation/no_transfer_pubchem_sampling_7_b3lyp/12062041_rwf.rwf
 %nprocshared=14
 Will use up to   14 processors via shared memory.
 %mem=3GB
 -------------------------------------------------------------------
 #p b3lyp/6-31g(d) 6D 10F nosymm GFInput td=(50-50,nstate=2) SCF=XQC
 -------------------------------------------------------------------
 1/38=1,172=1/1;
 2/12=2,15=1,17=6,18=5,40=1/2;
 3/5=1,6=6,7=1,8=22,11=9,24=10,25=1,30=1,74=-5/1,2,3,8;
 4//1;
 5/5=2,8=3,13=1,38=5/2,8;
 8/6=1,10=2,108=2/1;
 9/41=2,42=1,48=2,70=2/14;
 6/7=2,8=2,9=2,10=2/1;
 99/5=1,9=1/99;
 Leave Link    1 at Sat Nov  5 09:47:19 2022, MaxMem=   402653184 cpu:               2.0 elap:               0.2
 (Enter /home/wykgroup/appl/g16/l101.exe)
 ------------------------------
 Gaussian input prepared by ASE
 ------------------------------
 Symbolic Z-matrix:
 Charge =  0 Multiplicity = 1
 C                     1.48488   1.21836  -4.07664 
 C                     1.92457   0.3516   -2.92108 
 C                     3.05639   0.68908  -2.18333 
 C                     3.52281  -0.1153   -1.12417 
 C                     4.68717   0.2492   -0.39033 
 C                     5.68287   0.56137   0.23688 
 C                     6.84586   0.9263    0.97022 
 C                     7.55798   2.1053    0.66842 
 C                     8.69049   2.46425   1.38532 
 C                     9.1617    1.65778   2.43735 
 N                     10.33131   1.98799   3.12101 
 C                     8.457     0.47932   2.74357 
 C                     7.32482   0.1225    2.02509 
 C                     2.81259  -1.28735  -0.81684 
 C                     1.67058  -1.64436  -1.53086 
 C                     1.22178  -0.82915  -2.58827 
 N                     0.07842  -1.2122   -3.36707 
 C                    -1.16299  -0.49684  -3.01629 
 C                    -1.86084  -1.07446  -1.78964 
 C                    -2.92902  -0.3888   -1.21489 
 C                    -3.59213  -0.8956   -0.0853 
 C                    -4.68079  -0.19093   0.5024 
 C                    -5.61174   0.41126   1.00535 
 C                    -6.69901   1.11536   1.59323 
 C                    -7.36325   0.61268   2.73092 
 C                    -8.42163   1.30028   3.30746 
 C                    -8.86333   2.52307   2.76997 
 N                    -9.96257   3.18635   3.31417 
 C                    -8.20613   3.03036   1.63422 
 C                    -7.14807   2.34078   1.05946 
 C                    -3.15578  -2.12465   0.44895 
 C                    -2.0983   -2.83701  -0.11092 
 C                    -1.69175  -4.17177   0.46617 
 C                    -1.44131  -2.30309  -1.24323 
 N                    -0.37771  -3.04657  -1.85686 
 C                     0.92302  -2.92408  -1.17203 
 C                    -0.18623  -2.64608  -3.25062 
 H                     2.31859   1.82253  -4.44788 
 H                     1.09819   0.60291  -4.89492 
 H                     0.68391   1.91403  -3.79166 
 H                     3.61063   1.58775  -2.43934 
 H                     7.20745   2.7415   -0.1387 
 H                     9.22463   3.37699   1.13037 
 H                     10.41596   1.59324   4.04934 
 H                     10.57805   2.96968   3.10721 
 H                     8.80857  -0.15986   3.55058 
 H                     6.79225  -0.78953   2.27733 
 H                     3.15769  -1.91589   0.00073 
 H                    -0.9323    0.5589   -2.85098 
 H                    -1.83666  -0.54125  -3.88405 
 H                    -3.25139   0.56068  -1.63578 
 H                    -7.03435  -0.32849   3.1611 
 H                    -8.92025   0.88938   4.18265 
 H                    -10.00475   4.18018   3.12628 
 H                    -10.15439   2.98023   4.28654 
 H                    -8.53625   3.97212   1.20118 
 H                    -6.65117   2.74898   0.18451 
 H                    -3.67528  -2.53258   1.31154 
 H                    -0.83536  -4.08475   1.14863 
 H                    -1.39754  -4.86259  -0.33014 
 H                    -2.51404  -4.61459   1.03684 
 H                     0.7637   -2.97192  -0.09155 
 H                     1.53157  -3.79937  -1.44104 
 H                    -1.0854   -2.88416  -3.82659 
 H                     0.65627  -3.20844  -3.664 
 
 ITRead=  0  0  0  0  0  0  0  0  0  0  0  0  0  0  0  0  0  0  0  0
 ITRead=  0  0  0  0  0  0  0  0  0  0  0  0  0  0  0  0  0  0  0  0
 ITRead=  0  0  0  0  0  0  0  0  0  0  0  0  0  0  0  0  0  0  0  0
 ITRead=  0  0  0  0  0
 MicOpt= -1 -1 -1 -1 -1 -1 -1 -1 -1 -1 -1 -1 -1 -1 -1 -1 -1 -1 -1 -1
 MicOpt= -1 -1 -1 -1 -1 -1 -1 -1 -1 -1 -1 -1 -1 -1 -1 -1 -1 -1 -1 -1
 MicOpt= -1 -1 -1 -1 -1 -1 -1 -1 -1 -1 -1 -1 -1 -1 -1 -1 -1 -1 -1 -1
 MicOpt= -1 -1 -1 -1 -1
 NAtoms=     65 NQM=       65 NQMF=       0 NMMI=      0 NMMIF=      0
                NMic=       0 NMicF=      0.
                    Isotopes and Nuclear Properties:
 (Nuclear quadrupole moments (NQMom) in fm**2, nuclear magnetic moments (NMagM)
  in nuclear magnetons)

  Atom         1           2           3           4           5           6           7           8           9          10
 IAtWgt=          12          12          12          12          12          12          12          12          12          12
 AtmWgt=  12.0000000  12.0000000  12.0000000  12.0000000  12.0000000  12.0000000  12.0000000  12.0000000  12.0000000  12.0000000
 NucSpn=           0           0           0           0           0           0           0           0           0           0
 AtZEff=  -0.0000000  -0.0000000  -0.0000000  -0.0000000  -0.0000000  -0.0000000  -0.0000000  -0.0000000  -0.0000000  -0.0000000
 NQMom=    0.0000000   0.0000000   0.0000000   0.0000000   0.0000000   0.0000000   0.0000000   0.0000000   0.0000000   0.0000000
 NMagM=    0.0000000   0.0000000   0.0000000   0.0000000   0.0000000   0.0000000   0.0000000   0.0000000   0.0000000   0.0000000
 AtZNuc=   6.0000000   6.0000000   6.0000000   6.0000000   6.0000000   6.0000000   6.0000000   6.0000000   6.0000000   6.0000000

  Atom        11          12          13          14          15          16          17          18          19          20
 IAtWgt=          14          12          12          12          12          12          14          12          12          12
 AtmWgt=  14.0030740  12.0000000  12.0000000  12.0000000  12.0000000  12.0000000  14.0030740  12.0000000  12.0000000  12.0000000
 NucSpn=           2           0           0           0           0           0           2           0           0           0
 AtZEff=  -0.0000000  -0.0000000  -0.0000000  -0.0000000  -0.0000000  -0.0000000  -0.0000000  -0.0000000  -0.0000000  -0.0000000
 NQMom=    2.0440000   0.0000000   0.0000000   0.0000000   0.0000000   0.0000000   2.0440000   0.0000000   0.0000000   0.0000000
 NMagM=    0.4037610   0.0000000   0.0000000   0.0000000   0.0000000   0.0000000   0.4037610   0.0000000   0.0000000   0.0000000
 AtZNuc=   7.0000000   6.0000000   6.0000000   6.0000000   6.0000000   6.0000000   7.0000000   6.0000000   6.0000000   6.0000000

  Atom        21          22          23          24          25          26          27          28          29          30
 IAtWgt=          12          12          12          12          12          12          12          14          12          12
 AtmWgt=  12.0000000  12.0000000  12.0000000  12.0000000  12.0000000  12.0000000  12.0000000  14.0030740  12.0000000  12.0000000
 NucSpn=           0           0           0           0           0           0           0           2           0           0
 AtZEff=  -0.0000000  -0.0000000  -0.0000000  -0.0000000  -0.0000000  -0.0000000  -0.0000000  -0.0000000  -0.0000000  -0.0000000
 NQMom=    0.0000000   0.0000000   0.0000000   0.0000000   0.0000000   0.0000000   0.0000000   2.0440000   0.0000000   0.0000000
 NMagM=    0.0000000   0.0000000   0.0000000   0.0000000   0.0000000   0.0000000   0.0000000   0.4037610   0.0000000   0.0000000
 AtZNuc=   6.0000000   6.0000000   6.0000000   6.0000000   6.0000000   6.0000000   6.0000000   7.0000000   6.0000000   6.0000000

  Atom        31          32          33          34          35          36          37          38          39          40
 IAtWgt=          12          12          12          12          14          12          12           1           1           1
 AtmWgt=  12.0000000  12.0000000  12.0000000  12.0000000  14.0030740  12.0000000  12.0000000   1.0078250   1.0078250   1.0078250
 NucSpn=           0           0           0           0           2           0           0           1           1           1
 AtZEff=  -0.0000000  -0.0000000  -0.0000000  -0.0000000  -0.0000000  -0.0000000  -0.0000000  -0.0000000  -0.0000000  -0.0000000
 NQMom=    0.0000000   0.0000000   0.0000000   0.0000000   2.0440000   0.0000000   0.0000000   0.0000000   0.0000000   0.0000000
 NMagM=    0.0000000   0.0000000   0.0000000   0.0000000   0.4037610   0.0000000   0.0000000   2.7928460   2.7928460   2.7928460
 AtZNuc=   6.0000000   6.0000000   6.0000000   6.0000000   7.0000000   6.0000000   6.0000000   1.0000000   1.0000000   1.0000000

  Atom        41          42          43          44          45          46          47          48          49          50
 IAtWgt=           1           1           1           1           1           1           1           1           1           1
 AtmWgt=   1.0078250   1.0078250   1.0078250   1.0078250   1.0078250   1.0078250   1.0078250   1.0078250   1.0078250   1.0078250
 NucSpn=           1           1           1           1           1           1           1           1           1           1
 AtZEff=  -0.0000000  -0.0000000  -0.0000000  -0.0000000  -0.0000000  -0.0000000  -0.0000000  -0.0000000  -0.0000000  -0.0000000
 NQMom=    0.0000000   0.0000000   0.0000000   0.0000000   0.0000000   0.0000000   0.0000000   0.0000000   0.0000000   0.0000000
 NMagM=    2.7928460   2.7928460   2.7928460   2.7928460   2.7928460   2.7928460   2.7928460   2.7928460   2.7928460   2.7928460
 AtZNuc=   1.0000000   1.0000000   1.0000000   1.0000000   1.0000000   1.0000000   1.0000000   1.0000000   1.0000000   1.0000000

  Atom        51          52          53          54          55          56          57          58          59          60
 IAtWgt=           1           1           1           1           1           1           1           1           1           1
 AtmWgt=   1.0078250   1.0078250   1.0078250   1.0078250   1.0078250   1.0078250   1.0078250   1.0078250   1.0078250   1.0078250
 NucSpn=           1           1           1           1           1           1           1           1           1           1
 AtZEff=  -0.0000000  -0.0000000  -0.0000000  -0.0000000  -0.0000000  -0.0000000  -0.0000000  -0.0000000  -0.0000000  -0.0000000
 NQMom=    0.0000000   0.0000000   0.0000000   0.0000000   0.0000000   0.0000000   0.0000000   0.0000000   0.0000000   0.0000000
 NMagM=    2.7928460   2.7928460   2.7928460   2.7928460   2.7928460   2.7928460   2.7928460   2.7928460   2.7928460   2.7928460
 AtZNuc=   1.0000000   1.0000000   1.0000000   1.0000000   1.0000000   1.0000000   1.0000000   1.0000000   1.0000000   1.0000000

  Atom        61          62          63          64          65
 IAtWgt=           1           1           1           1           1
 AtmWgt=   1.0078250   1.0078250   1.0078250   1.0078250   1.0078250
 NucSpn=           1           1           1           1           1
 AtZEff=  -0.0000000  -0.0000000  -0.0000000  -0.0000000  -0.0000000
 NQMom=    0.0000000   0.0000000   0.0000000   0.0000000   0.0000000
 NMagM=    2.7928460   2.7928460   2.7928460   2.7928460   2.7928460
 AtZNuc=   1.0000000   1.0000000   1.0000000   1.0000000   1.0000000
 Leave Link  101 at Sat Nov  5 09:47:19 2022, MaxMem=   402653184 cpu:               2.0 elap:               0.2
 (Enter /home/wykgroup/appl/g16/l202.exe)
 Symmetry turned off by external request.
 Stoichiometry    C33H28N4
 Framework group  C1[X(C33H28N4)]
 Deg. of freedom   189
 Full point group                 C1      NOp   1
                          Input orientation:                          
 ---------------------------------------------------------------------
 Center     Atomic      Atomic             Coordinates (Angstroms)
 Number     Number       Type             X           Y           Z
 ---------------------------------------------------------------------
      1          6           0        1.484881    1.218360   -4.076635
      2          6           0        1.924575    0.351601   -2.921081
      3          6           0        3.056388    0.689076   -2.183332
      4          6           0        3.522809   -0.115301   -1.124169
      5          6           0        4.687170    0.249204   -0.390329
      6          6           0        5.682873    0.561373    0.236882
      7          6           0        6.845860    0.926302    0.970223
      8          6           0        7.557980    2.105304    0.668416
      9          6           0        8.690487    2.464245    1.385315
     10          6           0        9.161702    1.657784    2.437346
     11          7           0       10.331312    1.987992    3.121011
     12          6           0        8.456996    0.479317    2.743571
     13          6           0        7.324816    0.122503    2.025086
     14          6           0        2.812592   -1.287346   -0.816838
     15          6           0        1.670584   -1.644359   -1.530863
     16          6           0        1.221782   -0.829148   -2.588267
     17          7           0        0.078424   -1.212201   -3.367075
     18          6           0       -1.162990   -0.496837   -3.016287
     19          6           0       -1.860838   -1.074460   -1.789641
     20          6           0       -2.929017   -0.388801   -1.214892
     21          6           0       -3.592132   -0.895600   -0.085297
     22          6           0       -4.680789   -0.190929    0.502398
     23          6           0       -5.611744    0.411263    1.005347
     24          6           0       -6.699009    1.115358    1.593229
     25          6           0       -7.363253    0.612684    2.730922
     26          6           0       -8.421632    1.300284    3.307462
     27          6           0       -8.863326    2.523068    2.769970
     28          7           0       -9.962566    3.186349    3.314171
     29          6           0       -8.206130    3.030356    1.634223
     30          6           0       -7.148069    2.340780    1.059456
     31          6           0       -3.155782   -2.124654    0.448953
     32          6           0       -2.098303   -2.837007   -0.110918
     33          6           0       -1.691748   -4.171769    0.466171
     34          6           0       -1.441309   -2.303090   -1.243234
     35          7           0       -0.377714   -3.046574   -1.856860
     36          6           0        0.923023   -2.924083   -1.172034
     37          6           0       -0.186229   -2.646082   -3.250617
     38          1           0        2.318591    1.822528   -4.447882
     39          1           0        1.098190    0.602906   -4.894916
     40          1           0        0.683906    1.914033   -3.791664
     41          1           0        3.610632    1.587747   -2.439339
     42          1           0        7.207448    2.741496   -0.138698
     43          1           0        9.224627    3.376992    1.130367
     44          1           0       10.415955    1.593243    4.049338
     45          1           0       10.578053    2.969679    3.107210
     46          1           0        8.808573   -0.159858    3.550581
     47          1           0        6.792252   -0.789534    2.277333
     48          1           0        3.157691   -1.915894    0.000733
     49          1           0       -0.932302    0.558904   -2.850985
     50          1           0       -1.836655   -0.541250   -3.884054
     51          1           0       -3.251392    0.560683   -1.635777
     52          1           0       -7.034348   -0.328493    3.161102
     53          1           0       -8.920249    0.889381    4.182647
     54          1           0      -10.004752    4.180180    3.126284
     55          1           0      -10.154394    2.980233    4.286539
     56          1           0       -8.536251    3.972116    1.201182
     57          1           0       -6.651169    2.748984    0.184514
     58          1           0       -3.675280   -2.532575    1.311540
     59          1           0       -0.835357   -4.084752    1.148633
     60          1           0       -1.397544   -4.862586   -0.330140
     61          1           0       -2.514035   -4.614593    1.036842
     62          1           0        0.763695   -2.971921   -0.091545
     63          1           0        1.531569   -3.799369   -1.441036
     64          1           0       -1.085398   -2.884158   -3.826590
     65          1           0        0.656267   -3.208438   -3.664001
 ---------------------------------------------------------------------
 Rotational constants (GHZ):           0.1287634           0.0310598           0.0276139
 Leave Link  202 at Sat Nov  5 09:47:19 2022, MaxMem=   402653184 cpu:               0.6 elap:               0.1
 (Enter /home/wykgroup/appl/g16/l301.exe)
 Standard basis: 6-31G(d) (6D, 10F)
 Ernie: Thresh=  0.10000D-02 Tol=  0.10000D-05 Strict=F.
 AO basis set in the form of general basis input (Overlap normalization):
      1 0
 S   6 1.00       0.000000000000
      0.3047524880D+04  0.1834737132D-02
      0.4573695180D+03  0.1403732281D-01
      0.1039486850D+03  0.6884262226D-01
      0.2921015530D+02  0.2321844432D+00
      0.9286662960D+01  0.4679413484D+00
      0.3163926960D+01  0.3623119853D+00
 SP   3 1.00       0.000000000000
      0.7868272350D+01 -0.1193324198D+00  0.6899906659D-01
      0.1881288540D+01 -0.1608541517D+00  0.3164239610D+00
      0.5442492580D+00  0.1143456438D+01  0.7443082909D+00
 SP   1 1.00       0.000000000000
      0.1687144782D+00  0.1000000000D+01  0.1000000000D+01
 D   1 1.00       0.000000000000
      0.8000000000D+00  0.1000000000D+01
 ****
      2 0
 S   6 1.00       0.000000000000
      0.3047524880D+04  0.1834737132D-02
      0.4573695180D+03  0.1403732281D-01
      0.1039486850D+03  0.6884262226D-01
      0.2921015530D+02  0.2321844432D+00
      0.9286662960D+01  0.4679413484D+00
      0.3163926960D+01  0.3623119853D+00
 SP   3 1.00       0.000000000000
      0.7868272350D+01 -0.1193324198D+00  0.6899906659D-01
      0.1881288540D+01 -0.1608541517D+00  0.3164239610D+00
      0.5442492580D+00  0.1143456438D+01  0.7443082909D+00
 SP   1 1.00       0.000000000000
      0.1687144782D+00  0.1000000000D+01  0.1000000000D+01
 D   1 1.00       0.000000000000
      0.8000000000D+00  0.1000000000D+01
 ****
      3 0
 S   6 1.00       0.000000000000
      0.3047524880D+04  0.1834737132D-02
      0.4573695180D+03  0.1403732281D-01
      0.1039486850D+03  0.6884262226D-01
      0.2921015530D+02  0.2321844432D+00
      0.9286662960D+01  0.4679413484D+00
      0.3163926960D+01  0.3623119853D+00
 SP   3 1.00       0.000000000000
      0.7868272350D+01 -0.1193324198D+00  0.6899906659D-01
      0.1881288540D+01 -0.1608541517D+00  0.3164239610D+00
      0.5442492580D+00  0.1143456438D+01  0.7443082909D+00
 SP   1 1.00       0.000000000000
      0.1687144782D+00  0.1000000000D+01  0.1000000000D+01
 D   1 1.00       0.000000000000
      0.8000000000D+00  0.1000000000D+01
 ****
      4 0
 S   6 1.00       0.000000000000
      0.3047524880D+04  0.1834737132D-02
      0.4573695180D+03  0.1403732281D-01
      0.1039486850D+03  0.6884262226D-01
      0.2921015530D+02  0.2321844432D+00
      0.9286662960D+01  0.4679413484D+00
      0.3163926960D+01  0.3623119853D+00
 SP   3 1.00       0.000000000000
      0.7868272350D+01 -0.1193324198D+00  0.6899906659D-01
      0.1881288540D+01 -0.1608541517D+00  0.3164239610D+00
      0.5442492580D+00  0.1143456438D+01  0.7443082909D+00
 SP   1 1.00       0.000000000000
      0.1687144782D+00  0.1000000000D+01  0.1000000000D+01
 D   1 1.00       0.000000000000
      0.8000000000D+00  0.1000000000D+01
 ****
      5 0
 S   6 1.00       0.000000000000
      0.3047524880D+04  0.1834737132D-02
      0.4573695180D+03  0.1403732281D-01
      0.1039486850D+03  0.6884262226D-01
      0.2921015530D+02  0.2321844432D+00
      0.9286662960D+01  0.4679413484D+00
      0.3163926960D+01  0.3623119853D+00
 SP   3 1.00       0.000000000000
      0.7868272350D+01 -0.1193324198D+00  0.6899906659D-01
      0.1881288540D+01 -0.1608541517D+00  0.3164239610D+00
      0.5442492580D+00  0.1143456438D+01  0.7443082909D+00
 SP   1 1.00       0.000000000000
      0.1687144782D+00  0.1000000000D+01  0.1000000000D+01
 D   1 1.00       0.000000000000
      0.8000000000D+00  0.1000000000D+01
 ****
      6 0
 S   6 1.00       0.000000000000
      0.3047524880D+04  0.1834737132D-02
      0.4573695180D+03  0.1403732281D-01
      0.1039486850D+03  0.6884262226D-01
      0.2921015530D+02  0.2321844432D+00
      0.9286662960D+01  0.4679413484D+00
      0.3163926960D+01  0.3623119853D+00
 SP   3 1.00       0.000000000000
      0.7868272350D+01 -0.1193324198D+00  0.6899906659D-01
      0.1881288540D+01 -0.1608541517D+00  0.3164239610D+00
      0.5442492580D+00  0.1143456438D+01  0.7443082909D+00
 SP   1 1.00       0.000000000000
      0.1687144782D+00  0.1000000000D+01  0.1000000000D+01
 D   1 1.00       0.000000000000
      0.8000000000D+00  0.1000000000D+01
 ****
      7 0
 S   6 1.00       0.000000000000
      0.3047524880D+04  0.1834737132D-02
      0.4573695180D+03  0.1403732281D-01
      0.1039486850D+03  0.6884262226D-01
      0.2921015530D+02  0.2321844432D+00
      0.9286662960D+01  0.4679413484D+00
      0.3163926960D+01  0.3623119853D+00
 SP   3 1.00       0.000000000000
      0.7868272350D+01 -0.1193324198D+00  0.6899906659D-01
      0.1881288540D+01 -0.1608541517D+00  0.3164239610D+00
      0.5442492580D+00  0.1143456438D+01  0.7443082909D+00
 SP   1 1.00       0.000000000000
      0.1687144782D+00  0.1000000000D+01  0.1000000000D+01
 D   1 1.00       0.000000000000
      0.8000000000D+00  0.1000000000D+01
 ****
      8 0
 S   6 1.00       0.000000000000
      0.3047524880D+04  0.1834737132D-02
      0.4573695180D+03  0.1403732281D-01
      0.1039486850D+03  0.6884262226D-01
      0.2921015530D+02  0.2321844432D+00
      0.9286662960D+01  0.4679413484D+00
      0.3163926960D+01  0.3623119853D+00
 SP   3 1.00       0.000000000000
      0.7868272350D+01 -0.1193324198D+00  0.6899906659D-01
      0.1881288540D+01 -0.1608541517D+00  0.3164239610D+00
      0.5442492580D+00  0.1143456438D+01  0.7443082909D+00
 SP   1 1.00       0.000000000000
      0.1687144782D+00  0.1000000000D+01  0.1000000000D+01
 D   1 1.00       0.000000000000
      0.8000000000D+00  0.1000000000D+01
 ****
      9 0
 S   6 1.00       0.000000000000
      0.3047524880D+04  0.1834737132D-02
      0.4573695180D+03  0.1403732281D-01
      0.1039486850D+03  0.6884262226D-01
      0.2921015530D+02  0.2321844432D+00
      0.9286662960D+01  0.4679413484D+00
      0.3163926960D+01  0.3623119853D+00
 SP   3 1.00       0.000000000000
      0.7868272350D+01 -0.1193324198D+00  0.6899906659D-01
      0.1881288540D+01 -0.1608541517D+00  0.3164239610D+00
      0.5442492580D+00  0.1143456438D+01  0.7443082909D+00
 SP   1 1.00       0.000000000000
      0.1687144782D+00  0.1000000000D+01  0.1000000000D+01
 D   1 1.00       0.000000000000
      0.8000000000D+00  0.1000000000D+01
 ****
     10 0
 S   6 1.00       0.000000000000
      0.3047524880D+04  0.1834737132D-02
      0.4573695180D+03  0.1403732281D-01
      0.1039486850D+03  0.6884262226D-01
      0.2921015530D+02  0.2321844432D+00
      0.9286662960D+01  0.4679413484D+00
      0.3163926960D+01  0.3623119853D+00
 SP   3 1.00       0.000000000000
      0.7868272350D+01 -0.1193324198D+00  0.6899906659D-01
      0.1881288540D+01 -0.1608541517D+00  0.3164239610D+00
      0.5442492580D+00  0.1143456438D+01  0.7443082909D+00
 SP   1 1.00       0.000000000000
      0.1687144782D+00  0.1000000000D+01  0.1000000000D+01
 D   1 1.00       0.000000000000
      0.8000000000D+00  0.1000000000D+01
 ****
     11 0
 S   6 1.00       0.000000000000
      0.4173511460D+04  0.1834772160D-02
      0.6274579110D+03  0.1399462700D-01
      0.1429020930D+03  0.6858655181D-01
      0.4023432930D+02  0.2322408730D+00
      0.1282021290D+02  0.4690699481D+00
      0.4390437010D+01  0.3604551991D+00
 SP   3 1.00       0.000000000000
      0.1162636186D+02 -0.1149611817D+00  0.6757974388D-01
      0.2716279807D+01 -0.1691174786D+00  0.3239072959D+00
      0.7722183966D+00  0.1145851947D+01  0.7408951398D+00
 SP   1 1.00       0.000000000000
      0.2120314975D+00  0.1000000000D+01  0.1000000000D+01
 D   1 1.00       0.000000000000
      0.8000000000D+00  0.1000000000D+01
 ****
     12 0
 S   6 1.00       0.000000000000
      0.3047524880D+04  0.1834737132D-02
      0.4573695180D+03  0.1403732281D-01
      0.1039486850D+03  0.6884262226D-01
      0.2921015530D+02  0.2321844432D+00
      0.9286662960D+01  0.4679413484D+00
      0.3163926960D+01  0.3623119853D+00
 SP   3 1.00       0.000000000000
      0.7868272350D+01 -0.1193324198D+00  0.6899906659D-01
      0.1881288540D+01 -0.1608541517D+00  0.3164239610D+00
      0.5442492580D+00  0.1143456438D+01  0.7443082909D+00
 SP   1 1.00       0.000000000000
      0.1687144782D+00  0.1000000000D+01  0.1000000000D+01
 D   1 1.00       0.000000000000
      0.8000000000D+00  0.1000000000D+01
 ****
     13 0
 S   6 1.00       0.000000000000
      0.3047524880D+04  0.1834737132D-02
      0.4573695180D+03  0.1403732281D-01
      0.1039486850D+03  0.6884262226D-01
      0.2921015530D+02  0.2321844432D+00
      0.9286662960D+01  0.4679413484D+00
      0.3163926960D+01  0.3623119853D+00
 SP   3 1.00       0.000000000000
      0.7868272350D+01 -0.1193324198D+00  0.6899906659D-01
      0.1881288540D+01 -0.1608541517D+00  0.3164239610D+00
      0.5442492580D+00  0.1143456438D+01  0.7443082909D+00
 SP   1 1.00       0.000000000000
      0.1687144782D+00  0.1000000000D+01  0.1000000000D+01
 D   1 1.00       0.000000000000
      0.8000000000D+00  0.1000000000D+01
 ****
     14 0
 S   6 1.00       0.000000000000
      0.3047524880D+04  0.1834737132D-02
      0.4573695180D+03  0.1403732281D-01
      0.1039486850D+03  0.6884262226D-01
      0.2921015530D+02  0.2321844432D+00
      0.9286662960D+01  0.4679413484D+00
      0.3163926960D+01  0.3623119853D+00
 SP   3 1.00       0.000000000000
      0.7868272350D+01 -0.1193324198D+00  0.6899906659D-01
      0.1881288540D+01 -0.1608541517D+00  0.3164239610D+00
      0.5442492580D+00  0.1143456438D+01  0.7443082909D+00
 SP   1 1.00       0.000000000000
      0.1687144782D+00  0.1000000000D+01  0.1000000000D+01
 D   1 1.00       0.000000000000
      0.8000000000D+00  0.1000000000D+01
 ****
     15 0
 S   6 1.00       0.000000000000
      0.3047524880D+04  0.1834737132D-02
      0.4573695180D+03  0.1403732281D-01
      0.1039486850D+03  0.6884262226D-01
      0.2921015530D+02  0.2321844432D+00
      0.9286662960D+01  0.4679413484D+00
      0.3163926960D+01  0.3623119853D+00
 SP   3 1.00       0.000000000000
      0.7868272350D+01 -0.1193324198D+00  0.6899906659D-01
      0.1881288540D+01 -0.1608541517D+00  0.3164239610D+00
      0.5442492580D+00  0.1143456438D+01  0.7443082909D+00
 SP   1 1.00       0.000000000000
      0.1687144782D+00  0.1000000000D+01  0.1000000000D+01
 D   1 1.00       0.000000000000
      0.8000000000D+00  0.1000000000D+01
 ****
     16 0
 S   6 1.00       0.000000000000
      0.3047524880D+04  0.1834737132D-02
      0.4573695180D+03  0.1403732281D-01
      0.1039486850D+03  0.6884262226D-01
      0.2921015530D+02  0.2321844432D+00
      0.9286662960D+01  0.4679413484D+00
      0.3163926960D+01  0.3623119853D+00
 SP   3 1.00       0.000000000000
      0.7868272350D+01 -0.1193324198D+00  0.6899906659D-01
      0.1881288540D+01 -0.1608541517D+00  0.3164239610D+00
      0.5442492580D+00  0.1143456438D+01  0.7443082909D+00
 SP   1 1.00       0.000000000000
      0.1687144782D+00  0.1000000000D+01  0.1000000000D+01
 D   1 1.00       0.000000000000
      0.8000000000D+00  0.1000000000D+01
 ****
     17 0
 S   6 1.00       0.000000000000
      0.4173511460D+04  0.1834772160D-02
      0.6274579110D+03  0.1399462700D-01
      0.1429020930D+03  0.6858655181D-01
      0.4023432930D+02  0.2322408730D+00
      0.1282021290D+02  0.4690699481D+00
      0.4390437010D+01  0.3604551991D+00
 SP   3 1.00       0.000000000000
      0.1162636186D+02 -0.1149611817D+00  0.6757974388D-01
      0.2716279807D+01 -0.1691174786D+00  0.3239072959D+00
      0.7722183966D+00  0.1145851947D+01  0.7408951398D+00
 SP   1 1.00       0.000000000000
      0.2120314975D+00  0.1000000000D+01  0.1000000000D+01
 D   1 1.00       0.000000000000
      0.8000000000D+00  0.1000000000D+01
 ****
     18 0
 S   6 1.00       0.000000000000
      0.3047524880D+04  0.1834737132D-02
      0.4573695180D+03  0.1403732281D-01
      0.1039486850D+03  0.6884262226D-01
      0.2921015530D+02  0.2321844432D+00
      0.9286662960D+01  0.4679413484D+00
      0.3163926960D+01  0.3623119853D+00
 SP   3 1.00       0.000000000000
      0.7868272350D+01 -0.1193324198D+00  0.6899906659D-01
      0.1881288540D+01 -0.1608541517D+00  0.3164239610D+00
      0.5442492580D+00  0.1143456438D+01  0.7443082909D+00
 SP   1 1.00       0.000000000000
      0.1687144782D+00  0.1000000000D+01  0.1000000000D+01
 D   1 1.00       0.000000000000
      0.8000000000D+00  0.1000000000D+01
 ****
     19 0
 S   6 1.00       0.000000000000
      0.3047524880D+04  0.1834737132D-02
      0.4573695180D+03  0.1403732281D-01
      0.1039486850D+03  0.6884262226D-01
      0.2921015530D+02  0.2321844432D+00
      0.9286662960D+01  0.4679413484D+00
      0.3163926960D+01  0.3623119853D+00
 SP   3 1.00       0.000000000000
      0.7868272350D+01 -0.1193324198D+00  0.6899906659D-01
      0.1881288540D+01 -0.1608541517D+00  0.3164239610D+00
      0.5442492580D+00  0.1143456438D+01  0.7443082909D+00
 SP   1 1.00       0.000000000000
      0.1687144782D+00  0.1000000000D+01  0.1000000000D+01
 D   1 1.00       0.000000000000
      0.8000000000D+00  0.1000000000D+01
 ****
     20 0
 S   6 1.00       0.000000000000
      0.3047524880D+04  0.1834737132D-02
      0.4573695180D+03  0.1403732281D-01
      0.1039486850D+03  0.6884262226D-01
      0.2921015530D+02  0.2321844432D+00
      0.9286662960D+01  0.4679413484D+00
      0.3163926960D+01  0.3623119853D+00
 SP   3 1.00       0.000000000000
      0.7868272350D+01 -0.1193324198D+00  0.6899906659D-01
      0.1881288540D+01 -0.1608541517D+00  0.3164239610D+00
      0.5442492580D+00  0.1143456438D+01  0.7443082909D+00
 SP   1 1.00       0.000000000000
      0.1687144782D+00  0.1000000000D+01  0.1000000000D+01
 D   1 1.00       0.000000000000
      0.8000000000D+00  0.1000000000D+01
 ****
     21 0
 S   6 1.00       0.000000000000
      0.3047524880D+04  0.1834737132D-02
      0.4573695180D+03  0.1403732281D-01
      0.1039486850D+03  0.6884262226D-01
      0.2921015530D+02  0.2321844432D+00
      0.9286662960D+01  0.4679413484D+00
      0.3163926960D+01  0.3623119853D+00
 SP   3 1.00       0.000000000000
      0.7868272350D+01 -0.1193324198D+00  0.6899906659D-01
      0.1881288540D+01 -0.1608541517D+00  0.3164239610D+00
      0.5442492580D+00  0.1143456438D+01  0.7443082909D+00
 SP   1 1.00       0.000000000000
      0.1687144782D+00  0.1000000000D+01  0.1000000000D+01
 D   1 1.00       0.000000000000
      0.8000000000D+00  0.1000000000D+01
 ****
     22 0
 S   6 1.00       0.000000000000
      0.3047524880D+04  0.1834737132D-02
      0.4573695180D+03  0.1403732281D-01
      0.1039486850D+03  0.6884262226D-01
      0.2921015530D+02  0.2321844432D+00
      0.9286662960D+01  0.4679413484D+00
      0.3163926960D+01  0.3623119853D+00
 SP   3 1.00       0.000000000000
      0.7868272350D+01 -0.1193324198D+00  0.6899906659D-01
      0.1881288540D+01 -0.1608541517D+00  0.3164239610D+00
      0.5442492580D+00  0.1143456438D+01  0.7443082909D+00
 SP   1 1.00       0.000000000000
      0.1687144782D+00  0.1000000000D+01  0.1000000000D+01
 D   1 1.00       0.000000000000
      0.8000000000D+00  0.1000000000D+01
 ****
     23 0
 S   6 1.00       0.000000000000
      0.3047524880D+04  0.1834737132D-02
      0.4573695180D+03  0.1403732281D-01
      0.1039486850D+03  0.6884262226D-01
      0.2921015530D+02  0.2321844432D+00
      0.9286662960D+01  0.4679413484D+00
      0.3163926960D+01  0.3623119853D+00
 SP   3 1.00       0.000000000000
      0.7868272350D+01 -0.1193324198D+00  0.6899906659D-01
      0.1881288540D+01 -0.1608541517D+00  0.3164239610D+00
      0.5442492580D+00  0.1143456438D+01  0.7443082909D+00
 SP   1 1.00       0.000000000000
      0.1687144782D+00  0.1000000000D+01  0.1000000000D+01
 D   1 1.00       0.000000000000
      0.8000000000D+00  0.1000000000D+01
 ****
     24 0
 S   6 1.00       0.000000000000
      0.3047524880D+04  0.1834737132D-02
      0.4573695180D+03  0.1403732281D-01
      0.1039486850D+03  0.6884262226D-01
      0.2921015530D+02  0.2321844432D+00
      0.9286662960D+01  0.4679413484D+00
      0.3163926960D+01  0.3623119853D+00
 SP   3 1.00       0.000000000000
      0.7868272350D+01 -0.1193324198D+00  0.6899906659D-01
      0.1881288540D+01 -0.1608541517D+00  0.3164239610D+00
      0.5442492580D+00  0.1143456438D+01  0.7443082909D+00
 SP   1 1.00       0.000000000000
      0.1687144782D+00  0.1000000000D+01  0.1000000000D+01
 D   1 1.00       0.000000000000
      0.8000000000D+00  0.1000000000D+01
 ****
     25 0
 S   6 1.00       0.000000000000
      0.3047524880D+04  0.1834737132D-02
      0.4573695180D+03  0.1403732281D-01
      0.1039486850D+03  0.6884262226D-01
      0.2921015530D+02  0.2321844432D+00
      0.9286662960D+01  0.4679413484D+00
      0.3163926960D+01  0.3623119853D+00
 SP   3 1.00       0.000000000000
      0.7868272350D+01 -0.1193324198D+00  0.6899906659D-01
      0.1881288540D+01 -0.1608541517D+00  0.3164239610D+00
      0.5442492580D+00  0.1143456438D+01  0.7443082909D+00
 SP   1 1.00       0.000000000000
      0.1687144782D+00  0.1000000000D+01  0.1000000000D+01
 D   1 1.00       0.000000000000
      0.8000000000D+00  0.1000000000D+01
 ****
     26 0
 S   6 1.00       0.000000000000
      0.3047524880D+04  0.1834737132D-02
      0.4573695180D+03  0.1403732281D-01
      0.1039486850D+03  0.6884262226D-01
      0.2921015530D+02  0.2321844432D+00
      0.9286662960D+01  0.4679413484D+00
      0.3163926960D+01  0.3623119853D+00
 SP   3 1.00       0.000000000000
      0.7868272350D+01 -0.1193324198D+00  0.6899906659D-01
      0.1881288540D+01 -0.1608541517D+00  0.3164239610D+00
      0.5442492580D+00  0.1143456438D+01  0.7443082909D+00
 SP   1 1.00       0.000000000000
      0.1687144782D+00  0.1000000000D+01  0.1000000000D+01
 D   1 1.00       0.000000000000
      0.8000000000D+00  0.1000000000D+01
 ****
     27 0
 S   6 1.00       0.000000000000
      0.3047524880D+04  0.1834737132D-02
      0.4573695180D+03  0.1403732281D-01
      0.1039486850D+03  0.6884262226D-01
      0.2921015530D+02  0.2321844432D+00
      0.9286662960D+01  0.4679413484D+00
      0.3163926960D+01  0.3623119853D+00
 SP   3 1.00       0.000000000000
      0.7868272350D+01 -0.1193324198D+00  0.6899906659D-01
      0.1881288540D+01 -0.1608541517D+00  0.3164239610D+00
      0.5442492580D+00  0.1143456438D+01  0.7443082909D+00
 SP   1 1.00       0.000000000000
      0.1687144782D+00  0.1000000000D+01  0.1000000000D+01
 D   1 1.00       0.000000000000
      0.8000000000D+00  0.1000000000D+01
 ****
     28 0
 S   6 1.00       0.000000000000
      0.4173511460D+04  0.1834772160D-02
      0.6274579110D+03  0.1399462700D-01
      0.1429020930D+03  0.6858655181D-01
      0.4023432930D+02  0.2322408730D+00
      0.1282021290D+02  0.4690699481D+00
      0.4390437010D+01  0.3604551991D+00
 SP   3 1.00       0.000000000000
      0.1162636186D+02 -0.1149611817D+00  0.6757974388D-01
      0.2716279807D+01 -0.1691174786D+00  0.3239072959D+00
      0.7722183966D+00  0.1145851947D+01  0.7408951398D+00
 SP   1 1.00       0.000000000000
      0.2120314975D+00  0.1000000000D+01  0.1000000000D+01
 D   1 1.00       0.000000000000
      0.8000000000D+00  0.1000000000D+01
 ****
     29 0
 S   6 1.00       0.000000000000
      0.3047524880D+04  0.1834737132D-02
      0.4573695180D+03  0.1403732281D-01
      0.1039486850D+03  0.6884262226D-01
      0.2921015530D+02  0.2321844432D+00
      0.9286662960D+01  0.4679413484D+00
      0.3163926960D+01  0.3623119853D+00
 SP   3 1.00       0.000000000000
      0.7868272350D+01 -0.1193324198D+00  0.6899906659D-01
      0.1881288540D+01 -0.1608541517D+00  0.3164239610D+00
      0.5442492580D+00  0.1143456438D+01  0.7443082909D+00
 SP   1 1.00       0.000000000000
      0.1687144782D+00  0.1000000000D+01  0.1000000000D+01
 D   1 1.00       0.000000000000
      0.8000000000D+00  0.1000000000D+01
 ****
     30 0
 S   6 1.00       0.000000000000
      0.3047524880D+04  0.1834737132D-02
      0.4573695180D+03  0.1403732281D-01
      0.1039486850D+03  0.6884262226D-01
      0.2921015530D+02  0.2321844432D+00
      0.9286662960D+01  0.4679413484D+00
      0.3163926960D+01  0.3623119853D+00
 SP   3 1.00       0.000000000000
      0.7868272350D+01 -0.1193324198D+00  0.6899906659D-01
      0.1881288540D+01 -0.1608541517D+00  0.3164239610D+00
      0.5442492580D+00  0.1143456438D+01  0.7443082909D+00
 SP   1 1.00       0.000000000000
      0.1687144782D+00  0.1000000000D+01  0.1000000000D+01
 D   1 1.00       0.000000000000
      0.8000000000D+00  0.1000000000D+01
 ****
     31 0
 S   6 1.00       0.000000000000
      0.3047524880D+04  0.1834737132D-02
      0.4573695180D+03  0.1403732281D-01
      0.1039486850D+03  0.6884262226D-01
      0.2921015530D+02  0.2321844432D+00
      0.9286662960D+01  0.4679413484D+00
      0.3163926960D+01  0.3623119853D+00
 SP   3 1.00       0.000000000000
      0.7868272350D+01 -0.1193324198D+00  0.6899906659D-01
      0.1881288540D+01 -0.1608541517D+00  0.3164239610D+00
      0.5442492580D+00  0.1143456438D+01  0.7443082909D+00
 SP   1 1.00       0.000000000000
      0.1687144782D+00  0.1000000000D+01  0.1000000000D+01
 D   1 1.00       0.000000000000
      0.8000000000D+00  0.1000000000D+01
 ****
     32 0
 S   6 1.00       0.000000000000
      0.3047524880D+04  0.1834737132D-02
      0.4573695180D+03  0.1403732281D-01
      0.1039486850D+03  0.6884262226D-01
      0.2921015530D+02  0.2321844432D+00
      0.9286662960D+01  0.4679413484D+00
      0.3163926960D+01  0.3623119853D+00
 SP   3 1.00       0.000000000000
      0.7868272350D+01 -0.1193324198D+00  0.6899906659D-01
      0.1881288540D+01 -0.1608541517D+00  0.3164239610D+00
      0.5442492580D+00  0.1143456438D+01  0.7443082909D+00
 SP   1 1.00       0.000000000000
      0.1687144782D+00  0.1000000000D+01  0.1000000000D+01
 D   1 1.00       0.000000000000
      0.8000000000D+00  0.1000000000D+01
 ****
     33 0
 S   6 1.00       0.000000000000
      0.3047524880D+04  0.1834737132D-02
      0.4573695180D+03  0.1403732281D-01
      0.1039486850D+03  0.6884262226D-01
      0.2921015530D+02  0.2321844432D+00
      0.9286662960D+01  0.4679413484D+00
      0.3163926960D+01  0.3623119853D+00
 SP   3 1.00       0.000000000000
      0.7868272350D+01 -0.1193324198D+00  0.6899906659D-01
      0.1881288540D+01 -0.1608541517D+00  0.3164239610D+00
      0.5442492580D+00  0.1143456438D+01  0.7443082909D+00
 SP   1 1.00       0.000000000000
      0.1687144782D+00  0.1000000000D+01  0.1000000000D+01
 D   1 1.00       0.000000000000
      0.8000000000D+00  0.1000000000D+01
 ****
     34 0
 S   6 1.00       0.000000000000
      0.3047524880D+04  0.1834737132D-02
      0.4573695180D+03  0.1403732281D-01
      0.1039486850D+03  0.6884262226D-01
      0.2921015530D+02  0.2321844432D+00
      0.9286662960D+01  0.4679413484D+00
      0.3163926960D+01  0.3623119853D+00
 SP   3 1.00       0.000000000000
      0.7868272350D+01 -0.1193324198D+00  0.6899906659D-01
      0.1881288540D+01 -0.1608541517D+00  0.3164239610D+00
      0.5442492580D+00  0.1143456438D+01  0.7443082909D+00
 SP   1 1.00       0.000000000000
      0.1687144782D+00  0.1000000000D+01  0.1000000000D+01
 D   1 1.00       0.000000000000
      0.8000000000D+00  0.1000000000D+01
 ****
     35 0
 S   6 1.00       0.000000000000
      0.4173511460D+04  0.1834772160D-02
      0.6274579110D+03  0.1399462700D-01
      0.1429020930D+03  0.6858655181D-01
      0.4023432930D+02  0.2322408730D+00
      0.1282021290D+02  0.4690699481D+00
      0.4390437010D+01  0.3604551991D+00
 SP   3 1.00       0.000000000000
      0.1162636186D+02 -0.1149611817D+00  0.6757974388D-01
      0.2716279807D+01 -0.1691174786D+00  0.3239072959D+00
      0.7722183966D+00  0.1145851947D+01  0.7408951398D+00
 SP   1 1.00       0.000000000000
      0.2120314975D+00  0.1000000000D+01  0.1000000000D+01
 D   1 1.00       0.000000000000
      0.8000000000D+00  0.1000000000D+01
 ****
     36 0
 S   6 1.00       0.000000000000
      0.3047524880D+04  0.1834737132D-02
      0.4573695180D+03  0.1403732281D-01
      0.1039486850D+03  0.6884262226D-01
      0.2921015530D+02  0.2321844432D+00
      0.9286662960D+01  0.4679413484D+00
      0.3163926960D+01  0.3623119853D+00
 SP   3 1.00       0.000000000000
      0.7868272350D+01 -0.1193324198D+00  0.6899906659D-01
      0.1881288540D+01 -0.1608541517D+00  0.3164239610D+00
      0.5442492580D+00  0.1143456438D+01  0.7443082909D+00
 SP   1 1.00       0.000000000000
      0.1687144782D+00  0.1000000000D+01  0.1000000000D+01
 D   1 1.00       0.000000000000
      0.8000000000D+00  0.1000000000D+01
 ****
     37 0
 S   6 1.00       0.000000000000
      0.3047524880D+04  0.1834737132D-02
      0.4573695180D+03  0.1403732281D-01
      0.1039486850D+03  0.6884262226D-01
      0.2921015530D+02  0.2321844432D+00
      0.9286662960D+01  0.4679413484D+00
      0.3163926960D+01  0.3623119853D+00
 SP   3 1.00       0.000000000000
      0.7868272350D+01 -0.1193324198D+00  0.6899906659D-01
      0.1881288540D+01 -0.1608541517D+00  0.3164239610D+00
      0.5442492580D+00  0.1143456438D+01  0.7443082909D+00
 SP   1 1.00       0.000000000000
      0.1687144782D+00  0.1000000000D+01  0.1000000000D+01
 D   1 1.00       0.000000000000
      0.8000000000D+00  0.1000000000D+01
 ****
     38 0
 S   3 1.00       0.000000000000
      0.1873113696D+02  0.3349460434D-01
      0.2825394365D+01  0.2347269535D+00
      0.6401216923D+00  0.8137573261D+00
 S   1 1.00       0.000000000000
      0.1612777588D+00  0.1000000000D+01
 ****
     39 0
 S   3 1.00       0.000000000000
      0.1873113696D+02  0.3349460434D-01
      0.2825394365D+01  0.2347269535D+00
      0.6401216923D+00  0.8137573261D+00
 S   1 1.00       0.000000000000
      0.1612777588D+00  0.1000000000D+01
 ****
     40 0
 S   3 1.00       0.000000000000
      0.1873113696D+02  0.3349460434D-01
      0.2825394365D+01  0.2347269535D+00
      0.6401216923D+00  0.8137573261D+00
 S   1 1.00       0.000000000000
      0.1612777588D+00  0.1000000000D+01
 ****
     41 0
 S   3 1.00       0.000000000000
      0.1873113696D+02  0.3349460434D-01
      0.2825394365D+01  0.2347269535D+00
      0.6401216923D+00  0.8137573261D+00
 S   1 1.00       0.000000000000
      0.1612777588D+00  0.1000000000D+01
 ****
     42 0
 S   3 1.00       0.000000000000
      0.1873113696D+02  0.3349460434D-01
      0.2825394365D+01  0.2347269535D+00
      0.6401216923D+00  0.8137573261D+00
 S   1 1.00       0.000000000000
      0.1612777588D+00  0.1000000000D+01
 ****
     43 0
 S   3 1.00       0.000000000000
      0.1873113696D+02  0.3349460434D-01
      0.2825394365D+01  0.2347269535D+00
      0.6401216923D+00  0.8137573261D+00
 S   1 1.00       0.000000000000
      0.1612777588D+00  0.1000000000D+01
 ****
     44 0
 S   3 1.00       0.000000000000
      0.1873113696D+02  0.3349460434D-01
      0.2825394365D+01  0.2347269535D+00
      0.6401216923D+00  0.8137573261D+00
 S   1 1.00       0.000000000000
      0.1612777588D+00  0.1000000000D+01
 ****
     45 0
 S   3 1.00       0.000000000000
      0.1873113696D+02  0.3349460434D-01
      0.2825394365D+01  0.2347269535D+00
      0.6401216923D+00  0.8137573261D+00
 S   1 1.00       0.000000000000
      0.1612777588D+00  0.1000000000D+01
 ****
     46 0
 S   3 1.00       0.000000000000
      0.1873113696D+02  0.3349460434D-01
      0.2825394365D+01  0.2347269535D+00
      0.6401216923D+00  0.8137573261D+00
 S   1 1.00       0.000000000000
      0.1612777588D+00  0.1000000000D+01
 ****
     47 0
 S   3 1.00       0.000000000000
      0.1873113696D+02  0.3349460434D-01
      0.2825394365D+01  0.2347269535D+00
      0.6401216923D+00  0.8137573261D+00
 S   1 1.00       0.000000000000
      0.1612777588D+00  0.1000000000D+01
 ****
     48 0
 S   3 1.00       0.000000000000
      0.1873113696D+02  0.3349460434D-01
      0.2825394365D+01  0.2347269535D+00
      0.6401216923D+00  0.8137573261D+00
 S   1 1.00       0.000000000000
      0.1612777588D+00  0.1000000000D+01
 ****
     49 0
 S   3 1.00       0.000000000000
      0.1873113696D+02  0.3349460434D-01
      0.2825394365D+01  0.2347269535D+00
      0.6401216923D+00  0.8137573261D+00
 S   1 1.00       0.000000000000
      0.1612777588D+00  0.1000000000D+01
 ****
     50 0
 S   3 1.00       0.000000000000
      0.1873113696D+02  0.3349460434D-01
      0.2825394365D+01  0.2347269535D+00
      0.6401216923D+00  0.8137573261D+00
 S   1 1.00       0.000000000000
      0.1612777588D+00  0.1000000000D+01
 ****
     51 0
 S   3 1.00       0.000000000000
      0.1873113696D+02  0.3349460434D-01
      0.2825394365D+01  0.2347269535D+00
      0.6401216923D+00  0.8137573261D+00
 S   1 1.00       0.000000000000
      0.1612777588D+00  0.1000000000D+01
 ****
     52 0
 S   3 1.00       0.000000000000
      0.1873113696D+02  0.3349460434D-01
      0.2825394365D+01  0.2347269535D+00
      0.6401216923D+00  0.8137573261D+00
 S   1 1.00       0.000000000000
      0.1612777588D+00  0.1000000000D+01
 ****
     53 0
 S   3 1.00       0.000000000000
      0.1873113696D+02  0.3349460434D-01
      0.2825394365D+01  0.2347269535D+00
      0.6401216923D+00  0.8137573261D+00
 S   1 1.00       0.000000000000
      0.1612777588D+00  0.1000000000D+01
 ****
     54 0
 S   3 1.00       0.000000000000
      0.1873113696D+02  0.3349460434D-01
      0.2825394365D+01  0.2347269535D+00
      0.6401216923D+00  0.8137573261D+00
 S   1 1.00       0.000000000000
      0.1612777588D+00  0.1000000000D+01
 ****
     55 0
 S   3 1.00       0.000000000000
      0.1873113696D+02  0.3349460434D-01
      0.2825394365D+01  0.2347269535D+00
      0.6401216923D+00  0.8137573261D+00
 S   1 1.00       0.000000000000
      0.1612777588D+00  0.1000000000D+01
 ****
     56 0
 S   3 1.00       0.000000000000
      0.1873113696D+02  0.3349460434D-01
      0.2825394365D+01  0.2347269535D+00
      0.6401216923D+00  0.8137573261D+00
 S   1 1.00       0.000000000000
      0.1612777588D+00  0.1000000000D+01
 ****
     57 0
 S   3 1.00       0.000000000000
      0.1873113696D+02  0.3349460434D-01
      0.2825394365D+01  0.2347269535D+00
      0.6401216923D+00  0.8137573261D+00
 S   1 1.00       0.000000000000
      0.1612777588D+00  0.1000000000D+01
 ****
     58 0
 S   3 1.00       0.000000000000
      0.1873113696D+02  0.3349460434D-01
      0.2825394365D+01  0.2347269535D+00
      0.6401216923D+00  0.8137573261D+00
 S   1 1.00       0.000000000000
      0.1612777588D+00  0.1000000000D+01
 ****
     59 0
 S   3 1.00       0.000000000000
      0.1873113696D+02  0.3349460434D-01
      0.2825394365D+01  0.2347269535D+00
      0.6401216923D+00  0.8137573261D+00
 S   1 1.00       0.000000000000
      0.1612777588D+00  0.1000000000D+01
 ****
     60 0
 S   3 1.00       0.000000000000
      0.1873113696D+02  0.3349460434D-01
      0.2825394365D+01  0.2347269535D+00
      0.6401216923D+00  0.8137573261D+00
 S   1 1.00       0.000000000000
      0.1612777588D+00  0.1000000000D+01
 ****
     61 0
 S   3 1.00       0.000000000000
      0.1873113696D+02  0.3349460434D-01
      0.2825394365D+01  0.2347269535D+00
      0.6401216923D+00  0.8137573261D+00
 S   1 1.00       0.000000000000
      0.1612777588D+00  0.1000000000D+01
 ****
     62 0
 S   3 1.00       0.000000000000
      0.1873113696D+02  0.3349460434D-01
      0.2825394365D+01  0.2347269535D+00
      0.6401216923D+00  0.8137573261D+00
 S   1 1.00       0.000000000000
      0.1612777588D+00  0.1000000000D+01
 ****
     63 0
 S   3 1.00       0.000000000000
      0.1873113696D+02  0.3349460434D-01
      0.2825394365D+01  0.2347269535D+00
      0.6401216923D+00  0.8137573261D+00
 S   1 1.00       0.000000000000
      0.1612777588D+00  0.1000000000D+01
 ****
     64 0
 S   3 1.00       0.000000000000
      0.1873113696D+02  0.3349460434D-01
      0.2825394365D+01  0.2347269535D+00
      0.6401216923D+00  0.8137573261D+00
 S   1 1.00       0.000000000000
      0.1612777588D+00  0.1000000000D+01
 ****
     65 0
 S   3 1.00       0.000000000000
      0.1873113696D+02  0.3349460434D-01
      0.2825394365D+01  0.2347269535D+00
      0.6401216923D+00  0.8137573261D+00
 S   1 1.00       0.000000000000
      0.1612777588D+00  0.1000000000D+01
 ****

   611 basis functions,  1148 primitive gaussians,   611 cartesian basis functions
   127 alpha electrons      127 beta electrons
       nuclear repulsion energy      3307.4145606602 Hartrees.
 IExCor=  402 DFT=T Ex+Corr=B3LYP ExCW=0 ScaHFX=  0.200000
 ScaDFX=  0.800000  0.720000  1.000000  0.810000 ScalE2=  1.000000  1.000000
 IRadAn=      5 IRanWt=     -1 IRanGd=            0 ICorTp=0 IEmpDi=  4
 NAtoms=   65 NActive=   65 NUniq=   65 SFac= 1.00D+00 NAtFMM=   60 NAOKFM=T Big=T
 Integral buffers will be    131072 words long.
 Regular integral format.
 Two-electron integral symmetry is turned off.
 Leave Link  301 at Sat Nov  5 09:47:19 2022, MaxMem=   402653184 cpu:               1.5 elap:               0.1
 (Enter /home/wykgroup/appl/g16/l302.exe)
 NPDir=0 NMtPBC=     1 NCelOv=     1 NCel=       1 NClECP=     1 NCelD=      1
         NCelK=      1 NCelE2=     1 NClLst=     1 CellRange=     0.0.
 One-electron integrals computed using PRISM.
 NBasis=   611 RedAO= T EigKep=  8.61D-05  NBF=   611
 NBsUse=   611 1.00D-06 EigRej= -1.00D+00 NBFU=   611
 Precomputing XC quadrature grid using
 IXCGrd= 4 IRadAn=           5 IRanWt=          -1 IRanGd=           0 AccXCQ= 0.00D+00.
 Generated NRdTot=       0 NPtTot=           0 NUsed=           0 NTot=          32
 NSgBfM=   513   507   511   513   513 MxSgAt=    65 MxSgA2=    65.
 Leave Link  302 at Sat Nov  5 09:47:20 2022, MaxMem=   402653184 cpu:              12.9 elap:               1.0
 (Enter /home/wykgroup/appl/g16/l303.exe)
 DipDrv:  MaxL=1.
 Leave Link  303 at Sat Nov  5 09:47:20 2022, MaxMem=   402653184 cpu:               2.2 elap:               0.2
 (Enter /home/wykgroup/appl/g16/l308.exe)
 Leave Link  308 at Sat Nov  5 09:47:20 2022, MaxMem=   402653184 cpu:               2.5 elap:               0.2
 (Enter /home/wykgroup/appl/g16/l401.exe)
 ExpMin= 1.61D-01 ExpMax= 4.17D+03 ExpMxC= 6.27D+02 IAcc=3 IRadAn=         5 AccDes= 0.00D+00
 Harris functional with IExCor=  402 and IRadAn=       5 diagonalized for initial guess.
 HarFok:  IExCor=  402 AccDes= 0.00D+00 IRadAn=         5 IDoV= 1 UseB2=F ITyADJ=14
 ICtDFT=  3500011 ScaDFX=  1.000000  1.000000  1.000000  1.000000
 FoFCou: FMM=F IPFlag=           0 FMFlag=      100000 FMFlg1=        2001
         NFxFlg=           0 DoJE=T BraDBF=F KetDBF=T FulRan=T
         wScrn=  0.000000 ICntrl=       500 IOpCl=  0 I1Cent=   200000004 NGrid=           0
         NMat0=    1 NMatS0=      1 NMatT0=    0 NMatD0=    1 NMtDS0=    0 NMtDT0=    0
 Symmetry not used in FoFCou.
 Harris En= -1493.30637952379    
 JPrj=0 DoOrth=F DoCkMO=F.
 Leave Link  401 at Sat Nov  5 09:47:24 2022, MaxMem=   402653184 cpu:              39.7 elap:               3.1
 (Enter /home/wykgroup/appl/g16/l502.exe)
 Two-electron integral symmetry not used.
 Closed shell SCF:
 Using DIIS extrapolation, IDIIS=  1040.
 NGot=   402653184 LenX=   401892752 LenY=   401518820
 Requested convergence on RMS density matrix=1.00D-08 within  32 cycles.
 Requested convergence on MAX density matrix=1.00D-06.
 Requested convergence on             energy=1.00D-06.
 No special actions if energy rises.
 Fock matrices will be formed incrementally for  20 cycles.
 Integral accuracy reduced to 1.0D-05 until final iterations.

 Cycle   1  Pass 0  IDiag  1:
 FoFJK:  IHMeth= 1 ICntrl=       0 DoSepK=F KAlg= 0 I1Cent=           0 FoldK=F
 IRaf= 700000000 NMat=       1 IRICut=       1 DoRegI=T DoRafI=F ISym2E= 0 IDoP0=0 IntGTp=1.
 FoFCou: FMM=T IPFlag=           0 FMFlag=      100000 FMFlg1=        2001
         NFxFlg=           0 DoJE=F BraDBF=F KetDBF=F FulRan=T
         wScrn=  0.000000 ICntrl=         0 IOpCl=  0 I1Cent=           0 NGrid=           0
         NMat0=    1 NMatS0=      1 NMatT0=    0 NMatD0=    1 NMtDS0=    0 NMtDT0=    0
 Symmetry not used in FoFCou.
 FMM levels:  10  Number of levels for PrismC:   9
 E= -1492.51904721141    
 DIIS: error= 2.77D-02 at cycle   1 NSaved=   1.
 NSaved= 1 IEnMin= 1 EnMin= -1492.51904721141     IErMin= 1 ErrMin= 2.77D-02
 ErrMax= 2.77D-02  0.00D+00 EMaxC= 1.00D-01 BMatC= 7.16D-01 BMatP= 7.16D-01
 IDIUse=3 WtCom= 7.23D-01 WtEn= 2.77D-01
 Coeff-Com:  0.100D+01
 Coeff-En:   0.100D+01
 Coeff:      0.100D+01
 Gap=     0.171 Goal=   None    Shift=    0.000
 GapD=    0.171 DampG=1.000 DampE=0.500 DampFc=0.5000 IDamp=-1.
 Damping current iteration by 5.00D-01
 RMSDP=4.71D-03 MaxDP=2.77D-01              OVMax= 1.62D-01

 Cycle   2  Pass 0  IDiag  1:
 RMSU=  2.16D-03    CP:  9.36D-01
 E= -1492.90207424352     Delta-E=       -0.383027032111 Rises=F Damp=T
 DIIS: error= 6.27D-03 at cycle   2 NSaved=   2.
 NSaved= 2 IEnMin= 2 EnMin= -1492.90207424352     IErMin= 2 ErrMin= 6.27D-03
 ErrMax= 6.27D-03  0.00D+00 EMaxC= 1.00D-01 BMatC= 3.95D-02 BMatP= 7.16D-01
 IDIUse=3 WtCom= 9.37D-01 WtEn= 6.27D-02
 Coeff-Com: -0.462D-01 0.105D+01
 Coeff-En:   0.000D+00 0.100D+01
 Coeff:     -0.433D-01 0.104D+01
 Gap=     0.156 Goal=   None    Shift=    0.000
 RMSDP=1.12D-03 MaxDP=8.03D-02 DE=-3.83D-01 OVMax= 1.11D-01

 Cycle   3  Pass 0  IDiag  1:
 RMSU=  9.75D-04    CP:  9.09D-01  1.18D+00
 E= -1493.26454822638     Delta-E=       -0.362473982855 Rises=F Damp=F
 DIIS: error= 3.76D-03 at cycle   3 NSaved=   3.
 NSaved= 3 IEnMin= 3 EnMin= -1493.26454822638     IErMin= 3 ErrMin= 3.76D-03
 ErrMax= 3.76D-03  0.00D+00 EMaxC= 1.00D-01 BMatC= 2.27D-02 BMatP= 3.95D-02
 IDIUse=3 WtCom= 9.62D-01 WtEn= 3.76D-02
 Coeff-Com: -0.598D-01 0.455D+00 0.604D+00
 Coeff-En:   0.000D+00 0.000D+00 0.100D+01
 Coeff:     -0.575D-01 0.438D+00 0.619D+00
 Gap=     0.160 Goal=   None    Shift=    0.000
 RMSDP=5.10D-04 MaxDP=2.27D-02 DE=-3.62D-01 OVMax= 5.70D-02

 Cycle   4  Pass 0  IDiag  1:
 RMSU=  4.43D-04    CP:  9.08D-01  1.21D+00  7.54D-01
 E= -1493.27495305044     Delta-E=       -0.010404824063 Rises=F Damp=F
 DIIS: error= 3.24D-03 at cycle   4 NSaved=   4.
 NSaved= 4 IEnMin= 4 EnMin= -1493.27495305044     IErMin= 4 ErrMin= 3.24D-03
 ErrMax= 3.24D-03  0.00D+00 EMaxC= 1.00D-01 BMatC= 1.24D-02 BMatP= 2.27D-02
 IDIUse=3 WtCom= 9.68D-01 WtEn= 3.24D-02
 Coeff-Com: -0.312D-01 0.138D+00 0.430D+00 0.463D+00
 Coeff-En:   0.000D+00 0.000D+00 0.385D+00 0.615D+00
 Coeff:     -0.302D-01 0.133D+00 0.429D+00 0.468D+00
 Gap=     0.149 Goal=   None    Shift=    0.000
 RMSDP=2.97D-04 MaxDP=9.90D-03 DE=-1.04D-02 OVMax= 3.04D-02

 Cycle   5  Pass 0  IDiag  1:
 RMSU=  1.52D-04    CP:  9.07D-01  1.23D+00  8.23D-01  4.55D-01
 E= -1493.28781844930     Delta-E=       -0.012865398860 Rises=F Damp=F
 DIIS: error= 7.78D-04 at cycle   5 NSaved=   5.
 NSaved= 5 IEnMin= 5 EnMin= -1493.28781844930     IErMin= 5 ErrMin= 7.78D-04
 ErrMax= 7.78D-04  0.00D+00 EMaxC= 1.00D-01 BMatC= 6.67D-04 BMatP= 1.24D-02
 IDIUse=3 WtCom= 9.92D-01 WtEn= 7.78D-03
 Coeff-Com: -0.108D-01 0.321D-01 0.187D+00 0.265D+00 0.527D+00
 Coeff-En:   0.000D+00 0.000D+00 0.000D+00 0.000D+00 0.100D+01
 Coeff:     -0.108D-01 0.318D-01 0.185D+00 0.263D+00 0.531D+00
 Gap=     0.149 Goal=   None    Shift=    0.000
 RMSDP=7.25D-05 MaxDP=2.07D-03 DE=-1.29D-02 OVMax= 8.34D-03

 Cycle   6  Pass 0  IDiag  1:
 RMSU=  4.08D-05    CP:  9.07D-01  1.23D+00  8.25D-01  5.20D-01  6.55D-01
 E= -1493.28852053320     Delta-E=       -0.000702083901 Rises=F Damp=F
 DIIS: error= 2.63D-04 at cycle   6 NSaved=   6.
 NSaved= 6 IEnMin= 6 EnMin= -1493.28852053320     IErMin= 6 ErrMin= 2.63D-04
 ErrMax= 2.63D-04  0.00D+00 EMaxC= 1.00D-01 BMatC= 5.73D-05 BMatP= 6.67D-04
 IDIUse=3 WtCom= 9.97D-01 WtEn= 2.63D-03
 Coeff-Com: -0.332D-02 0.652D-02 0.650D-01 0.998D-01 0.298D+00 0.534D+00
 Coeff-En:   0.000D+00 0.000D+00 0.000D+00 0.000D+00 0.454D-01 0.955D+00
 Coeff:     -0.331D-02 0.651D-02 0.648D-01 0.995D-01 0.298D+00 0.535D+00
 Gap=     0.149 Goal=   None    Shift=    0.000
 RMSDP=1.92D-05 MaxDP=8.89D-04 DE=-7.02D-04 OVMax= 2.21D-03

 Cycle   7  Pass 0  IDiag  1:
 RMSU=  1.19D-05    CP:  9.07D-01  1.23D+00  8.29D-01  5.16D-01  6.79D-01
                    CP:  6.63D-01
 E= -1493.28859305229     Delta-E=       -0.000072519086 Rises=F Damp=F
 DIIS: error= 7.99D-05 at cycle   7 NSaved=   7.
 NSaved= 7 IEnMin= 7 EnMin= -1493.28859305229     IErMin= 7 ErrMin= 7.99D-05
 ErrMax= 7.99D-05  0.00D+00 EMaxC= 1.00D-01 BMatC= 7.33D-06 BMatP= 5.73D-05
 IDIUse=1 WtCom= 1.00D+00 WtEn= 0.00D+00
 Coeff-Com: -0.138D-02 0.198D-02 0.290D-01 0.457D-01 0.157D+00 0.343D+00
 Coeff-Com:  0.425D+00
 Coeff:     -0.138D-02 0.198D-02 0.290D-01 0.457D-01 0.157D+00 0.343D+00
 Coeff:      0.425D+00
 Gap=     0.149 Goal=   None    Shift=    0.000
 RMSDP=5.95D-06 MaxDP=4.24D-04 DE=-7.25D-05 OVMax= 8.18D-04

 Initial convergence to 1.0D-05 achieved.  Increase integral accuracy.
 Cycle   8  Pass 1  IDiag  1:
 E= -1493.28858332954     Delta-E=        0.000009722753 Rises=F Damp=F
 DIIS: error= 5.88D-04 at cycle   1 NSaved=   1.
 NSaved= 1 IEnMin= 1 EnMin= -1493.28858332954     IErMin= 1 ErrMin= 5.88D-04
 ErrMax= 5.88D-04  0.00D+00 EMaxC= 1.00D-01 BMatC= 3.88D-05 BMatP= 3.88D-05
 IDIUse=3 WtCom= 9.94D-01 WtEn= 5.88D-03
 Coeff-Com:  0.100D+01
 Coeff-En:   0.100D+01
 Coeff:      0.100D+01
 Gap=     0.149 Goal=   None    Shift=    0.000
 RMSDP=5.95D-06 MaxDP=4.24D-04 DE= 9.72D-06 OVMax= 8.50D-04

 Cycle   9  Pass 1  IDiag  1:
 RMSU=  4.09D-04    CP:  1.00D+00
 E= -1493.28860182765     Delta-E=       -0.000018498115 Rises=F Damp=F
 DIIS: error= 8.02D-05 at cycle   2 NSaved=   2.
 NSaved= 2 IEnMin= 2 EnMin= -1493.28860182765     IErMin= 2 ErrMin= 8.02D-05
 ErrMax= 8.02D-05  0.00D+00 EMaxC= 1.00D-01 BMatC= 5.95D-06 BMatP= 3.88D-05
 IDIUse=1 WtCom= 1.00D+00 WtEn= 0.00D+00
 Coeff-Com:  0.164D+00 0.836D+00
 Coeff:      0.164D+00 0.836D+00
 Gap=     0.149 Goal=   None    Shift=    0.000
 RMSDP=1.16D-05 MaxDP=9.00D-04 DE=-1.85D-05 OVMax= 1.88D-03

 Cycle  10  Pass 1  IDiag  1:
 RMSU=  1.11D-05    CP:  1.00D+00  1.01D+00
 E= -1493.28858240261     Delta-E=        0.000019425044 Rises=F Damp=F
 DIIS: error= 1.66D-04 at cycle   3 NSaved=   3.
 NSaved= 3 IEnMin= 2 EnMin= -1493.28860182765     IErMin= 2 ErrMin= 8.02D-05
 ErrMax= 1.66D-04  0.00D+00 EMaxC= 1.00D-01 BMatC= 2.46D-05 BMatP= 5.95D-06
 IDIUse=3 WtCom= 4.37D-01 WtEn= 5.63D-01
 Coeff-Com: -0.334D-02 0.673D+00 0.331D+00
 Coeff-En:   0.000D+00 0.736D+00 0.264D+00
 Coeff:     -0.146D-02 0.708D+00 0.293D+00
 Gap=     0.149 Goal=   None    Shift=    0.000
 RMSDP=6.50D-06 MaxDP=5.07D-04 DE= 1.94D-05 OVMax= 1.09D-03

 Cycle  11  Pass 1  IDiag  1:
 RMSU=  1.12D-06    CP:  1.00D+00  1.01D+00  4.31D-01
 E= -1493.28860748933     Delta-E=       -0.000025086720 Rises=F Damp=F
 DIIS: error= 2.22D-05 at cycle   4 NSaved=   4.
 NSaved= 4 IEnMin= 4 EnMin= -1493.28860748933     IErMin= 4 ErrMin= 2.22D-05
 ErrMax= 2.22D-05  0.00D+00 EMaxC= 1.00D-01 BMatC= 5.11D-07 BMatP= 5.95D-06
 IDIUse=1 WtCom= 1.00D+00 WtEn= 0.00D+00
 Coeff-Com: -0.289D-02 0.411D+00 0.140D+00 0.452D+00
 Coeff:     -0.289D-02 0.411D+00 0.140D+00 0.452D+00
 Gap=     0.149 Goal=   None    Shift=    0.000
 RMSDP=1.14D-06 MaxDP=9.17D-05 DE=-2.51D-05 OVMax= 1.75D-04

 Cycle  12  Pass 1  IDiag  1:
 RMSU=  4.21D-07    CP:  1.00D+00  1.01D+00  3.38D-01  8.42D-01
 E= -1493.28860802162     Delta-E=       -0.000000532295 Rises=F Damp=F
 DIIS: error= 1.20D-06 at cycle   5 NSaved=   5.
 NSaved= 5 IEnMin= 5 EnMin= -1493.28860802162     IErMin= 5 ErrMin= 1.20D-06
 ErrMax= 1.20D-06  0.00D+00 EMaxC= 1.00D-01 BMatC= 1.56D-09 BMatP= 5.11D-07
 IDIUse=1 WtCom= 1.00D+00 WtEn= 0.00D+00
 Coeff-Com: -0.151D-02 0.206D+00 0.662D-01 0.254D+00 0.475D+00
 Coeff:     -0.151D-02 0.206D+00 0.662D-01 0.254D+00 0.475D+00
 Gap=     0.149 Goal=   None    Shift=    0.000
 RMSDP=1.27D-07 MaxDP=4.33D-06 DE=-5.32D-07 OVMax= 1.27D-05

 Cycle  13  Pass 1  IDiag  1:
 RMSU=  1.10D-07    CP:  1.00D+00  1.01D+00  3.38D-01  8.61D-01  8.62D-01
 E= -1493.28860802307     Delta-E=       -0.000000001451 Rises=F Damp=F
 DIIS: error= 4.48D-07 at cycle   6 NSaved=   6.
 NSaved= 6 IEnMin= 6 EnMin= -1493.28860802307     IErMin= 6 ErrMin= 4.48D-07
 ErrMax= 4.48D-07  0.00D+00 EMaxC= 1.00D-01 BMatC= 2.16D-10 BMatP= 1.56D-09
 IDIUse=1 WtCom= 1.00D+00 WtEn= 0.00D+00
 Coeff-Com: -0.522D-03 0.691D-01 0.209D-01 0.940D-01 0.291D+00 0.526D+00
 Coeff:     -0.522D-03 0.691D-01 0.209D-01 0.940D-01 0.291D+00 0.526D+00
 Gap=     0.149 Goal=   None    Shift=    0.000
 RMSDP=3.82D-08 MaxDP=1.60D-06 DE=-1.45D-09 OVMax= 4.48D-06

 Cycle  14  Pass 1  IDiag  1:
 RMSU=  3.14D-08    CP:  1.00D+00  1.01D+00  3.38D-01  8.57D-01  8.86D-01
                    CP:  8.31D-01
 E= -1493.28860802325     Delta-E=       -0.000000000176 Rises=F Damp=F
 DIIS: error= 1.71D-07 at cycle   7 NSaved=   7.
 NSaved= 7 IEnMin= 7 EnMin= -1493.28860802325     IErMin= 7 ErrMin= 1.71D-07
 ErrMax= 1.71D-07  0.00D+00 EMaxC= 1.00D-01 BMatC= 2.04D-11 BMatP= 2.16D-10
 IDIUse=1 WtCom= 1.00D+00 WtEn= 0.00D+00
 Coeff-Com: -0.403D-04 0.434D-02 0.746D-03 0.982D-02 0.696D-01 0.283D+00
 Coeff-Com:  0.632D+00
 Coeff:     -0.403D-04 0.434D-02 0.746D-03 0.982D-02 0.696D-01 0.283D+00
 Coeff:      0.632D+00
 Gap=     0.149 Goal=   None    Shift=    0.000
 RMSDP=1.40D-08 MaxDP=5.49D-07 DE=-1.76D-10 OVMax= 1.14D-06

 Cycle  15  Pass 1  IDiag  1:
 RMSU=  9.27D-09    CP:  1.00D+00  1.01D+00  3.38D-01  8.62D-01  8.85D-01
                    CP:  8.54D-01  7.50D-01
 E= -1493.28860802329     Delta-E=       -0.000000000040 Rises=F Damp=F
 DIIS: error= 4.90D-08 at cycle   8 NSaved=   8.
 NSaved= 8 IEnMin= 8 EnMin= -1493.28860802329     IErMin= 8 ErrMin= 4.90D-08
 ErrMax= 4.90D-08  0.00D+00 EMaxC= 1.00D-01 BMatC= 2.00D-12 BMatP= 2.04D-11
 IDIUse=1 WtCom= 1.00D+00 WtEn= 0.00D+00
 Coeff-Com:  0.141D-04-0.237D-02-0.102D-02-0.117D-02 0.168D-01 0.121D+00
 Coeff-Com:  0.349D+00 0.518D+00
 Coeff:      0.141D-04-0.237D-02-0.102D-02-0.117D-02 0.168D-01 0.121D+00
 Coeff:      0.349D+00 0.518D+00
 Gap=     0.149 Goal=   None    Shift=    0.000
 RMSDP=3.58D-09 MaxDP=1.77D-07 DE=-4.00D-11 OVMax= 4.19D-07

 SCF Done:  E(RB3LYP) =  -1493.28860802     A.U. after   15 cycles
            NFock= 15  Conv=0.36D-08     -V/T= 2.0098
 KE= 1.478869272221D+03 PE=-1.007655745350D+04 EE= 3.796985012600D+03
 Leave Link  502 at Sat Nov  5 09:48:25 2022, MaxMem=   402653184 cpu:             801.4 elap:              60.9
 (Enter /home/wykgroup/appl/g16/l508.exe)
 QCSCF skips out because SCF is already converged.
 Leave Link  508 at Sat Nov  5 09:48:25 2022, MaxMem=   402653184 cpu:               0.4 elap:               0.1
 (Enter /home/wykgroup/appl/g16/l801.exe)
 DoSCS=F DFT=T ScalE2(SS,OS)=  1.000000  1.000000
 ExpMin= 1.61D-01 ExpMax= 4.17D+03 ExpMxC= 6.27D+02 IAcc=3 IRadAn=         5 AccDes= 0.00D+00
 HarFok:  IExCor=  205 AccDes= 0.00D+00 IRadAn=         5 IDoV=-2 UseB2=F ITyADJ=14
 ICtDFT= 12500011 ScaDFX=  1.000000  1.000000  1.000000  1.000000
 GSVD:  LWork=       -1665 too small for GESVD, short by        7400 words or        7400 for optimal perf.
 Largest valence mixing into a core orbital is  5.64D-05
 Largest core mixing into a valence orbital is  1.42D-05
 Range of M.O.s used for correlation:    38   611
 NBasis=   611 NAE=   127 NBE=   127 NFC=    37 NFV=     0
 NROrb=    574 NOA=    90 NOB=    90 NVA=   484 NVB=   484

 **** Warning!!: The largest alpha MO coefficient is  0.17910636D+02

 Leave Link  801 at Sat Nov  5 09:48:25 2022, MaxMem=   402653184 cpu:               5.8 elap:               0.5
 (Enter /home/wykgroup/appl/g16/l914.exe)
 RHF ground state
 Two-electron integral symmetry not used.
 MDV=   402653184 DFT=T DoStab=F Mixed=T DoRPA=T DoScal=F NonHer=T
 Making orbital integer symmetry assigments:
    16 initial guesses have been made.
 Convergence on wavefunction:    0.001000000000000
 Davidson Disk Diagonalization:  ConvIn= 1.00D-03 SkipCon=T Conv= 1.00D-03.
 Max sub-space:  2000 roots to seek:    16 dimension of matrix:        87120
 Iteration     1 Dimension    16 NMult     0 NNew     16
 CISAX will form    16 AO SS matrices at one time.
 NMat=    16 NSing=     8 JSym2X= 0.
 FoFJK:  IHMeth= 1 ICntrl=       0 DoSepK=F KAlg= 0 I1Cent=           0 FoldK=F
 IRaf= 700000000 NMat=      32 IRICut=       1 DoRegI=T DoRafI=F ISym2E= 0 IDoP0=0 IntGTp=1.
 FoFCou: FMM=T IPFlag=           0 FMFlag=      100000 FMFlg1=        2001
         NFxFlg=           0 DoJE=F BraDBF=F KetDBF=F FulRan=T
         wScrn=  0.000000 ICntrl=         0 IOpCl=  0 I1Cent=           0 NGrid=           0
         NMat0=   32 NMatS0=      8 NMatT0=    8 NMatD0=   32 NMtDS0=    0 NMtDT0=    0
 Symmetry not used in FoFCou.
 FMM levels:  10  Number of levels for PrismC:   9
 New state      1 was old state      2
 New state      2 was old state      4
 New state      3 was old state      8
 New state      4 was old state      6
 New state      5 was old state      1
 New state      6 was old state      5
 New state      8 was old state     10
 Excitation Energies [eV] at current iteration:
 Root      1 :     2.968524129490708
 Root      2 :     2.970802109369333
 Root      3 :     3.753826068525157
 Root      4 :     3.761781509226268
 Root      5 :     3.764843353420658
 Root      6 :     3.777544001628366
 Root      7 :     4.167049662370363
 Root      8 :     4.188849078336600
 Root      9 :     4.224338491881322
 Root     10 :     4.250083842814137
 Root     11 :     4.307287923348500
 Root     12 :     4.424850685726912
 Root     13 :     4.617886356974089
 Root     14 :     4.641976199812246
 Root     15 :     4.649156942237518
 Root     16 :     4.707972444854750
 Vector   3 SDiff=1.19D+01 TDiff=1.53D+01 assumed to be singlet.
 Vector   4 SDiff=1.11D+01 TDiff=1.15D+01 assumed to be singlet.
 Vector   7 SDiff=1.18D+01 TDiff=1.47D+01 assumed to be singlet.
 Vector   8 SDiff=1.12D+01 TDiff=1.14D+01 assumed to be singlet.
 Iteration     2 Dimension    24 NMult    16 NNew      8
 CISAX will form     8 AO SS matrices at one time.
 NMat=     8 NSing=     4 JSym2X= 0.
 Root      1 not converged, maximum delta is    0.134864481287651
 Root      2 not converged, maximum delta is    0.134689601299072
 New state      3 was old state      5
 Root      3 not converged, maximum delta is    0.129946726102256
 New state      4 was old state      6
 Root      4 not converged, maximum delta is    0.044493603520364
 Excitation Energies [eV] at current iteration:
 Root      1 :     2.596355575719876   Change is   -0.372168553770832
 Root      2 :     2.598309086898589   Change is   -0.372493022470745
 Root      3 :     3.721182440015488   Change is   -0.043660913405170
 Root      4 :     3.758848756127592   Change is   -0.018695245500773
 Iteration     3 Dimension    32 NMult    24 NNew      8
 CISAX will form     8 AO SS matrices at one time.
 NMat=     8 NSing=     4 JSym2X= 0.
 Root      1 not converged, maximum delta is    0.023701346589180
 Root      2 not converged, maximum delta is    0.023028250650014
 Root      3 not converged, maximum delta is    0.190112176372736
 Root      4 not converged, maximum delta is    0.005386048437927
 Excitation Energies [eV] at current iteration:
 Root      1 :     2.556297403996747   Change is   -0.040058171723129
 Root      2 :     2.558248337505903   Change is   -0.040060749392686
 Root      3 :     3.691330273116230   Change is   -0.029852166899258
 Root      4 :     3.757469464417969   Change is   -0.001379291709623
 Iteration     4 Dimension    40 NMult    32 NNew      8
 CISAX will form     8 AO SS matrices at one time.
 NMat=     8 NSing=     4 JSym2X= 0.
 Root      1 not converged, maximum delta is    0.005213896748684
 Root      2 not converged, maximum delta is    0.005252817152595
 Root      3 not converged, maximum delta is    0.111275227199135
 Root      4 not converged, maximum delta is    0.009958302908001
 Excitation Energies [eV] at current iteration:
 Root      1 :     2.553618338973672   Change is   -0.002679065023075
 Root      2 :     2.555561787441301   Change is   -0.002686550064601
 Root      3 :     3.676382165267078   Change is   -0.014948107849153
 Root      4 :     3.757022233918486   Change is   -0.000447230499483
 Iteration     5 Dimension    48 NMult    40 NNew      8
 CISAX will form     8 AO SS matrices at one time.
 NMat=     8 NSing=     4 JSym2X= 0.
 Root      1 not converged, maximum delta is    0.002611295933671
 Root      2 not converged, maximum delta is    0.002716419132200
 Root      3 not converged, maximum delta is    0.015958659493080
 Root      4 not converged, maximum delta is    0.006352045700651
 Excitation Energies [eV] at current iteration:
 Root      1 :     2.553379656134104   Change is   -0.000238682839568
 Root      2 :     2.555332805361218   Change is   -0.000228982080083
 Root      3 :     3.673444003439641   Change is   -0.002938161827436
 Root      4 :     3.756874950296836   Change is   -0.000147283621650
 Iteration     6 Dimension    56 NMult    48 NNew      8
 CISAX will form     8 AO SS matrices at one time.
 NMat=     8 NSing=     4 JSym2X= 0.
 Root      1 not converged, maximum delta is    0.001048913718016
 Root      2 not converged, maximum delta is    0.001129326044087
 Root      3 not converged, maximum delta is    0.004945697333714
 Root      4 not converged, maximum delta is    0.004744939651829
 Excitation Energies [eV] at current iteration:
 Root      1 :     2.553342259285879   Change is   -0.000037396848226
 Root      2 :     2.555293274136706   Change is   -0.000039531224511
 Root      3 :     3.672579915492423   Change is   -0.000864087947218
 Root      4 :     3.756791722167427   Change is   -0.000083228129408
 Iteration     7 Dimension    64 NMult    56 NNew      8
 CISAX will form     8 AO SS matrices at one time.
 NMat=     8 NSing=     4 JSym2X= 0.
 Root      1 has converged.
 Root      2 has converged.
 Root      3 not converged, maximum delta is    0.001153775083117
 Root      4 not converged, maximum delta is    0.002398975458277
 Excitation Energies [eV] at current iteration:
 Root      1 :     2.553335640778930   Change is   -0.000006618506949
 Root      2 :     2.555286301981393   Change is   -0.000006972155313
 Root      3 :     3.672456451408920   Change is   -0.000123464083504
 Root      4 :     3.756764521826657   Change is   -0.000027200340770
 Iteration     8 Dimension    68 NMult    64 NNew      4
 CISAX will form     4 AO SS matrices at one time.
 NMat=     4 NSing=     4 JSym2X= 0.
 Root      1 has converged.
 Root      2 has converged.
 Root      3 has converged.
 Root      4 has converged.
 Excitation Energies [eV] at current iteration:
 Root      1 :     2.553335640779026   Change is    0.000000000000096
 Root      2 :     2.555286301981361   Change is   -0.000000000000032
 Root      3 :     3.672439007463891   Change is   -0.000017443945029
 Root      4 :     3.756758854246719   Change is   -0.000005667579939
 Convergence achieved on expansion vectors.
 ***********************************************************************
 Excited states from <AA,BB:AA,BB> singles matrix:
 ***********************************************************************
 
 1PDM for each excited state written to RWF  633
 Ground to excited state transition densities written to RWF  633
 Ground to excited state transition electric dipole moments (Au):
       state          X           Y           Z        Dip. S.      Osc.
         1        -0.0000      0.0000     -0.0000      0.0000      0.0000
         2        -0.0000      0.0000     -0.0000      0.0000      0.0000
         3         3.5041     -0.2761      0.0226     12.3554      1.1117
         4        -0.0093     -0.1436     -0.1774      0.0522      0.0048
 Ground to excited state transition velocity dipole moments (Au):
       state          X           Y           Z        Dip. S.      Osc.
         1        -0.0000     -0.0000      0.0000      0.0000      0.0000
         2         0.0000      0.0000      0.0000      0.0000      0.0000
         3        -0.4642      0.0343     -0.0011      0.2166      1.0701
         4         0.0013      0.0195      0.0241      0.0010      0.0047
 Ground to excited state transition magnetic dipole moments (Au):
       state          X           Y           Z
         1         0.0000      0.0000     -0.0000
         2         0.0000     -0.0000      0.0000
         3        -0.5670      2.4189     -1.9388
         4        -0.0059     -0.0707     -0.0885
 Ground to excited state transition velocity quadrupole moments (Au):
       state          XX          YY          ZZ          XY          XZ          YZ
         1         0.0000      0.0000      0.0000     -0.0000     -0.0000      0.0000
         2         0.0000      0.0000      0.0000      0.0000      0.0000      0.0000
         3        -0.2957      0.0995      0.1941     -2.0698     -2.5746      0.1413
         4         0.7543     -0.0208     -0.0094     -0.0742      0.0170      0.0377
 <0|del|b> * <b|rxdel|0> + <0|del|b> * <b|delr+rdel|0>
 Rotatory Strengths (R) in cgs (10**-40 erg-esu-cm/Gauss)
       state          XX          YY          ZZ    R(velocity)    E-M Angle
         1        -0.0000     -0.0000      0.0000     -0.0000       90.00
         2         0.0000      0.0000     -0.0000      0.0000       90.00
         3       460.0998    517.2918    847.4204    608.2707       76.27
         4       -14.4250     -0.7813     -2.8249     -6.0104       90.00
 1/2[<0|r|b>*<b|rxdel|0> + (<0|rxdel|b>*<b|r|0>)*]
 Rotatory Strengths (R) in cgs (10**-40 erg-esu-cm/Gauss)
       state          XX          YY          ZZ     R(length)
         1         0.0000     -0.0000     -0.0000     -0.0000
         2         0.0000      0.0000      0.0000      0.0000
         3      1405.0479    472.2955     31.0509    636.1314
         4        -0.0388     -7.1766    -11.1057     -6.1070
  1/2[<0|del|b>*<b|r|0> + (<0|r|b>*<b|del|0>)*] (Au)
       state          X           Y           Z        Dip. S.   Osc.(frdel)
         1         0.0000     -0.0000     -0.0000      0.0000      0.0000
         2        -0.0000      0.0000     -0.0000      0.0000      0.0000
         3        -1.6265     -0.0095     -0.0000      1.6360      1.0906
         4        -0.0000     -0.0028     -0.0043      0.0071      0.0047

 Excitation energies and oscillator strengths:
 
 Excited state symmetry could not be determined.
 Excited State   1:      Triplet-?Sym    2.5533 eV  485.58 nm  f=0.0000  <S**2>=2.000
     126 ->129         0.45840
     127 ->128         0.48463
 This state for optimization and/or second-order correction.
 Total Energy, E(TD-HF/TD-DFT) =  -1493.19477467    
 Copying the excited state density for this state as the 1-particle RhoCI density.
 
 Excited state symmetry could not be determined.
 Excited State   2:      Triplet-?Sym    2.5553 eV  485.21 nm  f=0.0000  <S**2>=2.000
     126 ->128         0.47534
     127 ->129         0.46756
 
 Excited state symmetry could not be determined.
 Excited State   3:      Singlet-?Sym    3.6724 eV  337.61 nm  f=1.1117  <S**2>=0.000
     125 ->128         0.10492
     127 ->128         0.68909
 
 Excited state symmetry could not be determined.
 Excited State   4:      Singlet-?Sym    3.7568 eV  330.03 nm  f=0.0048  <S**2>=0.000
     125 ->129         0.10481
     126 ->128        -0.43290
     127 ->129         0.54452
 SavETr:  write IOETrn=   770 NScale= 10 NData=  16 NLR=1 NState=    4 LETran=      82.
 Leave Link  914 at Sat Nov  5 09:56:04 2022, MaxMem=   402653184 cpu:            6057.6 elap:             458.5
 (Enter /home/wykgroup/appl/g16/l601.exe)
 Copying SCF densities to generalized density rwf, IOpCl= 0 IROHF=0.

 **********************************************************************

            Population analysis using the SCF Density.

 **********************************************************************

 Alpha  occ. eigenvalues --  -14.34683 -14.34683 -14.33508 -14.33508 -10.23514
 Alpha  occ. eigenvalues --  -10.23146 -10.23146 -10.21767 -10.21767 -10.21366
 Alpha  occ. eigenvalues --  -10.21366 -10.20169 -10.20168 -10.19811 -10.19811
 Alpha  occ. eigenvalues --  -10.19060 -10.19060 -10.19006 -10.19006 -10.18970
 Alpha  occ. eigenvalues --  -10.18970 -10.18965 -10.18965 -10.18439 -10.18439
 Alpha  occ. eigenvalues --  -10.18437 -10.18437 -10.18365 -10.18365 -10.18155
 Alpha  occ. eigenvalues --  -10.18154 -10.17588 -10.17588 -10.17418 -10.17418
 Alpha  occ. eigenvalues --  -10.17134 -10.17134  -0.97506  -0.92236  -0.92236
 Alpha  occ. eigenvalues --   -0.89806  -0.85434  -0.84781  -0.84182  -0.84151
 Alpha  occ. eigenvalues --   -0.78436  -0.77930  -0.76928  -0.76672  -0.75190
 Alpha  occ. eigenvalues --   -0.74819  -0.74393  -0.74393  -0.70666  -0.70222
 Alpha  occ. eigenvalues --   -0.69455  -0.67994  -0.67897  -0.65227  -0.64792
 Alpha  occ. eigenvalues --   -0.61943  -0.61333  -0.61332  -0.60960  -0.59695
 Alpha  occ. eigenvalues --   -0.58522  -0.56775  -0.55851  -0.53193  -0.52984
 Alpha  occ. eigenvalues --   -0.51361  -0.51360  -0.51239  -0.51104  -0.50817
 Alpha  occ. eigenvalues --   -0.49632  -0.49404  -0.48990  -0.48051  -0.44994
 Alpha  occ. eigenvalues --   -0.44234  -0.43796  -0.43450  -0.43390  -0.43302
 Alpha  occ. eigenvalues --   -0.43194  -0.43180  -0.42922  -0.41809  -0.41807
 Alpha  occ. eigenvalues --   -0.41328  -0.41134  -0.41093  -0.40329  -0.39781
 Alpha  occ. eigenvalues --   -0.39492  -0.39120  -0.38697  -0.38697  -0.37983
 Alpha  occ. eigenvalues --   -0.37513  -0.37511  -0.36770  -0.36355  -0.35395
 Alpha  occ. eigenvalues --   -0.35265  -0.34700  -0.34342  -0.34294  -0.34129
 Alpha  occ. eigenvalues --   -0.33625  -0.32668  -0.32645  -0.29168  -0.28341
 Alpha  occ. eigenvalues --   -0.26342  -0.25300  -0.25218  -0.24925  -0.24925
 Alpha  occ. eigenvalues --   -0.24093  -0.23544  -0.23346  -0.22219  -0.20764
 Alpha  occ. eigenvalues --   -0.18086  -0.17915
 Alpha virt. eigenvalues --   -0.03037  -0.02848  -0.00024   0.00303   0.00303
 Alpha virt. eigenvalues --    0.00740   0.02488   0.02613   0.06607   0.06607
 Alpha virt. eigenvalues --    0.07538   0.07539   0.09162   0.10500   0.10571
 Alpha virt. eigenvalues --    0.10674   0.10788   0.10822   0.11800   0.11828
 Alpha virt. eigenvalues --    0.11837   0.12062   0.13298   0.13520   0.14473
 Alpha virt. eigenvalues --    0.15199   0.15819   0.16213   0.16240   0.16442
 Alpha virt. eigenvalues --    0.16707   0.17133   0.17241   0.17297   0.17419
 Alpha virt. eigenvalues --    0.18028   0.18412   0.18902   0.19129   0.20040
 Alpha virt. eigenvalues --    0.20334   0.20392   0.21758   0.21954   0.22624
 Alpha virt. eigenvalues --    0.23482   0.23664   0.23722   0.24010   0.24705
 Alpha virt. eigenvalues --    0.25198   0.25531   0.27492   0.27733   0.28468
 Alpha virt. eigenvalues --    0.28785   0.29332   0.29847   0.31393   0.31653
 Alpha virt. eigenvalues --    0.32501   0.32539   0.33182   0.33217   0.34104
 Alpha virt. eigenvalues --    0.35152   0.35531   0.35537   0.36184   0.37111
 Alpha virt. eigenvalues --    0.37412   0.38412   0.40249   0.40539   0.41260
 Alpha virt. eigenvalues --    0.42252   0.45121   0.45826   0.48405   0.48470
 Alpha virt. eigenvalues --    0.49763   0.49903   0.50700   0.51373   0.51572
 Alpha virt. eigenvalues --    0.51836   0.51881   0.52591   0.52813   0.53278
 Alpha virt. eigenvalues --    0.53548   0.53977   0.53990   0.54098   0.54253
 Alpha virt. eigenvalues --    0.54639   0.54868   0.55183   0.56112   0.56524
 Alpha virt. eigenvalues --    0.57139   0.57237   0.57466   0.57659   0.57831
 Alpha virt. eigenvalues --    0.57879   0.58749   0.58919   0.58995   0.59055
 Alpha virt. eigenvalues --    0.59990   0.60061   0.60098   0.60113   0.60157
 Alpha virt. eigenvalues --    0.60358   0.60881   0.61217   0.62240   0.62507
 Alpha virt. eigenvalues --    0.62610   0.62736   0.63298   0.64061   0.65614
 Alpha virt. eigenvalues --    0.65650   0.66105   0.66270   0.66479   0.66617
 Alpha virt. eigenvalues --    0.67421   0.67779   0.69055   0.69548   0.70368
 Alpha virt. eigenvalues --    0.70405   0.70997   0.71119   0.71435   0.72789
 Alpha virt. eigenvalues --    0.73950   0.74748   0.74894   0.76111   0.76153
 Alpha virt. eigenvalues --    0.76465   0.76590   0.76890   0.77052   0.77699
 Alpha virt. eigenvalues --    0.78420   0.78477   0.78864   0.79409   0.79531
 Alpha virt. eigenvalues --    0.80320   0.81186   0.81442   0.82090   0.82526
 Alpha virt. eigenvalues --    0.83256   0.83620   0.83827   0.84036   0.84615
 Alpha virt. eigenvalues --    0.85430   0.86363   0.86592   0.86812   0.87102
 Alpha virt. eigenvalues --    0.87375   0.87413   0.88043   0.88079   0.88321
 Alpha virt. eigenvalues --    0.88336   0.88708   0.88746   0.89176   0.89729
 Alpha virt. eigenvalues --    0.89872   0.90299   0.91948   0.92065   0.92984
 Alpha virt. eigenvalues --    0.93458   0.93634   0.94059   0.94767   0.95161
 Alpha virt. eigenvalues --    0.95249   0.95757   0.96415   0.96875   0.97271
 Alpha virt. eigenvalues --    0.97319   0.98907   0.99694   0.99744   1.00725
 Alpha virt. eigenvalues --    1.00806   1.01391   1.02159   1.02963   1.03160
 Alpha virt. eigenvalues --    1.05571   1.06556   1.06842   1.07507   1.07752
 Alpha virt. eigenvalues --    1.07857   1.08550   1.09382   1.10268   1.13720
 Alpha virt. eigenvalues --    1.14818   1.15844   1.16887   1.17377   1.17435
 Alpha virt. eigenvalues --    1.17677   1.17963   1.18762   1.19538   1.19560
 Alpha virt. eigenvalues --    1.20085   1.21290   1.21825   1.22518   1.22615
 Alpha virt. eigenvalues --    1.23259   1.23795   1.23893   1.25126   1.25843
 Alpha virt. eigenvalues --    1.25893   1.26965   1.28245   1.28479   1.28948
 Alpha virt. eigenvalues --    1.30183   1.30779   1.32740   1.35206   1.36255
 Alpha virt. eigenvalues --    1.36680   1.37126   1.37795   1.38959   1.39580
 Alpha virt. eigenvalues --    1.39960   1.41388   1.41755   1.44205   1.45826
 Alpha virt. eigenvalues --    1.45856   1.46281   1.46427   1.46751   1.47445
 Alpha virt. eigenvalues --    1.48133   1.48484   1.48634   1.49768   1.51436
 Alpha virt. eigenvalues --    1.51449   1.52702   1.53047   1.56278   1.56458
 Alpha virt. eigenvalues --    1.57792   1.58120   1.58316   1.58319   1.58739
 Alpha virt. eigenvalues --    1.58757   1.61262   1.61488   1.63053   1.64908
 Alpha virt. eigenvalues --    1.65779   1.69401   1.70492   1.70978   1.72750
 Alpha virt. eigenvalues --    1.74615   1.75676   1.76326   1.77195   1.78238
 Alpha virt. eigenvalues --    1.79118   1.81059   1.81306   1.81990   1.82358
 Alpha virt. eigenvalues --    1.83857   1.84223   1.84361   1.84646   1.85436
 Alpha virt. eigenvalues --    1.85911   1.86430   1.86726   1.88326   1.88693
 Alpha virt. eigenvalues --    1.89248   1.90182   1.90964   1.90972   1.91155
 Alpha virt. eigenvalues --    1.91634   1.91745   1.91998   1.92717   1.92788
 Alpha virt. eigenvalues --    1.93201   1.93382   1.94455   1.94597   1.95488
 Alpha virt. eigenvalues --    1.96452   1.98003   1.98144   1.98746   1.99046
 Alpha virt. eigenvalues --    1.99053   2.01138   2.01456   2.02334   2.03142
 Alpha virt. eigenvalues --    2.04385   2.04394   2.06251   2.06947   2.07782
 Alpha virt. eigenvalues --    2.07820   2.08361   2.09333   2.10391   2.10598
 Alpha virt. eigenvalues --    2.11058   2.12456   2.12867   2.13908   2.14349
 Alpha virt. eigenvalues --    2.14822   2.15750   2.17150   2.17456   2.18683
 Alpha virt. eigenvalues --    2.18774   2.19201   2.19225   2.19645   2.19674
 Alpha virt. eigenvalues --    2.20490   2.20825   2.22129   2.23631   2.24008
 Alpha virt. eigenvalues --    2.25480   2.26841   2.27792   2.27899   2.28204
 Alpha virt. eigenvalues --    2.29301   2.31333   2.31919   2.31932   2.32239
 Alpha virt. eigenvalues --    2.32368   2.33591   2.34788   2.35288   2.35521
 Alpha virt. eigenvalues --    2.36332   2.37791   2.38302   2.39709   2.40711
 Alpha virt. eigenvalues --    2.41313   2.41594   2.42143   2.43416   2.43706
 Alpha virt. eigenvalues --    2.44619   2.45030   2.45696   2.46064   2.47721
 Alpha virt. eigenvalues --    2.47842   2.49806   2.51348   2.52237   2.54977
 Alpha virt. eigenvalues --    2.55408   2.58354   2.58790   2.59946   2.62387
 Alpha virt. eigenvalues --    2.63876   2.64168   2.64270   2.65536   2.65666
 Alpha virt. eigenvalues --    2.67598   2.67709   2.68190   2.68268   2.71325
 Alpha virt. eigenvalues --    2.72726   2.74844   2.74927   2.77009   2.78570
 Alpha virt. eigenvalues --    2.78751   2.80610   2.80730   2.83067   2.84758
 Alpha virt. eigenvalues --    2.85579   2.86044   2.88211   2.88793   2.88877
 Alpha virt. eigenvalues --    2.89087   2.89691   2.91389   2.93553   2.94554
 Alpha virt. eigenvalues --    2.94588   2.96378   2.96395   3.03735   3.04294
 Alpha virt. eigenvalues --    3.06808   3.07262   3.15730   3.17478   3.31575
 Alpha virt. eigenvalues --    3.31907   3.35863   3.36004   3.42582   3.42946
 Alpha virt. eigenvalues --    3.60231   3.60300   3.83640   3.83641   4.05349
 Alpha virt. eigenvalues --    4.07870   4.07916   4.09867   4.09887   4.11991
 Alpha virt. eigenvalues --    4.11996   4.12786   4.12920   4.13867   4.14358
 Alpha virt. eigenvalues --    4.18006   4.18262   4.25192   4.26719   4.28139
 Alpha virt. eigenvalues --    4.29252   4.32995   4.32995   4.34142   4.34781
 Alpha virt. eigenvalues --    4.36591   4.36956   4.44118   4.46548   4.48438
 Alpha virt. eigenvalues --    4.53490   4.54369   4.56832   4.66845   4.67999
 Alpha virt. eigenvalues --    4.81058   4.81764   5.01264   5.01634
          Condensed to atoms (all electrons):
 Mulliken charges:
               1
     1  C   -0.535923
     2  C    0.168722
     3  C   -0.227297
     4  C    0.049731
     5  C   -0.034510
     6  C   -0.059550
     7  C    0.005090
     8  C   -0.140608
     9  C   -0.179227
    10  C    0.323733
    11  N   -0.789339
    12  C   -0.179212
    13  C   -0.140569
    14  C   -0.232750
    15  C    0.153566
    16  C    0.158290
    17  N   -0.462495
    18  C   -0.236186
    19  C    0.153583
    20  C   -0.232764
    21  C    0.049776
    22  C   -0.034512
    23  C   -0.059551
    24  C    0.005131
    25  C   -0.140634
    26  C   -0.179226
    27  C    0.323744
    28  N   -0.789344
    29  C   -0.179217
    30  C   -0.140590
    31  C   -0.227324
    32  C    0.168704
    33  C   -0.535917
    34  C    0.158318
    35  N   -0.462503
    36  C   -0.236172
    37  C   -0.072313
    38  H    0.153887
    39  H    0.175413
    40  H    0.157045
    41  H    0.128308
    42  H    0.137300
    43  H    0.120210
    44  H    0.322838
    45  H    0.322853
    46  H    0.120135
    47  H    0.136805
    48  H    0.127104
    49  H    0.167691
    50  H    0.162224
    51  H    0.127100
    52  H    0.137299
    53  H    0.120208
    54  H    0.322839
    55  H    0.322853
    56  H    0.120135
    57  H    0.136810
    58  H    0.128313
    59  H    0.157045
    60  H    0.175413
    61  H    0.153887
    62  H    0.167692
    63  H    0.162224
    64  H    0.162856
    65  H    0.162857
 Sum of Mulliken charges =  -0.00000
 Mulliken charges with hydrogens summed into heavy atoms:
               1
     1  C   -0.049578
     2  C    0.168722
     3  C   -0.098989
     4  C    0.049731
     5  C   -0.034510
     6  C   -0.059550
     7  C    0.005090
     8  C   -0.003308
     9  C   -0.059017
    10  C    0.323733
    11  N   -0.143648
    12  C   -0.059076
    13  C   -0.003764
    14  C   -0.105645
    15  C    0.153566
    16  C    0.158290
    17  N   -0.462495
    18  C    0.093730
    19  C    0.153583
    20  C   -0.105665
    21  C    0.049776
    22  C   -0.034512
    23  C   -0.059551
    24  C    0.005131
    25  C   -0.003335
    26  C   -0.059018
    27  C    0.323744
    28  N   -0.143651
    29  C   -0.059082
    30  C   -0.003780
    31  C   -0.099011
    32  C    0.168704
    33  C   -0.049573
    34  C    0.158318
    35  N   -0.462503
    36  C    0.093745
    37  C    0.253400
 Electronic spatial extent (au):  <R**2>=          37314.2904
 Charge=              0.0000 electrons
 Dipole moment (field-independent basis, Debye):
    X=              0.1980    Y=              2.7946    Z=              3.4539  Tot=              4.4473
 Quadrupole moment (field-independent basis, Debye-Ang):
   XX=           -172.4064   YY=           -186.6096   ZZ=           -184.4577
   XY=             -5.9903   XZ=              4.4661   YZ=              6.3682
 Traceless Quadrupole moment (field-independent basis, Debye-Ang):
   XX=              8.7515   YY=             -5.4517   ZZ=             -3.2998
   XY=             -5.9903   XZ=              4.4661   YZ=              6.3682
 Octapole moment (field-independent basis, Debye-Ang**2):
  XXX=             86.0664  YYY=             94.6076  ZZZ=            115.9844  XYY=            -33.1533
  XXY=            405.3000  XXZ=            499.6383  XZZ=            -14.4293  YZZ=             55.2458
  YYZ=             52.0271  XYZ=            -28.0613
 Hexadecapole moment (field-independent basis, Debye-Ang**3):
 XXXX=         -35846.0380 YYYY=          -4559.1186 ZZZZ=          -5555.6846 XXXY=             72.0627
 XXXZ=           1266.3021 YYYX=           -220.2297 YYYZ=          -1040.5842 ZZZX=            796.3747
 ZZZY=          -1004.0453 XXYY=          -5495.9994 XXZZ=          -5071.1304 YYZZ=          -1593.9431
 XXYZ=            973.4298 YYXZ=             53.4763 ZZXY=            -97.4628
 N-N= 3.307414560660D+03 E-N=-1.007655743946D+04  KE= 1.478869272221D+03
 Leave Link  601 at Sat Nov  5 09:56:04 2022, MaxMem=   402653184 cpu:               1.8 elap:               0.2
 (Enter /home/wykgroup/appl/g16/l9999.exe)
 Electronic transition elements 
                 1             2             3             4 
      1  -0.149319D+04 -0.149319D+04 -0.149315D+04 -0.149315D+04
      2   0.000000D+00  0.000000D+00  0.350409D+01 -0.928051D-02
      3   0.000000D+00  0.000000D+00 -0.276102D+00 -0.143607D+00
      4   0.000000D+00  0.000000D+00  0.226474D-01 -0.177374D+00
      5   0.000000D+00  0.000000D+00 -0.464169D+00  0.126484D-02
      6   0.000000D+00  0.000000D+00  0.342626D-01  0.195106D-01
      7   0.000000D+00  0.000000D+00 -0.112852D-02  0.241018D-01
      8   0.000000D+00  0.000000D+00 -0.567016D+00 -0.591212D-02
      9   0.000000D+00  0.000000D+00  0.241893D+01 -0.706679D-01
     10   0.000000D+00  0.000000D+00 -0.193881D+01 -0.885385D-01
     11   0.000000D+00  0.000000D+00 -0.295694D+00  0.754266D+00
     12   0.000000D+00  0.000000D+00  0.994881D-01 -0.207925D-01
     13   0.000000D+00  0.000000D+00  0.194092D+00 -0.940240D-02
     14   0.000000D+00  0.000000D+00 -0.206982D+01 -0.742132D-01
     15   0.000000D+00  0.000000D+00 -0.257464D+01  0.169620D-01
     16   0.000000D+00  0.000000D+00  0.141322D+00  0.377050D-01
 1\1\GINC-NODE81\SP\RB3LYP TD-FC\6-31G(d)\C33H28N4\WYKGROUP\05-Nov-2022
 \0\\#p b3lyp/6-31g(d) 6D 10F nosymm GFInput td=(50-50,nstate=2) SCF=XQ
 C\\Gaussian input prepared by ASE\\0,1\C,0,1.4848811319,1.2183596798,-
 4.0766351692\C,0,1.9245745022,0.3516010636,-2.9210806824\C,0,3.0563877
 404,0.6890763774,-2.1833320425\C,0,3.5228087279,-0.1153010835,-1.12416
 87816\C,0,4.6871704841,0.2492042562,-0.3903294481\C,0,5.6828733243,0.5
 613726341,0.236882377\C,0,6.8458604528,0.9263016469,0.9702228182\C,0,7
 .557979793,2.1053035186,0.6684163488\C,0,8.6904873667,2.464245466,1.38
 53154206\C,0,9.1617017098,1.6577843803,2.4373459607\N,0,10.3313120325,
 1.9879920311,3.1210112333\C,0,8.4569956187,0.479317156,2.7435709828\C,
 0,7.3248162052,0.1225025169,2.0250862875\C,0,2.8125918649,-1.287345563
 1,-0.8168384018\C,0,1.6705843645,-1.644359276,-1.5308633226\C,0,1.2217
 819461,-0.8291475504,-2.5882670442\N,0,0.078423956,-1.2122011228,-3.36
 70745076\C,0,-1.1629903013,-0.4968367946,-3.0162866591\C,0,-1.86083821
 73,-1.0744601316,-1.7896410485\C,0,-2.9290174423,-0.3888014979,-1.2148
 917638\C,0,-3.5921315066,-0.8956000854,-0.0852972726\C,0,-4.6807894471
 ,-0.190928879,0.5023976549\C,0,-5.6117435822,0.411262665,1.0053466243\
 C,0,-6.6990085779,1.1153575829,1.5932292276\C,0,-7.3632528139,0.612684
 127,2.7309222112\C,0,-8.4216317428,1.3002839981,3.3074615685\C,0,-8.86
 33261806,2.5230675756,2.7699701402\N,0,-9.9625658644,3.1863488096,3.31
 41705574\C,0,-8.2061304439,3.0303559227,1.6342229838\C,0,-7.1480690195
 ,2.3407795761,1.0594556115\C,0,-3.1557818682,-2.1246540474,0.448952896
 9\C,0,-2.0983028879,-2.8370071593,-0.1109178716\C,0,-1.6917478066,-4.1
 717686667,0.4661710094\C,0,-1.4413088007,-2.3030900794,-1.2432342265\N
 ,0,-0.3777142799,-3.0465742498,-1.8568603677\C,0,0.9230228397,-2.92408
 32939,-1.1720340384\C,0,-0.1862289366,-2.6460822741,-3.2506171995\H,0,
 2.3185905352,1.8225281364,-4.4478819457\H,0,1.0981901725,0.6029063498,
 -4.8949156894\H,0,0.6839064933,1.914033268,-3.7916638278\H,0,3.6106322
 748,1.5877467276,-2.4393389189\H,0,7.2074483833,2.7414957044,-0.138698
 1823\H,0,9.2246273451,3.3769923772,1.1303669379\H,0,10.4159551299,1.59
 32426092,4.0493377395\H,0,10.5780532061,2.9696792563,3.1072095771\H,0,
 8.808573073,-0.1598580668,3.5505805213\H,0,6.7922522332,-0.7895341373,
 2.2773325439\H,0,3.1576911026,-1.9158937355,0.0007330287\H,0,-0.932302
 1154,0.5589035092,-2.8509845699\H,0,-1.836655411,-0.5412503541,-3.8840
 535151\H,0,-3.2513916285,0.5606826475,-1.6357767307\H,0,-7.0343483363,
 -0.3284928137,3.161101786\H,0,-8.9202492201,0.889380631,4.1826473898\H
 ,0,-10.0047518126,4.1801801179,3.1262838602\H,0,-10.1543937191,2.98023
 26412,4.2865386956\H,0,-8.5362514877,3.9721158294,1.2011820844\H,0,-6.
 6511688491,2.7489838215,0.1845139385\H,0,-3.6752796441,-2.5325751706,1
 .3115404555\H,0,-0.8353574043,-4.0847516882,1.1486329652\H,0,-1.397543
 8595,-4.8625857316,-0.3301400901\H,0,-2.5140350156,-4.6145927534,1.036
 8421827\H,0,0.7636952528,-2.9719209786,-0.0915454177\H,0,1.5315691595,
 -3.7993694997,-1.4410356947\H,0,-1.0853981506,-2.8841575628,-3.8265901
 138\H,0,0.6562669513,-3.2084383642,-3.6640010773\\Version=ES64L-G16Rev
 B.01\HF=-1493.288608\RMSD=3.581e-09\PG=C01 [X(C33H28N4)]\\@


 HE WHO LAUGHS LAST PROBABLY DIDN'T GET THE JOKE.
 Job cpu time:       0 days  1 hours 55 minutes 33.2 seconds.
 Elapsed time:       0 days  0 hours  8 minutes 45.5 seconds.
 File lengths (MBytes):  RWF=   2078 Int=      0 D2E=      0 Chk=     77 Scr=      1
 Normal termination of Gaussian 16 at Sat Nov  5 09:56:05 2022.
