 Entering Gaussian System, Link 0=/home/wykgroup/appl/g16/g16
 Input=calculation/no_transfer_pubchem_sampling_7_b3lyp/19084130_rwf.com
 Output=calculation/no_transfer_pubchem_sampling_7_b3lyp/19084130_rwf.log
 Initial command:
 /home/wykgroup/appl/g16/l1.exe "/userdata/scratch/wykgroup/khs/calculation/no_transfer_pubchem_sampling_7_b3lyp/19084130_rwf/Gau-16150.inp" -scrdir="/userdata/scratch/wykgroup/khs/calculation/no_transfer_pubchem_sampling_7_b3lyp/19084130_rwf/"
 Entering Link 1 = /home/wykgroup/appl/g16/l1.exe PID=     16151.
  
 Copyright (c) 1988-2017, Gaussian, Inc.  All Rights Reserved.
  
 This is part of the Gaussian(R) 16 program.  It is based on
 the Gaussian(R) 09 system (copyright 2009, Gaussian, Inc.),
 the Gaussian(R) 03 system (copyright 2003, Gaussian, Inc.),
 the Gaussian(R) 98 system (copyright 1998, Gaussian, Inc.),
 the Gaussian(R) 94 system (copyright 1995, Gaussian, Inc.),
 the Gaussian 92(TM) system (copyright 1992, Gaussian, Inc.),
 the Gaussian 90(TM) system (copyright 1990, Gaussian, Inc.),
 the Gaussian 88(TM) system (copyright 1988, Gaussian, Inc.),
 the Gaussian 86(TM) system (copyright 1986, Carnegie Mellon
 University), and the Gaussian 82(TM) system (copyright 1983,
 Carnegie Mellon University). Gaussian is a federally registered
 trademark of Gaussian, Inc.
  
 This software contains proprietary and confidential information,
 including trade secrets, belonging to Gaussian, Inc.
  
 This software is provided under written license and may be
 used, copied, transmitted, or stored only in accord with that
 written license.
  
 The following legend is applicable only to US Government
 contracts under FAR:
  
                    RESTRICTED RIGHTS LEGEND
  
 Use, reproduction and disclosure by the US Government is
 subject to restrictions as set forth in subparagraphs (a)
 and (c) of the Commercial Computer Software - Restricted
 Rights clause in FAR 52.227-19.
  
 Gaussian, Inc.
 340 Quinnipiac St., Bldg. 40, Wallingford CT 06492
  
  
 ---------------------------------------------------------------
 Warning -- This program may not be used in any manner that
 competes with the business of Gaussian, Inc. or will provide
 assistance to any competitor of Gaussian, Inc.  The licensee
 of this program is prohibited from giving any competitor of
 Gaussian, Inc. access to this program.  By using this program,
 the user acknowledges that Gaussian, Inc. is engaged in the
 business of creating and licensing software in the field of
 computational chemistry and represents and warrants to the
 licensee that it is not a competitor of Gaussian, Inc. and that
 it will not use this program in any manner prohibited above.
 ---------------------------------------------------------------
  

 Cite this work as:
 Gaussian 16, Revision B.01,
 M. J. Frisch, G. W. Trucks, H. B. Schlegel, G. E. Scuseria, 
 M. A. Robb, J. R. Cheeseman, G. Scalmani, V. Barone, 
 G. A. Petersson, H. Nakatsuji, X. Li, M. Caricato, A. V. Marenich, 
 J. Bloino, B. G. Janesko, R. Gomperts, B. Mennucci, H. P. Hratchian, 
 J. V. Ortiz, A. F. Izmaylov, J. L. Sonnenberg, D. Williams-Young, 
 F. Ding, F. Lipparini, F. Egidi, J. Goings, B. Peng, A. Petrone, 
 T. Henderson, D. Ranasinghe, V. G. Zakrzewski, J. Gao, N. Rega, 
 G. Zheng, W. Liang, M. Hada, M. Ehara, K. Toyota, R. Fukuda, 
 J. Hasegawa, M. Ishida, T. Nakajima, Y. Honda, O. Kitao, H. Nakai, 
 T. Vreven, K. Throssell, J. A. Montgomery, Jr., J. E. Peralta, 
 F. Ogliaro, M. J. Bearpark, J. J. Heyd, E. N. Brothers, K. N. Kudin, 
 V. N. Staroverov, T. A. Keith, R. Kobayashi, J. Normand, 
 K. Raghavachari, A. P. Rendell, J. C. Burant, S. S. Iyengar, 
 J. Tomasi, M. Cossi, J. M. Millam, M. Klene, C. Adamo, R. Cammi, 
 J. W. Ochterski, R. L. Martin, K. Morokuma, O. Farkas, 
 J. B. Foresman, and D. J. Fox, Gaussian, Inc., Wallingford CT, 2016.
 
 ******************************************
 Gaussian 16:  ES64L-G16RevB.01 20-Dec-2017
                 5-Nov-2022 
 ******************************************
 %chk=calculation/no_transfer_pubchem_sampling_7_b3lyp/19084130_rwf.chk
 %rwf=calculation/no_transfer_pubchem_sampling_7_b3lyp/19084130_rwf.rwf
 %nprocshared=14
 Will use up to   14 processors via shared memory.
 %mem=3GB
 -------------------------------------------------------------------
 #p b3lyp/6-31g(d) 6D 10F nosymm GFInput td=(50-50,nstate=2) SCF=XQC
 -------------------------------------------------------------------
 1/38=1,172=1/1;
 2/12=2,15=1,17=6,18=5,40=1/2;
 3/5=1,6=6,7=1,8=22,11=9,24=10,25=1,30=1,74=-5/1,2,3,8;
 4//1;
 5/5=2,8=3,13=1,38=5/2,8;
 8/6=1,10=2,108=2/1;
 9/41=2,42=1,48=2,70=2/14;
 6/7=2,8=2,9=2,10=2/1;
 99/5=1,9=1/99;
 Leave Link    1 at Sat Nov  5 09:43:41 2022, MaxMem=   402653184 cpu:               3.5 elap:               0.4
 (Enter /home/wykgroup/appl/g16/l101.exe)
 ------------------------------
 Gaussian input prepared by ASE
 ------------------------------
 Symbolic Z-matrix:
 Charge =  0 Multiplicity = 1
 O                    -2.62259  -1.63266   1.54474 
 C                    -2.96705  -0.80233   0.70157 
 C                    -4.36257  -0.75399   0.21613 
 C                    -5.32575  -1.64775   0.71886 
 C                    -6.63359  -1.607     0.26364 
 C                    -7.00401  -0.66434  -0.7115 
 C                    -6.07315   0.22776  -1.22451 
 C                    -4.75525   0.1757   -0.75454 
 O                    -3.87768   1.06957  -1.28814 
 C                    -2.57184   1.08217  -0.87015 
 C                    -1.77418   2.05192  -1.4884 
 C                    -0.43612   2.14682  -1.15434 
 C                     0.11095   1.2794   -0.19908 
 C                    -0.67732   0.31487   0.45038 
 C                    -2.05686   0.20013   0.09861 
 C                    -0.01482  -0.46576   1.49044 
 C                     1.32017  -0.40415   1.6353 
 C                     2.18386   0.36129   0.67459 
 C                     3.46652   1.00906   1.28194 
 C                     4.60275   0.42898   0.47227 
 C                     5.97179   0.64221   0.54205 
 C                     6.82153  -0.06794  -0.31841 
 C                     6.2883   -0.97684  -1.23479 
 C                     4.90799  -1.19036  -1.32447 
 C                     4.07693  -0.47531  -0.46321 
 N                     2.68094  -0.50086  -0.39009 
 O                     1.42274   1.46679   0.1095 
 H                    -5.00238  -2.36144   1.46951 
 H                    -7.37182  -2.29953   0.65682 
 H                    -8.02892  -0.63016  -1.07056 
 H                    -6.33619   0.96337  -1.97761 
 H                    -2.22418   2.70544  -2.228 
 H                     0.21153   2.88244  -1.61979 
 H                    -0.62543  -1.0823    2.13499 
 H                     1.82976  -0.96894   2.41142 
 H                     3.38139   2.09632   1.19017 
 H                     3.5529    0.77783   2.35008 
 H                     6.38538   1.34161   1.26503 
 H                     7.89548   0.08593  -0.26754 
 H                     6.95265  -1.52706  -1.89611 
 H                     4.49724  -1.88879  -2.04848 
 H                     2.18089  -1.3621   -0.56875 
 
 ITRead=  0  0  0  0  0  0  0  0  0  0  0  0  0  0  0  0  0  0  0  0
 ITRead=  0  0  0  0  0  0  0  0  0  0  0  0  0  0  0  0  0  0  0  0
 ITRead=  0  0
 MicOpt= -1 -1 -1 -1 -1 -1 -1 -1 -1 -1 -1 -1 -1 -1 -1 -1 -1 -1 -1 -1
 MicOpt= -1 -1 -1 -1 -1 -1 -1 -1 -1 -1 -1 -1 -1 -1 -1 -1 -1 -1 -1 -1
 MicOpt= -1 -1
 NAtoms=     42 NQM=       42 NQMF=       0 NMMI=      0 NMMIF=      0
                NMic=       0 NMicF=      0.
                    Isotopes and Nuclear Properties:
 (Nuclear quadrupole moments (NQMom) in fm**2, nuclear magnetic moments (NMagM)
  in nuclear magnetons)

  Atom         1           2           3           4           5           6           7           8           9          10
 IAtWgt=          16          12          12          12          12          12          12          12          16          12
 AtmWgt=  15.9949146  12.0000000  12.0000000  12.0000000  12.0000000  12.0000000  12.0000000  12.0000000  15.9949146  12.0000000
 NucSpn=           0           0           0           0           0           0           0           0           0           0
 AtZEff=  -0.0000000  -0.0000000  -0.0000000  -0.0000000  -0.0000000  -0.0000000  -0.0000000  -0.0000000  -0.0000000  -0.0000000
 NQMom=    0.0000000   0.0000000   0.0000000   0.0000000   0.0000000   0.0000000   0.0000000   0.0000000   0.0000000   0.0000000
 NMagM=    0.0000000   0.0000000   0.0000000   0.0000000   0.0000000   0.0000000   0.0000000   0.0000000   0.0000000   0.0000000
 AtZNuc=   8.0000000   6.0000000   6.0000000   6.0000000   6.0000000   6.0000000   6.0000000   6.0000000   8.0000000   6.0000000

  Atom        11          12          13          14          15          16          17          18          19          20
 IAtWgt=          12          12          12          12          12          12          12          12          12          12
 AtmWgt=  12.0000000  12.0000000  12.0000000  12.0000000  12.0000000  12.0000000  12.0000000  12.0000000  12.0000000  12.0000000
 NucSpn=           0           0           0           0           0           0           0           0           0           0
 AtZEff=  -0.0000000  -0.0000000  -0.0000000  -0.0000000  -0.0000000  -0.0000000  -0.0000000  -0.0000000  -0.0000000  -0.0000000
 NQMom=    0.0000000   0.0000000   0.0000000   0.0000000   0.0000000   0.0000000   0.0000000   0.0000000   0.0000000   0.0000000
 NMagM=    0.0000000   0.0000000   0.0000000   0.0000000   0.0000000   0.0000000   0.0000000   0.0000000   0.0000000   0.0000000
 AtZNuc=   6.0000000   6.0000000   6.0000000   6.0000000   6.0000000   6.0000000   6.0000000   6.0000000   6.0000000   6.0000000

  Atom        21          22          23          24          25          26          27          28          29          30
 IAtWgt=          12          12          12          12          12          14          16           1           1           1
 AtmWgt=  12.0000000  12.0000000  12.0000000  12.0000000  12.0000000  14.0030740  15.9949146   1.0078250   1.0078250   1.0078250
 NucSpn=           0           0           0           0           0           2           0           1           1           1
 AtZEff=  -0.0000000  -0.0000000  -0.0000000  -0.0000000  -0.0000000  -0.0000000  -0.0000000  -0.0000000  -0.0000000  -0.0000000
 NQMom=    0.0000000   0.0000000   0.0000000   0.0000000   0.0000000   2.0440000   0.0000000   0.0000000   0.0000000   0.0000000
 NMagM=    0.0000000   0.0000000   0.0000000   0.0000000   0.0000000   0.4037610   0.0000000   2.7928460   2.7928460   2.7928460
 AtZNuc=   6.0000000   6.0000000   6.0000000   6.0000000   6.0000000   7.0000000   8.0000000   1.0000000   1.0000000   1.0000000

  Atom        31          32          33          34          35          36          37          38          39          40
 IAtWgt=           1           1           1           1           1           1           1           1           1           1
 AtmWgt=   1.0078250   1.0078250   1.0078250   1.0078250   1.0078250   1.0078250   1.0078250   1.0078250   1.0078250   1.0078250
 NucSpn=           1           1           1           1           1           1           1           1           1           1
 AtZEff=  -0.0000000  -0.0000000  -0.0000000  -0.0000000  -0.0000000  -0.0000000  -0.0000000  -0.0000000  -0.0000000  -0.0000000
 NQMom=    0.0000000   0.0000000   0.0000000   0.0000000   0.0000000   0.0000000   0.0000000   0.0000000   0.0000000   0.0000000
 NMagM=    2.7928460   2.7928460   2.7928460   2.7928460   2.7928460   2.7928460   2.7928460   2.7928460   2.7928460   2.7928460
 AtZNuc=   1.0000000   1.0000000   1.0000000   1.0000000   1.0000000   1.0000000   1.0000000   1.0000000   1.0000000   1.0000000

  Atom        41          42
 IAtWgt=           1           1
 AtmWgt=   1.0078250   1.0078250
 NucSpn=           1           1
 AtZEff=  -0.0000000  -0.0000000
 NQMom=    0.0000000   0.0000000
 NMagM=    2.7928460   2.7928460
 AtZNuc=   1.0000000   1.0000000
 Leave Link  101 at Sat Nov  5 09:43:41 2022, MaxMem=   402653184 cpu:               1.9 elap:               0.2
 (Enter /home/wykgroup/appl/g16/l202.exe)
                          Input orientation:                          
 ---------------------------------------------------------------------
 Center     Atomic      Atomic             Coordinates (Angstroms)
 Number     Number       Type             X           Y           Z
 ---------------------------------------------------------------------
      1          8           0       -2.622588   -1.632662    1.544738
      2          6           0       -2.967048   -0.802329    0.701573
      3          6           0       -4.362566   -0.753994    0.216134
      4          6           0       -5.325748   -1.647749    0.718861
      5          6           0       -6.633588   -1.607000    0.263639
      6          6           0       -7.004013   -0.664341   -0.711499
      7          6           0       -6.073146    0.227764   -1.224506
      8          6           0       -4.755252    0.175696   -0.754538
      9          8           0       -3.877682    1.069566   -1.288145
     10          6           0       -2.571840    1.082166   -0.870149
     11          6           0       -1.774176    2.051920   -1.488396
     12          6           0       -0.436121    2.146824   -1.154337
     13          6           0        0.110951    1.279399   -0.199076
     14          6           0       -0.677315    0.314867    0.450375
     15          6           0       -2.056857    0.200132    0.098606
     16          6           0       -0.014820   -0.465757    1.490435
     17          6           0        1.320175   -0.404148    1.635297
     18          6           0        2.183856    0.361289    0.674587
     19          6           0        3.466517    1.009057    1.281940
     20          6           0        4.602751    0.428983    0.472265
     21          6           0        5.971786    0.642213    0.542052
     22          6           0        6.821532   -0.067939   -0.318414
     23          6           0        6.288301   -0.976843   -1.234787
     24          6           0        4.907991   -1.190363   -1.324471
     25          6           0        4.076925   -0.475310   -0.463211
     26          7           0        2.680941   -0.500861   -0.390091
     27          8           0        1.422742    1.466787    0.109498
     28          1           0       -5.002385   -2.361435    1.469510
     29          1           0       -7.371816   -2.299525    0.656825
     30          1           0       -8.028924   -0.630163   -1.070563
     31          1           0       -6.336191    0.963368   -1.977612
     32          1           0       -2.224182    2.705442   -2.228004
     33          1           0        0.211530    2.882440   -1.619789
     34          1           0       -0.625433   -1.082301    2.134988
     35          1           0        1.829765   -0.968944    2.411425
     36          1           0        3.381389    2.096322    1.190175
     37          1           0        3.552895    0.777826    2.350080
     38          1           0        6.385385    1.341614    1.265031
     39          1           0        7.895484    0.085935   -0.267544
     40          1           0        6.952650   -1.527055   -1.896114
     41          1           0        4.497236   -1.888790   -2.048482
     42          1           0        2.180890   -1.362097   -0.568753
 ---------------------------------------------------------------------
                    Distance matrix (angstroms):
                    1          2          3          4          5
     1  O    0.000000
     2  C    1.232491   0.000000
     3  C    2.358977   1.478330   0.000000
     4  C    2.826548   2.505694   1.406859   0.000000
     5  C    4.210700   3.779259   2.426400   1.385399   0.000000
     6  C    5.022463   4.279358   2.801032   2.414455   1.405958
     7  C    4.799609   3.797199   2.442412   2.802290   2.427969
     8  C    3.620095   2.504888   1.400260   2.412742   2.782596
     9  O    4.111268   2.879622   2.413160   3.675428   4.143315
    10  C    3.633806   2.485522   2.785353   4.190632   5.001488
    11  C    4.847252   3.790204   4.180710   5.583297   6.330182
    12  C    5.133240   4.306680   5.070494   6.466538   7.383119
    13  C    4.358121   3.823458   4.931474   6.242475   7.350796
    14  C    2.962193   2.560098   3.844269   5.052908   6.261440
    15  C    2.402183   1.482209   2.498092   3.805920   4.923355
    16  C    2.857459   3.074286   4.539804   5.495306   6.827558
    17  C    4.130718   4.405754   5.867705   6.823100   8.160309
    18  C    5.275880   5.280771   6.656551   7.773824   9.043802
    19  C    6.642661   6.708852   8.095606   9.202152  10.482977
    20  C    7.589869   7.672716   9.046655  10.146365  11.421211
    21  C    8.946715   9.056208  10.433334  11.528637  12.807495
    22  C    9.752492   9.868941  11.217864  12.293419  13.555358
    23  C    9.357340   9.457348  10.751549  11.796313  13.023732
    24  C    8.070787   8.140740   9.407822  10.445756  11.657775
    25  C    7.089062   7.147113   8.471375   9.548936  10.794634
    26  N    5.757774   5.760416   7.074078   8.164080   9.402732
    27  O    5.294449   4.976916   6.197825   7.457465   8.624174
    28  H    2.490020   2.676404   2.136396   1.085074   2.164283
    29  H    4.877321   4.652481   3.411518   2.148267   1.085894
    30  H    6.088783   5.365883   3.887558   3.397746   2.163625
    31  H    5.739092   4.652617   3.414242   3.887145   3.423222
    32  H    5.762938   4.630197   4.744913   6.103606   6.651940
    33  H    6.199403   5.391623   6.125081   7.526842   8.399882
    34  H    2.154047   2.759751   4.213781   4.941468   6.314679
    35  H    4.584224   5.095171   6.573467   7.384234   8.754909
    36  H    7.076636   6.995967   8.309146   9.489702  10.717874
    37  H    6.677995   6.908265   8.339948   9.347438  10.667946
    38  H    9.490423   9.611554  11.000464  12.098976  13.386215
    39  H   10.810540  10.941791  12.296309  13.370850  14.637011
    40  H   10.175254  10.279766  11.536608  12.554350  13.757063
    41  H    7.979268   8.028619   9.214789  10.208198  11.371919
    42  H    5.254850   5.331823   6.618358   7.621625   8.857081
                    6          7          8          9         10
     6  C    0.000000
     7  C    1.387639   0.000000
     8  C    2.400926   1.400152   0.000000
     9  O    3.621174   2.352179   1.361569   0.000000
    10  C    4.766509   3.621424   2.366926   1.371168   0.000000
    11  C    5.944143   4.677428   3.597996   2.330205   1.399614
    12  C    7.157930   5.955146   4.764459   3.608702   2.403239
    13  C    7.393471   6.356138   5.020620   4.139962   2.772473
    14  C    6.506605   5.650469   4.254497   3.719458   2.433466
    15  C    5.087036   4.228707   2.830156   2.448346   1.407721
    16  C    7.330537   6.674968   5.284228   4.999943   3.808777
    17  C    8.652587   7.952294   6.554261   6.142968   4.861499
    18  C    9.348266   8.473633   7.087175   6.410632   5.051982
    19  C   10.789164   9.894334   8.511122   7.781147   6.410818
    20  C   11.718090  10.811767   9.441473   8.684880   7.328267
    21  C   13.101521  12.180841  10.815180  10.027177   8.670723
    22  C   13.843985  12.929855  11.587557  10.803123   9.479589
    23  C   13.306281  12.420007  11.113912  10.370046   9.103548
    24  C   11.939358  11.072779   9.775949   9.071750   7.830624
    25  C   11.085332  10.202834   8.860927   8.145117   6.840864
    26  N    9.691665   8.823899   7.475795   6.803549   5.507099
    27  O    8.730747   7.713824   6.370328   5.495970   4.130900
    28  H    3.412250   3.886928   3.382972   4.543280   4.820782
    29  H    2.163658   3.407806   3.868472   5.229021   6.066898
    30  H    1.086526   2.141216   3.386180   4.491017   5.722936
    31  H    2.167594   1.085115   2.148420   2.555565   3.925675
    32  H    6.041690   4.686195   3.870017   2.508682   2.144682
    33  H    8.091274   6.833791   5.722241   4.485326   3.398543
    34  H    6.997390   6.532997   5.194932   5.188978   4.183810
    35  H    9.374491   8.781122   7.395672   7.100513   5.860880
    36  H   10.913029   9.935312   8.583451   7.738889   6.380783
    37  H   11.086092  10.283040   8.889686   8.278603   6.926391
    38  H   13.682343  12.753566  11.382082  10.579379   9.211851
    39  H   14.924980  14.002089  12.660423  11.858186  10.531879
    40  H   14.033390  13.160615  11.886021  11.153840   9.928572
    41  H   11.643261  10.811647   9.567910   8.914551   7.758021
    42  H    9.212475   8.431298   7.106995   6.567862   5.352916
                   11         12         13         14         15
    11  C    0.000000
    12  C    1.382387   0.000000
    13  C    2.410982   1.401512   0.000000
    14  C    2.824764   2.447313   1.404803   0.000000
    15  C    2.455117   2.825997   2.439841   1.428300   0.000000
    16  C    4.278722   3.741375   2.432249   1.459452   2.559397
    17  C    5.036341   4.168223   2.767937   2.431253   3.759112
    18  C    4.816922   3.660242   2.429639   2.870318   4.282683
    19  C    6.018902   4.739254   3.677814   4.283076   5.706338
    20  C    6.866099   5.566600   4.620625   5.281345   6.674008
    21  C    8.130801   6.797269   5.941774   6.657786   8.053024
    22  C    8.930221   7.633968   6.845543   7.547866   8.892219
    23  C    8.616336   7.414959   6.657551   7.282040   8.532578
    24  C    7.429039   6.302800   5.511608   6.050739   7.243461
    25  C    6.455484   5.265057   4.344850   4.905285   6.196382
    26  N    5.250812   4.160574   3.132198   3.556639   4.814245
    27  O    3.621592   2.348425   1.360562   2.419371   3.702991
    28  H    6.216771   6.932513   6.495079   5.187240   4.137286
    29  H    7.407470   8.435294   8.338648   7.189854   5.899888
    30  H    6.818360   8.085131   8.406157   7.566538   6.141818
    31  H    4.715534   6.073647   6.695424   6.191813   4.817251
    32  H    1.084720   2.159161   3.406316   3.909138   3.423111
    33  H    2.156399   1.085002   2.144361   3.415854   3.910657
    34  H    4.926648   4.613322   3.401138   2.189222   2.800082
    35  H    6.109223   5.249467   3.850206   3.432104   4.671371
    36  H    5.810039   4.480253   3.645977   4.493770   5.861875
    37  H    6.688415   5.483369   4.312395   4.660246   6.072247
    38  H    8.640852   7.282488   6.443291   7.183287   8.598545
    39  H    9.942730   8.628400   7.875786   8.605853   9.959729
    40  H    9.441016   8.285019   7.587158   8.192378   9.387934
    41  H    7.427886   6.436123   5.718148   6.154378   7.206228
    42  H    5.305073   4.416353   3.376212   3.467012   4.565570
                   16         17         18         19         20
    16  C    0.000000
    17  C    1.344244   0.000000
    18  C    2.486722   1.501600   0.000000
    19  C    3.786588   2.593992   1.560032   0.000000
    20  C    4.812400   3.580790   2.428286   1.510989   0.000000
    21  C    6.161695   4.891579   3.800645   2.637875   1.387297
    22  C    7.082789   5.847645   4.762177   3.870036   2.407300
    23  C    6.886028   5.766077   4.720464   4.270853   2.780549
    24  C    5.716888   4.717073   3.718167   3.702523   2.437973
    25  C    4.534226   3.465324   2.361820   2.370970   1.403337
    26  N    3.287056   2.441974   1.457373   2.385931   2.302525
    27  O    2.776382   2.416398   1.456277   2.400239   3.364683
    28  H    5.335713   6.620666   7.725748   9.116890  10.051844
    29  H    7.627778   8.949892   9.919229  11.349314  12.282877
    30  H    8.414964   9.735421  10.408141  11.847636  12.769547
    31  H    7.350475   8.575731   8.943593  10.330530  11.222653
    32  H    5.363261   6.095663   5.775022   6.897932   7.686399
    33  H    4.575495   4.756715   3.938328   4.746002   5.447840
    34  H    1.080936   2.120135   3.479774   4.673920   5.690566
    35  H    2.122242   1.086762   2.216192   2.804850   3.661147
    36  H    4.264814   3.270946   2.170312   1.094446   2.187953
    37  H    3.874801   2.625456   2.203418   1.096290   2.179467
    38  H    6.654323   5.370394   4.354596   2.937800   2.153870
    39  H    8.122054   6.862629   5.795354   4.782134   3.392210
    40  H    7.819252   6.742148   5.737225   5.355840   3.867471
    41  H    5.908266   5.086070   4.222522   4.533389   3.425986
    42  H    3.140831   2.552711   2.125080   3.271127   3.187020
                   21         22         23         24         25
    21  C    0.000000
    22  C    1.402421   0.000000
    23  C    2.424599   1.396489   0.000000
    24  C    2.823810   2.435903   1.399604   0.000000
    25  C    2.418659   2.778450   2.395214   1.394180   0.000000
    26  N    3.606268   4.163778   3.735387   2.511618   1.398131
    27  O    4.643364   5.628981   5.608217   4.611255   3.338326
    28  H   11.415538  12.176280  11.692301  10.363073   9.472421
    29  H   13.664505  14.400770  13.853753  12.487971  11.647142
    30  H   14.150596  14.880117  14.322364  12.951527  12.122065
    31  H   12.567345  13.301963  12.794296  11.467205  10.620556
    32  H    8.894044   9.652104   9.327811   8.176891   7.275687
    33  H    6.547727   7.354620   7.208983   6.223478   5.249137
    34  H    7.002478   7.906036   7.691959   6.526739   5.406594
    35  H    4.821486   5.760344   5.759642   4.845763   3.681975
    36  H    3.040503   4.335257   4.875954   4.410925   3.135403
    37  H    3.022977   4.303506   4.838655   4.383192   3.124030
    38  H    1.087623   2.164339   3.410830   3.911409   3.408375
    39  H    2.159977   1.086111   2.155943   3.416306   3.864540
    40  H    3.407708   2.152986   1.086943   2.149597   3.380706
    41  H    3.910390   3.422132   2.168332   1.086606   2.165103
    42  H    4.429677   4.824217   4.178857   2.835080   2.095824
                   26         27         28         29         30
    26  N    0.000000
    27  O    2.388366   0.000000
    28  H    8.121167   7.601787   0.000000
    29  H   10.265922   9.582741   2.505692   0.000000
    30  H   10.732240   9.753140   4.313840   2.490468   0.000000
    31  H    9.272155   8.050497   4.971520   4.319635   2.495481
    32  H    6.141541   4.505356   6.860267   7.737575   6.794187
    33  H    4.365418   2.541957   8.014169   9.462709   8.974693
    34  H    4.200740   3.846489   4.608335   7.012865   8.080326
    35  H    2.965147   3.375992   7.035944   9.461403  10.461012
    36  H    3.119812   2.323892   9.499331  11.629245  11.947381
    37  H    3.147043   3.167400   9.155500  11.475474  12.158198
    38  H    4.456124   5.096935  11.976463  14.243889  14.734830
    39  H    5.248886   6.629125  13.242431  15.480158  15.960714
    40  H    4.644209   6.600413  12.447749  14.570673  15.031085
    41  H    2.824099   5.036793  10.141127  12.180384  12.627159
    42  H    1.011780   3.006226   7.533434   9.676518  10.248310
                   31         32         33         34         35
    31  H    0.000000
    32  H    4.472822   0.000000
    33  H    6.832534   2.516733   0.000000
    34  H    7.328779   5.994889   5.524313   0.000000
    35  H    9.469969   7.173555   5.805388   2.473311   0.000000
    36  H   10.283473   6.593739   4.308351   5.201052   3.646210
    37  H   10.796174   7.619001   5.599463   4.578730   2.454414
    38  H   13.133785   9.390738   6.986617   7.468853   5.235129
    39  H   14.360877  10.635452   8.288073   8.929892   6.714357
    40  H   13.520434  10.111301   8.059944   8.595053   6.716422
    41  H   11.202811   8.143503   6.427728   6.662852   5.277527
    42  H    8.940545   6.221145   4.795743   3.906911   3.026437
                   36         37         38         39         40
    36  H    0.000000
    37  H    1.764434   0.000000
    38  H    3.098254   3.085156   0.000000
    39  H    5.152053   5.117494   2.491167   0.000000
    40  H    5.950458   5.907704   4.306262   2.478490   0.000000
    41  H    5.255011   5.229720   4.997999   4.315017   2.486589
    42  H    4.061488   3.870562   5.324527   5.902889   4.955682
                   41         42
    41  H    0.000000
    42  H    2.798653   0.000000
 Symmetry turned off by external request.
 Stoichiometry    C23H15NO3
 Framework group  C1[X(C23H15NO3)]
 Deg. of freedom   120
 Full point group                 C1      NOp   1
 Rotational constants (GHZ):           0.6679840           0.0813206           0.0779385
 Leave Link  202 at Sat Nov  5 09:43:41 2022, MaxMem=   402653184 cpu:               1.1 elap:               0.1
 (Enter /home/wykgroup/appl/g16/l301.exe)
 Standard basis: 6-31G(d) (6D, 10F)
 Ernie: Thresh=  0.10000D-02 Tol=  0.10000D-05 Strict=F.
 AO basis set in the form of general basis input (Overlap normalization):
      1 0
 S   6 1.00       0.000000000000
      0.5484671660D+04  0.1831074430D-02
      0.8252349460D+03  0.1395017220D-01
      0.1880469580D+03  0.6844507810D-01
      0.5296450000D+02  0.2327143360D+00
      0.1689757040D+02  0.4701928980D+00
      0.5799635340D+01  0.3585208530D+00
 SP   3 1.00       0.000000000000
      0.1553961625D+02 -0.1107775495D+00  0.7087426823D-01
      0.3599933586D+01 -0.1480262627D+00  0.3397528391D+00
      0.1013761750D+01  0.1130767015D+01  0.7271585773D+00
 SP   1 1.00       0.000000000000
      0.2700058226D+00  0.1000000000D+01  0.1000000000D+01
 D   1 1.00       0.000000000000
      0.8000000000D+00  0.1000000000D+01
 ****
      2 0
 S   6 1.00       0.000000000000
      0.3047524880D+04  0.1834737132D-02
      0.4573695180D+03  0.1403732281D-01
      0.1039486850D+03  0.6884262226D-01
      0.2921015530D+02  0.2321844432D+00
      0.9286662960D+01  0.4679413484D+00
      0.3163926960D+01  0.3623119853D+00
 SP   3 1.00       0.000000000000
      0.7868272350D+01 -0.1193324198D+00  0.6899906659D-01
      0.1881288540D+01 -0.1608541517D+00  0.3164239610D+00
      0.5442492580D+00  0.1143456438D+01  0.7443082909D+00
 SP   1 1.00       0.000000000000
      0.1687144782D+00  0.1000000000D+01  0.1000000000D+01
 D   1 1.00       0.000000000000
      0.8000000000D+00  0.1000000000D+01
 ****
      3 0
 S   6 1.00       0.000000000000
      0.3047524880D+04  0.1834737132D-02
      0.4573695180D+03  0.1403732281D-01
      0.1039486850D+03  0.6884262226D-01
      0.2921015530D+02  0.2321844432D+00
      0.9286662960D+01  0.4679413484D+00
      0.3163926960D+01  0.3623119853D+00
 SP   3 1.00       0.000000000000
      0.7868272350D+01 -0.1193324198D+00  0.6899906659D-01
      0.1881288540D+01 -0.1608541517D+00  0.3164239610D+00
      0.5442492580D+00  0.1143456438D+01  0.7443082909D+00
 SP   1 1.00       0.000000000000
      0.1687144782D+00  0.1000000000D+01  0.1000000000D+01
 D   1 1.00       0.000000000000
      0.8000000000D+00  0.1000000000D+01
 ****
      4 0
 S   6 1.00       0.000000000000
      0.3047524880D+04  0.1834737132D-02
      0.4573695180D+03  0.1403732281D-01
      0.1039486850D+03  0.6884262226D-01
      0.2921015530D+02  0.2321844432D+00
      0.9286662960D+01  0.4679413484D+00
      0.3163926960D+01  0.3623119853D+00
 SP   3 1.00       0.000000000000
      0.7868272350D+01 -0.1193324198D+00  0.6899906659D-01
      0.1881288540D+01 -0.1608541517D+00  0.3164239610D+00
      0.5442492580D+00  0.1143456438D+01  0.7443082909D+00
 SP   1 1.00       0.000000000000
      0.1687144782D+00  0.1000000000D+01  0.1000000000D+01
 D   1 1.00       0.000000000000
      0.8000000000D+00  0.1000000000D+01
 ****
      5 0
 S   6 1.00       0.000000000000
      0.3047524880D+04  0.1834737132D-02
      0.4573695180D+03  0.1403732281D-01
      0.1039486850D+03  0.6884262226D-01
      0.2921015530D+02  0.2321844432D+00
      0.9286662960D+01  0.4679413484D+00
      0.3163926960D+01  0.3623119853D+00
 SP   3 1.00       0.000000000000
      0.7868272350D+01 -0.1193324198D+00  0.6899906659D-01
      0.1881288540D+01 -0.1608541517D+00  0.3164239610D+00
      0.5442492580D+00  0.1143456438D+01  0.7443082909D+00
 SP   1 1.00       0.000000000000
      0.1687144782D+00  0.1000000000D+01  0.1000000000D+01
 D   1 1.00       0.000000000000
      0.8000000000D+00  0.1000000000D+01
 ****
      6 0
 S   6 1.00       0.000000000000
      0.3047524880D+04  0.1834737132D-02
      0.4573695180D+03  0.1403732281D-01
      0.1039486850D+03  0.6884262226D-01
      0.2921015530D+02  0.2321844432D+00
      0.9286662960D+01  0.4679413484D+00
      0.3163926960D+01  0.3623119853D+00
 SP   3 1.00       0.000000000000
      0.7868272350D+01 -0.1193324198D+00  0.6899906659D-01
      0.1881288540D+01 -0.1608541517D+00  0.3164239610D+00
      0.5442492580D+00  0.1143456438D+01  0.7443082909D+00
 SP   1 1.00       0.000000000000
      0.1687144782D+00  0.1000000000D+01  0.1000000000D+01
 D   1 1.00       0.000000000000
      0.8000000000D+00  0.1000000000D+01
 ****
      7 0
 S   6 1.00       0.000000000000
      0.3047524880D+04  0.1834737132D-02
      0.4573695180D+03  0.1403732281D-01
      0.1039486850D+03  0.6884262226D-01
      0.2921015530D+02  0.2321844432D+00
      0.9286662960D+01  0.4679413484D+00
      0.3163926960D+01  0.3623119853D+00
 SP   3 1.00       0.000000000000
      0.7868272350D+01 -0.1193324198D+00  0.6899906659D-01
      0.1881288540D+01 -0.1608541517D+00  0.3164239610D+00
      0.5442492580D+00  0.1143456438D+01  0.7443082909D+00
 SP   1 1.00       0.000000000000
      0.1687144782D+00  0.1000000000D+01  0.1000000000D+01
 D   1 1.00       0.000000000000
      0.8000000000D+00  0.1000000000D+01
 ****
      8 0
 S   6 1.00       0.000000000000
      0.3047524880D+04  0.1834737132D-02
      0.4573695180D+03  0.1403732281D-01
      0.1039486850D+03  0.6884262226D-01
      0.2921015530D+02  0.2321844432D+00
      0.9286662960D+01  0.4679413484D+00
      0.3163926960D+01  0.3623119853D+00
 SP   3 1.00       0.000000000000
      0.7868272350D+01 -0.1193324198D+00  0.6899906659D-01
      0.1881288540D+01 -0.1608541517D+00  0.3164239610D+00
      0.5442492580D+00  0.1143456438D+01  0.7443082909D+00
 SP   1 1.00       0.000000000000
      0.1687144782D+00  0.1000000000D+01  0.1000000000D+01
 D   1 1.00       0.000000000000
      0.8000000000D+00  0.1000000000D+01
 ****
      9 0
 S   6 1.00       0.000000000000
      0.5484671660D+04  0.1831074430D-02
      0.8252349460D+03  0.1395017220D-01
      0.1880469580D+03  0.6844507810D-01
      0.5296450000D+02  0.2327143360D+00
      0.1689757040D+02  0.4701928980D+00
      0.5799635340D+01  0.3585208530D+00
 SP   3 1.00       0.000000000000
      0.1553961625D+02 -0.1107775495D+00  0.7087426823D-01
      0.3599933586D+01 -0.1480262627D+00  0.3397528391D+00
      0.1013761750D+01  0.1130767015D+01  0.7271585773D+00
 SP   1 1.00       0.000000000000
      0.2700058226D+00  0.1000000000D+01  0.1000000000D+01
 D   1 1.00       0.000000000000
      0.8000000000D+00  0.1000000000D+01
 ****
     10 0
 S   6 1.00       0.000000000000
      0.3047524880D+04  0.1834737132D-02
      0.4573695180D+03  0.1403732281D-01
      0.1039486850D+03  0.6884262226D-01
      0.2921015530D+02  0.2321844432D+00
      0.9286662960D+01  0.4679413484D+00
      0.3163926960D+01  0.3623119853D+00
 SP   3 1.00       0.000000000000
      0.7868272350D+01 -0.1193324198D+00  0.6899906659D-01
      0.1881288540D+01 -0.1608541517D+00  0.3164239610D+00
      0.5442492580D+00  0.1143456438D+01  0.7443082909D+00
 SP   1 1.00       0.000000000000
      0.1687144782D+00  0.1000000000D+01  0.1000000000D+01
 D   1 1.00       0.000000000000
      0.8000000000D+00  0.1000000000D+01
 ****
     11 0
 S   6 1.00       0.000000000000
      0.3047524880D+04  0.1834737132D-02
      0.4573695180D+03  0.1403732281D-01
      0.1039486850D+03  0.6884262226D-01
      0.2921015530D+02  0.2321844432D+00
      0.9286662960D+01  0.4679413484D+00
      0.3163926960D+01  0.3623119853D+00
 SP   3 1.00       0.000000000000
      0.7868272350D+01 -0.1193324198D+00  0.6899906659D-01
      0.1881288540D+01 -0.1608541517D+00  0.3164239610D+00
      0.5442492580D+00  0.1143456438D+01  0.7443082909D+00
 SP   1 1.00       0.000000000000
      0.1687144782D+00  0.1000000000D+01  0.1000000000D+01
 D   1 1.00       0.000000000000
      0.8000000000D+00  0.1000000000D+01
 ****
     12 0
 S   6 1.00       0.000000000000
      0.3047524880D+04  0.1834737132D-02
      0.4573695180D+03  0.1403732281D-01
      0.1039486850D+03  0.6884262226D-01
      0.2921015530D+02  0.2321844432D+00
      0.9286662960D+01  0.4679413484D+00
      0.3163926960D+01  0.3623119853D+00
 SP   3 1.00       0.000000000000
      0.7868272350D+01 -0.1193324198D+00  0.6899906659D-01
      0.1881288540D+01 -0.1608541517D+00  0.3164239610D+00
      0.5442492580D+00  0.1143456438D+01  0.7443082909D+00
 SP   1 1.00       0.000000000000
      0.1687144782D+00  0.1000000000D+01  0.1000000000D+01
 D   1 1.00       0.000000000000
      0.8000000000D+00  0.1000000000D+01
 ****
     13 0
 S   6 1.00       0.000000000000
      0.3047524880D+04  0.1834737132D-02
      0.4573695180D+03  0.1403732281D-01
      0.1039486850D+03  0.6884262226D-01
      0.2921015530D+02  0.2321844432D+00
      0.9286662960D+01  0.4679413484D+00
      0.3163926960D+01  0.3623119853D+00
 SP   3 1.00       0.000000000000
      0.7868272350D+01 -0.1193324198D+00  0.6899906659D-01
      0.1881288540D+01 -0.1608541517D+00  0.3164239610D+00
      0.5442492580D+00  0.1143456438D+01  0.7443082909D+00
 SP   1 1.00       0.000000000000
      0.1687144782D+00  0.1000000000D+01  0.1000000000D+01
 D   1 1.00       0.000000000000
      0.8000000000D+00  0.1000000000D+01
 ****
     14 0
 S   6 1.00       0.000000000000
      0.3047524880D+04  0.1834737132D-02
      0.4573695180D+03  0.1403732281D-01
      0.1039486850D+03  0.6884262226D-01
      0.2921015530D+02  0.2321844432D+00
      0.9286662960D+01  0.4679413484D+00
      0.3163926960D+01  0.3623119853D+00
 SP   3 1.00       0.000000000000
      0.7868272350D+01 -0.1193324198D+00  0.6899906659D-01
      0.1881288540D+01 -0.1608541517D+00  0.3164239610D+00
      0.5442492580D+00  0.1143456438D+01  0.7443082909D+00
 SP   1 1.00       0.000000000000
      0.1687144782D+00  0.1000000000D+01  0.1000000000D+01
 D   1 1.00       0.000000000000
      0.8000000000D+00  0.1000000000D+01
 ****
     15 0
 S   6 1.00       0.000000000000
      0.3047524880D+04  0.1834737132D-02
      0.4573695180D+03  0.1403732281D-01
      0.1039486850D+03  0.6884262226D-01
      0.2921015530D+02  0.2321844432D+00
      0.9286662960D+01  0.4679413484D+00
      0.3163926960D+01  0.3623119853D+00
 SP   3 1.00       0.000000000000
      0.7868272350D+01 -0.1193324198D+00  0.6899906659D-01
      0.1881288540D+01 -0.1608541517D+00  0.3164239610D+00
      0.5442492580D+00  0.1143456438D+01  0.7443082909D+00
 SP   1 1.00       0.000000000000
      0.1687144782D+00  0.1000000000D+01  0.1000000000D+01
 D   1 1.00       0.000000000000
      0.8000000000D+00  0.1000000000D+01
 ****
     16 0
 S   6 1.00       0.000000000000
      0.3047524880D+04  0.1834737132D-02
      0.4573695180D+03  0.1403732281D-01
      0.1039486850D+03  0.6884262226D-01
      0.2921015530D+02  0.2321844432D+00
      0.9286662960D+01  0.4679413484D+00
      0.3163926960D+01  0.3623119853D+00
 SP   3 1.00       0.000000000000
      0.7868272350D+01 -0.1193324198D+00  0.6899906659D-01
      0.1881288540D+01 -0.1608541517D+00  0.3164239610D+00
      0.5442492580D+00  0.1143456438D+01  0.7443082909D+00
 SP   1 1.00       0.000000000000
      0.1687144782D+00  0.1000000000D+01  0.1000000000D+01
 D   1 1.00       0.000000000000
      0.8000000000D+00  0.1000000000D+01
 ****
     17 0
 S   6 1.00       0.000000000000
      0.3047524880D+04  0.1834737132D-02
      0.4573695180D+03  0.1403732281D-01
      0.1039486850D+03  0.6884262226D-01
      0.2921015530D+02  0.2321844432D+00
      0.9286662960D+01  0.4679413484D+00
      0.3163926960D+01  0.3623119853D+00
 SP   3 1.00       0.000000000000
      0.7868272350D+01 -0.1193324198D+00  0.6899906659D-01
      0.1881288540D+01 -0.1608541517D+00  0.3164239610D+00
      0.5442492580D+00  0.1143456438D+01  0.7443082909D+00
 SP   1 1.00       0.000000000000
      0.1687144782D+00  0.1000000000D+01  0.1000000000D+01
 D   1 1.00       0.000000000000
      0.8000000000D+00  0.1000000000D+01
 ****
     18 0
 S   6 1.00       0.000000000000
      0.3047524880D+04  0.1834737132D-02
      0.4573695180D+03  0.1403732281D-01
      0.1039486850D+03  0.6884262226D-01
      0.2921015530D+02  0.2321844432D+00
      0.9286662960D+01  0.4679413484D+00
      0.3163926960D+01  0.3623119853D+00
 SP   3 1.00       0.000000000000
      0.7868272350D+01 -0.1193324198D+00  0.6899906659D-01
      0.1881288540D+01 -0.1608541517D+00  0.3164239610D+00
      0.5442492580D+00  0.1143456438D+01  0.7443082909D+00
 SP   1 1.00       0.000000000000
      0.1687144782D+00  0.1000000000D+01  0.1000000000D+01
 D   1 1.00       0.000000000000
      0.8000000000D+00  0.1000000000D+01
 ****
     19 0
 S   6 1.00       0.000000000000
      0.3047524880D+04  0.1834737132D-02
      0.4573695180D+03  0.1403732281D-01
      0.1039486850D+03  0.6884262226D-01
      0.2921015530D+02  0.2321844432D+00
      0.9286662960D+01  0.4679413484D+00
      0.3163926960D+01  0.3623119853D+00
 SP   3 1.00       0.000000000000
      0.7868272350D+01 -0.1193324198D+00  0.6899906659D-01
      0.1881288540D+01 -0.1608541517D+00  0.3164239610D+00
      0.5442492580D+00  0.1143456438D+01  0.7443082909D+00
 SP   1 1.00       0.000000000000
      0.1687144782D+00  0.1000000000D+01  0.1000000000D+01
 D   1 1.00       0.000000000000
      0.8000000000D+00  0.1000000000D+01
 ****
     20 0
 S   6 1.00       0.000000000000
      0.3047524880D+04  0.1834737132D-02
      0.4573695180D+03  0.1403732281D-01
      0.1039486850D+03  0.6884262226D-01
      0.2921015530D+02  0.2321844432D+00
      0.9286662960D+01  0.4679413484D+00
      0.3163926960D+01  0.3623119853D+00
 SP   3 1.00       0.000000000000
      0.7868272350D+01 -0.1193324198D+00  0.6899906659D-01
      0.1881288540D+01 -0.1608541517D+00  0.3164239610D+00
      0.5442492580D+00  0.1143456438D+01  0.7443082909D+00
 SP   1 1.00       0.000000000000
      0.1687144782D+00  0.1000000000D+01  0.1000000000D+01
 D   1 1.00       0.000000000000
      0.8000000000D+00  0.1000000000D+01
 ****
     21 0
 S   6 1.00       0.000000000000
      0.3047524880D+04  0.1834737132D-02
      0.4573695180D+03  0.1403732281D-01
      0.1039486850D+03  0.6884262226D-01
      0.2921015530D+02  0.2321844432D+00
      0.9286662960D+01  0.4679413484D+00
      0.3163926960D+01  0.3623119853D+00
 SP   3 1.00       0.000000000000
      0.7868272350D+01 -0.1193324198D+00  0.6899906659D-01
      0.1881288540D+01 -0.1608541517D+00  0.3164239610D+00
      0.5442492580D+00  0.1143456438D+01  0.7443082909D+00
 SP   1 1.00       0.000000000000
      0.1687144782D+00  0.1000000000D+01  0.1000000000D+01
 D   1 1.00       0.000000000000
      0.8000000000D+00  0.1000000000D+01
 ****
     22 0
 S   6 1.00       0.000000000000
      0.3047524880D+04  0.1834737132D-02
      0.4573695180D+03  0.1403732281D-01
      0.1039486850D+03  0.6884262226D-01
      0.2921015530D+02  0.2321844432D+00
      0.9286662960D+01  0.4679413484D+00
      0.3163926960D+01  0.3623119853D+00
 SP   3 1.00       0.000000000000
      0.7868272350D+01 -0.1193324198D+00  0.6899906659D-01
      0.1881288540D+01 -0.1608541517D+00  0.3164239610D+00
      0.5442492580D+00  0.1143456438D+01  0.7443082909D+00
 SP   1 1.00       0.000000000000
      0.1687144782D+00  0.1000000000D+01  0.1000000000D+01
 D   1 1.00       0.000000000000
      0.8000000000D+00  0.1000000000D+01
 ****
     23 0
 S   6 1.00       0.000000000000
      0.3047524880D+04  0.1834737132D-02
      0.4573695180D+03  0.1403732281D-01
      0.1039486850D+03  0.6884262226D-01
      0.2921015530D+02  0.2321844432D+00
      0.9286662960D+01  0.4679413484D+00
      0.3163926960D+01  0.3623119853D+00
 SP   3 1.00       0.000000000000
      0.7868272350D+01 -0.1193324198D+00  0.6899906659D-01
      0.1881288540D+01 -0.1608541517D+00  0.3164239610D+00
      0.5442492580D+00  0.1143456438D+01  0.7443082909D+00
 SP   1 1.00       0.000000000000
      0.1687144782D+00  0.1000000000D+01  0.1000000000D+01
 D   1 1.00       0.000000000000
      0.8000000000D+00  0.1000000000D+01
 ****
     24 0
 S   6 1.00       0.000000000000
      0.3047524880D+04  0.1834737132D-02
      0.4573695180D+03  0.1403732281D-01
      0.1039486850D+03  0.6884262226D-01
      0.2921015530D+02  0.2321844432D+00
      0.9286662960D+01  0.4679413484D+00
      0.3163926960D+01  0.3623119853D+00
 SP   3 1.00       0.000000000000
      0.7868272350D+01 -0.1193324198D+00  0.6899906659D-01
      0.1881288540D+01 -0.1608541517D+00  0.3164239610D+00
      0.5442492580D+00  0.1143456438D+01  0.7443082909D+00
 SP   1 1.00       0.000000000000
      0.1687144782D+00  0.1000000000D+01  0.1000000000D+01
 D   1 1.00       0.000000000000
      0.8000000000D+00  0.1000000000D+01
 ****
     25 0
 S   6 1.00       0.000000000000
      0.3047524880D+04  0.1834737132D-02
      0.4573695180D+03  0.1403732281D-01
      0.1039486850D+03  0.6884262226D-01
      0.2921015530D+02  0.2321844432D+00
      0.9286662960D+01  0.4679413484D+00
      0.3163926960D+01  0.3623119853D+00
 SP   3 1.00       0.000000000000
      0.7868272350D+01 -0.1193324198D+00  0.6899906659D-01
      0.1881288540D+01 -0.1608541517D+00  0.3164239610D+00
      0.5442492580D+00  0.1143456438D+01  0.7443082909D+00
 SP   1 1.00       0.000000000000
      0.1687144782D+00  0.1000000000D+01  0.1000000000D+01
 D   1 1.00       0.000000000000
      0.8000000000D+00  0.1000000000D+01
 ****
     26 0
 S   6 1.00       0.000000000000
      0.4173511460D+04  0.1834772160D-02
      0.6274579110D+03  0.1399462700D-01
      0.1429020930D+03  0.6858655181D-01
      0.4023432930D+02  0.2322408730D+00
      0.1282021290D+02  0.4690699481D+00
      0.4390437010D+01  0.3604551991D+00
 SP   3 1.00       0.000000000000
      0.1162636186D+02 -0.1149611817D+00  0.6757974388D-01
      0.2716279807D+01 -0.1691174786D+00  0.3239072959D+00
      0.7722183966D+00  0.1145851947D+01  0.7408951398D+00
 SP   1 1.00       0.000000000000
      0.2120314975D+00  0.1000000000D+01  0.1000000000D+01
 D   1 1.00       0.000000000000
      0.8000000000D+00  0.1000000000D+01
 ****
     27 0
 S   6 1.00       0.000000000000
      0.5484671660D+04  0.1831074430D-02
      0.8252349460D+03  0.1395017220D-01
      0.1880469580D+03  0.6844507810D-01
      0.5296450000D+02  0.2327143360D+00
      0.1689757040D+02  0.4701928980D+00
      0.5799635340D+01  0.3585208530D+00
 SP   3 1.00       0.000000000000
      0.1553961625D+02 -0.1107775495D+00  0.7087426823D-01
      0.3599933586D+01 -0.1480262627D+00  0.3397528391D+00
      0.1013761750D+01  0.1130767015D+01  0.7271585773D+00
 SP   1 1.00       0.000000000000
      0.2700058226D+00  0.1000000000D+01  0.1000000000D+01
 D   1 1.00       0.000000000000
      0.8000000000D+00  0.1000000000D+01
 ****
     28 0
 S   3 1.00       0.000000000000
      0.1873113696D+02  0.3349460434D-01
      0.2825394365D+01  0.2347269535D+00
      0.6401216923D+00  0.8137573261D+00
 S   1 1.00       0.000000000000
      0.1612777588D+00  0.1000000000D+01
 ****
     29 0
 S   3 1.00       0.000000000000
      0.1873113696D+02  0.3349460434D-01
      0.2825394365D+01  0.2347269535D+00
      0.6401216923D+00  0.8137573261D+00
 S   1 1.00       0.000000000000
      0.1612777588D+00  0.1000000000D+01
 ****
     30 0
 S   3 1.00       0.000000000000
      0.1873113696D+02  0.3349460434D-01
      0.2825394365D+01  0.2347269535D+00
      0.6401216923D+00  0.8137573261D+00
 S   1 1.00       0.000000000000
      0.1612777588D+00  0.1000000000D+01
 ****
     31 0
 S   3 1.00       0.000000000000
      0.1873113696D+02  0.3349460434D-01
      0.2825394365D+01  0.2347269535D+00
      0.6401216923D+00  0.8137573261D+00
 S   1 1.00       0.000000000000
      0.1612777588D+00  0.1000000000D+01
 ****
     32 0
 S   3 1.00       0.000000000000
      0.1873113696D+02  0.3349460434D-01
      0.2825394365D+01  0.2347269535D+00
      0.6401216923D+00  0.8137573261D+00
 S   1 1.00       0.000000000000
      0.1612777588D+00  0.1000000000D+01
 ****
     33 0
 S   3 1.00       0.000000000000
      0.1873113696D+02  0.3349460434D-01
      0.2825394365D+01  0.2347269535D+00
      0.6401216923D+00  0.8137573261D+00
 S   1 1.00       0.000000000000
      0.1612777588D+00  0.1000000000D+01
 ****
     34 0
 S   3 1.00       0.000000000000
      0.1873113696D+02  0.3349460434D-01
      0.2825394365D+01  0.2347269535D+00
      0.6401216923D+00  0.8137573261D+00
 S   1 1.00       0.000000000000
      0.1612777588D+00  0.1000000000D+01
 ****
     35 0
 S   3 1.00       0.000000000000
      0.1873113696D+02  0.3349460434D-01
      0.2825394365D+01  0.2347269535D+00
      0.6401216923D+00  0.8137573261D+00
 S   1 1.00       0.000000000000
      0.1612777588D+00  0.1000000000D+01
 ****
     36 0
 S   3 1.00       0.000000000000
      0.1873113696D+02  0.3349460434D-01
      0.2825394365D+01  0.2347269535D+00
      0.6401216923D+00  0.8137573261D+00
 S   1 1.00       0.000000000000
      0.1612777588D+00  0.1000000000D+01
 ****
     37 0
 S   3 1.00       0.000000000000
      0.1873113696D+02  0.3349460434D-01
      0.2825394365D+01  0.2347269535D+00
      0.6401216923D+00  0.8137573261D+00
 S   1 1.00       0.000000000000
      0.1612777588D+00  0.1000000000D+01
 ****
     38 0
 S   3 1.00       0.000000000000
      0.1873113696D+02  0.3349460434D-01
      0.2825394365D+01  0.2347269535D+00
      0.6401216923D+00  0.8137573261D+00
 S   1 1.00       0.000000000000
      0.1612777588D+00  0.1000000000D+01
 ****
     39 0
 S   3 1.00       0.000000000000
      0.1873113696D+02  0.3349460434D-01
      0.2825394365D+01  0.2347269535D+00
      0.6401216923D+00  0.8137573261D+00
 S   1 1.00       0.000000000000
      0.1612777588D+00  0.1000000000D+01
 ****
     40 0
 S   3 1.00       0.000000000000
      0.1873113696D+02  0.3349460434D-01
      0.2825394365D+01  0.2347269535D+00
      0.6401216923D+00  0.8137573261D+00
 S   1 1.00       0.000000000000
      0.1612777588D+00  0.1000000000D+01
 ****
     41 0
 S   3 1.00       0.000000000000
      0.1873113696D+02  0.3349460434D-01
      0.2825394365D+01  0.2347269535D+00
      0.6401216923D+00  0.8137573261D+00
 S   1 1.00       0.000000000000
      0.1612777588D+00  0.1000000000D+01
 ****
     42 0
 S   3 1.00       0.000000000000
      0.1873113696D+02  0.3349460434D-01
      0.2825394365D+01  0.2347269535D+00
      0.6401216923D+00  0.8137573261D+00
 S   1 1.00       0.000000000000
      0.1612777588D+00  0.1000000000D+01
 ****

   435 basis functions,   816 primitive gaussians,   435 cartesian basis functions
    92 alpha electrons       92 beta electrons
       nuclear repulsion energy      2224.2124852408 Hartrees.
 IExCor=  402 DFT=T Ex+Corr=B3LYP ExCW=0 ScaHFX=  0.200000
 ScaDFX=  0.800000  0.720000  1.000000  0.810000 ScalE2=  1.000000  1.000000
 IRadAn=      5 IRanWt=     -1 IRanGd=            0 ICorTp=0 IEmpDi=  4
 NAtoms=   42 NActive=   42 NUniq=   42 SFac= 1.00D+00 NAtFMM=   60 NAOKFM=F Big=F
 Integral buffers will be    131072 words long.
 Regular integral format.
 Two-electron integral symmetry is turned off.
 Leave Link  301 at Sat Nov  5 09:43:41 2022, MaxMem=   402653184 cpu:               1.0 elap:               0.1
 (Enter /home/wykgroup/appl/g16/l302.exe)
 NPDir=0 NMtPBC=     1 NCelOv=     1 NCel=       1 NClECP=     1 NCelD=      1
         NCelK=      1 NCelE2=     1 NClLst=     1 CellRange=     0.0.
 One-electron integrals computed using PRISM.
 NBasis=   435 RedAO= T EigKep=  2.90D-04  NBF=   435
 NBsUse=   435 1.00D-06 EigRej= -1.00D+00 NBFU=   435
 Precomputing XC quadrature grid using
 IXCGrd= 4 IRadAn=           5 IRanWt=          -1 IRanGd=           0 AccXCQ= 0.00D+00.
 Generated NRdTot=       0 NPtTot=           0 NUsed=           0 NTot=          32
 NSgBfM=   425   425   425   425   425 MxSgAt=    42 MxSgA2=    42.
 Leave Link  302 at Sat Nov  5 09:43:42 2022, MaxMem=   402653184 cpu:               9.7 elap:               0.8
 (Enter /home/wykgroup/appl/g16/l303.exe)
 DipDrv:  MaxL=1.
 Leave Link  303 at Sat Nov  5 09:43:42 2022, MaxMem=   402653184 cpu:               1.3 elap:               0.1
 (Enter /home/wykgroup/appl/g16/l308.exe)
 Leave Link  308 at Sat Nov  5 09:43:42 2022, MaxMem=   402653184 cpu:               1.2 elap:               0.1
 (Enter /home/wykgroup/appl/g16/l401.exe)
 ExpMin= 1.61D-01 ExpMax= 5.48D+03 ExpMxC= 8.25D+02 IAcc=3 IRadAn=         5 AccDes= 0.00D+00
 Harris functional with IExCor=  402 and IRadAn=       5 diagonalized for initial guess.
 HarFok:  IExCor=  402 AccDes= 0.00D+00 IRadAn=         5 IDoV= 1 UseB2=F ITyADJ=14
 ICtDFT=  3500011 ScaDFX=  1.000000  1.000000  1.000000  1.000000
 FoFCou: FMM=F IPFlag=           0 FMFlag=      100000 FMFlg1=           0
         NFxFlg=           0 DoJE=T BraDBF=F KetDBF=T FulRan=T
         wScrn=  0.000000 ICntrl=       500 IOpCl=  0 I1Cent=   200000004 NGrid=           0
         NMat0=    1 NMatS0=      1 NMatT0=    0 NMatD0=    1 NMtDS0=    0 NMtDT0=    0
 Symmetry not used in FoFCou.
 Harris En= -1165.88562222140    
 JPrj=0 DoOrth=F DoCkMO=F.
 Leave Link  401 at Sat Nov  5 09:43:44 2022, MaxMem=   402653184 cpu:              29.1 elap:               2.3
 (Enter /home/wykgroup/appl/g16/l502.exe)
 Two-electron integral symmetry not used.
 Closed shell SCF:
 Using DIIS extrapolation, IDIIS=  1040.
 NGot=   402653184 LenX=   402265001 LenY=   402075335
 Requested convergence on RMS density matrix=1.00D-08 within  32 cycles.
 Requested convergence on MAX density matrix=1.00D-06.
 Requested convergence on             energy=1.00D-06.
 No special actions if energy rises.
 Fock matrices will be formed incrementally for  20 cycles.
 Integral accuracy reduced to 1.0D-05 until final iterations.

 Cycle   1  Pass 0  IDiag  1:
 FoFJK:  IHMeth= 1 ICntrl=       0 DoSepK=F KAlg= 0 I1Cent=           0 FoldK=F
 IRaf= 650000000 NMat=       1 IRICut=       1 DoRegI=T DoRafI=F ISym2E= 0 IDoP0=0 IntGTp=1.
 FoFCou: FMM=F IPFlag=           0 FMFlag=      100000 FMFlg1=           0
         NFxFlg=           0 DoJE=F BraDBF=F KetDBF=F FulRan=T
         wScrn=  0.000000 ICntrl=         0 IOpCl=  0 I1Cent=           0 NGrid=           0
         NMat0=    1 NMatS0=      1 NMatT0=    0 NMatD0=    1 NMtDS0=    0 NMtDT0=    0
 Symmetry not used in FoFCou.
 E= -1165.38054541388    
 DIIS: error= 2.04D-02 at cycle   1 NSaved=   1.
 NSaved= 1 IEnMin= 1 EnMin= -1165.38054541388     IErMin= 1 ErrMin= 2.04D-02
 ErrMax= 2.04D-02  0.00D+00 EMaxC= 1.00D-01 BMatC= 5.34D-01 BMatP= 5.34D-01
 IDIUse=3 WtCom= 7.96D-01 WtEn= 2.04D-01
 Coeff-Com:  0.100D+01
 Coeff-En:   0.100D+01
 Coeff:      0.100D+01
 Gap=     0.159 Goal=   None    Shift=    0.000
 GapD=    0.159 DampG=1.000 DampE=0.500 DampFc=0.5000 IDamp=-1.
 Damping current iteration by 5.00D-01
 RMSDP=4.50D-03 MaxDP=1.72D-01              OVMax= 2.89D-01

 Cycle   2  Pass 0  IDiag  1:
 RMSU=  2.21D-03    CP:  9.75D-01
 E= -1165.57629813144     Delta-E=       -0.195752717562 Rises=F Damp=T
 DIIS: error= 8.87D-03 at cycle   2 NSaved=   2.
 NSaved= 2 IEnMin= 2 EnMin= -1165.57629813144     IErMin= 2 ErrMin= 8.87D-03
 ErrMax= 8.87D-03  0.00D+00 EMaxC= 1.00D-01 BMatC= 7.24D-02 BMatP= 5.34D-01
 IDIUse=3 WtCom= 9.11D-01 WtEn= 8.87D-02
 Coeff-Com:  0.135D+00 0.865D+00
 Coeff-En:   0.216D+00 0.784D+00
 Coeff:      0.142D+00 0.858D+00
 Gap=     0.205 Goal=   None    Shift=    0.000
 RMSDP=1.75D-03 MaxDP=7.94D-02 DE=-1.96D-01 OVMax= 2.09D-01

 Cycle   3  Pass 0  IDiag  1:
 RMSU=  1.63D-03    CP:  9.57D-01  7.57D-01
 E= -1165.79849340066     Delta-E=       -0.222195269220 Rises=F Damp=F
 DIIS: error= 1.38D-02 at cycle   3 NSaved=   3.
 NSaved= 3 IEnMin= 3 EnMin= -1165.79849340066     IErMin= 2 ErrMin= 8.87D-03
 ErrMax= 1.38D-02  0.00D+00 EMaxC= 1.00D-01 BMatC= 1.20D-01 BMatP= 7.24D-02
 IDIUse=2 WtCom= 0.00D+00 WtEn= 1.00D+00
 Coeff-En:   0.000D+00 0.000D+00 0.100D+01
 Coeff:      0.000D+00 0.000D+00 0.100D+01
 Gap=     0.151 Goal=   None    Shift=    0.000
 RMSDP=3.46D-03 MaxDP=1.89D-01 DE=-2.22D-01 OVMax= 3.58D-01

 Cycle   4  Pass 0  IDiag  1:
 RMSU=  1.62D-03    CP:  9.63D-01  1.55D+00 -5.31D-01
 E= -1165.13223668104     Delta-E=        0.666256719624 Rises=F Damp=F
 DIIS: error= 4.49D-02 at cycle   4 NSaved=   4.
 NSaved= 4 IEnMin= 3 EnMin= -1165.79849340066     IErMin= 2 ErrMin= 8.87D-03
 ErrMax= 4.49D-02  0.00D+00 EMaxC= 1.00D-01 BMatC= 8.51D-01 BMatP= 7.24D-02
 IDIUse=2 WtCom= 0.00D+00 WtEn= 1.00D+00
 Coeff-En:   0.000D+00 0.000D+00 0.817D+00 0.183D+00
 Coeff:      0.000D+00 0.000D+00 0.817D+00 0.183D+00
 Gap=     0.145 Goal=   None    Shift=    0.000
 RMSDP=2.02D-03 MaxDP=1.33D-01 DE= 6.66D-01 OVMax= 2.06D-01

 Cycle   5  Pass 0  IDiag  1:
 RMSU=  4.58D-04    CP:  9.61D-01  1.05D+00  2.82D-01  4.19D-01
 E= -1165.84335650223     Delta-E=       -0.711119821197 Rises=F Damp=F
 DIIS: error= 1.09D-02 at cycle   5 NSaved=   5.
 NSaved= 5 IEnMin= 5 EnMin= -1165.84335650223     IErMin= 2 ErrMin= 8.87D-03
 ErrMax= 1.09D-02  0.00D+00 EMaxC= 1.00D-01 BMatC= 7.34D-02 BMatP= 7.24D-02
 IDIUse=3 WtCom= 8.91D-01 WtEn= 1.09D-01
 Coeff-Com:  0.489D-02 0.250D-01 0.359D+00-0.738D-01 0.685D+00
 Coeff-En:   0.000D+00 0.000D+00 0.407D+00 0.000D+00 0.593D+00
 Coeff:      0.436D-02 0.223D-01 0.364D+00-0.658D-01 0.675D+00
 Gap=     0.126 Goal=   None    Shift=    0.000
 RMSDP=6.99D-04 MaxDP=3.55D-02 DE=-7.11D-01 OVMax= 6.58D-02

 Cycle   6  Pass 0  IDiag  1:
 RMSU=  1.33D-04    CP:  9.60D-01  9.11D-01  5.92D-01  2.36D-01  6.44D-01
 E= -1165.90901279012     Delta-E=       -0.065656287884 Rises=F Damp=F
 DIIS: error= 9.10D-04 at cycle   6 NSaved=   6.
 NSaved= 6 IEnMin= 6 EnMin= -1165.90901279012     IErMin= 6 ErrMin= 9.10D-04
 ErrMax= 9.10D-04  0.00D+00 EMaxC= 1.00D-01 BMatC= 9.64D-04 BMatP= 7.24D-02
 IDIUse=3 WtCom= 9.91D-01 WtEn= 9.10D-03
 Coeff-Com:  0.341D-03 0.129D-01 0.189D+00-0.632D-01 0.436D+00 0.425D+00
 Coeff-En:   0.000D+00 0.000D+00 0.000D+00 0.000D+00 0.000D+00 0.100D+01
 Coeff:      0.338D-03 0.128D-01 0.188D+00-0.626D-01 0.432D+00 0.430D+00
 Gap=     0.127 Goal=   None    Shift=    0.000
 RMSDP=8.68D-05 MaxDP=4.20D-03 DE=-6.57D-02 OVMax= 8.82D-03

 Cycle   7  Pass 0  IDiag  1:
 RMSU=  3.67D-05    CP:  9.59D-01  9.14D-01  5.88D-01  2.33D-01  7.30D-01
                    CP:  4.95D-01
 E= -1165.90983391274     Delta-E=       -0.000821122624 Rises=F Damp=F
 DIIS: error= 3.29D-04 at cycle   7 NSaved=   7.
 NSaved= 7 IEnMin= 7 EnMin= -1165.90983391274     IErMin= 7 ErrMin= 3.29D-04
 ErrMax= 3.29D-04  0.00D+00 EMaxC= 1.00D-01 BMatC= 7.32D-05 BMatP= 9.64D-04
 IDIUse=3 WtCom= 9.97D-01 WtEn= 3.29D-03
 Coeff-Com:  0.955D-03-0.270D-03 0.359D-01-0.137D-01 0.711D-01 0.155D+00
 Coeff-Com:  0.751D+00
 Coeff-En:   0.000D+00 0.000D+00 0.000D+00 0.000D+00 0.000D+00 0.000D+00
 Coeff-En:   0.100D+01
 Coeff:      0.952D-03-0.269D-03 0.358D-01-0.137D-01 0.709D-01 0.155D+00
 Coeff:      0.752D+00
 Gap=     0.127 Goal=   None    Shift=    0.000
 RMSDP=2.75D-05 MaxDP=9.06D-04 DE=-8.21D-04 OVMax= 3.50D-03

 Cycle   8  Pass 0  IDiag  1:
 RMSU=  1.76D-05    CP:  9.59D-01  9.11D-01  5.95D-01  2.30D-01  7.19D-01
                    CP:  5.47D-01  6.74D-01
 E= -1165.90989741593     Delta-E=       -0.000063503187 Rises=F Damp=F
 DIIS: error= 9.33D-05 at cycle   8 NSaved=   8.
 NSaved= 8 IEnMin= 8 EnMin= -1165.90989741593     IErMin= 8 ErrMin= 9.33D-05
 ErrMax= 9.33D-05  0.00D+00 EMaxC= 1.00D-01 BMatC= 1.30D-05 BMatP= 7.32D-05
 IDIUse=1 WtCom= 1.00D+00 WtEn= 0.00D+00
 Coeff-Com:  0.936D-03-0.275D-02 0.749D-02-0.195D-02 0.454D-02 0.561D-01
 Coeff-Com:  0.477D+00 0.459D+00
 Coeff:      0.936D-03-0.275D-02 0.749D-02-0.195D-02 0.454D-02 0.561D-01
 Coeff:      0.477D+00 0.459D+00
 Gap=     0.127 Goal=   None    Shift=    0.000
 RMSDP=1.11D-05 MaxDP=4.73D-04 DE=-6.35D-05 OVMax= 1.42D-03

 Cycle   9  Pass 0  IDiag  1:
 RMSU=  3.88D-06    CP:  9.59D-01  9.10D-01  5.96D-01  2.30D-01  7.17D-01
                    CP:  5.41D-01  7.88D-01  4.79D-01
 E= -1165.90991118380     Delta-E=       -0.000013767870 Rises=F Damp=F
 DIIS: error= 2.73D-05 at cycle   9 NSaved=   9.
 NSaved= 9 IEnMin= 9 EnMin= -1165.90991118380     IErMin= 9 ErrMin= 2.73D-05
 ErrMax= 2.73D-05  0.00D+00 EMaxC= 1.00D-01 BMatC= 5.90D-07 BMatP= 1.30D-05
 IDIUse=1 WtCom= 1.00D+00 WtEn= 0.00D+00
 Coeff-Com:  0.435D-03-0.134D-02 0.118D-02 0.214D-04-0.359D-02 0.208D-01
 Coeff-Com:  0.209D+00 0.249D+00 0.525D+00
 Coeff:      0.435D-03-0.134D-02 0.118D-02 0.214D-04-0.359D-02 0.208D-01
 Coeff:      0.209D+00 0.249D+00 0.525D+00
 Gap=     0.127 Goal=   None    Shift=    0.000
 RMSDP=2.47D-06 MaxDP=1.12D-04 DE=-1.38D-05 OVMax= 3.89D-04

 Initial convergence to 1.0D-05 achieved.  Increase integral accuracy.
 Cycle  10  Pass 1  IDiag  1:
 E= -1165.90994348599     Delta-E=       -0.000032302188 Rises=F Damp=F
 DIIS: error= 1.25D-04 at cycle   1 NSaved=   1.
 NSaved= 1 IEnMin= 1 EnMin= -1165.90994348599     IErMin= 1 ErrMin= 1.25D-04
 ErrMax= 1.25D-04  0.00D+00 EMaxC= 1.00D-01 BMatC= 1.91D-06 BMatP= 1.91D-06
 IDIUse=3 WtCom= 9.99D-01 WtEn= 1.25D-03
 Coeff-Com:  0.100D+01
 Coeff-En:   0.100D+01
 Coeff:      0.100D+01
 Gap=     0.127 Goal=   None    Shift=    0.000
 RMSDP=2.47D-06 MaxDP=1.12D-04 DE=-3.23D-05 OVMax= 4.48D-04

 Cycle  11  Pass 1  IDiag  1:
 RMSU=  6.28D-05    CP:  1.00D+00
 E= -1165.90994461808     Delta-E=       -0.000001132094 Rises=F Damp=F
 DIIS: error= 2.08D-05 at cycle   2 NSaved=   2.
 NSaved= 2 IEnMin= 2 EnMin= -1165.90994461808     IErMin= 2 ErrMin= 2.08D-05
 ErrMax= 2.08D-05  0.00D+00 EMaxC= 1.00D-01 BMatC= 4.42D-07 BMatP= 1.91D-06
 IDIUse=1 WtCom= 1.00D+00 WtEn= 0.00D+00
 Coeff-Com:  0.231D+00 0.769D+00
 Coeff:      0.231D+00 0.769D+00
 Gap=     0.127 Goal=   None    Shift=    0.000
 RMSDP=4.66D-06 MaxDP=1.50D-04 DE=-1.13D-06 OVMax= 7.45D-04

 Cycle  12  Pass 1  IDiag  1:
 RMSU=  4.64D-06    CP:  1.00D+00  1.01D+00
 E= -1165.90994403096     Delta-E=        0.000000587123 Rises=F Damp=F
 DIIS: error= 3.27D-05 at cycle   3 NSaved=   3.
 NSaved= 3 IEnMin= 2 EnMin= -1165.90994461808     IErMin= 2 ErrMin= 2.08D-05
 ErrMax= 3.27D-05  0.00D+00 EMaxC= 1.00D-01 BMatC= 9.77D-07 BMatP= 4.42D-07
 IDIUse=1 WtCom= 1.00D+00 WtEn= 0.00D+00
 Coeff-Com:  0.145D-02 0.598D+00 0.400D+00
 Coeff:      0.145D-02 0.598D+00 0.400D+00
 Gap=     0.127 Goal=   None    Shift=    0.000
 RMSDP=2.88D-06 MaxDP=1.09D-04 DE= 5.87D-07 OVMax= 4.65D-04

 Cycle  13  Pass 1  IDiag  1:
 RMSU=  5.52D-07    CP:  1.00D+00  1.01D+00  3.97D-01
 E= -1165.90994509655     Delta-E=       -0.000001065592 Rises=F Damp=F
 DIIS: error= 3.18D-06 at cycle   4 NSaved=   4.
 NSaved= 4 IEnMin= 4 EnMin= -1165.90994509655     IErMin= 4 ErrMin= 3.18D-06
 ErrMax= 3.18D-06  0.00D+00 EMaxC= 1.00D-01 BMatC= 1.65D-08 BMatP= 4.42D-07
 IDIUse=1 WtCom= 1.00D+00 WtEn= 0.00D+00
 Coeff-Com: -0.373D-02 0.369D+00 0.255D+00 0.380D+00
 Coeff:     -0.373D-02 0.369D+00 0.255D+00 0.380D+00
 Gap=     0.127 Goal=   None    Shift=    0.000
 RMSDP=3.38D-07 MaxDP=1.50D-05 DE=-1.07D-06 OVMax= 2.87D-05

 Cycle  14  Pass 1  IDiag  1:
 RMSU=  1.50D-07    CP:  1.00D+00  1.01D+00  4.11D-01  4.63D-01
 E= -1165.90994511137     Delta-E=       -0.000000014822 Rises=F Damp=F
 DIIS: error= 7.01D-07 at cycle   5 NSaved=   5.
 NSaved= 5 IEnMin= 5 EnMin= -1165.90994511137     IErMin= 5 ErrMin= 7.01D-07
 ErrMax= 7.01D-07  0.00D+00 EMaxC= 1.00D-01 BMatC= 3.76D-10 BMatP= 1.65D-08
 IDIUse=1 WtCom= 1.00D+00 WtEn= 0.00D+00
 Coeff-Com: -0.234D-02 0.215D+00 0.148D+00 0.241D+00 0.398D+00
 Coeff:     -0.234D-02 0.215D+00 0.148D+00 0.241D+00 0.398D+00
 Gap=     0.127 Goal=   None    Shift=    0.000
 RMSDP=5.90D-08 MaxDP=2.39D-06 DE=-1.48D-08 OVMax= 5.65D-06

 Cycle  15  Pass 1  IDiag  1:
 RMSU=  4.99D-08    CP:  1.00D+00  1.01D+00  4.09D-01  4.84D-01  8.09D-01
 E= -1165.90994511172     Delta-E=       -0.000000000349 Rises=F Damp=F
 DIIS: error= 1.53D-07 at cycle   6 NSaved=   6.
 NSaved= 6 IEnMin= 6 EnMin= -1165.90994511172     IErMin= 6 ErrMin= 1.53D-07
 ErrMax= 1.53D-07  0.00D+00 EMaxC= 1.00D-01 BMatC= 2.24D-11 BMatP= 3.76D-10
 IDIUse=1 WtCom= 1.00D+00 WtEn= 0.00D+00
 Coeff-Com: -0.625D-03 0.536D-01 0.364D-01 0.686D-01 0.214D+00 0.628D+00
 Coeff:     -0.625D-03 0.536D-01 0.364D-01 0.686D-01 0.214D+00 0.628D+00
 Gap=     0.127 Goal=   None    Shift=    0.000
 RMSDP=1.74D-08 MaxDP=8.33D-07 DE=-3.49D-10 OVMax= 1.54D-06

 Cycle  16  Pass 1  IDiag  1:
 RMSU=  1.31D-08    CP:  1.00D+00  1.01D+00  4.08D-01  4.88D-01  8.48D-01
                    CP:  8.43D-01
 E= -1165.90994511176     Delta-E=       -0.000000000040 Rises=F Damp=F
 DIIS: error= 5.71D-08 at cycle   7 NSaved=   7.
 NSaved= 7 IEnMin= 7 EnMin= -1165.90994511176     IErMin= 7 ErrMin= 5.71D-08
 ErrMax= 5.71D-08  0.00D+00 EMaxC= 1.00D-01 BMatC= 5.18D-12 BMatP= 2.24D-11
 IDIUse=1 WtCom= 1.00D+00 WtEn= 0.00D+00
 Coeff-Com: -0.946D-04 0.586D-02 0.372D-02 0.125D-01 0.859D-01 0.399D+00
 Coeff-Com:  0.493D+00
 Coeff:     -0.946D-04 0.586D-02 0.372D-02 0.125D-01 0.859D-01 0.399D+00
 Coeff:      0.493D+00
 Gap=     0.127 Goal=   None    Shift=    0.000
 RMSDP=7.09D-09 MaxDP=3.04D-07 DE=-4.05D-11 OVMax= 5.51D-07

 SCF Done:  E(RB3LYP) =  -1165.90994511     A.U. after   16 cycles
            NFock= 16  Conv=0.71D-08     -V/T= 2.0094
 KE= 1.155059240140D+03 PE=-7.158563862083D+03 EE= 2.613382191590D+03
 Leave Link  502 at Sat Nov  5 09:44:21 2022, MaxMem=   402653184 cpu:             492.1 elap:              36.2
 (Enter /home/wykgroup/appl/g16/l508.exe)
 QCSCF skips out because SCF is already converged.
 Leave Link  508 at Sat Nov  5 09:44:21 2022, MaxMem=   402653184 cpu:               0.0 elap:               0.0
 (Enter /home/wykgroup/appl/g16/l801.exe)
 DoSCS=F DFT=T ScalE2(SS,OS)=  1.000000  1.000000
 ExpMin= 1.61D-01 ExpMax= 5.48D+03 ExpMxC= 8.25D+02 IAcc=3 IRadAn=         5 AccDes= 0.00D+00
 HarFok:  IExCor=  205 AccDes= 0.00D+00 IRadAn=         5 IDoV=-2 UseB2=F ITyADJ=14
 ICtDFT= 12500011 ScaDFX=  1.000000  1.000000  1.000000  1.000000
 GSVD:  LWork=        -945 too small for GESVD, short by        4050 words or        4050 for optimal perf.
 Largest valence mixing into a core orbital is  6.17D-05
 Largest core mixing into a valence orbital is  1.25D-05
 Range of M.O.s used for correlation:    28   435
 NBasis=   435 NAE=    92 NBE=    92 NFC=    27 NFV=     0
 NROrb=    408 NOA=    65 NOB=    65 NVA=   343 NVB=   343
 Leave Link  801 at Sat Nov  5 09:44:21 2022, MaxMem=   402653184 cpu:               1.8 elap:               0.2
 (Enter /home/wykgroup/appl/g16/l914.exe)
 RHF ground state
 Two-electron integral symmetry not used.
 MDV=   402653184 DFT=T DoStab=F Mixed=T DoRPA=T DoScal=F NonHer=T
 Making orbital integer symmetry assigments:
    16 initial guesses have been made.
 Convergence on wavefunction:    0.001000000000000
 Davidson Disk Diagonalization:  ConvIn= 1.00D-03 SkipCon=T Conv= 1.00D-03.
 Max sub-space:  2000 roots to seek:    16 dimension of matrix:        44590
 Iteration     1 Dimension    16 NMult     0 NNew     16
 CISAX will form    16 AO SS matrices at one time.
 NMat=    16 NSing=     8 JSym2X= 0.
 FoFJK:  IHMeth= 1 ICntrl=       0 DoSepK=F KAlg= 0 I1Cent=           0 FoldK=F
 IRaf= 650000000 NMat=      32 IRICut=       1 DoRegI=T DoRafI=F ISym2E= 0 IDoP0=0 IntGTp=1.
 FoFCou: FMM=F IPFlag=           0 FMFlag=      100000 FMFlg1=           0
         NFxFlg=           0 DoJE=F BraDBF=F KetDBF=F FulRan=T
         wScrn=  0.000000 ICntrl=         0 IOpCl=  0 I1Cent=           0 NGrid=           0
         NMat0=   32 NMatS0=      8 NMatT0=    8 NMatD0=   32 NMtDS0=    0 NMtDT0=    0
 Symmetry not used in FoFCou.
 New state      1 was old state      4
 New state      3 was old state      1
 New state      4 was old state     10
 New state      5 was old state     12
 New state      6 was old state      9
 New state      7 was old state      3
 Excitation Energies [eV] at current iteration:
 Root      1 :     2.609489805887836
 Root      2 :     2.924801552238235
 Root      3 :     3.025209575172991
 Root      4 :     3.365201511856089
 Root      5 :     3.451778770924193
 Root      6 :     3.620943380025990
 Root      7 :     3.886419337738998
 Root      8 :     3.989932768842514
 Root      9 :     4.128815169131706
 Root     10 :     4.218244809707904
 Root     11 :     4.221563852585883
 Root     12 :     4.236023362862217
 Root     13 :     4.486605962601485
 Root     14 :     4.504586911480533
 Root     15 :     4.775244333352591
 Root     16 :     5.149836737035424
 Vector   4 SDiff=3.21D+00 TDiff=3.67D+00 assumed to be singlet.
 Vector   8 SDiff=3.33D+00 TDiff=3.30D+00 assumed to be triplet.
 Iteration     2 Dimension    24 NMult    16 NNew      8
 CISAX will form     8 AO SS matrices at one time.
 NMat=     8 NSing=     3 JSym2X= 0.
 Root      1 not converged, maximum delta is    0.121483071186330
 Root      2 not converged, maximum delta is    0.079387101513650
 Root      3 not converged, maximum delta is    0.029092181120467
 New state      4 was old state      6
 Root      4 not converged, maximum delta is    0.085255174857464
 Excitation Energies [eV] at current iteration:
 Root      1 :     2.424341396189778   Change is   -0.185148409698058
 Root      2 :     2.864710807726023   Change is   -0.060090744512212
 Root      3 :     2.981725918137723   Change is   -0.043483657035268
 Root      4 :     3.563215210863360   Change is   -0.057728169162630
 Iteration     3 Dimension    32 NMult    24 NNew      8
 CISAX will form     8 AO SS matrices at one time.
 NMat=     8 NSing=     4 JSym2X= 0.
 Root      1 not converged, maximum delta is    0.032414079717244
 Root      2 not converged, maximum delta is    0.068597764933986
 Root      3 not converged, maximum delta is    0.021931993302987
 Root      4 not converged, maximum delta is    0.367758685586092
 Excitation Energies [eV] at current iteration:
 Root      1 :     2.397015663697916   Change is   -0.027325732491862
 Root      2 :     2.841930079477838   Change is   -0.022780728248185
 Root      3 :     2.975343588935555   Change is   -0.006382329202168
 Root      4 :     3.450731205677983   Change is   -0.112484005185376
 Iteration     4 Dimension    40 NMult    32 NNew      8
 CISAX will form     8 AO SS matrices at one time.
 NMat=     8 NSing=     4 JSym2X= 0.
 Root      1 not converged, maximum delta is    0.007837474158656
 Root      2 not converged, maximum delta is    0.019462840864197
 Root      3 not converged, maximum delta is    0.009781673351661
 Root      4 not converged, maximum delta is    0.333437124335675
 Excitation Energies [eV] at current iteration:
 Root      1 :     2.394617246187196   Change is   -0.002398417510720
 Root      2 :     2.837118970161703   Change is   -0.004811109316135
 Root      3 :     2.974067596289110   Change is   -0.001275992646445
 Root      4 :     3.352112264993932   Change is   -0.098618940684052
 Iteration     5 Dimension    48 NMult    40 NNew      8
 CISAX will form     8 AO SS matrices at one time.
 NMat=     8 NSing=     4 JSym2X= 0.
 Root      1 not converged, maximum delta is    0.002622952359871
 Root      2 not converged, maximum delta is    0.006761892424949
 Root      3 not converged, maximum delta is    0.002006274953923
 Root      4 not converged, maximum delta is    0.033855151743431
 Excitation Energies [eV] at current iteration:
 Root      1 :     2.394411522407339   Change is   -0.000205723779856
 Root      2 :     2.836251700448734   Change is   -0.000867269712970
 Root      3 :     2.973846894089706   Change is   -0.000220702199404
 Root      4 :     3.331241320301380   Change is   -0.020870944692552
 Iteration     6 Dimension    56 NMult    48 NNew      8
 CISAX will form     8 AO SS matrices at one time.
 NMat=     8 NSing=     4 JSym2X= 0.
 Root      1 not converged, maximum delta is    0.001610579687174
 Root      2 not converged, maximum delta is    0.003276932591172
 Root      3 has converged.
 Root      4 not converged, maximum delta is    0.006862439298234
 Excitation Energies [eV] at current iteration:
 Root      1 :     2.394372661723645   Change is   -0.000038860683694
 Root      2 :     2.836077140167291   Change is   -0.000174560281443
 Root      3 :     2.973816966350218   Change is   -0.000029927739488
 Root      4 :     3.327725934197462   Change is   -0.003515386103918
 Iteration     7 Dimension    62 NMult    56 NNew      6
 CISAX will form     6 AO SS matrices at one time.
 NMat=     6 NSing=     2 JSym2X= 0.
 Root      1 has converged.
 Root      2 not converged, maximum delta is    0.001277399488300
 Root      3 has converged.
 Root      4 not converged, maximum delta is    0.002952035876714
 Excitation Energies [eV] at current iteration:
 Root      1 :     2.394367365956068   Change is   -0.000005295767577
 Root      2 :     2.836043404318771   Change is   -0.000033735848520
 Root      3 :     2.973815341389884   Change is   -0.000001624960335
 Root      4 :     3.327091232073812   Change is   -0.000634702123649
 Iteration     8 Dimension    66 NMult    62 NNew      4
 CISAX will form     4 AO SS matrices at one time.
 NMat=     4 NSing=     2 JSym2X= 0.
 Root      1 has converged.
 Root      2 has converged.
 Root      3 has converged.
 Root      4 has converged.
 Excitation Energies [eV] at current iteration:
 Root      1 :     2.394367240229793   Change is   -0.000000125726274
 Root      2 :     2.836036653216029   Change is   -0.000006751102741
 Root      3 :     2.973814918939115   Change is   -0.000000422450769
 Root      4 :     3.327037884166998   Change is   -0.000053347906815
 Convergence achieved on expansion vectors.
 ***********************************************************************
 Excited states from <AA,BB:AA,BB> singles matrix:
 ***********************************************************************
 
 1PDM for each excited state written to RWF  633
 Ground to excited state transition densities written to RWF  633
 Ground to excited state transition electric dipole moments (Au):
       state          X           Y           Z        Dip. S.      Osc.
         1        -0.0000      0.0000      0.0000      0.0000      0.0000
         2         0.0000     -0.0000      0.0000      0.0000      0.0000
         3        -1.0077      0.1099     -0.0564      1.0307      0.0751
         4        -0.4872      0.5745     -0.6451      0.9835      0.0802
 Ground to excited state transition velocity dipole moments (Au):
       state          X           Y           Z        Dip. S.      Osc.
         1         0.0000     -0.0000     -0.0000      0.0000      0.0000
         2        -0.0000      0.0000     -0.0000      0.0000      0.0000
         3         0.1091     -0.0136      0.0079      0.0121      0.0741
         4         0.0654     -0.0724      0.0836      0.0165      0.0900
 Ground to excited state transition magnetic dipole moments (Au):
       state          X           Y           Z
         1         0.0000      0.0000     -0.0000
         2         0.0000     -0.0000     -0.0000
         3         0.0703      0.1543      0.0489
         4        -0.0085      0.5971      0.4261
 Ground to excited state transition velocity quadrupole moments (Au):
       state          XX          YY          ZZ          XY          XZ          YZ
         1         0.0000      0.0000      0.0000     -0.0000     -0.0000     -0.0000
         2         0.0000     -0.0000     -0.0000     -0.0000      0.0000      0.0000
         3         0.2908     -0.0527     -0.0077     -0.0126     -0.0724      0.0709
         4        -0.3489     -0.1397      0.0175      0.1962     -0.2336      0.0889
 <0|del|b> * <b|rxdel|0> + <0|del|b> * <b|delr+rdel|0>
 Rotatory Strengths (R) in cgs (10**-40 erg-esu-cm/Gauss)
       state          XX          YY          ZZ    R(velocity)    E-M Angle
         1         0.0000      0.0000      0.0000      0.0000       90.00
         2         0.0000     -0.0000      0.0000      0.0000       90.00
         3        -9.0631     51.3949     -3.8126     12.8397       72.18
         4       -23.4029     70.8204    -94.5112    -15.6979       94.96
 1/2[<0|r|b>*<b|rxdel|0> + (<0|rxdel|b>*<b|r|0>)*]
 Rotatory Strengths (R) in cgs (10**-40 erg-esu-cm/Gauss)
       state          XX          YY          ZZ     R(length)
         1         0.0000     -0.0000      0.0000     -0.0000
         2        -0.0000     -0.0000      0.0000      0.0000
         3        50.1013    -11.9988      1.9507     13.3511
         4        -2.9140   -242.5864    194.3713    -17.0431
  1/2[<0|del|b>*<b|r|0> + (<0|r|b>*<b|del|0>)*] (Au)
       state          X           Y           Z        Dip. S.   Osc.(frdel)
         1        -0.0000     -0.0000     -0.0000      0.0000      0.0000
         2        -0.0000     -0.0000     -0.0000      0.0000      0.0000
         3        -0.1099     -0.0015     -0.0004      0.1118      0.0746
         4        -0.0319     -0.0416     -0.0539      0.1274      0.0849

 Excitation energies and oscillator strengths:
 
 Excited state symmetry could not be determined.
 Excited State   1:      Triplet-?Sym    2.3944 eV  517.82 nm  f=0.0000  <S**2>=2.000
      88 -> 93        -0.10773
      88 -> 94        -0.12430
      91 -> 93         0.58807
      91 -> 94         0.19002
      92 -> 93         0.26161
 This state for optimization and/or second-order correction.
 Total Energy, E(TD-HF/TD-DFT) =  -1165.82195373    
 Copying the excited state density for this state as the 1-particle RhoCI density.
 
 Excited state symmetry could not be determined.
 Excited State   2:      Triplet-?Sym    2.8360 eV  437.17 nm  f=0.0000  <S**2>=2.000
      88 -> 93        -0.22320
      89 -> 93         0.12343
      90 -> 93        -0.10134
      91 -> 93        -0.34425
      92 -> 93         0.49376
      92 -> 94         0.12296
 
 Excited state symmetry could not be determined.
 Excited State   3:      Singlet-?Sym    2.9738 eV  416.92 nm  f=0.0751  <S**2>=0.000
      92 -> 93         0.70141
 
 Excited state symmetry could not be determined.
 Excited State   4:      Singlet-?Sym    3.3270 eV  372.66 nm  f=0.0802  <S**2>=0.000
      91 -> 93         0.69529
 SavETr:  write IOETrn=   770 NScale= 10 NData=  16 NLR=1 NState=    4 LETran=      82.
 Leave Link  914 at Sat Nov  5 09:48:46 2022, MaxMem=   402653184 cpu:            3477.8 elap:             264.8
 (Enter /home/wykgroup/appl/g16/l601.exe)
 Copying SCF densities to generalized density rwf, IOpCl= 0 IROHF=0.

 **********************************************************************

            Population analysis using the SCF Density.

 **********************************************************************

 Alpha  occ. eigenvalues --  -19.22063 -19.17798 -19.12487 -14.34685 -10.29123
 Alpha  occ. eigenvalues --  -10.27430 -10.26984 -10.26855 -10.25466 -10.22069
 Alpha  occ. eigenvalues --  -10.21268 -10.21172 -10.20923 -10.20539 -10.20474
 Alpha  occ. eigenvalues --  -10.20342 -10.20331 -10.20141 -10.19846 -10.19714
 Alpha  occ. eigenvalues --  -10.19616 -10.19386 -10.18655 -10.18594 -10.18515
 Alpha  occ. eigenvalues --  -10.18290 -10.17787  -1.11317  -1.07148  -1.02534
 Alpha  occ. eigenvalues --   -0.94819  -0.87559  -0.86323  -0.83816  -0.81167
 Alpha  occ. eigenvalues --   -0.79115  -0.78512  -0.77040  -0.75606  -0.74648
 Alpha  occ. eigenvalues --   -0.72743  -0.70221  -0.66933  -0.65462  -0.63219
 Alpha  occ. eigenvalues --   -0.62072  -0.60765  -0.60684  -0.58684  -0.57904
 Alpha  occ. eigenvalues --   -0.56143  -0.54055  -0.53142  -0.51698  -0.51312
 Alpha  occ. eigenvalues --   -0.49256  -0.48334  -0.47432  -0.46947  -0.46829
 Alpha  occ. eigenvalues --   -0.45637  -0.44421  -0.44088  -0.44055  -0.43429
 Alpha  occ. eigenvalues --   -0.42781  -0.42064  -0.41753  -0.40916  -0.40611
 Alpha  occ. eigenvalues --   -0.40130  -0.39518  -0.39334  -0.38720  -0.37358
[...]
     3  C    0.000000  -0.000000   0.000000  -0.000000   0.000000  -0.000000
     4  C    0.000000  -0.000000  -0.000000   0.000000   0.000000   0.000000
     5  C   -0.000000   0.000000   0.000000   0.000000   0.000000  -0.000000
     6  C    0.000000  -0.000000   0.000000   0.000000   0.000000  -0.000000
     7  C   -0.000000   0.000000  -0.000000   0.000000   0.000000  -0.000000
     8  C   -0.000000   0.000000   0.000000  -0.000000   0.000000  -0.000000
     9  O   -0.000000   0.000000   0.000000  -0.000000   0.000000   0.000000
    10  C   -0.000000  -0.000000  -0.000000   0.000000   0.000000  -0.000000
    11  C    0.000004  -0.000000  -0.000000   0.000000  -0.000000   0.000000
    12  C   -0.000375   0.000024   0.000000  -0.000000   0.000000  -0.000001
    13  C    0.001398  -0.000057   0.000001  -0.000000   0.000000  -0.000003
    14  C    0.001057  -0.000049  -0.000000   0.000000  -0.000000   0.000003
    15  C    0.000011   0.000000   0.000000  -0.000000  -0.000000   0.000000
    16  C    0.003264  -0.000193   0.000003  -0.000000   0.000000   0.000010
    17  C   -0.038116  -0.002463  -0.000255   0.000006   0.000001  -0.000157
    18  C    0.362677  -0.034248   0.003415  -0.000162  -0.000137   0.002998
    19  C    5.389756   0.276131  -0.075137   0.006672  -0.000158   0.014934
    20  C    0.276131   4.782480   0.526525  -0.013934  -0.040271  -0.055093
    21  C   -0.075137   0.526525   5.022745   0.500889  -0.022596  -0.057303
    22  C    0.006672  -0.013934   0.500889   4.897779   0.548548  -0.031737
    23  C   -0.000158  -0.040271  -0.022596   0.548548   4.855308   0.517145
    24  C    0.014934  -0.055093  -0.057303  -0.031737   0.517145   5.054319
    25  C   -0.051051   0.542459  -0.018536  -0.046655  -0.001525   0.509223
    26  N   -0.116396  -0.027539   0.011937   0.000148   0.005059  -0.079380
    27  O   -0.052480  -0.000254  -0.000091   0.000002  -0.000001  -0.000009
    28  H   -0.000000  -0.000000  -0.000000   0.000000   0.000000   0.000000
    29  H   -0.000000  -0.000000   0.000000   0.000000   0.000000   0.000000
    30  H    0.000000   0.000000   0.000000   0.000000   0.000000   0.000000
    31  H   -0.000000  -0.000000  -0.000000   0.000000   0.000000   0.000000
    32  H   -0.000000   0.000000   0.000000  -0.000000  -0.000000  -0.000000
    33  H   -0.000034  -0.000003  -0.000000   0.000000  -0.000000  -0.000000
    34  H   -0.000092   0.000001  -0.000000  -0.000000   0.000000  -0.000000
    35  H   -0.005619   0.000413  -0.000015   0.000000  -0.000001  -0.000025
    36  H    0.341504  -0.016590  -0.001564  -0.000033   0.000027  -0.000257
    37  H    0.350891  -0.025900  -0.001481  -0.000023   0.000033  -0.000258
    38  H   -0.007816  -0.043964   0.355614  -0.045771   0.004722   0.000592
    39  H   -0.000145   0.003145  -0.040131   0.358555  -0.041065   0.004553
    40  H    0.000008   0.001041   0.004543  -0.040672   0.356616  -0.040315
    41  H   -0.000294   0.004944   0.000623   0.004298  -0.041901   0.348514
    42  H    0.007370   0.003584  -0.000224   0.000019  -0.000103  -0.003266
              25         26         27         28         29         30
     1  O   -0.000000   0.000000   0.000000   0.016482   0.000001   0.000000
     2  C    0.000000  -0.000000  -0.000039  -0.009669  -0.000128   0.000004
     3  C    0.000000   0.000000   0.000000  -0.041171   0.003089   0.000529
     4  C    0.000000  -0.000000  -0.000000   0.354300  -0.037970   0.004449
     5  C   -0.000000   0.000000   0.000000  -0.042636   0.362396  -0.040597
     6  C    0.000000  -0.000000   0.000000   0.004271  -0.041862   0.361086
     7  C   -0.000000  -0.000000  -0.000000   0.000324   0.004251  -0.039678
     8  C   -0.000000  -0.000000  -0.000000   0.005360   0.000872   0.003891
     9  O   -0.000000   0.000000   0.000000  -0.000043   0.000002  -0.000055
    10  C   -0.000000   0.000002   0.000046  -0.000078  -0.000000  -0.000000
    11  C    0.000001  -0.000003   0.003739   0.000000  -0.000000  -0.000000
    12  C   -0.000017  -0.000010  -0.060959   0.000000   0.000000   0.000000
    13  C   -0.000306   0.006408   0.232385   0.000000   0.000000  -0.000000
    14  C    0.000028   0.001525  -0.033172   0.000014  -0.000000   0.000000
    15  C   -0.000001  -0.000097   0.005561   0.000902   0.000002   0.000001
    16  C    0.000053  -0.007830  -0.029691  -0.000003  -0.000000  -0.000000
    17  C    0.008100  -0.080388  -0.023773  -0.000000  -0.000000  -0.000000
    18  C   -0.029440   0.306911   0.190085   0.000000   0.000000  -0.000000
    19  C   -0.051051  -0.116396  -0.052480  -0.000000  -0.000000   0.000000
    20  C    0.542459  -0.027539  -0.000254  -0.000000  -0.000000   0.000000
    21  C   -0.018536   0.011937  -0.000091  -0.000000   0.000000   0.000000
    22  C   -0.046655   0.000148   0.000002   0.000000   0.000000   0.000000
    23  C   -0.001525   0.005059  -0.000001   0.000000   0.000000   0.000000
    24  C    0.509223  -0.079380  -0.000009   0.000000   0.000000   0.000000
    25  C    4.612433   0.196640   0.004772   0.000000   0.000000  -0.000000
    26  N    0.196640   7.224785  -0.074027  -0.000000   0.000000   0.000000
    27  O    0.004772  -0.074027   8.384664  -0.000000  -0.000000   0.000000
    28  H    0.000000  -0.000000  -0.000000   0.549799  -0.004337  -0.000159
    29  H    0.000000   0.000000  -0.000000  -0.004337   0.580011  -0.004977
    30  H   -0.000000   0.000000   0.000000  -0.000159  -0.004977   0.579177
    31  H    0.000000   0.000000  -0.000000   0.000016  -0.000149  -0.005751
    32  H   -0.000000  -0.000000  -0.000048  -0.000000   0.000000  -0.000000
    33  H    0.000006   0.000036   0.000714   0.000000   0.000000  -0.000000
    34  H    0.000005  -0.000071  -0.000122  -0.000007  -0.000000   0.000000
    35  H    0.000074   0.004125   0.003090  -0.000000  -0.000000  -0.000000
    36  H    0.000457   0.002963   0.003966   0.000000   0.000000  -0.000000
    37  H   -0.000358   0.004623   0.002938  -0.000000   0.000000  -0.000000
    38  H    0.005115  -0.000148  -0.000001  -0.000000   0.000000   0.000000
    39  H    0.000947   0.000004   0.000000   0.000000   0.000000   0.000000
    40  H    0.003074  -0.000106  -0.000000  -0.000000   0.000000   0.000000
    41  H   -0.038629  -0.005858   0.000001   0.000000   0.000000  -0.000000
    42  H   -0.023572   0.304870   0.002686  -0.000000  -0.000000  -0.000000
              31         32         33         34         35         36
     1  O    0.000000   0.000000  -0.000000   0.026965   0.000002  -0.000000
     2  C   -0.000124  -0.000100   0.000007   0.002720  -0.000005   0.000000
     3  C    0.005943   0.000021   0.000000   0.000625   0.000000  -0.000000
     4  C    0.000330  -0.000001   0.000000  -0.000008  -0.000000   0.000000
     5  C    0.004400   0.000000  -0.000000  -0.000000  -0.000000   0.000000
     6  C   -0.040617   0.000000   0.000000   0.000000   0.000000  -0.000000
     7  C    0.346873   0.000001  -0.000000   0.000000  -0.000000  -0.000000
     8  C   -0.033793   0.000175  -0.000001  -0.000011  -0.000000   0.000000
     9  O   -0.000295  -0.000111  -0.000051   0.000001  -0.000000  -0.000000
    10  C    0.000064  -0.033226   0.003702  -0.000183   0.000002   0.000000
    11  C    0.000001   0.348781  -0.038881   0.000004  -0.000001  -0.000000
    12  C    0.000000  -0.037153   0.344524  -0.000123   0.000014  -0.000055
    13  C    0.000000   0.003685  -0.029698   0.005374   0.000797   0.001016
    14  C   -0.000000   0.000204   0.006369  -0.024032   0.002560  -0.000000
    15  C    0.000033   0.005802   0.000355  -0.017359  -0.000158  -0.000002
    16  C   -0.000000   0.000007  -0.000211   0.347090  -0.030292  -0.000179
    17  C   -0.000000   0.000000   0.000053  -0.043771   0.354686   0.003201
    18  C    0.000000   0.000001  -0.000072   0.003665  -0.043194  -0.026822
    19  C   -0.000000  -0.000000  -0.000034  -0.000092  -0.005619   0.341504
    20  C   -0.000000   0.000000  -0.000003   0.000001   0.000413  -0.016590
    21  C   -0.000000   0.000000  -0.000000  -0.000000  -0.000015  -0.001564
    22  C    0.000000  -0.000000   0.000000  -0.000000   0.000000  -0.000033
    23  C    0.000000  -0.000000  -0.000000   0.000000  -0.000001   0.000027
    24  C    0.000000  -0.000000  -0.000000  -0.000000  -0.000025  -0.000257
    25  C    0.000000  -0.000000   0.000006   0.000005   0.000074   0.000457
    26  N    0.000000  -0.000000   0.000036  -0.000071   0.004125   0.002963
    27  O   -0.000000  -0.000048   0.000714  -0.000122   0.003090   0.003966
    28  H    0.000016  -0.000000   0.000000  -0.000007  -0.000000   0.000000
    29  H   -0.000149   0.000000   0.000000  -0.000000  -0.000000   0.000000
    30  H   -0.005751  -0.000000  -0.000000   0.000000  -0.000000  -0.000000
    31  H    0.573732   0.000029  -0.000000  -0.000000   0.000000   0.000000
    32  H    0.000029   0.564948  -0.005777  -0.000000   0.000000  -0.000000
    33  H   -0.000000  -0.005777   0.564302   0.000002  -0.000001   0.000049
    34  H   -0.000000  -0.000000   0.000002   0.513000  -0.005178   0.000005
    35  H    0.000000   0.000000  -0.000001  -0.005178   0.569172   0.000023
    36  H    0.000000  -0.000000   0.000049   0.000005   0.000023   0.534757
    37  H   -0.000000   0.000000   0.000000  -0.000017   0.003396  -0.030421
    38  H    0.000000  -0.000000   0.000000  -0.000000   0.000001   0.001075
    39  H    0.000000  -0.000000  -0.000000  -0.000000  -0.000000  -0.000000
    40  H    0.000000   0.000000  -0.000000  -0.000000   0.000000   0.000000
    41  H    0.000000  -0.000000   0.000000   0.000000   0.000001   0.000003
    42  H   -0.000000   0.000000  -0.000006  -0.000119   0.000232  -0.000206
              37         38         39         40         41         42
     1  O    0.000000  -0.000000   0.000000   0.000000  -0.000000   0.000000
     2  C    0.000000  -0.000000   0.000000   0.000000   0.000000   0.000000
     3  C    0.000000  -0.000000   0.000000  -0.000000  -0.000000   0.000000
     4  C   -0.000000  -0.000000   0.000000  -0.000000  -0.000000   0.000000
     5  C   -0.000000   0.000000   0.000000   0.000000  -0.000000  -0.000000
     6  C   -0.000000   0.000000   0.000000   0.000000  -0.000000   0.000000
     7  C    0.000000   0.000000   0.000000   0.000000   0.000000  -0.000000
     8  C    0.000000   0.000000   0.000000   0.000000   0.000000  -0.000000
     9  O   -0.000000   0.000000   0.000000   0.000000  -0.000000  -0.000000
    10  C   -0.000000   0.000000   0.000000  -0.000000   0.000000  -0.000002
    11  C   -0.000000  -0.000000   0.000000  -0.000000   0.000000   0.000006
    12  C    0.000006  -0.000000  -0.000000   0.000000  -0.000000  -0.000121
    13  C   -0.000137   0.000000   0.000000  -0.000000   0.000000  -0.000851
    14  C   -0.000012   0.000000  -0.000000   0.000000  -0.000000   0.000547
    15  C   -0.000001   0.000000  -0.000000   0.000000  -0.000000   0.000027
    16  C    0.000555  -0.000000   0.000000  -0.000000  -0.000000   0.002993
    17  C   -0.001563  -0.000003   0.000000  -0.000000   0.000000   0.004478
    18  C   -0.033407   0.000056   0.000002   0.000001   0.000064  -0.035396
    19  C    0.350891  -0.007816  -0.000145   0.000008  -0.000294   0.007370
    20  C   -0.025900  -0.043964   0.003145   0.001041   0.004944   0.003584
    21  C   -0.001481   0.355614  -0.040131   0.004543   0.000623  -0.000224
    22  C   -0.000023  -0.045771   0.358555  -0.040672   0.004298   0.000019
    23  C    0.000033   0.004722  -0.041065   0.356616  -0.041901  -0.000103
    24  C   -0.000258   0.000592   0.004553  -0.040315   0.348514  -0.003266
    25  C   -0.000358   0.005115   0.000947   0.003074  -0.038629  -0.023572
    26  N    0.004623  -0.000148   0.000004  -0.000106  -0.005858   0.304870
    27  O    0.002938  -0.000001   0.000000  -0.000000   0.000001   0.002686
    28  H   -0.000000  -0.000000   0.000000  -0.000000   0.000000  -0.000000
    29  H    0.000000   0.000000   0.000000   0.000000   0.000000  -0.000000
    30  H   -0.000000   0.000000   0.000000   0.000000  -0.000000  -0.000000
    31  H   -0.000000   0.000000   0.000000   0.000000   0.000000  -0.000000
    32  H    0.000000  -0.000000  -0.000000   0.000000  -0.000000   0.000000
    33  H    0.000000   0.000000  -0.000000  -0.000000   0.000000  -0.000006
    34  H   -0.000017  -0.000000  -0.000000  -0.000000   0.000000  -0.000119
    35  H    0.003396   0.000001  -0.000000   0.000000   0.000001   0.000232
    36  H   -0.030421   0.001075  -0.000000   0.000000   0.000003  -0.000206
    37  H    0.564291   0.001127  -0.000000   0.000000   0.000003  -0.000084
    38  H    0.001127   0.610344  -0.005123  -0.000187   0.000020   0.000003
    39  H   -0.000000  -0.005123   0.602568  -0.005457  -0.000171  -0.000000
    40  H    0.000000  -0.000187  -0.005457   0.600973  -0.005434  -0.000003
    41  H    0.000003   0.000020  -0.000171  -0.005434   0.606743   0.002508
    42  H   -0.000084   0.000003  -0.000000  -0.000003   0.002508   0.413059
 Mulliken charges:
               1
     1  O   -0.520580
     2  C    0.390897
     3  C    0.055477
     4  C   -0.173073
     5  C   -0.134812
     6  C   -0.128311
     7  C   -0.182483
     8  C    0.302188
     9  O   -0.556777
    10  C    0.284370
    11  C   -0.187686
    12  C   -0.171968
    13  C    0.334811
    14  C    0.018604
    15  C    0.006657
    16  C   -0.119800
    17  C   -0.200505
    18  C    0.440354
    19  C   -0.407964
    20  C    0.119811
    21  C   -0.208962
    22  C   -0.137930
    23  C   -0.139702
    24  C   -0.184486
    25  C    0.326704
    26  N   -0.678183
    27  O   -0.559981
    28  H    0.166633
    29  H    0.138798
    30  H    0.142081
    31  H    0.149308
    32  H    0.152761
    33  H    0.154615
    34  H    0.191637
    35  H    0.145899
    36  H    0.187082
    37  H    0.165798
    38  H    0.124345
    39  H    0.122319
    40  H    0.125918
    41  H    0.124566
    42  H    0.321568
 Sum of Mulliken charges =  -0.00000
 Mulliken charges with hydrogens summed into heavy atoms:
               1
     1  O   -0.520580
     2  C    0.390897
     3  C    0.055477
     4  C   -0.006439
     5  C    0.003986
     6  C    0.013770
     7  C   -0.033175
     8  C    0.302188
     9  O   -0.556777
    10  C    0.284370
    11  C   -0.034925
    12  C   -0.017353
    13  C    0.334811
    14  C    0.018604
    15  C    0.006657
    16  C    0.071837
    17  C   -0.054606
    18  C    0.440354
    19  C   -0.055084
    20  C    0.119811
    21  C   -0.084617
    22  C   -0.015611
    23  C   -0.013784
    24  C   -0.059920
    25  C    0.326704
    26  N   -0.356614
    27  O   -0.559981
 Electronic spatial extent (au):  <R**2>=          13230.7237
 Charge=             -0.0000 electrons
 Dipole moment (field-independent basis, Debye):
    X=             -1.1240    Y=              0.4240    Z=             -1.0277  Tot=              1.5809
 Quadrupole moment (field-independent basis, Debye-Ang):
   XX=           -130.4266   YY=           -149.1957   ZZ=           -149.7597
   XY=             -1.6362   XZ=              8.9986   YZ=              1.3577
 Traceless Quadrupole moment (field-independent basis, Debye-Ang):
   XX=             12.7007   YY=             -6.0683   ZZ=             -6.6324
   XY=             -1.6362   XZ=              8.9986   YZ=              1.3577
 Octapole moment (field-independent basis, Debye-Ang**2):
  XXX=            -50.0974  YYY=             -7.7112  ZZZ=             17.7970  XYY=             34.6673
  XXY=            -25.3533  XXZ=            -13.9656  XZZ=             44.0499  YZZ=              0.2148
  YYZ=             -7.9994  XYZ=             27.4614
 Hexadecapole moment (field-independent basis, Debye-Ang**3):
 XXXX=         -14033.4407 YYYY=          -1235.2339 ZZZZ=          -1053.0837 XXXY=             -9.0891
 XXXZ=             45.8809 YYYX=           -277.9734 YYYZ=            128.3622 ZZZX=           -101.2092
 ZZZY=            143.2768 XXYY=          -2811.9395 XXZZ=          -2789.3260 YYZZ=           -357.4541
 XXYZ=             94.2245 YYXZ=            -58.0110 ZZXY=           -141.4802
 N-N= 2.224212485241D+03 E-N=-7.158563844739D+03  KE= 1.155059240140D+03
 Leave Link  601 at Sat Nov  5 09:48:46 2022, MaxMem=   402653184 cpu:               1.8 elap:               0.2
 (Enter /home/wykgroup/appl/g16/l9999.exe)
 Electronic transition elements 
                 1             2             3             4 
      1  -0.116582D+04 -0.116581D+04 -0.116580D+04 -0.116579D+04
      2   0.000000D+00  0.000000D+00 -0.100768D+01 -0.487170D+00
      3   0.000000D+00  0.000000D+00  0.109947D+00  0.574490D+00
      4   0.000000D+00  0.000000D+00 -0.564486D-01 -0.645108D+00
      5   0.000000D+00  0.000000D+00  0.109056D+00  0.654207D-01
      6   0.000000D+00  0.000000D+00 -0.136259D-01 -0.723731D-01
      7   0.000000D+00  0.000000D+00  0.794011D-02  0.836172D-01
      8   0.000000D+00  0.000000D+00  0.703082D-01 -0.845847D-02
      9   0.000000D+00  0.000000D+00  0.154323D+00  0.597122D+00
     10   0.000000D+00  0.000000D+00  0.488672D-01  0.426068D+00
     11   0.000000D+00  0.000000D+00  0.290796D+00 -0.348948D+00
     12   0.000000D+00  0.000000D+00 -0.526566D-01 -0.139730D+00
     13   0.000000D+00  0.000000D+00 -0.765113D-02  0.175456D-01
     14   0.000000D+00  0.000000D+00 -0.126330D-01  0.196163D+00
     15   0.000000D+00  0.000000D+00 -0.723724D-01 -0.233597D+00
     16   0.000000D+00  0.000000D+00  0.708745D-01  0.889403D-01
 1\1\GINC-NODE86\SP\RB3LYP TD-FC\6-31G(d)\C23H15N1O3\WYKGROUP\05-Nov-20
 22\0\\#p b3lyp/6-31g(d) 6D 10F nosymm GFInput td=(50-50,nstate=2) SCF=
 XQC\\Gaussian input prepared by ASE\\0,1\O,0,-2.6225879819,-1.63266231
 05,1.544737834\C,0,-2.9670477377,-0.8023294207,0.7015725126\C,0,-4.362
 5663555,-0.7539940094,0.2161336177\C,0,-5.3257481771,-1.6477493959,0.7
 188606235\C,0,-6.6335878273,-1.6070002649,0.2636394274\C,0,-7.00401323
 83,-0.664340876,-0.7114991342\C,0,-6.0731460228,0.227763854,-1.2245062
 967\C,0,-4.7552515149,0.1756959035,-0.7545383917\O,0,-3.8776818442,1.0
 695663859,-1.288144839\C,0,-2.5718404912,1.0821659073,-0.8701494236\C,
 0,-1.7741756573,2.051919575,-1.4883961245\C,0,-0.4361206385,2.14682350
 07,-1.1543365533\C,0,0.1109506144,1.2793986214,-0.1990761494\C,0,-0.67
 73153501,0.3148669845,0.4503752915\C,0,-2.0568573758,0.200132125,0.098
 6060569\C,0,-0.0148198037,-0.465757404,1.4904350233\C,0,1.3201748894,-
 0.4041481248,1.6352968481\C,0,2.1838556031,0.3612894977,0.6745868235\C
 ,0,3.4665165238,1.0090572602,1.2819398759\C,0,4.6027512644,0.428983433
 5,0.4722651619\C,0,5.9717863858,0.6422125704,0.5420524233\C,0,6.821531
 8343,-0.0679394595,-0.3184137766\C,0,6.2883012668,-0.9768427841,-1.234
 7874209\C,0,4.9079906328,-1.1903629821,-1.324470682\C,0,4.0769252326,-
 0.4753100434,-0.4632111401\N,0,2.6809412115,-0.5008606084,-0.390091347
 8\O,0,1.4227420793,1.4667865787,0.109498326\H,0,-5.0023847493,-2.36143
 52348,1.4695104987\H,0,-7.3718156523,-2.2995252873,0.6568247015\H,0,-8
 .0289243061,-0.6301634958,-1.0705633875\H,0,-6.3361913258,0.9633683497
 ,-1.9776118343\H,0,-2.22418161,2.705442093,-2.2280036969\H,0,0.2115299
 193,2.8824397913,-1.6197892346\H,0,-0.6254333658,-1.082300735,2.134988
 4318\H,0,1.8297648726,-0.9689444593,2.4114249168\H,0,3.3813887381,2.09
 63222418,1.1901749707\H,0,3.5528952485,0.7778258115,2.3500799414\H,0,6
 .3853847042,1.3416138749,1.2650310015\H,0,7.895483639,0.0859349635,-0.
 2675442022\H,0,6.9526495845,-1.5270554611,-1.8961141569\H,0,4.49723554
 77,-1.8887901918,-2.0484824628\H,0,2.1808902339,-1.3620967747,-0.56875
 30533\\Version=ES64L-G16RevB.01\HF=-1165.9099451\RMSD=7.088e-09\PG=C01
  [X(C23H15N1O3)]\\@


 E PUR SI MUOVE    -- GALILEO GALILEI
 Job cpu time:       0 days  1 hours  7 minutes  4.2 seconds.
 Elapsed time:       0 days  0 hours  5 minutes  5.6 seconds.
 File lengths (MBytes):  RWF=   1109 Int=      0 D2E=      0 Chk=     40 Scr=      1
 Normal termination of Gaussian 16 at Sat Nov  5 09:48:46 2022.
