 Entering Gaussian System, Link 0=/home/wykgroup/appl/g16/g16
 Input=./calculation/no_transfer_pubchem_sampling_7_b3lyp/44127402.com
 Output=./calculation/no_transfer_pubchem_sampling_7_b3lyp/44127402.log
 Initial command:
 /home/wykgroup/appl/g16/l1.exe "/userdata/scratch/wykgroup/khs/./calculation/no_transfer_pubchem_sampling_7_b3lyp/44127402/Gau-1351.inp" -scrdir="/userdata/scratch/wykgroup/khs/./calculation/no_transfer_pubchem_sampling_7_b3lyp/44127402/"
 Entering Link 1 = /home/wykgroup/appl/g16/l1.exe PID=      1352.
  
 Copyright (c) 1988-2017, Gaussian, Inc.  All Rights Reserved.
  
 This is part of the Gaussian(R) 16 program.  It is based on
 the Gaussian(R) 09 system (copyright 2009, Gaussian, Inc.),
 the Gaussian(R) 03 system (copyright 2003, Gaussian, Inc.),
 the Gaussian(R) 98 system (copyright 1998, Gaussian, Inc.),
 the Gaussian(R) 94 system (copyright 1995, Gaussian, Inc.),
 the Gaussian 92(TM) system (copyright 1992, Gaussian, Inc.),
 the Gaussian 90(TM) system (copyright 1990, Gaussian, Inc.),
 the Gaussian 88(TM) system (copyright 1988, Gaussian, Inc.),
 the Gaussian 86(TM) system (copyright 1986, Carnegie Mellon
 University), and the Gaussian 82(TM) system (copyright 1983,
 Carnegie Mellon University). Gaussian is a federally registered
 trademark of Gaussian, Inc.
  
 This software contains proprietary and confidential information,
 including trade secrets, belonging to Gaussian, Inc.
  
 This software is provided under written license and may be
 used, copied, transmitted, or stored only in accord with that
 written license.
  
 The following legend is applicable only to US Government
 contracts under FAR:
  
                    RESTRICTED RIGHTS LEGEND
  
 Use, reproduction and disclosure by the US Government is
 subject to restrictions as set forth in subparagraphs (a)
 and (c) of the Commercial Computer Software - Restricted
 Rights clause in FAR 52.227-19.
  
 Gaussian, Inc.
 340 Quinnipiac St., Bldg. 40, Wallingford CT 06492
  
  
 ---------------------------------------------------------------
 Warning -- This program may not be used in any manner that
 competes with the business of Gaussian, Inc. or will provide
 assistance to any competitor of Gaussian, Inc.  The licensee
 of this program is prohibited from giving any competitor of
 Gaussian, Inc. access to this program.  By using this program,
 the user acknowledges that Gaussian, Inc. is engaged in the
 business of creating and licensing software in the field of
 computational chemistry and represents and warrants to the
 licensee that it is not a competitor of Gaussian, Inc. and that
 it will not use this program in any manner prohibited above.
 ---------------------------------------------------------------
  

 Cite this work as:
 Gaussian 16, Revision B.01,
 M. J. Frisch, G. W. Trucks, H. B. Schlegel, G. E. Scuseria, 
 M. A. Robb, J. R. Cheeseman, G. Scalmani, V. Barone, 
 G. A. Petersson, H. Nakatsuji, X. Li, M. Caricato, A. V. Marenich, 
 J. Bloino, B. G. Janesko, R. Gomperts, B. Mennucci, H. P. Hratchian, 
 J. V. Ortiz, A. F. Izmaylov, J. L. Sonnenberg, D. Williams-Young, 
 F. Ding, F. Lipparini, F. Egidi, J. Goings, B. Peng, A. Petrone, 
 T. Henderson, D. Ranasinghe, V. G. Zakrzewski, J. Gao, N. Rega, 
 G. Zheng, W. Liang, M. Hada, M. Ehara, K. Toyota, R. Fukuda, 
 J. Hasegawa, M. Ishida, T. Nakajima, Y. Honda, O. Kitao, H. Nakai, 
 T. Vreven, K. Throssell, J. A. Montgomery, Jr., J. E. Peralta, 
 F. Ogliaro, M. J. Bearpark, J. J. Heyd, E. N. Brothers, K. N. Kudin, 
 V. N. Staroverov, T. A. Keith, R. Kobayashi, J. Normand, 
 K. Raghavachari, A. P. Rendell, J. C. Burant, S. S. Iyengar, 
 J. Tomasi, M. Cossi, J. M. Millam, M. Klene, C. Adamo, R. Cammi, 
 J. W. Ochterski, R. L. Martin, K. Morokuma, O. Farkas, 
 J. B. Foresman, and D. J. Fox, Gaussian, Inc., Wallingford CT, 2016.
 
 ******************************************
 Gaussian 16:  ES64L-G16RevB.01 20-Dec-2017
                 4-Nov-2022 
 ******************************************
 %chk=./calculation/no_transfer_pubchem_sampling_7_b3lyp/44127402.chk
 %nprocshared=7
 Will use up to    7 processors via shared memory.
 %mem=6GB
 -----------------------------
 #p b3lyp/6-31g(d) opt SCF=XQC
 -----------------------------
 1/18=20,19=15,26=3,38=1/1,3;
 2/9=110,12=2,17=6,18=5,40=1/2;
 3/5=1,6=6,7=1,11=2,25=1,30=1,71=1,74=-5/1,2,3;
 4//1;
 5/5=2,8=3,13=1,38=5/2,8;
 6/7=2,8=2,9=2,10=2,28=1/1;
 7//1,2,3,16;
 1/18=20,19=15,26=3/3(2);
 2/9=110/2;
 99//99;
 2/9=110/2;
 3/5=1,6=6,7=1,11=2,25=1,30=1,71=1,74=-5/1,2,3;
 4/5=5,16=3,69=1/1;
 5/5=2,8=3,13=1,38=5/2,8;
 7//1,2,3,16;
 1/18=20,19=15,26=3/3(-5);
 2/9=110/2;
 6/7=2,8=2,9=2,10=2,19=2,28=1/1;
 99/9=1/99;
 Leave Link    1 at Fri Nov  4 22:40:41 2022, MaxMem=   805306368 cpu:               0.8 elap:               0.2
 (Enter /home/wykgroup/appl/g16/l101.exe)
 ------------------------------
 Gaussian input prepared by ASE
 ------------------------------
 Symbolic Z-matrix:
 Charge =  0 Multiplicity = 1
 C                     8.31789  -0.78353  -6.1404 
 C                     9.18204  -0.74335  -5.143 
 C                     9.72239  -1.94501  -4.43671 
 C                     9.68119  -1.84069  -2.90811 
 C                     8.2784   -1.96989  -2.31238 
 C                     7.42108  -0.7192   -2.48961 
 C                     6.04475  -0.88808  -1.85295 
 C                     5.18148   0.35952  -2.05123 
 O                     3.88847   0.22147  -1.50118 
 C                     3.70576   0.32304  -0.15832 
 C                     4.68276   0.65905   0.77383 
 C                     4.36468   0.74463   2.11717 
 C                     3.0733    0.49789   2.57253 
 C                     2.68968   0.57329   3.98469 
 C                     3.63461   0.61715   5.03384 
 C                     3.19316   0.69153   6.32812 
 C                     1.81353   0.7174    6.59635 
 C                     1.28235   0.79415   7.91181 
 C                    -0.05719   0.79933   8.12086 
 C                    -0.96451   0.72781   7.02987 
 C                    -2.36041   0.71209   7.19503 
 C                    -3.17582   0.64151   6.09693 
 C                    -2.59563   0.59076   4.81008 
 C                    -3.39274   0.51596   3.58258 
 C                    -4.75621   0.78915   3.54044 
 C                    -5.46931   0.70599   2.35781 
 C                    -4.82737   0.34307   1.17817 
 O                    -5.42734   0.22425  -0.03389 
 C                    -6.81255   0.47894  -0.14426 
 C                    -7.20785   0.26608  -1.60186 
 C                    -8.70293   0.48392  -1.81193 
 C                    -9.13116   0.45576  -3.28018 
 C                    -8.94883  -0.9034   -3.96795 
 C                    -7.64386  -1.01337  -4.76617 
 C                    -7.60678  -0.03384  -5.89504 
 C                    -6.66781   0.87771  -6.06519 
 C                    -3.45471   0.07713   1.20998 
 C                    -2.75416   0.16544   2.38767 
 N                    -1.28566   0.59216   4.64667 
 C                    -0.47878   0.65665   5.70186 
 C                     0.94579   0.65173   5.47949 
 N                     1.39224   0.58404   4.22871 
 C                     2.09428   0.17504   1.62628 
 C                     2.40225   0.08673   0.29102 
 H                     7.9137   -1.71504  -6.50234 
 H                     7.97485   0.10814  -6.63741 
 H                     9.57568   0.20627  -4.80205 
 H                     9.18389  -2.83839  -4.75905 
 H                     10.76966  -2.06216  -4.73638 
 H                     10.3013  -2.64236  -2.49963 
 H                     10.12273  -0.89132  -2.5964 
 H                     7.77132  -2.82217  -2.76984 
 H                     8.37143  -2.17942  -1.24338 
 H                     7.30334  -0.50406  -3.55218 
 H                     7.92946   0.13333  -2.03156 
 H                     6.15035  -1.09383  -0.78539 
 H                     5.52944  -1.73938  -2.30217 
 H                     5.68472   1.2476   -1.64848 
 H                     5.01003   0.5215   -3.11945 
 H                     5.69716   0.86572   0.46965 
 H                     5.1469    1.02597   2.80616 
 H                     4.69183   0.57712   4.82443 
 H                     3.89391   0.72511   7.15219 
 H                     1.97379   0.84625   8.74162 
 H                    -0.46253   0.85575   9.1218 
 H                    -2.77637   0.75005   8.19341 
 H                    -4.24689   0.60855   6.21903 
 H                    -5.28489   1.09141   4.4319 
 H                    -6.5247    0.93075   2.36825 
 H                    -7.37796  -0.20655   0.50329 
 H                    -7.03513   1.51108   0.1616 
 H                    -6.92668  -0.74893  -1.88226 
 H                    -6.63941   0.96159  -2.22126 
 H                    -8.97645   1.45683  -1.39454 
 H                    -9.25992  -0.27711  -1.25945 
 H                    -8.57533   1.21441  -3.83459 
 H                    -10.18701   0.73319  -3.31789 
 H                    -9.77956  -1.06847  -4.6581 
 H                    -8.98393  -1.69905  -3.22126 
 H                    -6.78282  -0.8558   -4.11785 
 H                    -7.57802  -2.02548  -5.17807 
 H                    -8.4299   -0.10469  -6.59528 
 H                    -5.83888   0.97044  -5.38198 
 H                    -6.67844   1.56438  -6.89479 
 H                    -2.96723  -0.19631   0.28738 
 H                    -1.69468  -0.03126   2.41976 
 H                     1.09031  -0.00045   1.97762 
 H                     1.65047  -0.16318  -0.44109 
 
 ITRead=  0  0  0  0  0  0  0  0  0  0  0  0  0  0  0  0  0  0  0  0
 ITRead=  0  0  0  0  0  0  0  0  0  0  0  0  0  0  0  0  0  0  0  0
 ITRead=  0  0  0  0  0  0  0  0  0  0  0  0  0  0  0  0  0  0  0  0
 ITRead=  0  0  0  0  0  0  0  0  0  0  0  0  0  0  0  0  0  0  0  0
 ITRead=  0  0  0  0  0  0  0  0
 MicOpt= -1 -1 -1 -1 -1 -1 -1 -1 -1 -1 -1 -1 -1 -1 -1 -1 -1 -1 -1 -1
 MicOpt= -1 -1 -1 -1 -1 -1 -1 -1 -1 -1 -1 -1 -1 -1 -1 -1 -1 -1 -1 -1
 MicOpt= -1 -1 -1 -1 -1 -1 -1 -1 -1 -1 -1 -1 -1 -1 -1 -1 -1 -1 -1 -1
 MicOpt= -1 -1 -1 -1 -1 -1 -1 -1 -1 -1 -1 -1 -1 -1 -1 -1 -1 -1 -1 -1
 MicOpt= -1 -1 -1 -1 -1 -1 -1 -1
 NAtoms=     88 NQM=       88 NQMF=       0 NMMI=      0 NMMIF=      0
                NMic=       0 NMicF=      0.
                    Isotopes and Nuclear Properties:
 (Nuclear quadrupole moments (NQMom) in fm**2, nuclear magnetic moments (NMagM)
  in nuclear magnetons)

  Atom         1           2           3           4           5           6           7           8           9          10
 IAtWgt=          12          12          12          12          12          12          12          12          16          12
 AtmWgt=  12.0000000  12.0000000  12.0000000  12.0000000  12.0000000  12.0000000  12.0000000  12.0000000  15.9949146  12.0000000
 NucSpn=           0           0           0           0           0           0           0           0           0           0
 AtZEff=  -0.0000000  -0.0000000  -0.0000000  -0.0000000  -0.0000000  -0.0000000  -0.0000000  -0.0000000  -0.0000000  -0.0000000
 NQMom=    0.0000000   0.0000000   0.0000000   0.0000000   0.0000000   0.0000000   0.0000000   0.0000000   0.0000000   0.0000000
 NMagM=    0.0000000   0.0000000   0.0000000   0.0000000   0.0000000   0.0000000   0.0000000   0.0000000   0.0000000   0.0000000
 AtZNuc=   6.0000000   6.0000000   6.0000000   6.0000000   6.0000000   6.0000000   6.0000000   6.0000000   8.0000000   6.0000000

  Atom        11          12          13          14          15          16          17          18          19          20
 IAtWgt=          12          12          12          12          12          12          12          12          12          12
 AtmWgt=  12.0000000  12.0000000  12.0000000  12.0000000  12.0000000  12.0000000  12.0000000  12.0000000  12.0000000  12.0000000
 NucSpn=           0           0           0           0           0           0           0           0           0           0
 AtZEff=  -0.0000000  -0.0000000  -0.0000000  -0.0000000  -0.0000000  -0.0000000  -0.0000000  -0.0000000  -0.0000000  -0.0000000
 NQMom=    0.0000000   0.0000000   0.0000000   0.0000000   0.0000000   0.0000000   0.0000000   0.0000000   0.0000000   0.0000000
 NMagM=    0.0000000   0.0000000   0.0000000   0.0000000   0.0000000   0.0000000   0.0000000   0.0000000   0.0000000   0.0000000
 AtZNuc=   6.0000000   6.0000000   6.0000000   6.0000000   6.0000000   6.0000000   6.0000000   6.0000000   6.0000000   6.0000000

  Atom        21          22          23          24          25          26          27          28          29          30
 IAtWgt=          12          12          12          12          12          12          12          16          12          12
 AtmWgt=  12.0000000  12.0000000  12.0000000  12.0000000  12.0000000  12.0000000  12.0000000  15.9949146  12.0000000  12.0000000
 NucSpn=           0           0           0           0           0           0           0           0           0           0
 AtZEff=  -0.0000000  -0.0000000  -0.0000000  -0.0000000  -0.0000000  -0.0000000  -0.0000000  -0.0000000  -0.0000000  -0.0000000
 NQMom=    0.0000000   0.0000000   0.0000000   0.0000000   0.0000000   0.0000000   0.0000000   0.0000000   0.0000000   0.0000000
 NMagM=    0.0000000   0.0000000   0.0000000   0.0000000   0.0000000   0.0000000   0.0000000   0.0000000   0.0000000   0.0000000
 AtZNuc=   6.0000000   6.0000000   6.0000000   6.0000000   6.0000000   6.0000000   6.0000000   8.0000000   6.0000000   6.0000000

  Atom        31          32          33          34          35          36          37          38          39          40
 IAtWgt=          12          12          12          12          12          12          12          12          14          12
 AtmWgt=  12.0000000  12.0000000  12.0000000  12.0000000  12.0000000  12.0000000  12.0000000  12.0000000  14.0030740  12.0000000
 NucSpn=           0           0           0           0           0           0           0           0           2           0
 AtZEff=  -0.0000000  -0.0000000  -0.0000000  -0.0000000  -0.0000000  -0.0000000  -0.0000000  -0.0000000  -0.0000000  -0.0000000
 NQMom=    0.0000000   0.0000000   0.0000000   0.0000000   0.0000000   0.0000000   0.0000000   0.0000000   2.0440000   0.0000000
 NMagM=    0.0000000   0.0000000   0.0000000   0.0000000   0.0000000   0.0000000   0.0000000   0.0000000   0.4037610   0.0000000
 AtZNuc=   6.0000000   6.0000000   6.0000000   6.0000000   6.0000000   6.0000000   6.0000000   6.0000000   7.0000000   6.0000000

  Atom        41          42          43          44          45          46          47          48          49          50
 IAtWgt=          12          14          12          12           1           1           1           1           1           1
 AtmWgt=  12.0000000  14.0030740  12.0000000  12.0000000   1.0078250   1.0078250   1.0078250   1.0078250   1.0078250   1.0078250
 NucSpn=           0           2           0           0           1           1           1           1           1           1
 AtZEff=  -0.0000000  -0.0000000  -0.0000000  -0.0000000  -0.0000000  -0.0000000  -0.0000000  -0.0000000  -0.0000000  -0.0000000
 NQMom=    0.0000000   2.0440000   0.0000000   0.0000000   0.0000000   0.0000000   0.0000000   0.0000000   0.0000000   0.0000000
 NMagM=    0.0000000   0.4037610   0.0000000   0.0000000   2.7928460   2.7928460   2.7928460   2.7928460   2.7928460   2.7928460
 AtZNuc=   6.0000000   7.0000000   6.0000000   6.0000000   1.0000000   1.0000000   1.0000000   1.0000000   1.0000000   1.0000000

  Atom        51          52          53          54          55          56          57          58          59          60
 IAtWgt=           1           1           1           1           1           1           1           1           1           1
 AtmWgt=   1.0078250   1.0078250   1.0078250   1.0078250   1.0078250   1.0078250   1.0078250   1.0078250   1.0078250   1.0078250
 NucSpn=           1           1           1           1           1           1           1           1           1           1
 AtZEff=  -0.0000000  -0.0000000  -0.0000000  -0.0000000  -0.0000000  -0.0000000  -0.0000000  -0.0000000  -0.0000000  -0.0000000
 NQMom=    0.0000000   0.0000000   0.0000000   0.0000000   0.0000000   0.0000000   0.0000000   0.0000000   0.0000000   0.0000000
 NMagM=    2.7928460   2.7928460   2.7928460   2.7928460   2.7928460   2.7928460   2.7928460   2.7928460   2.7928460   2.7928460
 AtZNuc=   1.0000000   1.0000000   1.0000000   1.0000000   1.0000000   1.0000000   1.0000000   1.0000000   1.0000000   1.0000000

  Atom        61          62          63          64          65          66          67          68          69          70
 IAtWgt=           1           1           1           1           1           1           1           1           1           1
 AtmWgt=   1.0078250   1.0078250   1.0078250   1.0078250   1.0078250   1.0078250   1.0078250   1.0078250   1.0078250   1.0078250
 NucSpn=           1           1           1           1           1           1           1           1           1           1
 AtZEff=  -0.0000000  -0.0000000  -0.0000000  -0.0000000  -0.0000000  -0.0000000  -0.0000000  -0.0000000  -0.0000000  -0.0000000
 NQMom=    0.0000000   0.0000000   0.0000000   0.0000000   0.0000000   0.0000000   0.0000000   0.0000000   0.0000000   0.0000000
 NMagM=    2.7928460   2.7928460   2.7928460   2.7928460   2.7928460   2.7928460   2.7928460   2.7928460   2.7928460   2.7928460
 AtZNuc=   1.0000000   1.0000000   1.0000000   1.0000000   1.0000000   1.0000000   1.0000000   1.0000000   1.0000000   1.0000000

  Atom        71          72          73          74          75          76          77          78          79          80
 IAtWgt=           1           1           1           1           1           1           1           1           1           1
 AtmWgt=   1.0078250   1.0078250   1.0078250   1.0078250   1.0078250   1.0078250   1.0078250   1.0078250   1.0078250   1.0078250
 NucSpn=           1           1           1           1           1           1           1           1           1           1
 AtZEff=  -0.0000000  -0.0000000  -0.0000000  -0.0000000  -0.0000000  -0.0000000  -0.0000000  -0.0000000  -0.0000000  -0.0000000
 NQMom=    0.0000000   0.0000000   0.0000000   0.0000000   0.0000000   0.0000000   0.0000000   0.0000000   0.0000000   0.0000000
 NMagM=    2.7928460   2.7928460   2.7928460   2.7928460   2.7928460   2.7928460   2.7928460   2.7928460   2.7928460   2.7928460
 AtZNuc=   1.0000000   1.0000000   1.0000000   1.0000000   1.0000000   1.0000000   1.0000000   1.0000000   1.0000000   1.0000000

  Atom        81          82          83          84          85          86          87          88
 IAtWgt=           1           1           1           1           1           1           1           1
 AtmWgt=   1.0078250   1.0078250   1.0078250   1.0078250   1.0078250   1.0078250   1.0078250   1.0078250
 NucSpn=           1           1           1           1           1           1           1           1
 AtZEff=  -0.0000000  -0.0000000  -0.0000000  -0.0000000  -0.0000000  -0.0000000  -0.0000000  -0.0000000
 NQMom=    0.0000000   0.0000000   0.0000000   0.0000000   0.0000000   0.0000000   0.0000000   0.0000000
 NMagM=    2.7928460   2.7928460   2.7928460   2.7928460   2.7928460   2.7928460   2.7928460   2.7928460
 AtZNuc=   1.0000000   1.0000000   1.0000000   1.0000000   1.0000000   1.0000000   1.0000000   1.0000000
 Leave Link  101 at Fri Nov  4 22:40:41 2022, MaxMem=   805306368 cpu:               1.6 elap:               0.3
 (Enter /home/wykgroup/appl/g16/l103.exe)

 GradGradGradGradGradGradGradGradGradGradGradGradGradGradGradGradGradGrad
 Berny optimization.
 Initialization pass.
                           ----------------------------
                           !    Initial Parameters    !
                           ! (Angstroms and Degrees)  !
 --------------------------                            --------------------------
 ! Name  Definition              Value          Derivative Info.                !
 --------------------------------------------------------------------------------
 ! R1    R(1,2)                  1.3203         estimate D2E/DX2                !
 ! R2    R(1,45)                 1.078          estimate D2E/DX2                !
 ! R3    R(1,46)                 1.0769         estimate D2E/DX2                !
 ! R4    R(2,3)                  1.4949         estimate D2E/DX2                !
 ! R5    R(2,47)                 1.083          estimate D2E/DX2                !
 ! R6    R(3,4)                  1.5327         estimate D2E/DX2                !
 ! R7    R(3,48)                 1.0918         estimate D2E/DX2                !
 ! R8    R(3,49)                 1.0956         estimate D2E/DX2                !
 ! R9    R(4,5)                  1.5295         estimate D2E/DX2                !
 ! R10   R(4,50)                 1.0927         estimate D2E/DX2                !
 ! R11   R(4,51)                 1.0924         estimate D2E/DX2                !
 ! R12   R(5,6)                  1.5266         estimate D2E/DX2                !
 ! R13   R(5,52)                 1.0921         estimate D2E/DX2                !
 ! R14   R(5,53)                 1.0933         estimate D2E/DX2                !
 ! R15   R(6,7)                  1.5258         estimate D2E/DX2                !
 ! R16   R(6,54)                 1.0905         estimate D2E/DX2                !
 ! R17   R(6,55)                 1.0932         estimate D2E/DX2                !
 ! R18   R(7,8)                  1.53           estimate D2E/DX2                !
 ! R19   R(7,56)                 1.0923         estimate D2E/DX2                !
 ! R20   R(7,57)                 1.0918         estimate D2E/DX2                !
 ! R21   R(8,9)                  1.4119         estimate D2E/DX2                !
 ! R22   R(8,58)                 1.0973         estimate D2E/DX2                !
 ! R23   R(8,59)                 1.094          estimate D2E/DX2                !
 ! R24   R(9,10)                 1.359          estimate D2E/DX2                !
 ! R25   R(10,11)                1.3915         estimate D2E/DX2                !
 ! R26   R(10,44)                1.3989         estimate D2E/DX2                !
 ! R27   R(11,12)                1.3831         estimate D2E/DX2                !
 ! R28   R(11,60)                1.079          estimate D2E/DX2                !
 ! R29   R(12,13)                1.3914         estimate D2E/DX2                !
 ! R30   R(12,61)                1.0797         estimate D2E/DX2                !
 ! R31   R(13,14)                1.4653         estimate D2E/DX2                !
 ! R32   R(13,43)                1.3993         estimate D2E/DX2                !
 ! R33   R(14,15)                1.4126         estimate D2E/DX2                !
 ! R34   R(14,42)                1.3202         estimate D2E/DX2                !
 ! R35   R(15,16)                1.3695         estimate D2E/DX2                !
 ! R36   R(15,62)                1.0785         estimate D2E/DX2                !
 ! R37   R(16,17)                1.4057         estimate D2E/DX2                !
 ! R38   R(16,63)                1.0822         estimate D2E/DX2                !
 ! R39   R(17,18)                1.4207         estimate D2E/DX2                !
 ! R40   R(17,41)                1.4159         estimate D2E/DX2                !
 ! R41   R(18,19)                1.3558         estimate D2E/DX2                !
 ! R42   R(18,64)                1.0814         estimate D2E/DX2                !
 ! R43   R(19,20)                1.4208         estimate D2E/DX2                !
 ! R44   R(19,65)                1.0814         estimate D2E/DX2                !
 ! R45   R(20,21)                1.4057         estimate D2E/DX2                !
 ! R46   R(20,40)                1.4158         estimate D2E/DX2                !
 ! R47   R(21,22)                1.3696         estimate D2E/DX2                !
 ! R48   R(21,66)                1.0822         estimate D2E/DX2                !
 ! R49   R(22,23)                1.4125         estimate D2E/DX2                !
 ! R50   R(22,67)                1.0785         estimate D2E/DX2                !
 ! R51   R(23,24)                1.4655         estimate D2E/DX2                !
 ! R52   R(23,39)                1.3201         estimate D2E/DX2                !
 ! R53   R(24,25)                1.3912         estimate D2E/DX2                !
 ! R54   R(24,38)                1.3994         estimate D2E/DX2                !
 ! R55   R(25,26)                1.3835         estimate D2E/DX2                !
 ! R56   R(25,68)                1.0796         estimate D2E/DX2                !
 ! R57   R(26,27)                1.3912         estimate D2E/DX2                !
 ! R58   R(26,69)                1.0791         estimate D2E/DX2                !
 ! R59   R(27,28)                1.3576         estimate D2E/DX2                !
 ! R60   R(27,37)                1.3985         estimate D2E/DX2                !
 ! R61   R(28,29)                1.4127         estimate D2E/DX2                !
 ! R62   R(29,30)                1.5252         estimate D2E/DX2                !
 ! R63   R(29,70)                1.0995         estimate D2E/DX2                !
 ! R64   R(29,71)                1.0993         estimate D2E/DX2                !
 ! R65   R(30,31)                1.5254         estimate D2E/DX2                !
 ! R66   R(30,72)                1.0899         estimate D2E/DX2                !
 ! R67   R(30,73)                1.0911         estimate D2E/DX2                !
 ! R68   R(31,32)                1.5297         estimate D2E/DX2                !
 ! R69   R(31,74)                1.0934         estimate D2E/DX2                !
 ! R70   R(31,75)                1.093          estimate D2E/DX2                !
 ! R71   R(32,33)                1.5341         estimate D2E/DX2                !
 ! R72   R(32,76)                1.0917         estimate D2E/DX2                !
 ! R73   R(32,77)                1.0923         estimate D2E/DX2                !
 ! R74   R(33,34)                1.5337         estimate D2E/DX2                !
 ! R75   R(33,78)                1.0925         estimate D2E/DX2                !
 ! R76   R(33,79)                1.0917         estimate D2E/DX2                !
 ! R77   R(34,35)                1.4951         estimate D2E/DX2                !
 ! R78   R(34,80)                1.0893         estimate D2E/DX2                !
 ! R79   R(34,81)                1.0947         estimate D2E/DX2                !
 ! R80   R(35,36)                1.3197         estimate D2E/DX2                !
 ! R81   R(35,82)                1.083          estimate D2E/DX2                !
 ! R82   R(36,83)                1.0782         estimate D2E/DX2                !
 ! R83   R(36,84)                1.077          estimate D2E/DX2                !
 ! R84   R(37,38)                1.3731         estimate D2E/DX2                !
 ! R85   R(37,85)                1.0787         estimate D2E/DX2                !
 ! R86   R(38,86)                1.0781         estimate D2E/DX2                !
 ! R87   R(39,40)                1.3299         estimate D2E/DX2                !
 ! R88   R(40,41)                1.4418         estimate D2E/DX2                !
 ! R89   R(41,42)                1.3298         estimate D2E/DX2                !
 ! R90   R(43,44)                1.3732         estimate D2E/DX2                !
 ! R91   R(43,87)                1.078          estimate D2E/DX2                !
 ! R92   R(44,88)                1.0787         estimate D2E/DX2                !
 ! A1    A(2,1,45)             121.6913         estimate D2E/DX2                !
 ! A2    A(2,1,46)             122.1359         estimate D2E/DX2                !
 ! A3    A(45,1,46)            116.1727         estimate D2E/DX2                !
 ! A4    A(1,2,3)              124.6825         estimate D2E/DX2                !
 ! A5    A(1,2,47)             120.1581         estimate D2E/DX2                !
 ! A6    A(3,2,47)             115.1314         estimate D2E/DX2                !
 ! A7    A(2,3,4)              114.0021         estimate D2E/DX2                !
 ! A8    A(2,3,48)             109.8757         estimate D2E/DX2                !
 ! A9    A(2,3,49)             107.592          estimate D2E/DX2                !
 ! A10   A(4,3,48)             109.6872         estimate D2E/DX2                !
 ! A11   A(4,3,49)             107.8042         estimate D2E/DX2                !
 ! A12   A(48,3,49)            107.6507         estimate D2E/DX2                !
 ! A13   A(3,4,5)              114.0382         estimate D2E/DX2                !
 ! A14   A(3,4,50)             107.916          estimate D2E/DX2                !
 ! A15   A(3,4,51)             109.4421         estimate D2E/DX2                !
 ! A16   A(5,4,50)             108.2338         estimate D2E/DX2                !
 ! A17   A(5,4,51)             109.449          estimate D2E/DX2                !
 ! A18   A(50,4,51)            107.5501         estimate D2E/DX2                !
 ! A19   A(4,5,6)              113.6173         estimate D2E/DX2                !
 ! A20   A(4,5,52)             109.1846         estimate D2E/DX2                !
 ! A21   A(4,5,53)             108.6013         estimate D2E/DX2                !
 ! A22   A(6,5,52)             109.2657         estimate D2E/DX2                !
 ! A23   A(6,5,53)             108.5601         estimate D2E/DX2                !
 ! A24   A(52,5,53)            107.4274         estimate D2E/DX2                !
 ! A25   A(5,6,7)              111.5578         estimate D2E/DX2                !
 ! A26   A(5,6,54)             109.5951         estimate D2E/DX2                !
 ! A27   A(5,6,55)             109.2133         estimate D2E/DX2                !
 ! A28   A(7,6,54)             109.3305         estimate D2E/DX2                !
 ! A29   A(7,6,55)             109.3271         estimate D2E/DX2                !
 ! A30   A(54,6,55)            107.7359         estimate D2E/DX2                !
 ! A31   A(6,7,8)              111.3835         estimate D2E/DX2                !
 ! A32   A(6,7,56)             109.965          estimate D2E/DX2                !
 ! A33   A(6,7,57)             109.8985         estimate D2E/DX2                !
 ! A34   A(8,7,56)             109.5595         estimate D2E/DX2                !
 ! A35   A(8,7,57)             108.4308         estimate D2E/DX2                !
 ! A36   A(56,7,57)            107.5105         estimate D2E/DX2                !
 ! A37   A(7,8,9)              112.7363         estimate D2E/DX2                !
 ! A38   A(7,8,58)             110.7076         estimate D2E/DX2                !
 ! A39   A(7,8,59)             109.616          estimate D2E/DX2                !
 ! A40   A(9,8,58)             110.8619         estimate D2E/DX2                !
 ! A41   A(9,8,59)             104.5581         estimate D2E/DX2                !
 ! A42   A(58,8,59)            108.0851         estimate D2E/DX2                !
 ! A43   A(8,9,10)             120.0501         estimate D2E/DX2                !
 ! A44   A(9,10,11)            125.8425         estimate D2E/DX2                !
 ! A45   A(9,10,44)            115.4702         estimate D2E/DX2                !
 ! A46   A(11,10,44)           118.6759         estimate D2E/DX2                !
 ! A47   A(10,11,12)           120.2703         estimate D2E/DX2                !
 ! A48   A(10,11,60)           121.1633         estimate D2E/DX2                !
 ! A49   A(12,11,60)           118.5646         estimate D2E/DX2                !
 ! A50   A(11,12,13)           121.3547         estimate D2E/DX2                !
 ! A51   A(11,12,61)           117.9879         estimate D2E/DX2                !
 ! A52   A(13,12,61)           120.6498         estimate D2E/DX2                !
 ! A53   A(12,13,14)           123.3174         estimate D2E/DX2                !
 ! A54   A(12,13,43)           117.9674         estimate D2E/DX2                !
 ! A55   A(14,13,43)           118.7121         estimate D2E/DX2                !
 ! A56   A(13,14,15)           122.8363         estimate D2E/DX2                !
 ! A57   A(13,14,42)           115.8387         estimate D2E/DX2                !
 ! A58   A(15,14,42)           121.3213         estimate D2E/DX2                !
 ! A59   A(14,15,16)           119.2065         estimate D2E/DX2                !
 ! A60   A(14,15,62)           120.6874         estimate D2E/DX2                !
 ! A61   A(16,15,62)           120.0991         estimate D2E/DX2                !
 ! A62   A(15,16,17)           119.8474         estimate D2E/DX2                !
 ! A63   A(15,16,63)           120.8359         estimate D2E/DX2                !
 ! A64   A(17,16,63)           119.3158         estimate D2E/DX2                !
 ! A65   A(16,17,18)           122.9977         estimate D2E/DX2                !
 ! A66   A(16,17,41)           116.7523         estimate D2E/DX2                !
 ! A67   A(18,17,41)           120.248          estimate D2E/DX2                !
 ! A68   A(17,18,19)           120.8219         estimate D2E/DX2                !
 ! A69   A(17,18,64)           118.2975         estimate D2E/DX2                !
 ! A70   A(19,18,64)           120.8804         estimate D2E/DX2                !
 ! A71   A(18,19,20)           120.8219         estimate D2E/DX2                !
 ! A72   A(18,19,65)           120.882          estimate D2E/DX2                !
 ! A73   A(20,19,65)           118.2959         estimate D2E/DX2                !
 ! A74   A(19,20,21)           122.9894         estimate D2E/DX2                !
 ! A75   A(19,20,40)           120.2447         estimate D2E/DX2                !
 ! A76   A(21,20,40)           116.7638         estimate D2E/DX2                !
 ! A77   A(20,21,22)           119.8408         estimate D2E/DX2                !
 ! A78   A(20,21,66)           119.3189         estimate D2E/DX2                !
 ! A79   A(22,21,66)           120.8392         estimate D2E/DX2                !
 ! A80   A(21,22,23)           119.1932         estimate D2E/DX2                !
 ! A81   A(21,22,67)           120.1376         estimate D2E/DX2                !
 ! A82   A(23,22,67)           120.6612         estimate D2E/DX2                !
 ! A83   A(22,23,24)           122.7856         estimate D2E/DX2                !
 ! A84   A(22,23,39)           121.3541         estimate D2E/DX2                !
 ! A85   A(24,23,39)           115.8556         estimate D2E/DX2                !
 ! A86   A(23,24,25)           123.2582         estimate D2E/DX2                !
 ! A87   A(23,24,38)           118.6698         estimate D2E/DX2                !
 ! A88   A(25,24,38)           118.069          estimate D2E/DX2                !
 ! A89   A(24,25,26)           121.2818         estimate D2E/DX2                !
 ! A90   A(24,25,68)           120.6573         estimate D2E/DX2                !
 ! A91   A(26,25,68)           118.0511         estimate D2E/DX2                !
 ! A92   A(25,26,27)           120.1775         estimate D2E/DX2                !
 ! A93   A(25,26,69)           118.9026         estimate D2E/DX2                !
 ! A94   A(27,26,69)           120.9194         estimate D2E/DX2                !
 ! A95   A(26,27,28)           125.1654         estimate D2E/DX2                !
 ! A96   A(26,27,37)           118.8958         estimate D2E/DX2                !
 ! A97   A(28,27,37)           115.9385         estimate D2E/DX2                !
 ! A98   A(27,28,29)           119.1621         estimate D2E/DX2                !
 ! A99   A(28,29,30)           107.6761         estimate D2E/DX2                !
 ! A100  A(28,29,70)           110.2309         estimate D2E/DX2                !
 ! A101  A(28,29,71)           110.2471         estimate D2E/DX2                !
 ! A102  A(30,29,70)           110.0332         estimate D2E/DX2                !
 ! A103  A(30,29,71)           110.1491         estimate D2E/DX2                !
 ! A104  A(70,29,71)           108.505          estimate D2E/DX2                !
 ! A105  A(29,30,31)           111.4516         estimate D2E/DX2                !
 ! A106  A(29,30,72)           107.9974         estimate D2E/DX2                !
 ! A107  A(29,30,73)           108.5752         estimate D2E/DX2                !
 ! A108  A(31,30,72)           110.5119         estimate D2E/DX2                !
 ! A109  A(31,30,73)           109.9626         estimate D2E/DX2                !
 ! A110  A(72,30,73)           108.2511         estimate D2E/DX2                !
 ! A111  A(30,31,32)           113.8247         estimate D2E/DX2                !
 ! A112  A(30,31,74)           108.643          estimate D2E/DX2                !
 ! A113  A(30,31,75)           109.2946         estimate D2E/DX2                !
 ! A114  A(32,31,74)           108.2251         estimate D2E/DX2                !
 ! A115  A(32,31,75)           109.2501         estimate D2E/DX2                !
 ! A116  A(74,31,75)           107.404          estimate D2E/DX2                !
 ! A117  A(31,32,33)           114.415          estimate D2E/DX2                !
 ! A118  A(31,32,76)           109.3971         estimate D2E/DX2                !
 ! A119  A(31,32,77)           107.4012         estimate D2E/DX2                !
 ! A120  A(33,32,76)           109.1157         estimate D2E/DX2                !
 ! A121  A(33,32,77)           108.9297         estimate D2E/DX2                !
 ! A122  A(76,32,77)           107.343          estimate D2E/DX2                !
 ! A123  A(32,33,34)           113.4516         estimate D2E/DX2                !
 ! A124  A(32,33,78)           109.0674         estimate D2E/DX2                !
 ! A125  A(32,33,79)           109.5869         estimate D2E/DX2                !
 ! A126  A(34,33,78)           107.9003         estimate D2E/DX2                !
 ! A127  A(34,33,79)           109.3338         estimate D2E/DX2                !
 ! A128  A(78,33,79)           107.3071         estimate D2E/DX2                !
 ! A129  A(33,34,35)           111.5373         estimate D2E/DX2                !
 ! A130  A(33,34,80)           110.6368         estimate D2E/DX2                !
 ! A131  A(33,34,81)           108.2582         estimate D2E/DX2                !
 ! A132  A(35,34,80)           109.574          estimate D2E/DX2                !
 ! A133  A(35,34,81)           108.6722         estimate D2E/DX2                !
 ! A134  A(80,34,81)           108.0679         estimate D2E/DX2                !
 ! A135  A(34,35,36)           124.58           estimate D2E/DX2                !
 ! A136  A(34,35,82)           115.2453         estimate D2E/DX2                !
 ! A137  A(36,35,82)           120.1726         estimate D2E/DX2                !
 ! A138  A(35,36,83)           121.6503         estimate D2E/DX2                !
 ! A139  A(35,36,84)           122.1885         estimate D2E/DX2                !
 ! A140  A(83,36,84)           116.1592         estimate D2E/DX2                !
 ! A141  A(27,37,38)           120.5316         estimate D2E/DX2                !
 ! A142  A(27,37,85)           118.1836         estimate D2E/DX2                !
 ! A143  A(38,37,85)           121.2848         estimate D2E/DX2                !
 ! A144  A(24,38,37)           121.0385         estimate D2E/DX2                !
 ! A145  A(24,38,86)           117.9517         estimate D2E/DX2                !
 ! A146  A(37,38,86)           121.0096         estimate D2E/DX2                !
 ! A147  A(23,39,40)           120.2577         estimate D2E/DX2                !
 ! A148  A(20,40,39)           122.5821         estimate D2E/DX2                !
 ! A149  A(20,40,41)           118.9332         estimate D2E/DX2                !
 ! A150  A(39,40,41)           118.4846         estimate D2E/DX2                !
 ! A151  A(17,41,40)           118.9287         estimate D2E/DX2                !
 ! A152  A(17,41,42)           122.5854         estimate D2E/DX2                !
 ! A153  A(40,41,42)           118.4859         estimate D2E/DX2                !
 ! A154  A(14,42,41)           120.2782         estimate D2E/DX2                !
 ! A155  A(13,43,44)           121.0296         estimate D2E/DX2                !
 ! A156  A(13,43,87)           117.9525         estimate D2E/DX2                !
 ! A157  A(44,43,87)           121.0178         estimate D2E/DX2                !
 ! A158  A(10,44,43)           120.695          estimate D2E/DX2                !
 ! A159  A(10,44,88)           118.0694         estimate D2E/DX2                !
 ! A160  A(43,44,88)           121.2354         estimate D2E/DX2                !
 ! D1    D(45,1,2,3)             1.758          estimate D2E/DX2                !
 ! D2    D(45,1,2,47)          179.7335         estimate D2E/DX2                !
 ! D3    D(46,1,2,3)          -178.3606         estimate D2E/DX2                !
 ! D4    D(46,1,2,47)           -0.385          estimate D2E/DX2                !
 ! D5    D(1,2,3,4)           -132.3876         estimate D2E/DX2                !
 ! D6    D(1,2,3,48)            -8.8074         estimate D2E/DX2                !
 ! D7    D(1,2,3,49)           108.12           estimate D2E/DX2                !
 ! D8    D(47,2,3,4)            49.5458         estimate D2E/DX2                !
 ! D9    D(47,2,3,48)          173.126          estimate D2E/DX2                !
 ! D10   D(47,2,3,49)          -69.9466         estimate D2E/DX2                !
 ! D11   D(2,3,4,5)             72.903          estimate D2E/DX2                !
 ! D12   D(2,3,4,50)          -166.8142         estimate D2E/DX2                !
 ! D13   D(2,3,4,51)           -50.0584         estimate D2E/DX2                !
 ! D14   D(48,3,4,5)           -50.7792         estimate D2E/DX2                !
 ! D15   D(48,3,4,50)           69.5036         estimate D2E/DX2                !
 ! D16   D(48,3,4,51)         -173.7406         estimate D2E/DX2                !
 ! D17   D(49,3,4,5)          -167.7247         estimate D2E/DX2                !
 ! D18   D(49,3,4,50)          -47.4419         estimate D2E/DX2                !
 ! D19   D(49,3,4,51)           69.314          estimate D2E/DX2                !
 ! D20   D(3,4,5,6)            -75.5987         estimate D2E/DX2                !
 ! D21   D(3,4,5,52)            46.6382         estimate D2E/DX2                !
 ! D22   D(3,4,5,53)           163.4903         estimate D2E/DX2                !
 ! D23   D(50,4,5,6)           164.2967         estimate D2E/DX2                !
 ! D24   D(50,4,5,52)          -73.4664         estimate D2E/DX2                !
 ! D25   D(50,4,5,53)           43.3857         estimate D2E/DX2                !
 ! D26   D(51,4,5,6)            47.3589         estimate D2E/DX2                !
 ! D27   D(51,4,5,52)          169.5958         estimate D2E/DX2                !
 ! D28   D(51,4,5,53)          -73.5521         estimate D2E/DX2                !
 ! D29   D(4,5,6,7)           -178.7669         estimate D2E/DX2                !
 ! D30   D(4,5,6,54)            60.0058         estimate D2E/DX2                !
 ! D31   D(4,5,6,55)           -57.801          estimate D2E/DX2                !
 ! D32   D(52,5,6,7)            59.0411         estimate D2E/DX2                !
 ! D33   D(52,5,6,54)          -62.1862         estimate D2E/DX2                !
 ! D34   D(52,5,6,55)         -179.993          estimate D2E/DX2                !
 ! D35   D(53,5,6,7)           -57.8328         estimate D2E/DX2                !
 ! D36   D(53,5,6,54)         -179.0601         estimate D2E/DX2                !
 ! D37   D(53,5,6,55)           63.1331         estimate D2E/DX2                !
 ! D38   D(5,6,7,8)           -179.1407         estimate D2E/DX2                !
 ! D39   D(5,6,7,56)            59.2065         estimate D2E/DX2                !
 ! D40   D(5,6,7,57)           -58.9538         estimate D2E/DX2                !
 ! D41   D(54,6,7,8)           -57.7596         estimate D2E/DX2                !
 ! D42   D(54,6,7,56)         -179.4124         estimate D2E/DX2                !
 ! D43   D(54,6,7,57)           62.4273         estimate D2E/DX2                !
 ! D44   D(55,6,7,8)            59.9598         estimate D2E/DX2                !
 ! D45   D(55,6,7,56)          -61.693          estimate D2E/DX2                !
 ! D46   D(55,6,7,57)         -179.8533         estimate D2E/DX2                !
 ! D47   D(6,7,8,9)            178.5305         estimate D2E/DX2                !
 ! D48   D(6,7,8,58)           -56.6356         estimate D2E/DX2                !
 ! D49   D(6,7,8,59)            62.5107         estimate D2E/DX2                !
 ! D50   D(56,7,8,9)           -59.5814         estimate D2E/DX2                !
 ! D51   D(56,7,8,58)           65.2524         estimate D2E/DX2                !
 ! D52   D(56,7,8,59)         -175.6012         estimate D2E/DX2                !
 ! D53   D(57,7,8,9)            57.4817         estimate D2E/DX2                !
 ! D54   D(57,7,8,58)         -177.6844         estimate D2E/DX2                !
 ! D55   D(57,7,8,59)          -58.5381         estimate D2E/DX2                !
 ! D56   D(7,8,9,10)            76.6158         estimate D2E/DX2                !
 ! D57   D(58,8,9,10)          -48.1337         estimate D2E/DX2                !
 ! D58   D(59,8,9,10)         -164.3781         estimate D2E/DX2                !
 ! D59   D(8,9,10,11)            5.1457         estimate D2E/DX2                !
 ! D60   D(8,9,10,44)         -176.1058         estimate D2E/DX2                !
 ! D61   D(9,10,11,12)         179.2336         estimate D2E/DX2                !
 ! D62   D(9,10,11,60)          -0.2617         estimate D2E/DX2                !
 ! D63   D(44,10,11,12)          0.5214         estimate D2E/DX2                !
 ! D64   D(44,10,11,60)       -178.9739         estimate D2E/DX2                !
 ! D65   D(9,10,44,43)        -179.3021         estimate D2E/DX2                !
 ! D66   D(9,10,44,88)           0.5439         estimate D2E/DX2                !
 ! D67   D(11,10,44,43)         -0.4584         estimate D2E/DX2                !
 ! D68   D(11,10,44,88)        179.3876         estimate D2E/DX2                !
 ! D69   D(10,11,12,13)          0.1123         estimate D2E/DX2                !
 ! D70   D(10,11,12,61)       -178.8887         estimate D2E/DX2                !
 ! D71   D(60,11,12,13)        179.6205         estimate D2E/DX2                !
 ! D72   D(60,11,12,61)          0.6195         estimate D2E/DX2                !
 ! D73   D(11,12,13,14)        179.86           estimate D2E/DX2                !
 ! D74   D(11,12,13,43)         -0.7955         estimate D2E/DX2                !
 ! D75   D(61,12,13,14)         -1.1654         estimate D2E/DX2                !
 ! D76   D(61,12,13,43)        178.179          estimate D2E/DX2                !
 ! D77   D(12,13,14,15)        -14.0485         estimate D2E/DX2                !
 ! D78   D(12,13,14,42)        166.648          estimate D2E/DX2                !
 ! D79   D(43,13,14,15)        166.6117         estimate D2E/DX2                !
 ! D80   D(43,13,14,42)        -12.6918         estimate D2E/DX2                !
 ! D81   D(12,13,43,44)          0.8586         estimate D2E/DX2                !
 ! D82   D(12,13,43,87)       -179.0302         estimate D2E/DX2                !
 ! D83   D(14,13,43,44)       -179.7661         estimate D2E/DX2                !
 ! D84   D(14,13,43,87)          0.3452         estimate D2E/DX2                !
 ! D85   D(13,14,15,16)        179.7902         estimate D2E/DX2                !
 ! D86   D(13,14,15,62)         -1.1694         estimate D2E/DX2                !
 ! D87   D(42,14,15,16)         -0.9436         estimate D2E/DX2                !
 ! D88   D(42,14,15,62)        178.0968         estimate D2E/DX2                !
 ! D89   D(13,14,42,41)       -179.9451         estimate D2E/DX2                !
 ! D90   D(15,14,42,41)          0.7399         estimate D2E/DX2                !
 ! D91   D(14,15,16,17)          0.2723         estimate D2E/DX2                !
 ! D92   D(14,15,16,63)        179.9145         estimate D2E/DX2                !
 ! D93   D(62,15,16,17)       -178.7738         estimate D2E/DX2                !
 ! D94   D(62,15,16,63)          0.8684         estimate D2E/DX2                !
 ! D95   D(15,16,17,18)       -179.9769         estimate D2E/DX2                !
 ! D96   D(15,16,17,41)          0.5255         estimate D2E/DX2                !
 ! D97   D(63,16,17,18)          0.3754         estimate D2E/DX2                !
 ! D98   D(63,16,17,41)       -179.1222         estimate D2E/DX2                !
 ! D99   D(16,17,18,19)       -179.1595         estimate D2E/DX2                !
 ! D100  D(16,17,18,64)          0.7175         estimate D2E/DX2                !
 ! D101  D(41,17,18,19)          0.3212         estimate D2E/DX2                !
 ! D102  D(41,17,18,64)       -179.8018         estimate D2E/DX2                !
 ! D103  D(16,17,41,40)        179.1703         estimate D2E/DX2                !
 ! D104  D(16,17,41,42)         -0.7587         estimate D2E/DX2                !
 ! D105  D(18,17,41,40)         -0.3419         estimate D2E/DX2                !
 ! D106  D(18,17,41,42)        179.729          estimate D2E/DX2                !
 ! D107  D(17,18,19,20)          0.0153         estimate D2E/DX2                !
 ! D108  D(17,18,19,65)        179.8786         estimate D2E/DX2                !
 ! D109  D(64,18,19,20)       -179.8585         estimate D2E/DX2                !
 ! D110  D(64,18,19,65)          0.0048         estimate D2E/DX2                !
 ! D111  D(18,19,20,21)        179.1311         estimate D2E/DX2                !
 ! D112  D(18,19,20,40)         -0.3243         estimate D2E/DX2                !
 ! D113  D(65,19,20,21)         -0.7357         estimate D2E/DX2                !
 ! D114  D(65,19,20,40)        179.8089         estimate D2E/DX2                !
 ! D115  D(19,20,21,22)       -179.9861         estimate D2E/DX2                !
 ! D116  D(19,20,21,66)         -0.3576         estimate D2E/DX2                !
 ! D117  D(40,20,21,22)         -0.513          estimate D2E/DX2                !
 ! D118  D(40,20,21,66)        179.1154         estimate D2E/DX2                !
 ! D119  D(19,20,40,39)       -179.7972         estimate D2E/DX2                !
 ! D120  D(19,20,40,41)          0.2914         estimate D2E/DX2                !
 ! D121  D(21,20,40,39)          0.7144         estimate D2E/DX2                !
 ! D122  D(21,20,40,41)       -179.197          estimate D2E/DX2                !
 ! D123  D(20,21,22,23)         -0.2471         estimate D2E/DX2                !
 ! D124  D(20,21,22,67)        178.7331         estimate D2E/DX2                !
 ! D125  D(66,21,22,23)       -179.8697         estimate D2E/DX2                !
 ! D126  D(66,21,22,67)         -0.8896         estimate D2E/DX2                !
 ! D127  D(21,22,23,24)       -179.9203         estimate D2E/DX2                !
 ! D128  D(21,22,23,39)          0.9079         estimate D2E/DX2                !
 ! D129  D(67,22,23,24)          1.1051         estimate D2E/DX2                !
 ! D130  D(67,22,23,39)       -178.0668         estimate D2E/DX2                !
 ! D131  D(22,23,24,25)         15.0185         estimate D2E/DX2                !
 ! D132  D(22,23,24,38)       -165.6201         estimate D2E/DX2                !
 ! D133  D(39,23,24,25)       -165.7675         estimate D2E/DX2                !
 ! D134  D(39,23,24,38)         13.594          estimate D2E/DX2                !
 ! D135  D(22,23,39,40)         -0.7347         estimate D2E/DX2                !
 ! D136  D(24,23,39,40)       -179.961          estimate D2E/DX2                !
 ! D137  D(23,24,25,26)        179.9892         estimate D2E/DX2                !
 ! D138  D(23,24,25,68)          1.1488         estimate D2E/DX2                !
 ! D139  D(38,24,25,26)          0.6241         estimate D2E/DX2                !
 ! D140  D(38,24,25,68)       -178.2163         estimate D2E/DX2                !
 ! D141  D(23,24,38,37)        179.8152         estimate D2E/DX2                !
 ! D142  D(23,24,38,86)         -0.3055         estimate D2E/DX2                !
 ! D143  D(25,24,38,37)         -0.7899         estimate D2E/DX2                !
 ! D144  D(25,24,38,86)        179.0894         estimate D2E/DX2                !
 ! D145  D(24,25,26,27)          0.0319         estimate D2E/DX2                !
 ! D146  D(24,25,26,69)       -179.7133         estimate D2E/DX2                !
 ! D147  D(68,25,26,27)        178.9017         estimate D2E/DX2                !
 ! D148  D(68,25,26,69)         -0.8435         estimate D2E/DX2                !
 ! D149  D(25,26,27,28)        179.6765         estimate D2E/DX2                !
 ! D150  D(25,26,27,37)         -0.5337         estimate D2E/DX2                !
 ! D151  D(69,26,27,28)         -0.5835         estimate D2E/DX2                !
 ! D152  D(69,26,27,37)        179.2063         estimate D2E/DX2                !
 ! D153  D(26,27,28,29)         -0.1293         estimate D2E/DX2                !
 ! D154  D(37,27,28,29)       -179.9247         estimate D2E/DX2                !
 ! D155  D(26,27,37,38)          0.3698         estimate D2E/DX2                !
 ! D156  D(26,27,37,85)       -179.5646         estimate D2E/DX2                !
 ! D157  D(28,27,37,38)       -179.8213         estimate D2E/DX2                !
 ! D158  D(28,27,37,85)          0.2444         estimate D2E/DX2                !
 ! D159  D(27,28,29,30)       -179.8152         estimate D2E/DX2                !
 ! D160  D(27,28,29,70)        -59.7738         estimate D2E/DX2                !
 ! D161  D(27,28,29,71)         59.9932         estimate D2E/DX2                !
 ! D162  D(28,29,30,31)        178.4912         estimate D2E/DX2                !
 ! D163  D(28,29,30,72)         56.9237         estimate D2E/DX2                !
 ! D164  D(28,29,30,73)        -60.242          estimate D2E/DX2                !
 ! D165  D(70,29,30,31)         58.3248         estimate D2E/DX2                !
 ! D166  D(70,29,30,72)        -63.2427         estimate D2E/DX2                !
 ! D167  D(70,29,30,73)        179.5916         estimate D2E/DX2                !
 ! D168  D(71,29,30,31)        -61.2553         estimate D2E/DX2                !
 ! D169  D(71,29,30,72)        177.1772         estimate D2E/DX2                !
 ! D170  D(71,29,30,73)         60.0115         estimate D2E/DX2                !
 ! D171  D(29,30,31,32)        172.8045         estimate D2E/DX2                !
 ! D172  D(29,30,31,74)         52.1547         estimate D2E/DX2                !
 ! D173  D(29,30,31,75)        -64.7539         estimate D2E/DX2                !
 ! D174  D(72,30,31,32)        -67.0997         estimate D2E/DX2                !
 ! D175  D(72,30,31,74)        172.2505         estimate D2E/DX2                !
 ! D176  D(72,30,31,75)         55.3419         estimate D2E/DX2                !
 ! D177  D(73,30,31,32)         52.3494         estimate D2E/DX2                !
 ! D178  D(73,30,31,74)        -68.3004         estimate D2E/DX2                !
 ! D179  D(73,30,31,75)        174.7911         estimate D2E/DX2                !
 ! D180  D(30,31,32,33)         65.2885         estimate D2E/DX2                !
 ! D181  D(30,31,32,76)        -57.4708         estimate D2E/DX2                !
 ! D182  D(30,31,32,77)       -173.6727         estimate D2E/DX2                !
 ! D183  D(74,31,32,33)       -173.8277         estimate D2E/DX2                !
 ! D184  D(74,31,32,76)         63.413          estimate D2E/DX2                !
 ! D185  D(74,31,32,77)        -52.7889         estimate D2E/DX2                !
 ! D186  D(75,31,32,33)        -57.1776         estimate D2E/DX2                !
 ! D187  D(75,31,32,76)       -179.9369         estimate D2E/DX2                !
 ! D188  D(75,31,32,77)         63.8612         estimate D2E/DX2                !
 ! D189  D(31,32,33,34)        -96.7495         estimate D2E/DX2                !
 ! D190  D(31,32,33,78)        142.957          estimate D2E/DX2                !
 ! D191  D(31,32,33,79)         25.7578         estimate D2E/DX2                !
 ! D192  D(76,32,33,34)         26.162          estimate D2E/DX2                !
 ! D193  D(76,32,33,78)        -94.1315         estimate D2E/DX2                !
 ! D194  D(76,32,33,79)        148.6694         estimate D2E/DX2                !
 ! D195  D(77,32,33,34)        143.0592         estimate D2E/DX2                !
 ! D196  D(77,32,33,78)         22.7657         estimate D2E/DX2                !
 ! D197  D(77,32,33,79)        -94.4334         estimate D2E/DX2                !
 ! D198  D(32,33,34,35)        -63.1739         estimate D2E/DX2                !
 ! D199  D(32,33,34,80)         59.0683         estimate D2E/DX2                !
 ! D200  D(32,33,34,81)        177.3122         estimate D2E/DX2                !
 ! D201  D(78,33,34,35)         57.7786         estimate D2E/DX2                !
 ! D202  D(78,33,34,80)       -179.9791         estimate D2E/DX2                !
 ! D203  D(78,33,34,81)        -61.7352         estimate D2E/DX2                !
 ! D204  D(79,33,34,35)        174.1787         estimate D2E/DX2                !
 ! D205  D(79,33,34,80)        -63.579          estimate D2E/DX2                !
 ! D206  D(79,33,34,81)         54.6649         estimate D2E/DX2                !
 ! D207  D(33,34,35,36)        122.7787         estimate D2E/DX2                !
 ! D208  D(33,34,35,82)        -56.6881         estimate D2E/DX2                !
 ! D209  D(80,34,35,36)         -0.0731         estimate D2E/DX2                !
 ! D210  D(80,34,35,82)       -179.54           estimate D2E/DX2                !
 ! D211  D(81,34,35,36)       -117.9529         estimate D2E/DX2                !
 ! D212  D(81,34,35,82)         62.5803         estimate D2E/DX2                !
 ! D213  D(34,35,36,83)          0.4551         estimate D2E/DX2                !
 ! D214  D(34,35,36,84)        179.9108         estimate D2E/DX2                !
 ! D215  D(82,35,36,83)        179.8973         estimate D2E/DX2                !
 ! D216  D(82,35,36,84)         -0.647          estimate D2E/DX2                !
 ! D217  D(27,37,38,24)          0.3004         estimate D2E/DX2                !
 ! D218  D(27,37,38,86)       -179.5752         estimate D2E/DX2                !
 ! D219  D(85,37,38,24)       -179.7674         estimate D2E/DX2                !
 ! D220  D(85,37,38,86)          0.357          estimate D2E/DX2                !
 ! D221  D(23,39,40,20)         -0.0915         estimate D2E/DX2                !
 ! D222  D(23,39,40,41)        179.8203         estimate D2E/DX2                !
 ! D223  D(20,40,41,17)          0.0381         estimate D2E/DX2                !
 ! D224  D(20,40,41,42)        179.9701         estimate D2E/DX2                !
 ! D225  D(39,40,41,17)       -179.8769         estimate D2E/DX2                !
 ! D226  D(39,40,41,42)          0.0551         estimate D2E/DX2                !
 ! D227  D(17,41,42,14)          0.127          estimate D2E/DX2                !
 ! D228  D(40,41,42,14)       -179.8023         estimate D2E/DX2                !
 ! D229  D(13,43,44,10)         -0.2404         estimate D2E/DX2                !
 ! D230  D(13,43,44,88)        179.9185         estimate D2E/DX2                !
 ! D231  D(87,43,44,10)        179.6449         estimate D2E/DX2                !
 ! D232  D(87,43,44,88)         -0.1962         estimate D2E/DX2                !
 --------------------------------------------------------------------------------
 Trust Radius=3.00D-01 FncErr=1.00D-07 GrdErr=1.00D-06 EigMax=2.50D+02 EigMin=1.00D-04
 Number of steps in this run=    494 maximum allowed number of steps=    528.
 GradGradGradGradGradGradGradGradGradGradGradGradGradGradGradGradGradGrad

 Leave Link  103 at Fri Nov  4 22:40:41 2022, MaxMem=   805306368 cpu:               0.1 elap:               0.0
 (Enter /home/wykgroup/appl/g16/l202.exe)
 Stoichiometry    C40H44N2O2
 Framework group  C1[X(C40H44N2O2)]
 Deg. of freedom   258
 Full point group                 C1      NOp   1
 Largest Abelian subgroup         C1      NOp   1
 Largest concise Abelian subgroup C1      NOp   1
                         Standard orientation:                         
 ---------------------------------------------------------------------
 Center     Atomic      Atomic             Coordinates (Angstroms)
 Number     Number       Type             X           Y           Z
 ---------------------------------------------------------------------
      1          6           0        8.804861   -6.401123   -0.409094
      2          6           0        9.599387   -5.346999   -0.381943
      3          6           0       10.171865   -4.745055    0.860929
      4          6           0       10.026871   -3.221253    0.939606
      5          6           0        8.600661   -2.744724    1.219333
      6          6           0        7.675692   -2.839203    0.008483
      7          6           0        6.275852   -2.324733    0.330812
      8          6           0        5.346510   -2.440848   -0.879096
      9          8           0        4.033093   -2.002821   -0.602366
     10          6           0        3.759157   -0.673414   -0.534561
     11          6           0        4.650685    0.357570   -0.814916
     12          6           0        4.242971    1.676064   -0.723334
     13          6           0        2.944373    2.008040   -0.350069
     14          6           0        2.467701    3.388954   -0.236493
     15          6           0        3.339131    4.500495   -0.211599
     16          6           0        2.812419    5.760387   -0.107502
     17          6           0        1.419838    5.931569   -0.021357
     18          6           0        0.802281    7.206376    0.088101
     19          6           0       -0.545258    7.319402    0.185466
     20          6           0       -1.374753    6.165915    0.180888
     21          6           0       -2.774235    6.229094    0.297093
     22          6           0       -3.511821    5.075172    0.285403
     23          6           0       -2.848982    3.835137    0.150679
     24          6           0       -3.559843    2.553792    0.126895
     25          6           0       -4.932928    2.446579   -0.069570
     26          6           0       -5.562432    1.214697   -0.084679
     27          6           0       -4.824327    0.049887    0.099089
     28          8           0       -5.336956   -1.207205    0.109294
     29          6           0       -6.726129   -1.385677   -0.075593
     30          6           0       -7.013146   -2.882293   -0.012939
     31          6           0       -8.502972   -3.171519   -0.166618
     32          6           0       -8.834288   -4.660076   -0.286397
     33          6           0       -8.519388   -5.482873    0.969561
     34          6           0       -7.161945   -6.194118    0.908831
     35          6           0       -7.117932   -7.199194   -0.197107
     36          6           0       -6.232234   -7.198062   -1.175404
     37          6           0       -3.441909    0.148336    0.286617
     38          6           0       -2.824929    1.375023    0.296773
     39          7           0       -1.534226    3.765997    0.053879
     40          6           0       -0.802020    4.876100    0.067057
     41          6           0        0.631018    4.755919   -0.037077
     42          7           0        1.159498    3.540255   -0.142983
     43          6           0        2.050864    0.964444   -0.084298
     44          6           0        2.448174   -0.347080   -0.171638
     45          1           0        8.486808   -6.894009    0.495331
     46          1           0        8.436013   -6.816850   -1.331535
     47          1           0        9.907074   -4.873610   -1.306177
     48          1           0        9.715037   -5.203872    1.740027
     49          1           0       11.241497   -4.981257    0.880921
     50          1           0       10.671313   -2.863469    1.746308
     51          1           0       10.384128   -2.773485    0.009400
     52          1           0        8.180986   -3.330561    2.039966
     53          1           0        8.639221   -1.702487    1.547313
     54          1           0        7.611747   -3.876183   -0.322865
     55          1           0        8.096611   -2.252649   -0.812406
     56          1           0        6.326771   -1.282602    0.654141
     57          1           0        5.847392   -2.902886    1.151926
     58          1           0        5.763467   -1.905436   -1.741433
     59          1           0        5.232939   -3.493249   -1.155292
     60          1           0        5.666509    0.151291   -1.114569
     61          1           0        4.959592    2.446094   -0.966746
     62          1           0        4.407844    4.363192   -0.258032
     63          1           0        3.455668    6.630429   -0.084679
     64          1           0        1.434671    8.083547    0.093774
     65          1           0       -1.016187    8.289095    0.270780
     66          1           0       -3.254371    7.193407    0.401022
     67          1           0       -4.583970    5.116691    0.394733
     68          1           0       -5.535952    3.326925   -0.233670
     69          1           0       -6.628878    1.175882   -0.244875
     70          1           0       -7.285073   -0.861632    0.712993
     71          1           0       -7.035291   -0.981287   -1.049917
     72          1           0       -6.648397   -3.255367    0.943988
     73          1           0       -6.453638   -3.377093   -0.808318
     74          1           0       -8.866030   -2.666911   -1.066145
     75          1           0       -9.042515   -2.749663    0.685192
     76          1           0       -8.295625   -5.084199   -1.136007
     77          1           0       -9.901606   -4.740672   -0.504445
     78          1           0       -9.291899   -6.244298    1.100394
     79          1           0       -8.549280   -4.835565    1.848162
     80          1           0       -6.356091   -5.472848    0.778754
     81          1           0       -7.003460   -6.712407    1.859942
     82          1           0       -7.888443   -7.959393   -0.161309
     83          1           0       -5.456298   -6.451841   -1.235235
     84          1           0       -6.235417   -7.943131   -1.953051
     85          1           0       -2.879844   -0.762516    0.420881
     86          1           0       -1.758965    1.459454    0.433913
     87          1           0        1.040375    1.221736    0.189382
     88          1           0        1.762536   -1.154124    0.033773
 ---------------------------------------------------------------------
 Rotational constants (GHZ):           0.0485313           0.0273835           0.0177173
 Leave Link  202 at Fri Nov  4 22:40:41 2022, MaxMem=   805306368 cpu:               0.1 elap:               0.0
 (Enter /home/wykgroup/appl/g16/l301.exe)
 Standard basis: 6-31G(d) (6D, 7F)
 Ernie: Thresh=  0.10000D-02 Tol=  0.10000D-05 Strict=F.
 There are   748 symmetry adapted cartesian basis functions of A   symmetry.
 There are   748 symmetry adapted basis functions of A   symmetry.
   748 basis functions,  1408 primitive gaussians,   748 cartesian basis functions
   157 alpha electrons      157 beta electrons
       nuclear repulsion energy      4449.0208323674 Hartrees.
 IExCor=  402 DFT=T Ex+Corr=B3LYP ExCW=0 ScaHFX=  0.200000
 ScaDFX=  0.800000  0.720000  1.000000  0.810000 ScalE2=  1.000000  1.000000
 IRadAn=      5 IRanWt=     -1 IRanGd=            0 ICorTp=0 IEmpDi=  4
 NAtoms=   88 NActive=   88 NUniq=   88 SFac= 1.00D+00 NAtFMM=   60 NAOKFM=T Big=T
 Integral buffers will be    131072 words long.
 Raffenetti 2 integral format.
 Two-electron integral symmetry is turned on.
 Leave Link  301 at Fri Nov  4 22:40:41 2022, MaxMem=   805306368 cpu:               0.3 elap:               0.1
 (Enter /home/wykgroup/appl/g16/l302.exe)
 NPDir=0 NMtPBC=     1 NCelOv=     1 NCel=       1 NClECP=     1 NCelD=      1
         NCelK=      1 NCelE2=     1 NClLst=     1 CellRange=     0.0.
 One-electron integrals computed using PRISM.
 One-electron integral symmetry used in STVInt
 NBasis=   748 RedAO= T EigKep=  2.52D-04  NBF=   748
 NBsUse=   748 1.00D-06 EigRej= -1.00D+00 NBFU=   748
 Precomputing XC quadrature grid using
 IXCGrd= 4 IRadAn=           5 IRanWt=          -1 IRanGd=           0 AccXCQ= 0.00D+00.
 Generated NRdTot=       0 NPtTot=           0 NUsed=           0 NTot=          32
 NSgBfM=   671   670   670   670   671 MxSgAt=    88 MxSgA2=    88.
 Leave Link  302 at Fri Nov  4 22:40:43 2022, MaxMem=   805306368 cpu:              10.8 elap:               1.6
 (Enter /home/wykgroup/appl/g16/l303.exe)
 DipDrv:  MaxL=1.
 Leave Link  303 at Fri Nov  4 22:40:43 2022, MaxMem=   805306368 cpu:               0.5 elap:               0.1
 (Enter /home/wykgroup/appl/g16/l401.exe)
 ExpMin= 1.61D-01 ExpMax= 5.48D+03 ExpMxC= 8.25D+02 IAcc=3 IRadAn=         5 AccDes= 0.00D+00
 Harris functional with IExCor=  402 and IRadAn=       5 diagonalized for initial guess.
 HarFok:  IExCor=  402 AccDes= 0.00D+00 IRadAn=         5 IDoV= 1 UseB2=F ITyADJ=14
 ICtDFT=  3500011 ScaDFX=  1.000000  1.000000  1.000000  1.000000
 FoFCou: FMM=F IPFlag=           0 FMFlag=      100000 FMFlg1=        2001
         NFxFlg=           0 DoJE=T BraDBF=F KetDBF=T FulRan=T
         wScrn=  0.000000 ICntrl=       500 IOpCl=  0 I1Cent=   200000004 NGrid=           0
         NMat0=    1 NMatS0=      1 NMatT0=    0 NMatD0=    1 NMtDS0=    0 NMtDT0=    0
 Petite list used in FoFCou.
 Harris En= -1810.79550098763    
 JPrj=0 DoOrth=F DoCkMO=F.
 Leave Link  401 at Fri Nov  4 22:40:49 2022, MaxMem=   805306368 cpu:              39.5 elap:               5.7
 (Enter /home/wykgroup/appl/g16/l502.exe)
 Integral symmetry usage will be decided dynamically.
 Closed shell SCF:
 Using DIIS extrapolation, IDIIS=  1040.
 NGot=   805306368 LenX=   804173730 LenY=   803613478
 Requested convergence on RMS density matrix=1.00D-08 within  32 cycles.
 Requested convergence on MAX density matrix=1.00D-06.
 Requested convergence on             energy=1.00D-06.
 No special actions if energy rises.
 Fock matrices will be formed incrementally for  20 cycles.
 Integral accuracy reduced to 1.0D-05 until final iterations.

 Cycle   1  Pass 0  IDiag  1:
 FoFJK:  IHMeth= 1 ICntrl=       0 DoSepK=F KAlg= 0 I1Cent=           0 FoldK=F
 IRaf= 550000000 NMat=       1 IRICut=       1 DoRegI=T DoRafI=F ISym2E= 0 IDoP0=0 IntGTp=1.
 FoFCou: FMM=T IPFlag=           0 FMFlag=      100000 FMFlg1=        2001
         NFxFlg=           0 DoJE=F BraDBF=F KetDBF=F FulRan=T
         wScrn=  0.000000 ICntrl=         0 IOpCl=  0 I1Cent=           0 NGrid=           0
         NMat0=    1 NMatS0=      1 NMatT0=    0 NMatD0=    1 NMtDS0=    0 NMtDT0=    0
 Symmetry not used in FoFCou.
 FMM levels:  10  Number of levels for PrismC:   9
 E= -1809.61023240097    
 DIIS: error= 3.17D-02 at cycle   1 NSaved=   1.
 NSaved= 1 IEnMin= 1 EnMin= -1809.61023240097     IErMin= 1 ErrMin= 3.17D-02
 ErrMax= 3.17D-02  0.00D+00 EMaxC= 1.00D-01 BMatC= 9.92D-01 BMatP= 9.92D-01
 IDIUse=3 WtCom= 6.83D-01 WtEn= 3.17D-01
 Coeff-Com:  0.100D+01
 Coeff-En:   0.100D+01
 Coeff:      0.100D+01
 Gap=     0.142 Goal=   None    Shift=    0.000
 GapD=    0.142 DampG=1.000 DampE=0.500 DampFc=0.5000 IDamp=-1.
 Damping current iteration by 5.00D-01
 RMSDP=3.27D-03 MaxDP=1.56D-01              OVMax= 1.68D-01

 Cycle   2  Pass 0  IDiag  1:
 RMSU=  1.59D-03    CP:  9.68D-01
 E= -1810.11978128583     Delta-E=       -0.509548884857 Rises=F Damp=T
 DIIS: error= 6.55D-03 at cycle   2 NSaved=   2.
 NSaved= 2 IEnMin= 2 EnMin= -1810.11978128583     IErMin= 2 ErrMin= 6.55D-03
 ErrMax= 6.55D-03  0.00D+00 EMaxC= 1.00D-01 BMatC= 5.52D-02 BMatP= 9.92D-01
 IDIUse=3 WtCom= 9.34D-01 WtEn= 6.55D-02
 Coeff-Com:  0.107D-01 0.989D+00
 Coeff-En:   0.153D-01 0.985D+00
 Coeff:      0.110D-01 0.989D+00
 Gap=     0.141 Goal=   None    Shift=    0.000
 RMSDP=8.30D-04 MaxDP=3.59D-02 DE=-5.10D-01 OVMax= 1.29D-01

 Cycle   3  Pass 0  IDiag  1:
 RMSU=  8.15D-04    CP:  9.56D-01  9.81D-01
 E= -1810.65892636646     Delta-E=       -0.539145080636 Rises=F Damp=F
 DIIS: error= 4.23D-03 at cycle   3 NSaved=   3.
 NSaved= 3 IEnMin= 3 EnMin= -1810.65892636646     IErMin= 3 ErrMin= 4.23D-03
 ErrMax= 4.23D-03  0.00D+00 EMaxC= 1.00D-01 BMatC= 2.91D-02 BMatP= 5.52D-02
 IDIUse=3 WtCom= 9.58D-01 WtEn= 4.23D-02
 Coeff-Com: -0.371D-01 0.413D+00 0.624D+00
 Coeff-En:   0.000D+00 0.000D+00 0.100D+01
 Coeff:     -0.356D-01 0.396D+00 0.640D+00
 Gap=     0.145 Goal=   None    Shift=    0.000
 RMSDP=4.06D-04 MaxDP=3.04D-02 DE=-5.39D-01 OVMax= 6.50D-02

 Cycle   4  Pass 0  IDiag  1:
 RMSU=  3.26D-04    CP:  9.56D-01  1.02D+00  7.14D-01
 E= -1810.67493452667     Delta-E=       -0.016008160208 Rises=F Damp=F
 DIIS: error= 3.47D-03 at cycle   4 NSaved=   4.
 NSaved= 4 IEnMin= 4 EnMin= -1810.67493452667     IErMin= 4 ErrMin= 3.47D-03
 ErrMax= 3.47D-03  0.00D+00 EMaxC= 1.00D-01 BMatC= 1.31D-02 BMatP= 2.91D-02
 IDIUse=3 WtCom= 9.65D-01 WtEn= 3.47D-02
 Coeff-Com: -0.230D-01 0.121D+00 0.414D+00 0.488D+00
 Coeff-En:   0.000D+00 0.000D+00 0.334D+00 0.666D+00
 Coeff:     -0.222D-01 0.117D+00 0.411D+00 0.494D+00
 Gap=     0.140 Goal=   None    Shift=    0.000
 RMSDP=2.09D-04 MaxDP=1.37D-02 DE=-1.60D-02 OVMax= 3.67D-02

 Cycle   5  Pass 0  IDiag  1:
 RMSU=  1.02D-04    CP:  9.56D-01  1.02D+00  7.93D-01  4.77D-01
 E= -1810.68725905340     Delta-E=       -0.012324526733 Rises=F Damp=F
 DIIS: error= 1.31D-03 at cycle   5 NSaved=   5.
 NSaved= 5 IEnMin= 5 EnMin= -1810.68725905340     IErMin= 5 ErrMin= 1.31D-03
 ErrMax= 1.31D-03  0.00D+00 EMaxC= 1.00D-01 BMatC= 1.03D-03 BMatP= 1.31D-02
 IDIUse=3 WtCom= 9.87D-01 WtEn= 1.31D-02
 Coeff-Com: -0.911D-02 0.310D-01 0.182D+00 0.293D+00 0.503D+00
 Coeff-En:   0.000D+00 0.000D+00 0.000D+00 0.287D-01 0.971D+00
 Coeff:     -0.899D-02 0.306D-01 0.179D+00 0.290D+00 0.509D+00
 Gap=     0.139 Goal=   None    Shift=    0.000
 RMSDP=7.15D-05 MaxDP=3.61D-03 DE=-1.23D-02 OVMax= 1.26D-02

 Cycle   6  Pass 0  IDiag  1:
 RMSU=  4.05D-05    CP:  9.56D-01  1.02D+00  7.90D-01  5.34D-01  4.59D-01
 E= -1810.68823495186     Delta-E=       -0.000975898457 Rises=F Damp=F
 DIIS: error= 7.44D-04 at cycle   6 NSaved=   6.
 NSaved= 6 IEnMin= 6 EnMin= -1810.68823495186     IErMin= 6 ErrMin= 7.44D-04
 ErrMax= 7.44D-04  0.00D+00 EMaxC= 1.00D-01 BMatC= 1.60D-04 BMatP= 1.03D-03
 IDIUse=3 WtCom= 9.93D-01 WtEn= 7.44D-03
 Coeff-Com: -0.346D-02 0.790D-02 0.737D-01 0.135D+00 0.336D+00 0.450D+00
 Coeff-En:   0.000D+00 0.000D+00 0.000D+00 0.000D+00 0.141D+00 0.859D+00
 Coeff:     -0.343D-02 0.784D-02 0.732D-01 0.134D+00 0.335D+00 0.453D+00
 Gap=     0.140 Goal=   None    Shift=    0.000
 RMSDP=2.54D-05 MaxDP=1.26D-03 DE=-9.76D-04 OVMax= 4.98D-03

 Cycle   7  Pass 0  IDiag  1:
 RMSU=  1.28D-05    CP:  9.56D-01  1.02D+00  7.92D-01  5.35D-01  5.72D-01
                    CP:  5.45D-01
 E= -1810.68841467331     Delta-E=       -0.000179721449 Rises=F Damp=F
 DIIS: error= 1.86D-04 at cycle   7 NSaved=   7.
 NSaved= 7 IEnMin= 7 EnMin= -1810.68841467331     IErMin= 7 ErrMin= 1.86D-04
 ErrMax= 1.86D-04  0.00D+00 EMaxC= 1.00D-01 BMatC= 1.29D-05 BMatP= 1.60D-04
 IDIUse=3 WtCom= 9.98D-01 WtEn= 1.86D-03
 Coeff-Com: -0.122D-02 0.175D-02 0.274D-01 0.541D-01 0.161D+00 0.282D+00
 Coeff-Com:  0.475D+00
 Coeff-En:   0.000D+00 0.000D+00 0.000D+00 0.000D+00 0.000D+00 0.000D+00
 Coeff-En:   0.100D+01
 Coeff:     -0.122D-02 0.175D-02 0.274D-01 0.540D-01 0.160D+00 0.282D+00
 Coeff:      0.476D+00
 Gap=     0.140 Goal=   None    Shift=    0.000
 RMSDP=6.75D-06 MaxDP=4.19D-04 DE=-1.80D-04 OVMax= 9.63D-04

 Initial convergence to 1.0D-05 achieved.  Increase integral accuracy.
 Cycle   8  Pass 1  IDiag  1:
 E= -1810.68836007156     Delta-E=        0.000054601751 Rises=F Damp=F
 DIIS: error= 1.55D-04 at cycle   1 NSaved=   1.
 NSaved= 1 IEnMin= 1 EnMin= -1810.68836007156     IErMin= 1 ErrMin= 1.55D-04
 ErrMax= 1.55D-04  0.00D+00 EMaxC= 1.00D-01 BMatC= 9.51D-06 BMatP= 9.51D-06
 IDIUse=3 WtCom= 9.98D-01 WtEn= 1.55D-03
 Coeff-Com:  0.100D+01
 Coeff-En:   0.100D+01
 Coeff:      0.100D+01
 Gap=     0.140 Goal=   None    Shift=    0.000
 RMSDP=6.75D-06 MaxDP=4.19D-04 DE= 5.46D-05 OVMax= 6.55D-04

 Cycle   9  Pass 1  IDiag  1:
 RMSU=  8.15D-05    CP:  1.00D+00
 E= -1810.68836713308     Delta-E=       -0.000007061523 Rises=F Damp=F
 DIIS: error= 6.15D-05 at cycle   2 NSaved=   2.
 NSaved= 2 IEnMin= 2 EnMin= -1810.68836713308     IErMin= 2 ErrMin= 6.15D-05
 ErrMax= 6.15D-05  0.00D+00 EMaxC= 1.00D-01 BMatC= 1.90D-06 BMatP= 9.51D-06
 IDIUse=1 WtCom= 1.00D+00 WtEn= 0.00D+00
 Coeff-Com:  0.212D+00 0.788D+00
 Coeff:      0.212D+00 0.788D+00
 Gap=     0.140 Goal=   None    Shift=    0.000
 RMSDP=5.05D-06 MaxDP=5.10D-04 DE=-7.06D-06 OVMax= 7.07D-04

 Cycle  10  Pass 1  IDiag  1:
 RMSU=  5.05D-06    CP:  1.00D+00  1.00D+00
 E= -1810.68836547954     Delta-E=        0.000001653548 Rises=F Damp=F
 DIIS: error= 9.37D-05 at cycle   3 NSaved=   3.
 NSaved= 3 IEnMin= 2 EnMin= -1810.68836713308     IErMin= 2 ErrMin= 6.15D-05
 ErrMax= 9.37D-05  0.00D+00 EMaxC= 1.00D-01 BMatC= 3.62D-06 BMatP= 1.90D-06
 IDIUse=1 WtCom= 1.00D+00 WtEn= 0.00D+00
 Coeff-Com:  0.200D-02 0.580D+00 0.418D+00
 Coeff:      0.200D-02 0.580D+00 0.418D+00
 Gap=     0.140 Goal=   None    Shift=    0.000
 RMSDP=3.24D-06 MaxDP=3.22D-04 DE= 1.65D-06 OVMax= 5.30D-04

 Cycle  11  Pass 1  IDiag  1:
 RMSU=  7.58D-07    CP:  1.00D+00  1.01D+00  3.86D-01
 E= -1810.68836876781     Delta-E=       -0.000003288272 Rises=F Damp=F
 DIIS: error= 1.39D-05 at cycle   4 NSaved=   4.
 NSaved= 4 IEnMin= 4 EnMin= -1810.68836876781     IErMin= 4 ErrMin= 1.39D-05
 ErrMax= 1.39D-05  0.00D+00 EMaxC= 1.00D-01 BMatC= 8.65D-08 BMatP= 1.90D-06
 IDIUse=1 WtCom= 1.00D+00 WtEn= 0.00D+00
 Coeff-Com: -0.331D-02 0.361D+00 0.274D+00 0.369D+00
 Coeff:     -0.331D-02 0.361D+00 0.274D+00 0.369D+00
 Gap=     0.140 Goal=   None    Shift=    0.000
 RMSDP=5.10D-07 MaxDP=3.43D-05 DE=-3.29D-06 OVMax= 1.10D-04

 Cycle  12  Pass 1  IDiag  1:
 RMSU=  1.90D-07    CP:  1.00D+00  1.01D+00  4.18D-01  4.14D-01
 E= -1810.68836886295     Delta-E=       -0.000000095144 Rises=F Damp=F
 DIIS: error= 1.44D-06 at cycle   5 NSaved=   5.
 NSaved= 5 IEnMin= 5 EnMin= -1810.68836886295     IErMin= 5 ErrMin= 1.44D-06
 ErrMax= 1.44D-06  0.00D+00 EMaxC= 1.00D-01 BMatC= 1.91D-09 BMatP= 8.65D-08
 IDIUse=1 WtCom= 1.00D+00 WtEn= 0.00D+00
 Coeff-Com: -0.203D-02 0.191D+00 0.146D+00 0.219D+00 0.446D+00
 Coeff:     -0.203D-02 0.191D+00 0.146D+00 0.219D+00 0.446D+00
 Gap=     0.140 Goal=   None    Shift=    0.000
 RMSDP=8.80D-08 MaxDP=4.84D-06 DE=-9.51D-08 OVMax= 1.67D-05

 Cycle  13  Pass 1  IDiag  1:
 RMSU=  6.39D-08    CP:  1.00D+00  1.01D+00  4.16D-01  4.47D-01  7.13D-01
 E= -1810.68836886506     Delta-E=       -0.000000002104 Rises=F Damp=F
 DIIS: error= 3.53D-07 at cycle   6 NSaved=   6.
 NSaved= 6 IEnMin= 6 EnMin= -1810.68836886506     IErMin= 6 ErrMin= 3.53D-07
 ErrMax= 3.53D-07  0.00D+00 EMaxC= 1.00D-01 BMatC= 1.18D-10 BMatP= 1.91D-09
 IDIUse=1 WtCom= 1.00D+00 WtEn= 0.00D+00
 Coeff-Com: -0.923D-03 0.828D-01 0.633D-01 0.985D-01 0.255D+00 0.501D+00
 Coeff:     -0.923D-03 0.828D-01 0.633D-01 0.985D-01 0.255D+00 0.501D+00
 Gap=     0.140 Goal=   None    Shift=    0.000
 RMSDP=1.99D-08 MaxDP=1.79D-06 DE=-2.10D-09 OVMax= 3.85D-06

 Cycle  14  Pass 1  IDiag  1:
 RMSU=  1.57D-08    CP:  1.00D+00  1.01D+00  4.16D-01  4.46D-01  7.40D-01
[...]
 Alpha  occ. eigenvalues --   -0.44500  -0.44259  -0.43828  -0.43622  -0.43190
 Alpha  occ. eigenvalues --   -0.42560  -0.42375  -0.41970  -0.41823  -0.41362
 Alpha  occ. eigenvalues --   -0.41232  -0.40888  -0.40423  -0.40129  -0.39790
 Alpha  occ. eigenvalues --   -0.39672  -0.39041  -0.38711  -0.38295  -0.38068
 Alpha  occ. eigenvalues --   -0.37579  -0.37045  -0.36785  -0.36601  -0.36299
 Alpha  occ. eigenvalues --   -0.36154  -0.35685  -0.35373  -0.35317  -0.34761
 Alpha  occ. eigenvalues --   -0.34363  -0.34185  -0.33859  -0.33788  -0.33512
 Alpha  occ. eigenvalues --   -0.33061  -0.32748  -0.32356  -0.32292  -0.32034
 Alpha  occ. eigenvalues --   -0.31874  -0.31466  -0.31116  -0.31056  -0.30455
 Alpha  occ. eigenvalues --   -0.28858  -0.28148  -0.25099  -0.25085  -0.24725
 Alpha  occ. eigenvalues --   -0.24415  -0.24266  -0.24074  -0.23554  -0.23233
 Alpha  occ. eigenvalues --   -0.20372  -0.19218
 Alpha virt. eigenvalues --   -0.05270  -0.04175  -0.02044   0.00454   0.00920
 Alpha virt. eigenvalues --    0.01967   0.02036   0.02360   0.03584   0.04809
 Alpha virt. eigenvalues --    0.08108   0.08458   0.09022   0.09474   0.09931
 Alpha virt. eigenvalues --    0.10153   0.10651   0.10761   0.10796   0.10980
 Alpha virt. eigenvalues --    0.11381   0.11962   0.12287   0.12576   0.12596
 Alpha virt. eigenvalues --    0.13032   0.13297   0.13865   0.14002   0.14609
 Alpha virt. eigenvalues --    0.14702   0.14847   0.14952   0.15307   0.15607
 Alpha virt. eigenvalues --    0.15817   0.15915   0.16643   0.16945   0.17095
 Alpha virt. eigenvalues --    0.17446   0.17627   0.17738   0.18177   0.18482
 Alpha virt. eigenvalues --    0.18891   0.18906   0.19133   0.19279   0.19378
 Alpha virt. eigenvalues --    0.19658   0.19836   0.20103   0.20282   0.20719
 Alpha virt. eigenvalues --    0.21314   0.21769   0.21847   0.22691   0.22838
 Alpha virt. eigenvalues --    0.23045   0.23379   0.23688   0.24065   0.24208
 Alpha virt. eigenvalues --    0.24635   0.25156   0.25372   0.25724   0.26269
 Alpha virt. eigenvalues --    0.26442   0.26629   0.26829   0.27654   0.28350
 Alpha virt. eigenvalues --    0.28830   0.29762   0.30026   0.30228   0.30383
 Alpha virt. eigenvalues --    0.31270   0.31433   0.31618   0.32076   0.32550
 Alpha virt. eigenvalues --    0.33461   0.34771   0.35077   0.36495   0.37190
 Alpha virt. eigenvalues --    0.37431   0.38165   0.38761   0.39117   0.39573
 Alpha virt. eigenvalues --    0.40599   0.42806   0.43140   0.46105   0.47297
 Alpha virt. eigenvalues --    0.47780   0.48118   0.49769   0.49991   0.50144
 Alpha virt. eigenvalues --    0.50194   0.50708   0.50885   0.51091   0.51537
 Alpha virt. eigenvalues --    0.51586   0.52125   0.52658   0.52739   0.52841
 Alpha virt. eigenvalues --    0.53124   0.53800   0.53839   0.54284   0.54596
 Alpha virt. eigenvalues --    0.54981   0.55298   0.55437   0.56124   0.56260
 Alpha virt. eigenvalues --    0.56277   0.56344   0.57146   0.57193   0.57371
 Alpha virt. eigenvalues --    0.57663   0.58545   0.58662   0.58823   0.59288
 Alpha virt. eigenvalues --    0.59355   0.59675   0.59785   0.59996   0.60021
 Alpha virt. eigenvalues --    0.60095   0.60292   0.60341   0.60661   0.60718
 Alpha virt. eigenvalues --    0.60922   0.61185   0.61593   0.61702   0.62256
 Alpha virt. eigenvalues --    0.62690   0.62981   0.63170   0.63464   0.63660
 Alpha virt. eigenvalues --    0.63763   0.63888   0.64122   0.64807   0.65151
 Alpha virt. eigenvalues --    0.65469   0.65697   0.65775   0.66034   0.66324
 Alpha virt. eigenvalues --    0.67113   0.68129   0.68335   0.68549   0.68901
 Alpha virt. eigenvalues --    0.68976   0.69158   0.69619   0.69745   0.69942
 Alpha virt. eigenvalues --    0.70617   0.71148   0.71762   0.72423   0.73434
 Alpha virt. eigenvalues --    0.73491   0.74165   0.74841   0.75838   0.76063
 Alpha virt. eigenvalues --    0.76942   0.77415   0.78818   0.79122   0.79506
 Alpha virt. eigenvalues --    0.80041   0.80181   0.80886   0.81452   0.81501
 Alpha virt. eigenvalues --    0.81850   0.81988   0.82181   0.82912   0.83466
 Alpha virt. eigenvalues --    0.83605   0.84517   0.84756   0.84922   0.85274
 Alpha virt. eigenvalues --    0.85413   0.85582   0.85984   0.86378   0.86553
 Alpha virt. eigenvalues --    0.86776   0.87124   0.87346   0.87497   0.87962
 Alpha virt. eigenvalues --    0.88214   0.88847   0.89031   0.89214   0.89227
 Alpha virt. eigenvalues --    0.89533   0.90079   0.90435   0.90560   0.90938
 Alpha virt. eigenvalues --    0.91085   0.92120   0.92528   0.92550   0.92765
 Alpha virt. eigenvalues --    0.92948   0.93180   0.93667   0.94118   0.94269
 Alpha virt. eigenvalues --    0.94783   0.94960   0.95231   0.95449   0.95924
 Alpha virt. eigenvalues --    0.96029   0.96545   0.96900   0.97190   0.97245
 Alpha virt. eigenvalues --    0.97571   0.97664   0.98228   0.98537   0.98880
 Alpha virt. eigenvalues --    0.99605   0.99755   1.00325   1.00733   1.01390
 Alpha virt. eigenvalues --    1.01967   1.02189   1.02768   1.02927   1.03878
 Alpha virt. eigenvalues --    1.04648   1.05027   1.05678   1.06408   1.07104
 Alpha virt. eigenvalues --    1.07841   1.09494   1.09970   1.11286   1.11467
 Alpha virt. eigenvalues --    1.12538   1.13108   1.13219   1.14692   1.15054
 Alpha virt. eigenvalues --    1.15647   1.16248   1.16471   1.16996   1.17696
 Alpha virt. eigenvalues --    1.18220   1.18730   1.20224   1.21126   1.21719
 Alpha virt. eigenvalues --    1.22351   1.22976   1.23563   1.23974   1.24585
 Alpha virt. eigenvalues --    1.26071   1.26497   1.26799   1.27130   1.27759
 Alpha virt. eigenvalues --    1.28663   1.29086   1.29655   1.30224   1.32310
 Alpha virt. eigenvalues --    1.32663   1.32981   1.34036   1.35649   1.36844
 Alpha virt. eigenvalues --    1.37589   1.38312   1.39934   1.40116   1.40557
 Alpha virt. eigenvalues --    1.40844   1.41448   1.41824   1.42045   1.43311
 Alpha virt. eigenvalues --    1.43885   1.44621   1.45877   1.46012   1.46427
 Alpha virt. eigenvalues --    1.46616   1.46695   1.46934   1.47234   1.47628
 Alpha virt. eigenvalues --    1.47920   1.48512   1.48783   1.49502   1.50235
 Alpha virt. eigenvalues --    1.50576   1.51371   1.51702   1.52342   1.52504
 Alpha virt. eigenvalues --    1.52885   1.53010   1.53296   1.55551   1.57838
 Alpha virt. eigenvalues --    1.59444   1.60360   1.60962   1.62711   1.63391
 Alpha virt. eigenvalues --    1.63595   1.65718   1.67836   1.68105   1.68488
 Alpha virt. eigenvalues --    1.68644   1.69762   1.70345   1.71372   1.72388
 Alpha virt. eigenvalues --    1.72756   1.73272   1.73640   1.74053   1.76983
 Alpha virt. eigenvalues --    1.77649   1.78259   1.78849   1.79452   1.79940
 Alpha virt. eigenvalues --    1.80218   1.80566   1.80678   1.81057   1.81393
 Alpha virt. eigenvalues --    1.82322   1.82423   1.83412   1.83660   1.83931
 Alpha virt. eigenvalues --    1.84829   1.85502   1.86004   1.86428   1.87131
 Alpha virt. eigenvalues --    1.87407   1.89079   1.90052   1.90231   1.90443
 Alpha virt. eigenvalues --    1.90686   1.91511   1.92247   1.92450   1.93570
 Alpha virt. eigenvalues --    1.93730   1.94251   1.94465   1.95334   1.95495
 Alpha virt. eigenvalues --    1.95955   1.96308   1.96552   1.96809   1.97085
 Alpha virt. eigenvalues --    1.97435   1.97508   1.98274   1.98905   1.99673
 Alpha virt. eigenvalues --    1.99898   2.00219   2.00482   2.01260   2.01687
 Alpha virt. eigenvalues --    2.01779   2.02777   2.03477   2.03825   2.05554
 Alpha virt. eigenvalues --    2.06853   2.07371   2.07685   2.08245   2.09496
 Alpha virt. eigenvalues --    2.09807   2.10626   2.11217   2.11342   2.12168
 Alpha virt. eigenvalues --    2.12937   2.13372   2.14145   2.14567   2.14926
 Alpha virt. eigenvalues --    2.15321   2.15397   2.16554   2.16577   2.17639
 Alpha virt. eigenvalues --    2.17921   2.18491   2.19128   2.19667   2.19881
 Alpha virt. eigenvalues --    2.22461   2.22938   2.23283   2.23762   2.24537
 Alpha virt. eigenvalues --    2.25219   2.25393   2.26209   2.26320   2.28112
 Alpha virt. eigenvalues --    2.28624   2.30100   2.30395   2.30996   2.31218
 Alpha virt. eigenvalues --    2.31717   2.31953   2.32203   2.32292   2.32369
 Alpha virt. eigenvalues --    2.34134   2.34747   2.35353   2.36733   2.37184
 Alpha virt. eigenvalues --    2.37612   2.37675   2.37890   2.39349   2.39523
 Alpha virt. eigenvalues --    2.40168   2.40415   2.40977   2.41729   2.42773
 Alpha virt. eigenvalues --    2.44367   2.44978   2.47362   2.47730   2.49249
 Alpha virt. eigenvalues --    2.49556   2.50039   2.51704   2.52264   2.52597
 Alpha virt. eigenvalues --    2.53684   2.54324   2.56315   2.57686   2.59275
 Alpha virt. eigenvalues --    2.59397   2.60445   2.61147   2.61483   2.62238
 Alpha virt. eigenvalues --    2.63085   2.63265   2.64117   2.64316   2.64790
 Alpha virt. eigenvalues --    2.66066   2.66491   2.66814   2.68309   2.68754
 Alpha virt. eigenvalues --    2.69715   2.70150   2.70881   2.72179   2.73006
 Alpha virt. eigenvalues --    2.73856   2.75598   2.75646   2.77581   2.78434
 Alpha virt. eigenvalues --    2.78469   2.78583   2.78615   2.79975   2.80381
 Alpha virt. eigenvalues --    2.80879   2.83488   2.84167   2.84609   2.88187
 Alpha virt. eigenvalues --    2.88346   2.88595   2.88793   2.89775   2.90772
 Alpha virt. eigenvalues --    2.91716   2.96627   2.97305   3.00081   3.02007
 Alpha virt. eigenvalues --    3.02306   3.04532   3.10102   3.15226   3.16445
 Alpha virt. eigenvalues --    3.26763   3.28547   3.34048   3.41347   3.47422
 Alpha virt. eigenvalues --    3.47848   3.55894   4.06642   4.07956   4.08063
 Alpha virt. eigenvalues --    4.08224   4.09382   4.10773   4.10929   4.12083
 Alpha virt. eigenvalues --    4.12192   4.12801   4.13320   4.13805   4.14235
 Alpha virt. eigenvalues --    4.16032   4.16061   4.18358   4.20090   4.21306
 Alpha virt. eigenvalues --    4.24304   4.27597   4.29302   4.31794   4.32481
 Alpha virt. eigenvalues --    4.34165   4.34735   4.35887   4.37265   4.37910
 Alpha virt. eigenvalues --    4.39175   4.40221   4.42309   4.46411   4.47170
 Alpha virt. eigenvalues --    4.50957   4.51535   4.52609   4.56977   4.57705
 Alpha virt. eigenvalues --    4.58393   4.62223   4.64875   4.78970   4.80200
 Alpha virt. eigenvalues --    4.90558
          Condensed to atoms (all electrons):
 Mulliken charges:
               1
     1  C   -0.345774
     2  C   -0.033913
     3  C   -0.300681
     4  C   -0.266091
     5  C   -0.248761
     6  C   -0.269245
     7  C   -0.282323
     8  C   -0.038152
     9  O   -0.525893
    10  C    0.387280
    11  C   -0.200237
    12  C   -0.194978
    13  C    0.091976
    14  C    0.261982
    15  C   -0.172155
    16  C   -0.165348
    17  C    0.158766
    18  C   -0.197028
    19  C   -0.197168
    20  C    0.159043
    21  C   -0.165458
    22  C   -0.172012
    23  C    0.262632
    24  C    0.091923
    25  C   -0.194118
    26  C   -0.204518
    27  C    0.389354
    28  O   -0.523989
    29  C   -0.029127
    30  C   -0.279176
    31  C   -0.267162
    32  C   -0.257618
    33  C   -0.264537
    34  C   -0.308095
    35  C   -0.037683
    36  C   -0.344108
    37  C   -0.182887
    38  C   -0.169214
    39  N   -0.574498
    40  C    0.222373
    41  C    0.222658
    42  N   -0.574388
    43  C   -0.168604
    44  C   -0.183070
    45  H    0.135911
    46  H    0.138714
    47  H    0.123644
    48  H    0.137964
    49  H    0.146039
    50  H    0.134248
    51  H    0.129516
    52  H    0.131769
    53  H    0.131309
    54  H    0.150959
    55  H    0.123950
    56  H    0.146489
    57  H    0.149111
    58  H    0.138761
    59  H    0.153728
    60  H    0.129837
    61  H    0.126239
    62  H    0.137151
    63  H    0.135907
    64  H    0.130313
    65  H    0.130325
    66  H    0.136041
    67  H    0.137297
    68  H    0.126862
    69  H    0.131325
    70  H    0.137193
    71  H    0.138434
    72  H    0.154742
    73  H    0.150275
    74  H    0.130340
    75  H    0.130484
    76  H    0.144977
    77  H    0.130564
    78  H    0.132588
    79  H    0.131863
    80  H    0.147644
    81  H    0.142279
    82  H    0.122054
    83  H    0.138054
    84  H    0.138057
    85  H    0.137367
    86  H    0.176274
    87  H    0.175607
    88  H    0.137818
 Sum of Mulliken charges =  -0.00000
 Mulliken charges with hydrogens summed into heavy atoms:
               1
     1  C   -0.071149
     2  C    0.089731
     3  C   -0.016678
     4  C   -0.002327
     5  C    0.014316
     6  C    0.005665
     7  C    0.013277
     8  C    0.254337
     9  O   -0.525893
    10  C    0.387280
    11  C   -0.070400
    12  C   -0.068739
    13  C    0.091976
    14  C    0.261982
    15  C   -0.035004
    16  C   -0.029442
    17  C    0.158766
    18  C   -0.066715
    19  C   -0.066843
    20  C    0.159043
    21  C   -0.029418
    22  C   -0.034715
    23  C    0.262632
    24  C    0.091923
    25  C   -0.067256
    26  C   -0.073193
    27  C    0.389354
    28  O   -0.523989
    29  C    0.246501
    30  C    0.025841
    31  C   -0.006338
    32  C    0.017924
    33  C   -0.000086
    34  C   -0.018172
    35  C    0.084370
    36  C   -0.067997
    37  C   -0.045520
    38  C    0.007060
    39  N   -0.574498
    40  C    0.222373
    41  C    0.222658
    42  N   -0.574388
    43  C    0.007003
    44  C   -0.045253
 Electronic spatial extent (au):  <R**2>=          58977.1620
 Charge=             -0.0000 electrons
 Dipole moment (field-independent basis, Debye):
    X=              0.3372    Y=              0.5402    Z=              0.8919  Tot=              1.0959
 Quadrupole moment (field-independent basis, Debye-Ang):
   XX=           -192.7708   YY=           -227.4852   ZZ=           -264.7061
   XY=              1.8539   XZ=             -0.7431   YZ=              1.0762
 Traceless Quadrupole moment (field-independent basis, Debye-Ang):
   XX=             35.5499   YY=              0.8355   ZZ=            -36.3854
   XY=              1.8539   XZ=             -0.7431   YZ=              1.0762
 Octapole moment (field-independent basis, Debye-Ang**2):
  XXX=            -26.4915  YYY=            208.4969  ZZZ=             -1.1613  XYY=            -43.5639
  XXY=            -38.9036  XXZ=             33.0764  XZZ=             10.1551  YZZ=            -50.2497
  YYZ=             27.5666  XYZ=             -8.4343
 Hexadecapole moment (field-independent basis, Debye-Ang**3):
 XXXX=         -47148.4501 YYYY=         -26831.8869 ZZZZ=          -1245.9649 XXXY=            485.3411
 XXXZ=            -61.9377 YYYX=            384.2651 YYYZ=            206.3454 ZZZX=             12.7174
 ZZZY=              0.5726 XXYY=         -12562.2839 XXZZ=          -8716.9777 YYZZ=          -5092.4353
 XXYZ=           -173.4368 YYXZ=            -90.0905 ZZXY=            -65.8414
 N-N= 4.392692315383D+03 E-N=-1.298429470021D+04  KE= 1.793238087819D+03
 No NMR shielding tensors so no spin-rotation constants.
 Leave Link  601 at Fri Nov  4 23:58:59 2022, MaxMem=   805306368 cpu:               2.3 elap:               0.4
 (Enter /home/wykgroup/appl/g16/l9999.exe)
 1\1\GINC-NODE43\FOpt\RB3LYP\6-31G(d)\C40H44N2O2\WYKGROUP\04-Nov-2022\0
 \\#p b3lyp/6-31g(d) opt SCF=XQC\\Gaussian input prepared by ASE\\0,1\C
 ,8.7121671187,-0.5608988777,-6.2230600355\C,9.440599914,-1.0015303415,
 -5.1954898668\C,9.4623805597,-2.4169472077,-4.6830443917\C,9.235845009
 2,-2.5891692372,-3.1644197304\C,7.8120311086,-2.3040151567,-2.65148803
 69\C,7.4498486661,-0.819767474,-2.4920352987\C,6.039963961,-0.61540595
 8,-1.9206067262\C,5.6812374703,0.8641753915,-1.7810366435\O,4.34398449
 81,1.0690862811,-1.3171165435\C,4.0605438723,0.9904701704,0.0142589886
 \C,4.9930026304,0.7459436671,1.0305401598\C,4.5743249475,0.7149887278,
 2.3613271164\C,3.2347913707,0.9174650373,2.7193910909\C,2.767212165,0.
 8885366919,4.1267490694\C,3.6695952952,0.9845599364,5.2214024357\C,3.1
 757934192,0.9509824249,6.5044586896\C,1.7853364629,0.8319524764,6.7249
 393066\C,1.2129015786,0.7945370841,8.0367448712\C,-0.13546168,0.688316
 496,8.2062995365\C,-1.0117279174,0.613299055,7.0764901872\C,-2.4133100
 582,0.4925631989,7.2070464133\C,-3.206375813,0.4217366947,6.085710154\
 C,-2.6000224208,0.481276816,4.8010993671\C,-3.3975810314,0.4115862174,
 3.5518572556\C,-4.7856575893,0.6003062183,3.5275615316\C,-5.516272099,
 0.5279799696,2.3403902549\C,-4.8554969645,0.2590989351,1.1358959569\O,
 -5.4635441796,0.1612650287,-0.0797493545\C,-6.8772578076,0.335713783,-
 0.1606292588\C,-7.2841963653,0.1673858005,-1.6187615842\C,-8.800664796
 8,0.3062043478,-1.8120724148\C,-9.2926170399,0.2977365943,-3.270977329
 7\C,-9.0665393413,-1.0145629628,-4.0525950617\C,-7.740687561,-1.104389
 2893,-4.8445077484\C,-7.6572776477,-0.1147986073,-5.9754875638\C,-6.70
 94131759,0.8116308646,-6.1272296419\C,-3.4630387332,0.0740467917,1.141
 4640718\C,-2.7509768997,0.1530033138,2.326165161\N,-1.2789652282,0.585
 9413802,4.6618541532\C,-0.4901721525,0.6483380167,5.7514153197\C,0.955
 1927561,0.7590406973,5.5696939792\N,1.4525316333,0.785138503,4.3185928
 816\C,2.3099418751,1.1473701066,1.6812217796\C,2.7122213763,1.18739008
 83,0.3568858601\H,8.0367987561,-1.2180044277,-6.7678247522\H,8.7646227
 209,0.4699563639,-6.5634608014\H,10.1061214506,-0.3034952996,-4.682788
 4809\H,8.7270462314,-3.0188057835,-5.2342143517\H,10.4486436933,-2.847
 7819195,-4.9164382404\H,9.4886358872,-3.6280145029,-2.9150606648\H,9.9
 561866841,-1.9651232477,-2.6148501385\H,7.0841974143,-2.7868714577,-3.
 3201230574\H,7.6926256321,-2.7941724441,-1.6748024677\H,7.5319472166,-
 0.3109060883,-3.459667634\H,8.1868325356,-0.3420075941,-1.828445905\H,
 5.9548791312,-1.1108848536,-0.9449474407\H,5.2958531191,-1.0874383063,
 -2.5752879672\H,6.3940495639,1.3930732987,-1.1341703865\H,5.7065437594
 ,1.3508015131,-2.7612048805\H,6.0377713414,0.5684893277,0.8034448966\H
 ,5.3192734391,0.5007157022,3.1219013641\H,4.7339500593,1.1050579304,5.
 0526165581\H,3.8463932285,1.0262911122,7.3577155081\H,1.8771561476,0.8
 530688384,8.8958481683\H,-0.5686565459,0.6583842912,9.2033684633\H,-2.
 8541813887,0.4458077677,8.2004523025\H,-4.2791634218,0.3004856323,6.18
 68642412\H,-5.3244074298,0.8323239942,4.4414141214\H,-6.5878230448,0.6
 887226198,2.3664102\H,-7.3829429834,-0.4077612987,0.4734967083\H,-7.15
 32553317,1.3347863672,0.2079553849\H,-6.9368744535,-0.8152533014,-1.95
 803748\H,-6.7544191833,0.9174504584,-2.2200329338\H,-9.1306585373,1.24
 73609289,-1.3483937326\H,-9.309912895,-0.4975230078,-1.2594952344\H,-8
 .8336678941,1.1314488521,-3.8193054936\H,-10.3694896027,0.5095983886,-
 3.2488799046\H,-9.8900342469,-1.1478965921,-4.7675655781\H,-9.12935541
 09,-1.8689116867,-3.3640692362\H,-6.8794773887,-0.9738102127,-4.179779
 139\H,-7.6646312733,-2.1220566531,-5.2567256685\H,-8.454538202,-0.1805
 473398,-6.7193952093\H,-5.8941341177,0.9169638202,-5.4138264559\H,-6.7
 044287771,1.4945452382,-6.9728210894\H,-2.9653601388,-0.1323693038,0.1
 988222659\H,-1.6752636292,0.016117258,2.3331153301\H,1.2686132555,1.29
 5149608,1.9454580037\H,2.0003414442,1.3754533158,-0.4410205519\\Versio
 n=ES64L-G16RevB.01\State=1-A\HF=-1810.6983878\RMSD=6.992e-09\RMSF=6.03
 1e-07\Dipole=0.1310426,-0.327261,0.2482761\Quadrupole=26.4407509,-26.7
 332676,0.2925167,-1.8729725,-0.1353589,2.785546\PG=C01 [X(C40H44N2O2)]
 \\@


 WE SHOULD BE CAREFUL TO GET OUT OF AN EXPERIENCE ONLY THE WISDOM
 THAT IS IN IT -- AND STOP THERE;
 LEST WE BE LIKE THE CAT THAT SITS DOWN ON A HOT STOVE-LID.
 SHE WILL NEVER SIT DOWN ON A HOT STOVE LID AGAIN;
 BUT ALSO SHE WILL NEVER SIT DOWN ON A COLD ONE ANY MORE.

                                                     -- MARK TWAIN
 Job cpu time:       0 days  8 hours 45 minutes 49.6 seconds.
 Elapsed time:       0 days  1 hours 18 minutes 12.5 seconds.
 File lengths (MBytes):  RWF=    351 Int=      0 D2E=      0 Chk=     46 Scr=      1
 Normal termination of Gaussian 16 at Fri Nov  4 23:58:59 2022.
