 Entering Gaussian System, Link 0=/home/wykgroup/appl/g16/g16
 Input=./calculation/no_transfer_pubchem_sampling_7_b3lyp/87478976.com
 Output=./calculation/no_transfer_pubchem_sampling_7_b3lyp/87478976.log
 Initial command:
 /home/wykgroup/appl/g16/l1.exe "/userdata/scratch/wykgroup/khs/./calculation/no_transfer_pubchem_sampling_7_b3lyp/87478976/Gau-19105.inp" -scrdir="/userdata/scratch/wykgroup/khs/./calculation/no_transfer_pubchem_sampling_7_b3lyp/87478976/"
 Entering Link 1 = /home/wykgroup/appl/g16/l1.exe PID=     19106.
  
 Copyright (c) 1988-2017, Gaussian, Inc.  All Rights Reserved.
  
 This is part of the Gaussian(R) 16 program.  It is based on
 the Gaussian(R) 09 system (copyright 2009, Gaussian, Inc.),
 the Gaussian(R) 03 system (copyright 2003, Gaussian, Inc.),
 the Gaussian(R) 98 system (copyright 1998, Gaussian, Inc.),
 the Gaussian(R) 94 system (copyright 1995, Gaussian, Inc.),
 the Gaussian 92(TM) system (copyright 1992, Gaussian, Inc.),
 the Gaussian 90(TM) system (copyright 1990, Gaussian, Inc.),
 the Gaussian 88(TM) system (copyright 1988, Gaussian, Inc.),
 the Gaussian 86(TM) system (copyright 1986, Carnegie Mellon
 University), and the Gaussian 82(TM) system (copyright 1983,
 Carnegie Mellon University). Gaussian is a federally registered
 trademark of Gaussian, Inc.
  
 This software contains proprietary and confidential information,
 including trade secrets, belonging to Gaussian, Inc.
  
 This software is provided under written license and may be
 used, copied, transmitted, or stored only in accord with that
 written license.
  
 The following legend is applicable only to US Government
 contracts under FAR:
  
                    RESTRICTED RIGHTS LEGEND
  
 Use, reproduction and disclosure by the US Government is
 subject to restrictions as set forth in subparagraphs (a)
 and (c) of the Commercial Computer Software - Restricted
 Rights clause in FAR 52.227-19.
  
 Gaussian, Inc.
 340 Quinnipiac St., Bldg. 40, Wallingford CT 06492
  
  
 ---------------------------------------------------------------
 Warning -- This program may not be used in any manner that
 competes with the business of Gaussian, Inc. or will provide
 assistance to any competitor of Gaussian, Inc.  The licensee
 of this program is prohibited from giving any competitor of
 Gaussian, Inc. access to this program.  By using this program,
 the user acknowledges that Gaussian, Inc. is engaged in the
 business of creating and licensing software in the field of
 computational chemistry and represents and warrants to the
 licensee that it is not a competitor of Gaussian, Inc. and that
 it will not use this program in any manner prohibited above.
 ---------------------------------------------------------------
  

 Cite this work as:
 Gaussian 16, Revision B.01,
 M. J. Frisch, G. W. Trucks, H. B. Schlegel, G. E. Scuseria, 
 M. A. Robb, J. R. Cheeseman, G. Scalmani, V. Barone, 
 G. A. Petersson, H. Nakatsuji, X. Li, M. Caricato, A. V. Marenich, 
 J. Bloino, B. G. Janesko, R. Gomperts, B. Mennucci, H. P. Hratchian, 
 J. V. Ortiz, A. F. Izmaylov, J. L. Sonnenberg, D. Williams-Young, 
 F. Ding, F. Lipparini, F. Egidi, J. Goings, B. Peng, A. Petrone, 
 T. Henderson, D. Ranasinghe, V. G. Zakrzewski, J. Gao, N. Rega, 
 G. Zheng, W. Liang, M. Hada, M. Ehara, K. Toyota, R. Fukuda, 
 J. Hasegawa, M. Ishida, T. Nakajima, Y. Honda, O. Kitao, H. Nakai, 
 T. Vreven, K. Throssell, J. A. Montgomery, Jr., J. E. Peralta, 
 F. Ogliaro, M. J. Bearpark, J. J. Heyd, E. N. Brothers, K. N. Kudin, 
 V. N. Staroverov, T. A. Keith, R. Kobayashi, J. Normand, 
 K. Raghavachari, A. P. Rendell, J. C. Burant, S. S. Iyengar, 
 J. Tomasi, M. Cossi, J. M. Millam, M. Klene, C. Adamo, R. Cammi, 
 J. W. Ochterski, R. L. Martin, K. Morokuma, O. Farkas, 
 J. B. Foresman, and D. J. Fox, Gaussian, Inc., Wallingford CT, 2016.
 
 ******************************************
 Gaussian 16:  ES64L-G16RevB.01 20-Dec-2017
                 4-Nov-2022 
 ******************************************
 %chk=./calculation/no_transfer_pubchem_sampling_7_b3lyp/87478976.chk
 %nprocshared=7
 Will use up to    7 processors via shared memory.
 %mem=6GB
 -----------------------------
 #p b3lyp/6-31g(d) opt SCF=XQC
 -----------------------------
 1/18=20,19=15,26=3,38=1/1,3;
 2/9=110,12=2,17=6,18=5,40=1/2;
 3/5=1,6=6,7=1,11=2,25=1,30=1,71=1,74=-5/1,2,3;
 4//1;
 5/5=2,8=3,13=1,38=5/2,8;
 6/7=2,8=2,9=2,10=2,28=1/1;
 7//1,2,3,16;
 1/18=20,19=15,26=3/3(2);
 2/9=110/2;
 99//99;
 2/9=110/2;
 3/5=1,6=6,7=1,11=2,25=1,30=1,71=1,74=-5/1,2,3;
 4/5=5,16=3,69=1/1;
 5/5=2,8=3,13=1,38=5/2,8;
 7//1,2,3,16;
 1/18=20,19=15,26=3/3(-5);
 2/9=110/2;
 6/7=2,8=2,9=2,10=2,19=2,28=1/1;
 99/9=1/99;
 Leave Link    1 at Fri Nov  4 22:49:41 2022, MaxMem=   805306368 cpu:               0.8 elap:               0.2
 (Enter /home/wykgroup/appl/g16/l101.exe)
 ------------------------------
 Gaussian input prepared by ASE
 ------------------------------
 Symbolic Z-matrix:
 Charge =  0 Multiplicity = 1
 C                    -1.10353  -2.34835   2.88243 
 C                    -1.18434  -2.50222   1.3969 
 C                    -1.1246   -3.69301   0.77963 
 C                    -1.31976  -3.53071  -0.64119 
 C                    -1.51534  -2.23778  -0.90858 
 C                    -1.40021  -1.40913   0.35438 
 C                    -0.14982  -0.5531    0.16041 
 C                     0.90428  -0.57412   1.07184 
 C                     2.04406   0.19464   0.90142 
 C                     2.14973   1.004    -0.21482 
 C                     1.11822   1.00264  -1.1637 
 C                    -0.00702   0.22955  -0.98924 
 C                     1.46249   1.91596  -2.30568 
 C                     2.80551   2.45174  -1.8996 
 C                     3.62215   3.34662  -2.55731 
 C                     4.83488   3.69473  -1.97773 
 C                     5.22141   3.15451  -0.76044 
 C                     4.40697   2.25466  -0.09308 
 C                     3.19565   1.90425  -0.66711 
 C                    -2.69237  -0.56429   0.63523 
 C                    -3.06121   0.35967  -0.53175 
 C                    -2.52097   0.32817   1.86971 
 C                    -3.86765  -1.52521   0.84861 
 H                    -0.77033  -1.36389   3.19424 
 H                    -2.08161  -2.52881   3.33422 
 H                    -0.42221  -3.09631   3.288 
 H                    -0.96589  -4.64404   1.25825 
 H                    -1.31158  -4.3421   -1.34765 
 H                    -1.66801  -1.81123  -1.88114 
 H                     0.86099  -1.2182    1.93169 
 H                     2.83813   0.1514    1.63235 
 H                    -0.75862   0.22913  -1.76062 
 H                     0.72659   2.71542  -2.42426 
 H                     1.51383   1.37534  -3.25418 
 H                     3.32754   3.77133  -3.50652 
 H                     5.48541   4.39491  -2.48133 
 H                     6.16984   3.44016  -0.32887 
 H                     4.71009   1.83528   0.85488 
 H                    -3.12526  -0.17946  -1.47225 
 H                    -4.03963   0.7967   -0.33772 
 H                    -2.34953   1.17488  -0.62597 
 H                    -2.59104  -0.23989   2.79026 
 H                    -3.30968   1.07822   1.88754 
 H                    -1.56364   0.84475   1.84169 
 H                    -3.69128  -2.19401   1.6854 
 H                    -4.0264   -2.13184  -0.04004 
 H                    -4.77627  -0.96096   1.04936 
 
 ITRead=  0  0  0  0  0  0  0  0  0  0  0  0  0  0  0  0  0  0  0  0
 ITRead=  0  0  0  0  0  0  0  0  0  0  0  0  0  0  0  0  0  0  0  0
 ITRead=  0  0  0  0  0  0  0
 MicOpt= -1 -1 -1 -1 -1 -1 -1 -1 -1 -1 -1 -1 -1 -1 -1 -1 -1 -1 -1 -1
 MicOpt= -1 -1 -1 -1 -1 -1 -1 -1 -1 -1 -1 -1 -1 -1 -1 -1 -1 -1 -1 -1
 MicOpt= -1 -1 -1 -1 -1 -1 -1
 NAtoms=     47 NQM=       47 NQMF=       0 NMMI=      0 NMMIF=      0
                NMic=       0 NMicF=      0.
                    Isotopes and Nuclear Properties:
 (Nuclear quadrupole moments (NQMom) in fm**2, nuclear magnetic moments (NMagM)
  in nuclear magnetons)

  Atom         1           2           3           4           5           6           7           8           9          10
 IAtWgt=          12          12          12          12          12          12          12          12          12          12
 AtmWgt=  12.0000000  12.0000000  12.0000000  12.0000000  12.0000000  12.0000000  12.0000000  12.0000000  12.0000000  12.0000000
 NucSpn=           0           0           0           0           0           0           0           0           0           0
 AtZEff=  -0.0000000  -0.0000000  -0.0000000  -0.0000000  -0.0000000  -0.0000000  -0.0000000  -0.0000000  -0.0000000  -0.0000000
 NQMom=    0.0000000   0.0000000   0.0000000   0.0000000   0.0000000   0.0000000   0.0000000   0.0000000   0.0000000   0.0000000
 NMagM=    0.0000000   0.0000000   0.0000000   0.0000000   0.0000000   0.0000000   0.0000000   0.0000000   0.0000000   0.0000000
 AtZNuc=   6.0000000   6.0000000   6.0000000   6.0000000   6.0000000   6.0000000   6.0000000   6.0000000   6.0000000   6.0000000

  Atom        11          12          13          14          15          16          17          18          19          20
 IAtWgt=          12          12          12          12          12          12          12          12          12          12
 AtmWgt=  12.0000000  12.0000000  12.0000000  12.0000000  12.0000000  12.0000000  12.0000000  12.0000000  12.0000000  12.0000000
 NucSpn=           0           0           0           0           0           0           0           0           0           0
 AtZEff=  -0.0000000  -0.0000000  -0.0000000  -0.0000000  -0.0000000  -0.0000000  -0.0000000  -0.0000000  -0.0000000  -0.0000000
 NQMom=    0.0000000   0.0000000   0.0000000   0.0000000   0.0000000   0.0000000   0.0000000   0.0000000   0.0000000   0.0000000
 NMagM=    0.0000000   0.0000000   0.0000000   0.0000000   0.0000000   0.0000000   0.0000000   0.0000000   0.0000000   0.0000000
 AtZNuc=   6.0000000   6.0000000   6.0000000   6.0000000   6.0000000   6.0000000   6.0000000   6.0000000   6.0000000   6.0000000

  Atom        21          22          23          24          25          26          27          28          29          30
 IAtWgt=          12          12          12           1           1           1           1           1           1           1
 AtmWgt=  12.0000000  12.0000000  12.0000000   1.0078250   1.0078250   1.0078250   1.0078250   1.0078250   1.0078250   1.0078250
 NucSpn=           0           0           0           1           1           1           1           1           1           1
 AtZEff=  -0.0000000  -0.0000000  -0.0000000  -0.0000000  -0.0000000  -0.0000000  -0.0000000  -0.0000000  -0.0000000  -0.0000000
 NQMom=    0.0000000   0.0000000   0.0000000   0.0000000   0.0000000   0.0000000   0.0000000   0.0000000   0.0000000   0.0000000
 NMagM=    0.0000000   0.0000000   0.0000000   2.7928460   2.7928460   2.7928460   2.7928460   2.7928460   2.7928460   2.7928460
 AtZNuc=   6.0000000   6.0000000   6.0000000   1.0000000   1.0000000   1.0000000   1.0000000   1.0000000   1.0000000   1.0000000

  Atom        31          32          33          34          35          36          37          38          39          40
 IAtWgt=           1           1           1           1           1           1           1           1           1           1
 AtmWgt=   1.0078250   1.0078250   1.0078250   1.0078250   1.0078250   1.0078250   1.0078250   1.0078250   1.0078250   1.0078250
 NucSpn=           1           1           1           1           1           1           1           1           1           1
 AtZEff=  -0.0000000  -0.0000000  -0.0000000  -0.0000000  -0.0000000  -0.0000000  -0.0000000  -0.0000000  -0.0000000  -0.0000000
 NQMom=    0.0000000   0.0000000   0.0000000   0.0000000   0.0000000   0.0000000   0.0000000   0.0000000   0.0000000   0.0000000
 NMagM=    2.7928460   2.7928460   2.7928460   2.7928460   2.7928460   2.7928460   2.7928460   2.7928460   2.7928460   2.7928460
 AtZNuc=   1.0000000   1.0000000   1.0000000   1.0000000   1.0000000   1.0000000   1.0000000   1.0000000   1.0000000   1.0000000

  Atom        41          42          43          44          45          46          47
 IAtWgt=           1           1           1           1           1           1           1
 AtmWgt=   1.0078250   1.0078250   1.0078250   1.0078250   1.0078250   1.0078250   1.0078250
 NucSpn=           1           1           1           1           1           1           1
 AtZEff=  -0.0000000  -0.0000000  -0.0000000  -0.0000000  -0.0000000  -0.0000000  -0.0000000
 NQMom=    0.0000000   0.0000000   0.0000000   0.0000000   0.0000000   0.0000000   0.0000000
 NMagM=    2.7928460   2.7928460   2.7928460   2.7928460   2.7928460   2.7928460   2.7928460
 AtZNuc=   1.0000000   1.0000000   1.0000000   1.0000000   1.0000000   1.0000000   1.0000000
 Leave Link  101 at Fri Nov  4 22:49:41 2022, MaxMem=   805306368 cpu:               2.4 elap:               0.4
 (Enter /home/wykgroup/appl/g16/l103.exe)

 GradGradGradGradGradGradGradGradGradGradGradGradGradGradGradGradGradGrad
 Berny optimization.
 Initialization pass.
                           ----------------------------
                           !    Initial Parameters    !
                           ! (Angstroms and Degrees)  !
 --------------------------                            --------------------------
 ! Name  Definition              Value          Derivative Info.                !
 --------------------------------------------------------------------------------
 ! R1    R(1,2)                  1.4957         estimate D2E/DX2                !
 ! R2    R(1,24)                 1.0851         estimate D2E/DX2                !
 ! R3    R(1,25)                 1.0924         estimate D2E/DX2                !
 ! R4    R(1,26)                 1.09           estimate D2E/DX2                !
 ! R5    R(2,3)                  1.3426         estimate D2E/DX2                !
 ! R6    R(2,6)                  1.5259         estimate D2E/DX2                !
 ! R7    R(3,4)                  1.4433         estimate D2E/DX2                !
 ! R8    R(3,27)                 1.0764         estimate D2E/DX2                !
 ! R9    R(4,5)                  1.3347         estimate D2E/DX2                !
 ! R10   R(4,28)                 1.0759         estimate D2E/DX2                !
 ! R11   R(5,6)                  1.5149         estimate D2E/DX2                !
 ! R12   R(5,29)                 1.0729         estimate D2E/DX2                !
 ! R13   R(6,7)                  1.5277         estimate D2E/DX2                !
 ! R14   R(6,20)                 1.5692         estimate D2E/DX2                !
 ! R15   R(7,8)                  1.3937         estimate D2E/DX2                !
 ! R16   R(7,12)                 1.3981         estimate D2E/DX2                !
 ! R17   R(8,9)                  1.3853         estimate D2E/DX2                !
 ! R18   R(8,30)                 1.0752         estimate D2E/DX2                !
 ! R19   R(9,10)                 1.3828         estimate D2E/DX2                !
 ! R20   R(9,31)                 1.0801         estimate D2E/DX2                !
 ! R21   R(10,11)                1.4016         estimate D2E/DX2                !
 ! R22   R(10,19)                1.4522         estimate D2E/DX2                !
 ! R23   R(11,12)                1.3763         estimate D2E/DX2                !
 ! R24   R(11,13)                1.5023         estimate D2E/DX2                !
 ! R25   R(12,32)                1.077          estimate D2E/DX2                !
 ! R26   R(13,14)                1.5019         estimate D2E/DX2                !
 ! R27   R(13,33)                1.093          estimate D2E/DX2                !
 ! R28   R(13,34)                1.093          estimate D2E/DX2                !
 ! R29   R(14,15)                1.3785         estimate D2E/DX2                !
 ! R30   R(14,19)                1.4039         estimate D2E/DX2                !
 ! R31   R(15,16)                1.3885         estimate D2E/DX2                !
 ! R32   R(15,35)                1.0808         estimate D2E/DX2                !
 ! R33   R(16,17)                1.3867         estimate D2E/DX2                !
 ! R34   R(16,36)                1.0803         estimate D2E/DX2                !
 ! R35   R(17,18)                1.3851         estimate D2E/DX2                !
 ! R36   R(17,37)                1.0805         estimate D2E/DX2                !
 ! R37   R(18,19)                1.3855         estimate D2E/DX2                !
 ! R38   R(18,38)                1.08           estimate D2E/DX2                !
 ! R39   R(20,21)                1.5335         estimate D2E/DX2                !
 ! R40   R(20,22)                1.5329         estimate D2E/DX2                !
 ! R41   R(20,23)                1.533          estimate D2E/DX2                !
 ! R42   R(21,39)                1.086          estimate D2E/DX2                !
 ! R43   R(21,40)                1.089          estimate D2E/DX2                !
 ! R44   R(21,41)                1.0863         estimate D2E/DX2                !
 ! R45   R(22,42)                1.084          estimate D2E/DX2                !
 ! R46   R(22,43)                1.0886         estimate D2E/DX2                !
 ! R47   R(22,44)                1.0882         estimate D2E/DX2                !
 ! R48   R(23,45)                1.0856         estimate D2E/DX2                !
 ! R49   R(23,46)                1.0876         estimate D2E/DX2                !
 ! R50   R(23,47)                1.0882         estimate D2E/DX2                !
 ! A1    A(2,1,24)             113.287          estimate D2E/DX2                !
 ! A2    A(2,1,25)             110.2068         estimate D2E/DX2                !
 ! A3    A(2,1,26)             109.4346         estimate D2E/DX2                !
 ! A4    A(24,1,25)            107.8174         estimate D2E/DX2                !
 ! A5    A(24,1,26)            108.8866         estimate D2E/DX2                !
 ! A6    A(25,1,26)            107.002          estimate D2E/DX2                !
 ! A7    A(1,2,3)              123.058          estimate D2E/DX2                !
 ! A8    A(1,2,6)              127.7735         estimate D2E/DX2                !
 ! A9    A(3,2,6)              109.1198         estimate D2E/DX2                !
 ! A10   A(2,3,4)              110.2944         estimate D2E/DX2                !
 ! A11   A(2,3,27)             125.8549         estimate D2E/DX2                !
 ! A12   A(4,3,27)             123.8475         estimate D2E/DX2                !
 ! A13   A(3,4,5)              109.0232         estimate D2E/DX2                !
 ! A14   A(3,4,28)             124.0954         estimate D2E/DX2                !
 ! A15   A(5,4,28)             126.8797         estimate D2E/DX2                !
 ! A16   A(4,5,6)              110.5928         estimate D2E/DX2                !
 ! A17   A(4,5,29)             125.9843         estimate D2E/DX2                !
 ! A18   A(6,5,29)             123.303          estimate D2E/DX2                !
 ! A19   A(2,6,5)              100.8652         estimate D2E/DX2                !
 ! A20   A(2,6,7)              111.8616         estimate D2E/DX2                !
 ! A21   A(2,6,20)             112.3278         estimate D2E/DX2                !
 ! A22   A(5,6,7)              105.2395         estimate D2E/DX2                !
 ! A23   A(5,6,20)             112.4033         estimate D2E/DX2                !
 ! A24   A(7,6,20)             113.2677         estimate D2E/DX2                !
 ! A25   A(6,7,8)              121.8418         estimate D2E/DX2                !
 ! A26   A(6,7,12)             120.1115         estimate D2E/DX2                !
 ! A27   A(8,7,12)             117.967          estimate D2E/DX2                !
 ! A28   A(7,8,9)              122.2403         estimate D2E/DX2                !
 ! A29   A(7,8,30)             120.1045         estimate D2E/DX2                !
 ! A30   A(9,8,30)             117.641          estimate D2E/DX2                !
 ! A31   A(8,9,10)             119.1416         estimate D2E/DX2                !
 ! A32   A(8,9,31)             119.9599         estimate D2E/DX2                !
 ! A33   A(10,9,31)            120.8972         estimate D2E/DX2                !
 ! A34   A(9,10,11)            119.3202         estimate D2E/DX2                !
 ! A35   A(9,10,19)            132.0106         estimate D2E/DX2                !
 ! A36   A(11,10,19)           108.6509         estimate D2E/DX2                !
 ! A37   A(10,11,12)           121.0933         estimate D2E/DX2                !
 ! A38   A(10,11,13)           110.2061         estimate D2E/DX2                !
 ! A39   A(12,11,13)           128.698          estimate D2E/DX2                !
 ! A40   A(7,12,11)            120.1447         estimate D2E/DX2                !
 ! A41   A(7,12,32)            121.162          estimate D2E/DX2                !
 ! A42   A(11,12,32)           118.6845         estimate D2E/DX2                !
 ! A43   A(11,13,14)           102.4907         estimate D2E/DX2                !
 ! A44   A(11,13,33)           111.8914         estimate D2E/DX2                !
 ! A45   A(11,13,34)           111.6997         estimate D2E/DX2                !
 ! A46   A(14,13,33)           111.744          estimate D2E/DX2                !
 ! A47   A(14,13,34)           111.6598         estimate D2E/DX2                !
 ! A48   A(33,13,34)           107.4125         estimate D2E/DX2                !
 ! A49   A(13,14,15)           129.2219         estimate D2E/DX2                !
 ! A50   A(13,14,19)           110.288          estimate D2E/DX2                !
 ! A51   A(15,14,19)           120.4901         estimate D2E/DX2                !
 ! A52   A(14,15,16)           118.7522         estimate D2E/DX2                !
 ! A53   A(14,15,35)           120.8392         estimate D2E/DX2                !
 ! A54   A(16,15,35)           120.4086         estimate D2E/DX2                !
 ! A55   A(15,16,17)           120.8113         estimate D2E/DX2                !
 ! A56   A(15,16,36)           119.595          estimate D2E/DX2                !
 ! A57   A(17,16,36)           119.5937         estimate D2E/DX2                !
 ! A58   A(16,17,18)           120.8068         estimate D2E/DX2                !
 ! A59   A(16,17,37)           119.4929         estimate D2E/DX2                !
 ! A60   A(18,17,37)           119.7003         estimate D2E/DX2                !
 ! A61   A(17,18,19)           118.6054         estimate D2E/DX2                !
 ! A62   A(17,18,38)           120.6747         estimate D2E/DX2                !
 ! A63   A(19,18,38)           120.72           estimate D2E/DX2                !
 ! A64   A(10,19,14)           108.3623         estimate D2E/DX2                !
 ! A65   A(10,19,18)           131.1035         estimate D2E/DX2                !
 ! A66   A(14,19,18)           120.5343         estimate D2E/DX2                !
 ! A67   A(6,20,21)            112.7218         estimate D2E/DX2                !
 ! A68   A(6,20,22)            111.4389         estimate D2E/DX2                !
 ! A69   A(6,20,23)            108.5866         estimate D2E/DX2                !
 ! A70   A(21,20,22)           106.7955         estimate D2E/DX2                !
 ! A71   A(21,20,23)           107.4093         estimate D2E/DX2                !
 ! A72   A(22,20,23)           109.7891         estimate D2E/DX2                !
 ! A73   A(20,21,39)           111.9704         estimate D2E/DX2                !
 ! A74   A(20,21,40)           108.8023         estimate D2E/DX2                !
 ! A75   A(20,21,41)           111.1371         estimate D2E/DX2                !
 ! A76   A(39,21,40)           107.4913         estimate D2E/DX2                !
 ! A77   A(39,21,41)           109.6397         estimate D2E/DX2                !
 ! A78   A(40,21,41)           107.6324         estimate D2E/DX2                !
 ! A79   A(20,22,42)           111.8129         estimate D2E/DX2                !
 ! A80   A(20,22,43)           109.4703         estimate D2E/DX2                !
 ! A81   A(20,22,44)           110.7334         estimate D2E/DX2                !
 ! A82   A(42,22,43)           107.4783         estimate D2E/DX2                !
 ! A83   A(42,22,44)           109.1181         estimate D2E/DX2                !
 ! A84   A(43,22,44)           108.1044         estimate D2E/DX2                !
 ! A85   A(20,23,45)           111.6466         estimate D2E/DX2                !
 ! A86   A(20,23,46)           110.352          estimate D2E/DX2                !
 ! A87   A(20,23,47)           109.9243         estimate D2E/DX2                !
 ! A88   A(45,23,46)           108.0522         estimate D2E/DX2                !
 ! A89   A(45,23,47)           108.2319         estimate D2E/DX2                !
 ! A90   A(46,23,47)           108.5454         estimate D2E/DX2                !
 ! D1    D(24,1,2,3)           156.7788         estimate D2E/DX2                !
 ! D2    D(24,1,2,6)           -26.0429         estimate D2E/DX2                !
 ! D3    D(25,1,2,3)           -82.3317         estimate D2E/DX2                !
 ! D4    D(25,1,2,6)            94.8466         estimate D2E/DX2                !
 ! D5    D(26,1,2,3)            35.0731         estimate D2E/DX2                !
 ! D6    D(26,1,2,6)          -147.7486         estimate D2E/DX2                !
 ! D7    D(1,2,3,4)            176.1138         estimate D2E/DX2                !
 ! D8    D(1,2,3,27)            -3.2553         estimate D2E/DX2                !
 ! D9    D(6,2,3,4)             -1.5259         estimate D2E/DX2                !
 ! D10   D(6,2,3,27)           179.105          estimate D2E/DX2                !
 ! D11   D(1,2,6,5)           -174.7013         estimate D2E/DX2                !
 ! D12   D(1,2,6,7)             73.8664         estimate D2E/DX2                !
 ! D13   D(1,2,6,20)           -54.8096         estimate D2E/DX2                !
 ! D14   D(3,2,6,5)              2.7959         estimate D2E/DX2                !
 ! D15   D(3,2,6,7)           -108.6364         estimate D2E/DX2                !
 ! D16   D(3,2,6,20)           122.6876         estimate D2E/DX2                !
 ! D17   D(2,3,4,5)             -0.6361         estimate D2E/DX2                !
 ! D18   D(2,3,4,28)           179.8099         estimate D2E/DX2                !
 ! D19   D(27,3,4,5)           178.7482         estimate D2E/DX2                !
 ! D20   D(27,3,4,28)           -0.8057         estimate D2E/DX2                !
 ! D21   D(3,4,5,6)              2.5511         estimate D2E/DX2                !
 ! D22   D(3,4,5,29)           178.6599         estimate D2E/DX2                !
 ! D23   D(28,4,5,6)          -177.9107         estimate D2E/DX2                !
 ! D24   D(28,4,5,29)           -1.8019         estimate D2E/DX2                !
 ! D25   D(4,5,6,2)             -3.2376         estimate D2E/DX2                !
 ! D26   D(4,5,6,7)            113.2031         estimate D2E/DX2                !
 ! D27   D(4,5,6,20)          -123.0753         estimate D2E/DX2                !
 ! D28   D(29,5,6,2)          -179.4704         estimate D2E/DX2                !
 ! D29   D(29,5,6,7)           -63.0297         estimate D2E/DX2                !
 ! D30   D(29,5,6,20)           60.6919         estimate D2E/DX2                !
 ! D31   D(2,6,7,8)            -15.1328         estimate D2E/DX2                !
 ! D32   D(2,6,7,12)           161.5529         estimate D2E/DX2                !
 ! D33   D(5,6,7,8)           -123.7844         estimate D2E/DX2                !
 ! D34   D(5,6,7,12)            52.9013         estimate D2E/DX2                !
 ! D35   D(20,6,7,8)           113.0452         estimate D2E/DX2                !
 ! D36   D(20,6,7,12)          -70.2691         estimate D2E/DX2                !
 ! D37   D(2,6,20,21)         -169.4633         estimate D2E/DX2                !
 ! D38   D(2,6,20,22)           70.4709         estimate D2E/DX2                !
 ! D39   D(2,6,20,23)          -50.5794         estimate D2E/DX2                !
 ! D40   D(5,6,20,21)          -56.5265         estimate D2E/DX2                !
 ! D41   D(5,6,20,22)         -176.5922         estimate D2E/DX2                !
 ! D42   D(5,6,20,23)           62.3575         estimate D2E/DX2                !
 ! D43   D(7,6,20,21)           62.6004         estimate D2E/DX2                !
 ! D44   D(7,6,20,22)          -57.4654         estimate D2E/DX2                !
 ! D45   D(7,6,20,23)         -178.5156         estimate D2E/DX2                !
 ! D46   D(6,7,8,9)            179.7409         estimate D2E/DX2                !
 ! D47   D(6,7,8,30)             1.1451         estimate D2E/DX2                !
 ! D48   D(12,7,8,9)             2.987          estimate D2E/DX2                !
 ! D49   D(12,7,8,30)         -175.6088         estimate D2E/DX2                !
 ! D50   D(6,7,12,11)          179.897          estimate D2E/DX2                !
 ! D51   D(6,7,12,32)           -1.1981         estimate D2E/DX2                !
 ! D52   D(8,7,12,11)           -3.2906         estimate D2E/DX2                !
 ! D53   D(8,7,12,32)          175.6142         estimate D2E/DX2                !
 ! D54   D(7,8,9,10)            -0.5451         estimate D2E/DX2                !
 ! D55   D(7,8,9,31)           179.8649         estimate D2E/DX2                !
 ! D56   D(30,8,9,10)          178.0835         estimate D2E/DX2                !
 ! D57   D(30,8,9,31)           -1.5064         estimate D2E/DX2                !
 ! D58   D(8,9,10,11)           -1.5996         estimate D2E/DX2                !
 ! D59   D(8,9,10,19)         -179.8539         estimate D2E/DX2                !
 ! D60   D(31,9,10,11)         177.9863         estimate D2E/DX2                !
 ! D61   D(31,9,10,19)          -0.2679         estimate D2E/DX2                !
 ! D62   D(9,10,11,12)           1.2611         estimate D2E/DX2                !
 ! D63   D(9,10,11,13)        -178.1968         estimate D2E/DX2                !
 ! D64   D(19,10,11,12)        179.8921         estimate D2E/DX2                !
 ! D65   D(19,10,11,13)          0.4343         estimate D2E/DX2                !
 ! D66   D(9,10,19,14)         178.1601         estimate D2E/DX2                !
 ! D67   D(9,10,19,18)          -1.8338         estimate D2E/DX2                !
 ! D68   D(11,10,19,14)         -0.2335         estimate D2E/DX2                !
 ! D69   D(11,10,19,18)        179.7726         estimate D2E/DX2                !
 ! D70   D(10,11,12,7)           1.2434         estimate D2E/DX2                !
 ! D71   D(10,11,12,32)       -177.6884         estimate D2E/DX2                !
 ! D72   D(13,11,12,7)        -179.4085         estimate D2E/DX2                !
 ! D73   D(13,11,12,32)          1.6597         estimate D2E/DX2                !
 ! D74   D(10,11,13,14)         -0.4456         estimate D2E/DX2                !
 ! D75   D(10,11,13,33)       -120.3095         estimate D2E/DX2                !
 ! D76   D(10,11,13,34)        119.2261         estimate D2E/DX2                !
 ! D77   D(12,11,13,14)       -179.8508         estimate D2E/DX2                !
 ! D78   D(12,11,13,33)         60.2853         estimate D2E/DX2                !
 ! D79   D(12,11,13,34)        -60.1791         estimate D2E/DX2                !
 ! D80   D(11,13,14,15)       -179.7659         estimate D2E/DX2                !
 ! D81   D(11,13,14,19)          0.2997         estimate D2E/DX2                !
 ! D82   D(33,13,14,15)        -59.7995         estimate D2E/DX2                !
 ! D83   D(33,13,14,19)        120.2661         estimate D2E/DX2                !
 ! D84   D(34,13,14,15)         60.5346         estimate D2E/DX2                !
 ! D85   D(34,13,14,19)       -119.3998         estimate D2E/DX2                !
 ! D86   D(13,14,15,16)       -179.9375         estimate D2E/DX2                !
 ! D87   D(13,14,15,35)          0.0533         estimate D2E/DX2                !
 ! D88   D(19,14,15,16)         -0.0089         estimate D2E/DX2                !
 ! D89   D(19,14,15,35)        179.982          estimate D2E/DX2                !
 ! D90   D(13,14,19,10)         -0.0583         estimate D2E/DX2                !
 ! D91   D(13,14,19,18)        179.9363         estimate D2E/DX2                !
 ! D92   D(15,14,19,10)       -179.9993         estimate D2E/DX2                !
 ! D93   D(15,14,19,18)         -0.0047         estimate D2E/DX2                !
 ! D94   D(14,15,16,17)          0.0162         estimate D2E/DX2                !
 ! D95   D(14,15,16,36)       -179.994          estimate D2E/DX2                !
 ! D96   D(35,15,16,17)       -179.9747         estimate D2E/DX2                !
 ! D97   D(35,15,16,36)          0.0151         estimate D2E/DX2                !
 ! D98   D(15,16,17,18)         -0.01           estimate D2E/DX2                !
 ! D99   D(15,16,17,37)        179.9871         estimate D2E/DX2                !
 ! D100  D(36,16,17,18)       -179.9998         estimate D2E/DX2                !
 ! D101  D(36,16,17,37)         -0.0026         estimate D2E/DX2                !
 ! D102  D(16,17,18,19)         -0.0037         estimate D2E/DX2                !
 ! D103  D(16,17,18,38)       -179.9961         estimate D2E/DX2                !
 ! D104  D(37,17,18,19)        179.9991         estimate D2E/DX2                !
 ! D105  D(37,17,18,38)          0.0068         estimate D2E/DX2                !
 ! D106  D(17,18,19,10)       -179.9958         estimate D2E/DX2                !
 ! D107  D(17,18,19,14)          0.011          estimate D2E/DX2                !
 ! D108  D(38,18,19,10)         -0.0034         estimate D2E/DX2                !
 ! D109  D(38,18,19,14)       -179.9967         estimate D2E/DX2                !
 ! D110  D(6,20,21,39)          52.7107         estimate D2E/DX2                !
 ! D111  D(6,20,21,40)         171.3781         estimate D2E/DX2                !
 ! D112  D(6,20,21,41)         -70.2823         estimate D2E/DX2                !
 ! D113  D(22,20,21,39)        175.4157         estimate D2E/DX2                !
 ! D114  D(22,20,21,40)        -65.9169         estimate D2E/DX2                !
 ! D115  D(22,20,21,41)         52.4227         estimate D2E/DX2                !
 ! D116  D(23,20,21,39)        -66.8569         estimate D2E/DX2                !
 ! D117  D(23,20,21,40)         51.8105         estimate D2E/DX2                !
 ! D118  D(23,20,21,41)        170.1501         estimate D2E/DX2                !
 ! D119  D(6,20,22,42)         -75.7486         estimate D2E/DX2                !
 ! D120  D(6,20,22,43)         165.2635         estimate D2E/DX2                !
 ! D121  D(6,20,22,44)          46.1694         estimate D2E/DX2                !
 ! D122  D(21,20,22,42)        160.7481         estimate D2E/DX2                !
 ! D123  D(21,20,22,43)         41.7603         estimate D2E/DX2                !
 ! D124  D(21,20,22,44)        -77.3339         estimate D2E/DX2                !
 ! D125  D(23,20,22,42)         44.5968         estimate D2E/DX2                !
 ! D126  D(23,20,22,43)        -74.391          estimate D2E/DX2                !
 ! D127  D(23,20,22,44)        166.5148         estimate D2E/DX2                !
 ! D128  D(6,20,23,45)          59.6557         estimate D2E/DX2                !
 ! D129  D(6,20,23,46)         -60.5305         estimate D2E/DX2                !
 ! D130  D(6,20,23,47)         179.7807         estimate D2E/DX2                !
 ! D131  D(21,20,23,45)       -178.1685         estimate D2E/DX2                !
 ! D132  D(21,20,23,46)         61.6453         estimate D2E/DX2                !
 ! D133  D(21,20,23,47)        -58.0435         estimate D2E/DX2                !
 ! D134  D(22,20,23,45)        -62.4051         estimate D2E/DX2                !
 ! D135  D(22,20,23,46)        177.4087         estimate D2E/DX2                !
 ! D136  D(22,20,23,47)         57.7199         estimate D2E/DX2                !
 --------------------------------------------------------------------------------
 Trust Radius=3.00D-01 FncErr=1.00D-07 GrdErr=1.00D-06 EigMax=2.50D+02 EigMin=1.00D-04
 Number of steps in this run=    282 maximum allowed number of steps=    282.
 GradGradGradGradGradGradGradGradGradGradGradGradGradGradGradGradGradGrad

 Leave Link  103 at Fri Nov  4 22:49:41 2022, MaxMem=   805306368 cpu:               0.3 elap:               0.1
 (Enter /home/wykgroup/appl/g16/l202.exe)
                          Input orientation:                          
 ---------------------------------------------------------------------
 Center     Atomic      Atomic             Coordinates (Angstroms)
 Number     Number       Type             X           Y           Z
 ---------------------------------------------------------------------
      1          6           0       -1.103534   -2.348346    2.882433
      2          6           0       -1.184340   -2.502223    1.396900
      3          6           0       -1.124600   -3.693005    0.779634
      4          6           0       -1.319758   -3.530709   -0.641195
      5          6           0       -1.515341   -2.237775   -0.908577
      6          6           0       -1.400206   -1.409131    0.354378
      7          6           0       -0.149821   -0.553105    0.160411
      8          6           0        0.904283   -0.574123    1.071842
      9          6           0        2.044061    0.194638    0.901419
     10          6           0        2.149729    1.003997   -0.214818
     11          6           0        1.118221    1.002641   -1.163699
     12          6           0       -0.007018    0.229548   -0.989244
     13          6           0        1.462493    1.915962   -2.305677
     14          6           0        2.805512    2.451742   -1.899605
     15          6           0        3.622150    3.346620   -2.557313
     16          6           0        4.834877    3.694728   -1.977725
     17          6           0        5.221407    3.154506   -0.760445
     18          6           0        4.406969    2.254656   -0.093080
     19          6           0        3.195649    1.904251   -0.667111
     20          6           0       -2.692373   -0.564290    0.635225
     21          6           0       -3.061215    0.359666   -0.531754
     22          6           0       -2.520967    0.328168    1.869714
     23          6           0       -3.867646   -1.525208    0.848607
     24          1           0       -0.770326   -1.363885    3.194236
     25          1           0       -2.081607   -2.528812    3.334223
     26          1           0       -0.422209   -3.096305    3.288002
     27          1           0       -0.965893   -4.644036    1.258254
     28          1           0       -1.311577   -4.342098   -1.347654
     29          1           0       -1.668007   -1.811234   -1.881141
     30          1           0        0.860988   -1.218198    1.931694
     31          1           0        2.838130    0.151401    1.632350
     32          1           0       -0.758618    0.229129   -1.760622
     33          1           0        0.726588    2.715417   -2.424263
     34          1           0        1.513829    1.375342   -3.254182
     35          1           0        3.327542    3.771331   -3.506521
     36          1           0        5.485412    4.394908   -2.481328
     37          1           0        6.169844    3.440156   -0.328865
     38          1           0        4.710090    1.835283    0.854878
     39          1           0       -3.125261   -0.179461   -1.472248
     40          1           0       -4.039627    0.796703   -0.337715
     41          1           0       -2.349528    1.174882   -0.625971
     42          1           0       -2.591038   -0.239891    2.790264
     43          1           0       -3.309684    1.078217    1.887536
     44          1           0       -1.563638    0.844754    1.841693
     45          1           0       -3.691277   -2.194005    1.685396
     46          1           0       -4.026396   -2.131840   -0.040042
     47          1           0       -4.776269   -0.960961    1.049362
 ---------------------------------------------------------------------
                    Distance matrix (angstroms):
                    1          2          3          4          5
     1  C    0.000000
     2  C    1.495665   0.000000
     3  C    2.496060   1.342590   0.000000
     4  C    3.722994   2.286909   1.443323   0.000000
     5  C    3.814914   2.344082   2.262836   1.334700   0.000000
     6  C    2.713153   1.525877   2.339419   2.344938   1.514914
     7  C    3.397332   2.529465   3.345535   3.298098   2.417746
     8  C    3.233796   2.861045   3.732181   4.077040   3.541805
     9  C    4.505390   4.235697   5.016873   5.251014   4.675689
    10  C    5.604899   5.099728   5.811368   5.725618   4.941976
    11  C    5.704077   4.913504   5.554807   5.173781   4.183424
    12  C    4.778888   3.813442   4.445710   3.997995   2.892962
    13  C    7.189249   6.343119   6.904542   6.338584   5.298389
    14  C    7.822363   7.164330   7.770587   7.375037   6.453176
    15  C    9.184529   8.540908   9.122674   8.682835   7.765154
    16  C    9.767528   9.274765   9.884179   9.585029   8.755738
    17  C    9.140942   8.813983   9.462138   9.353778   8.630320
    18  C    7.772191   7.490705   8.169122   8.158816   7.478017
    19  C    7.011906   6.546866   7.217125   7.066000   6.277588
    20  C    3.279819   2.570972   3.502517   3.508983   2.563061
    21  C    4.777292   3.928457   4.679140   4.263762   3.046050
    22  C    3.193501   3.165634   4.394081   4.757993   3.913342
    23  C    3.529068   2.907803   3.496913   3.568372   3.021388
    24  H    1.085087   2.167403   3.373516   4.439316   4.260494
    25  H    1.092387   2.135185   2.965996   4.169911   4.290305
    26  H    1.090015   2.123686   2.672324   4.053750   4.420779
    27  H    2.815509   2.157384   1.076442   2.229938   3.284379
    28  H    4.681021   3.306646   2.231957   1.075873   2.159278
    29  H    4.826879   3.384812   3.303949   2.148334   1.072905
    30  H    2.457740   2.473478   3.375571   4.089392   3.841045
    31  H    4.831994   4.824668   5.586575   6.001248   5.578279
    32  H    5.321682   4.196602   4.687214   3.962875   2.717393
    33  H    7.559899   6.743641   7.399982   6.810357   5.644260
    34  H    7.640320   6.629343   6.994364   6.239091   5.266152
    35  H    9.894626   9.151945   9.690666   9.117417   8.143230
    36  H   10.846917  10.348751  10.942599  10.607159   9.771212
    37  H    9.834695   9.611147  10.262537  10.236437   9.572724
    38  H    7.443921   7.338396   8.038112   8.209213   7.645625
    39  H    5.268272   4.170661   4.628025   3.896326   2.673242
    40  H    5.374135   4.695154   5.468394   5.120184   3.988228
    41  H    5.125869   4.355545   5.212725   4.816975   3.524481
    42  H    2.582005   3.006395   4.256415   4.921438   4.339366
    43  H    4.195028   4.192537   5.363450   5.621075   4.694009
    44  H    3.389797   3.397641   4.681023   5.036754   4.131380
    45  H    2.855368   2.542235   3.107287   3.581048   3.386046
    46  H    4.138944   3.206130   3.395515   3.105497   2.659130
    47  H    4.332894   3.924057   4.568534   4.626992   4.012160
                    6          7          8          9         10
     6  C    0.000000
     7  C    1.527700   0.000000
     8  C    2.553951   1.393659   0.000000
     9  C    3.838529   2.433379   1.385327   0.000000
    10  C    4.330036   2.802373   2.386859   1.382828   0.000000
    11  C    3.803114   2.404484   2.744011   2.403074   1.401565
    12  C    2.536053   1.398086   2.392579   2.789758   2.418897
    13  C    5.131003   3.844143   4.233173   3.686006   2.382365
    14  C    6.137984   4.691136   4.647583   3.676964   2.316144
    15  C    7.504611   6.068084   5.994147   4.938439   3.625353
    16  C    8.388346   6.889334   6.555343   5.322477   4.190214
    17  C    8.118828   6.591240   5.991453   4.649531   3.789143
    18  C    6.880904   5.358369   4.650574   3.288774   2.583428
    19  C    5.757067   4.232677   3.796927   2.590216   1.452231
    20  C    1.569180   2.586532   3.623075   4.804232   5.160238
    21  C    2.583180   3.128651   4.378202   5.305192   5.260185
    22  C    2.563309   3.052981   3.630849   4.668501   5.159207
    23  C    2.519125   3.903949   4.870904   6.157024   6.613362
    24  H    2.909224   3.201013   2.816486   3.950541   5.074962
    25  H    3.255375   4.208123   4.225484   5.509705   6.555962
    26  H    3.522667   4.040284   3.610035   4.754847   5.974705
    27  H    3.386773   4.313578   4.482912   5.709634   6.616444
    28  H    3.392207   4.240331   4.996162   6.074587   6.468747
    29  H    2.287128   2.838259   4.106974   5.054267   5.027650
    30  H    2.763582   2.145118   1.075199   2.111216   3.347614
    31  H    4.693823   3.404525   2.140168   1.080127   2.147754
    32  H    2.751137   2.161686   3.381317   3.865574   3.383550
    33  H    5.408882   4.258153   4.803686   4.376097   3.136229
    34  H    5.409861   4.259822   4.783978   4.352497   3.127299
    35  H    8.005957   6.651255   6.761403   5.819794   4.458777
    36  H    9.441390   7.950941   7.635642   6.397511   5.268977
    37  H    9.015989   7.491574   6.767758   5.391574   4.702042
    38  H    6.936314   5.459434   4.509599   3.130750   2.896677
    39  H    2.797225   3.414444   4.781776   5.700538   5.550425
    40  H    3.508737   4.147373   5.320551   6.237724   6.194046
    41  H    2.922229   2.905692   4.065572   4.753675   4.521235
    42  H    2.952752   3.601912   3.909214   5.024011   5.749143
    43  H    3.490498   3.953341   4.599251   5.515046   5.850692
    44  H    2.705330   2.603766   2.948986   3.784476   4.247786
    45  H    2.763447   4.190470   4.911175   6.262135   6.924982
    46  H    2.752226   4.190515   5.289079   6.568812   6.928819
    47  H    3.475868   4.728699   5.693753   6.919118   7.309491
                   11         12         13         14         15
    11  C    0.000000
    12  C    1.376324   0.000000
    13  C    1.502262   2.595467   0.000000
    14  C    2.342734   3.698273   1.501883   0.000000
    15  C    3.702170   5.034465   2.602734   1.378508   0.000000
    16  C    4.660848   6.035604   3.826817   2.381058   1.388455
    17  C    4.650728   5.995344   4.248666   2.761903   2.413144
    18  C    3.678265   4.938365   3.698680   2.422197   2.807270
    19  C    2.318449   3.628425   2.385134   1.403921   2.415615
    20  C    4.495779   3.237316   5.662462   6.763768   8.084598
    21  C    4.275565   3.091011   5.102234   6.377012   7.595535
    22  C    4.785415   3.808321   5.985226   6.862121   8.151534
    23  C    5.941234   4.621830   7.085305   8.240136   9.562011
    24  H    5.306473   4.541274   6.781734   7.300194   8.634988
    25  H    6.552966   5.532164   8.007817   8.722546  10.087802
    26  H    6.244352   5.434015   7.743654   8.252895   9.593531
    27  H    6.488016   5.451836   7.850621   8.633982   9.972928
    28  H    5.874010   4.767629   6.912062   7.963124   9.215277
    29  H    4.024386   2.778337   4.885924   6.179456   7.419328
    30  H    3.818344   3.373616   5.304722   5.650529   6.972285
    31  H    3.391252   3.869590   4.529250   4.215131   5.327042
    32  H    2.115930   1.076999   2.841800   4.202659   5.435494
    33  H    2.162406   2.962601   1.093045   2.160258   2.966547
    34  H    2.159984   2.959014   1.092963   2.159157   2.969273
    35  H    4.246830   5.477244   2.891856   2.143831   1.080819
    36  H    5.684714   7.052894   4.728625   3.360976   2.139258
    37  H    5.670742   6.992690   5.328236   3.842253   3.386069
    38  H    4.203507   5.313217   4.532383   3.405086   3.887261
    39  H    4.415847   3.181827   5.112034   6.502302   7.690135
    40  H    5.227625   4.124087   5.949701   7.213500   8.374457
    41  H    3.513418   2.552054   4.231090   5.461406   6.641346
    42  H    5.562042   4.602414   6.859113   7.639536   8.947812
    43  H    5.377926   4.461357   6.407693   7.322884   8.541233
    44  H    4.031089   3.288731   5.244581   5.972369   7.245894
    45  H    6.439500   5.157623   7.705961   8.754625  10.108676
    46  H    6.128185   4.757367   7.186495   8.434581   9.739119
    47  H    6.595330   5.321558   7.645595   8.821924  10.104296
                   16         17         18         19         20
    16  C    0.000000
    17  C    1.386729   0.000000
    18  C    2.410145   1.385068   0.000000
    19  C    2.758729   2.382340   1.385493   0.000000
    20  C    9.034724   8.854674   7.673171   6.516025   0.000000
    21  C    8.692625   8.744441   7.717330   6.446116   1.533486
    22  C    8.957955   8.651605   7.453872   6.449745   1.532914
    23  C   10.534220  10.348896   9.145677   7.996795   1.533023
    24  H    9.151888   8.482701   7.120721   6.428038   3.298811
    25  H   10.713870  10.119310   8.759543   7.969452   3.393667
    26  H   10.073876   9.344141   7.961499   7.330578   4.313000
    27  H   10.660933  10.157514   8.847921   7.994093   4.473615
    28  H   10.137380   9.961113   8.820028   7.732729   4.484444
    29  H    8.521294   8.566129   7.525554   6.239699   2.989363
    30  H    7.430491   6.736572   5.360448   4.685522   3.838595
    31  H    5.438272   4.519304   3.140389   2.913387   5.665063
    32  H    6.583669   6.731930   5.793681   4.431481   3.179466
    33  H    4.246938   4.812950   4.380858   3.137170   5.639703
    34  H    4.247146   4.809395   4.374473   3.130686   6.048289
    35  H    2.148288   3.392364   3.888065   3.400828   8.496532
    36  H    1.080307   2.137694   3.383407   3.838980  10.058962
    37  H    2.136746   1.080458   2.137459   3.364409   9.772612
    38  H    3.390685   2.147338   1.079991   2.148195   7.784772
    39  H    8.867279   9.016034   8.035018   6.704029   2.185619
    40  H    9.478661   9.565808   8.574991   7.326963   2.148024
    41  H    7.732564   7.826625   6.862954   5.593091   2.175518
    42  H    9.662254   9.228421   7.969224   7.073651   2.181673
    43  H    9.387239   9.170730   8.053172   7.037607   2.155733
    44  H    7.978176   7.625150   6.432676   5.483379   2.171408
    45  H   10.990493  10.678232   9.409312   8.352230   2.180972
    46  H   10.780801  10.676436   9.506093   8.297058   2.166290
    47  H   11.100127  10.962025   9.796797   8.643332   2.161360
                   21         22         23         24         25
    21  C    0.000000
    22  C    2.461688   0.000000
    23  C    2.471534   2.508228   0.000000
    24  H    4.701255   2.771669   3.888623   0.000000
    25  H    4.924299   3.240395   3.221094   1.759577   0.000000
    26  H    5.787799   4.259500   4.504445   1.769536   1.754362
    27  H    5.712402   5.245470   4.279611   3.813878   3.166802
    28  H    5.082667   5.798747   4.392256   5.458156   5.079461
    29  H    2.911130   4.401533   3.517349   5.173529   5.280721
    30  H    4.893047   3.719235   4.860794   2.067951   3.513355
    31  H    6.287209   5.367263   6.956487   4.213851   5.855231
    32  H    2.613256   4.036709   4.421745   5.204656   5.942557
    33  H    4.845473   5.889296   7.057023   7.102745   8.279376
    34  H    5.419800   6.605336   7.362496   7.369045   8.460299
    35  H    7.829745   8.658195   9.939376   9.384195  10.758554
    36  H    9.650329   9.978579  11.559236  10.223012  11.790603
    37  H    9.733603   9.489384  11.260217   9.146421  10.822811
    38  H    8.030777   7.455835   9.212519   6.763301   8.445096
    39  H    1.085950   3.433885   2.783620   5.359539   5.450765
    40  H    1.089011   2.720036   2.613084   5.275523   5.326915
    41  H    1.086256   2.640976   3.430677   4.851103   5.428837
    42  H    3.408276   1.083981   2.655523   2.177509   2.407192
    43  H    2.535945   1.088562   2.858062   3.757615   4.075750
    44  H    2.848034   1.088175   3.451289   2.708653   3.725170
    45  H    3.440054   2.786567   1.085639   3.390818   2.328468
    46  H    2.716792   3.459064   1.087612   4.653203   3.914774
    47  H    2.680559   2.724191   1.088243   4.561843   3.865223
                   26         27         28         29         30
    26  H    0.000000
    27  H    2.609778   0.000000
    28  H    4.881832   2.646020   0.000000
    29  H    5.470234   4.286437   2.610924   0.000000
    30  H    2.648293   3.940481   5.023238   4.613592   0.000000
    31  H    4.890664   6.132435   6.803825   6.041675   2.423736
    32  H    6.054774   5.736228   4.623032   2.237095   4.283816
    33  H    8.229570   8.401606   7.424401   5.149722   5.870754
    34  H    8.157454   7.921112   6.656343   4.707822   5.834892
    35  H   10.362944  10.580883   9.592178   7.665664   7.781611
    36  H   11.149145  11.717778  11.127423   9.489353   8.506880
    37  H    9.963043  10.899168  10.843112   9.561306   7.415816
    38  H    7.522045   8.623287   8.903464   7.839835   5.029798
    39  H    6.202778   5.661356   4.542304   2.225638   5.343780
    40  H    6.433277   6.449543   5.905041   3.848127   5.764207
    41  H    6.105472   6.270930   5.659968   3.310108   4.751410
    42  H    3.620865   4.938081   5.965525   5.014293   3.689270
    43  H    5.265497   6.215588   6.621080   5.024635   4.761301
    44  H    4.350473   5.551983   6.094169   4.574348   3.184758
    45  H    3.750905   3.689555   4.413237   4.118291   4.662186
    46  H    4.999623   4.166939   3.737021   3.009058   5.348739
    47  H    5.341258   5.303550   5.402024   4.355698   5.711685
                   31         32         33         34         35
    31  H    0.000000
    32  H    4.945189   0.000000
    33  H    5.242985   2.971176   0.000000
    34  H    5.208646   2.951024   1.761906   0.000000
    35  H    6.304872   5.682611   3.008521   3.015625   0.000000
    36  H    6.475940   7.540626   5.046815   5.048619   2.469063
    37  H    5.075686   7.769440   5.877496   5.873619   4.276196
    38  H    2.635177   6.271151   5.234089   5.226089   4.968050
    39  H    6.731273   2.418906   4.911557   5.207097   7.834902
    40  H    7.183392   3.621026   5.545445   6.299324   8.553650
    41  H    5.749724   2.170917   3.881958   4.676880   6.875191
    42  H    5.565046   4.928317   6.850678   7.482930   9.527277
    43  H    6.222518   4.531881   6.128909   7.056332   8.966688
    44  H    4.460956   3.742155   5.190655   5.976643   7.816130
    45  H    6.938076   5.132944   7.778770   8.014537  10.573791
    46  H    7.425079   4.383257   7.195226   7.302405  10.047105
    47  H    7.717273   5.045180   7.474173   7.971457  10.431798
                   36         37         38         39         40
    36  H    0.000000
    37  H    2.452161   0.000000
    38  H    4.275871   2.471385   0.000000
    39  H    9.802386  10.040315   8.418280   0.000000
    40  H   10.405216  10.546147   8.891484   1.753889   0.000000
    41  H    8.671632   8.820399   7.243429   1.775441   1.755718
    42  H   10.700471  10.001238   7.833169   4.296285   3.599610
    43  H   10.365381  10.017617   8.121350   3.592202   2.358772
    44  H    8.998956   8.441219   6.427645   3.803931   3.298886
    45  H   12.041054  11.534414   9.354565   3.788071   3.627487
    46  H   11.791217  11.622988   9.636656   2.583611   2.943662
    47  H   12.101785  11.877993   9.891806   3.113694   2.357118
                   41         42         43         44         45
    41  H    0.000000
    42  H    3.705479   0.000000
    43  H    2.692389   1.751794   0.000000
    44  H    2.610742   1.769687   1.762182   0.000000
    45  H    4.300245   2.499964   3.300593   3.712860   0.000000
    46  H    3.753613   3.694639   3.812309   4.297233   1.758780
    47  H    3.641104   2.885467   2.647953   3.769535   1.761291
                   46         47
    46  H    0.000000
    47  H    1.766371   0.000000
 Stoichiometry    C23H24
 Framework group  C1[X(C23H24)]
 Deg. of freedom   135
 Full point group                 C1      NOp   1
 Largest Abelian subgroup         C1      NOp   1
 Largest concise Abelian subgroup C1      NOp   1
                         Standard orientation:                         
 ---------------------------------------------------------------------
 Center     Atomic      Atomic             Coordinates (Angstroms)
 Number     Number       Type             X           Y           Z
 ---------------------------------------------------------------------
      1          6           0       -3.383142    2.209521   -0.846960
      2          6           0       -3.113182    1.269127    0.284321
      3          6           0       -3.583512    1.463831    1.526669
      4          6           0       -3.235775    0.348447    2.374123
      5          6           0       -2.559240   -0.549817    1.655202
      6          6           0       -2.348437   -0.050550    0.240543
      7          6           0       -0.842018    0.168913    0.112454
      8          6           0       -0.307541    1.400854   -0.260293
      9          6           0        1.057115    1.610475   -0.373881
     10          6           0        1.923665    0.568587   -0.098611
     11          6           0        1.404074   -0.663636    0.320955
     12          6           0        0.046864   -0.859909    0.438118
     13          6           0        2.520437   -1.628412    0.603329
     14          6           0        3.741768   -0.813485    0.287265
     15          6           0        5.070915   -1.172727    0.355076
     16          6           0        6.034705   -0.234859    0.009648
     17          6           0        5.671519    1.040463   -0.396145
     18          6           0        4.338432    1.409626   -0.466929
     19          6           0        3.372809    0.477286   -0.123553
     20          6           0       -2.924588   -1.038059   -0.834261
     21          6           0       -2.339517   -2.450514   -0.714922
     22          6           0       -2.625725   -0.553617   -2.257574
     23          6           0       -4.440005   -1.150698   -0.631816
     24          1           0       -2.645896    2.148476   -1.640783
     25          1           0       -4.362735    2.002746   -1.283939
     26          1           0       -3.411734    3.231818   -0.469835
     27          1           0       -4.149700    2.316472    1.860076
     28          1           0       -3.500090    0.276089    3.414510
     29          1           0       -2.152768   -1.472983    2.020810
     30          1           0       -0.957921    2.235910   -0.449348
     31          1           0        1.431281    2.580176   -0.667745
     32          1           0       -0.308737   -1.809951    0.799911
     33          1           0        2.455908   -2.521246   -0.023910
     34          1           0        2.514753   -1.959368    1.644964
     35          1           0        5.361318   -2.164754    0.670859
     36          1           0        7.080388   -0.501874    0.057753
     37          1           0        6.439196    1.753553   -0.659894
     38          1           0        4.057982    2.403423   -0.783308
     39          1           0       -2.434712   -2.845972    0.291974
     40          1           0       -2.888078   -3.115069   -1.380800
     41          1           0       -1.296401   -2.469260   -1.017426
     42          1           0       -3.269648    0.269101   -2.546559
     43          1           0       -2.797898   -1.366256   -2.961094
     44          1           0       -1.587045   -0.242126   -2.348355
     45          1           0       -4.930453   -0.187633   -0.734669
     46          1           0       -4.661372   -1.537401    0.360332
     47          1           0       -4.863372   -1.828950   -1.370062
 ---------------------------------------------------------------------
 Rotational constants (GHZ):           0.6533398           0.1396176           0.1327145
 Leave Link  202 at Fri Nov  4 22:49:41 2022, MaxMem=   805306368 cpu:               0.6 elap:               0.1
 (Enter /home/wykgroup/appl/g16/l301.exe)
 Standard basis: 6-31G(d) (6D, 7F)
 Ernie: Thresh=  0.10000D-02 Tol=  0.10000D-05 Strict=F.
 There are   393 symmetry adapted cartesian basis functions of A   symmetry.
 There are   393 symmetry adapted basis functions of A   symmetry.
   393 basis functions,   740 primitive gaussians,   393 cartesian basis functions
    81 alpha electrons       81 beta electrons
       nuclear repulsion energy      1858.2897702272 Hartrees.
 IExCor=  402 DFT=T Ex+Corr=B3LYP ExCW=0 ScaHFX=  0.200000
 ScaDFX=  0.800000  0.720000  1.000000  0.810000 ScalE2=  1.000000  1.000000
 IRadAn=      5 IRanWt=     -1 IRanGd=            0 ICorTp=0 IEmpDi=  4
 NAtoms=   47 NActive=   47 NUniq=   47 SFac= 1.00D+00 NAtFMM=   60 NAOKFM=F Big=F
 Integral buffers will be    131072 words long.
 Raffenetti 2 integral format.
 Two-electron integral symmetry is turned on.
 Leave Link  301 at Fri Nov  4 22:49:41 2022, MaxMem=   805306368 cpu:               0.7 elap:               0.1
 (Enter /home/wykgroup/appl/g16/l302.exe)
 NPDir=0 NMtPBC=     1 NCelOv=     1 NCel=       1 NClECP=     1 NCelD=      1
         NCelK=      1 NCelE2=     1 NClLst=     1 CellRange=     0.0.
 One-electron integrals computed using PRISM.
 One-electron integral symmetry used in STVInt
 NBasis=   393 RedAO= T EigKep=  2.92D-04  NBF=   393
 NBsUse=   393 1.00D-06 EigRej= -1.00D+00 NBFU=   393
 Precomputing XC quadrature grid using
 IXCGrd= 4 IRadAn=           5 IRanWt=          -1 IRanGd=           0 AccXCQ= 0.00D+00.
 Generated NRdTot=       0 NPtTot=           0 NUsed=           0 NTot=          32
 NSgBfM=   390   390   390   390   390 MxSgAt=    47 MxSgA2=    47.
 Leave Link  302 at Fri Nov  4 22:49:43 2022, MaxMem=   805306368 cpu:               7.5 elap:               1.2
 (Enter /home/wykgroup/appl/g16/l303.exe)
 DipDrv:  MaxL=1.
 Leave Link  303 at Fri Nov  4 22:49:43 2022, MaxMem=   805306368 cpu:               1.0 elap:               0.2
 (Enter /home/wykgroup/appl/g16/l401.exe)
 ExpMin= 1.61D-01 ExpMax= 3.05D+03 ExpMxC= 4.57D+02 IAcc=3 IRadAn=         5 AccDes= 0.00D+00
 Harris functional with IExCor=  402 and IRadAn=       5 diagonalized for initial guess.
 HarFok:  IExCor=  402 AccDes= 0.00D+00 IRadAn=         5 IDoV= 1 UseB2=F ITyADJ=14
 ICtDFT=  3500011 ScaDFX=  1.000000  1.000000  1.000000  1.000000
 FoFCou: FMM=F IPFlag=           0 FMFlag=      100000 FMFlg1=           0
         NFxFlg=           0 DoJE=T BraDBF=F KetDBF=T FulRan=T
         wScrn=  0.000000 ICntrl=       500 IOpCl=  0 I1Cent=   200000004 NGrid=           0
         NMat0=    1 NMatS0=      1 NMatT0=    0 NMatD0=    1 NMtDS0=    0 NMtDT0=    0
 Petite list used in FoFCou.
 Harris En= -890.968250703707    
 JPrj=0 DoOrth=F DoCkMO=F.
 Leave Link  401 at Fri Nov  4 22:49:46 2022, MaxMem=   805306368 cpu:              22.7 elap:               3.3
 (Enter /home/wykgroup/appl/g16/l502.exe)
 Integral symmetry usage will be decided dynamically.
 Closed shell SCF:
 Using DIIS extrapolation, IDIIS=  1040.
 NGot=   805306368 LenX=   804990205 LenY=   804835315
 Requested convergence on RMS density matrix=1.00D-08 within  32 cycles.
 Requested convergence on MAX density matrix=1.00D-06.
 Requested convergence on             energy=1.00D-06.
 No special actions if energy rises.
 Fock matrices will be formed incrementally for  20 cycles.
 Integral accuracy reduced to 1.0D-05 until final iterations.

 Cycle   1  Pass 0  IDiag  1:
 FoFJK:  IHMeth= 1 ICntrl=       0 DoSepK=F KAlg= 0 I1Cent=           0 FoldK=F
 IRaf= 770000000 NMat=       1 IRICut=       1 DoRegI=T DoRafI=F ISym2E= 0 IDoP0=0 IntGTp=1.
 FoFCou: FMM=F IPFlag=           0 FMFlag=      100000 FMFlg1=           0
         NFxFlg=           0 DoJE=F BraDBF=F KetDBF=F FulRan=T
         wScrn=  0.000000 ICntrl=         0 IOpCl=  0 I1Cent=           0 NGrid=           0
         NMat0=    1 NMatS0=      1 NMatT0=    0 NMatD0=    1 NMtDS0=    0 NMtDT0=    0
 Symmetry not used in FoFCou.
 E= -890.244990340602    
 DIIS: error= 3.35D-02 at cycle   1 NSaved=   1.
 NSaved= 1 IEnMin= 1 EnMin= -890.244990340602     IErMin= 1 ErrMin= 3.35D-02
 ErrMax= 3.35D-02  0.00D+00 EMaxC= 1.00D-01 BMatC= 5.70D-01 BMatP= 5.70D-01
 IDIUse=3 WtCom= 6.65D-01 WtEn= 3.35D-01
 Coeff-Com:  0.100D+01
 Coeff-En:   0.100D+01
 Coeff:      0.100D+01
 Gap=     0.163 Goal=   None    Shift=    0.000
 GapD=    0.163 DampG=1.000 DampE=0.500 DampFc=0.5000 IDamp=-1.
 Damping current iteration by 5.00D-01
 RMSDP=4.84D-03 MaxDP=1.38D-01              OVMax= 1.64D-01

 Cycle   2  Pass 0  IDiag  1:
 RMSU=  2.35D-03    CP:  9.66D-01
 E= -890.544904157136     Delta-E=       -0.299913816535 Rises=F Damp=T
 DIIS: error= 5.91D-03 at cycle   2 NSaved=   2.
 NSaved= 2 IEnMin= 2 EnMin= -890.544904157136     IErMin= 2 ErrMin= 5.91D-03
 ErrMax= 5.91D-03  0.00D+00 EMaxC= 1.00D-01 BMatC= 2.57D-02 BMatP= 5.70D-01
 IDIUse=3 WtCom= 9.41D-01 WtEn= 5.91D-02
 Coeff-Com:  0.110D-02 0.999D+00
 Coeff-En:   0.165D-02 0.998D+00
 Coeff:      0.113D-02 0.999D+00
 Gap=     0.180 Goal=   None    Shift=    0.000
 RMSDP=1.48D-03 MaxDP=6.56D-02 DE=-3.00D-01 OVMax= 9.90D-02

 Cycle   3  Pass 0  IDiag  1:
 RMSU=  1.41D-03    CP:  9.44D-01  9.01D-01
 E= -890.863727823409     Delta-E=       -0.318823666272 Rises=F Damp=F
 DIIS: error= 2.52D-03 at cycle   3 NSaved=   3.
 NSaved= 3 IEnMin= 3 EnMin= -890.863727823409     IErMin= 3 ErrMin= 2.52D-03
 ErrMax= 2.52D-03  0.00D+00 EMaxC= 1.00D-01 BMatC= 6.08D-03 BMatP= 2.57D-02
 IDIUse=3 WtCom= 9.75D-01 WtEn= 2.52D-02
 Coeff-Com: -0.350D-01 0.287D+00 0.748D+00
 Coeff-En:   0.000D+00 0.000D+00 0.100D+01
 Coeff:     -0.341D-01 0.279D+00 0.755D+00
 Gap=     0.175 Goal=   None    Shift=    0.000
 RMSDP=4.74D-04 MaxDP=2.25D-02 DE=-3.19D-01 OVMax= 2.31D-02

 Cycle   4  Pass 0  IDiag  1:
 RMSU=  3.72D-04    CP:  9.44D-01  9.73D-01  8.29D-01
 E= -890.866177886185     Delta-E=       -0.002450062776 Rises=F Damp=F
 DIIS: error= 2.07D-03 at cycle   4 NSaved=   4.
 NSaved= 4 IEnMin= 4 EnMin= -890.866177886185     IErMin= 4 ErrMin= 2.07D-03
 ErrMax= 2.07D-03  0.00D+00 EMaxC= 1.00D-01 BMatC= 3.69D-03 BMatP= 6.08D-03
 IDIUse=3 WtCom= 9.79D-01 WtEn= 2.07D-02
 Coeff-Com: -0.210D-01 0.986D-01 0.464D+00 0.458D+00
 Coeff-En:   0.000D+00 0.000D+00 0.385D+00 0.615D+00
 Coeff:     -0.206D-01 0.965D-01 0.463D+00 0.461D+00
 Gap=     0.172 Goal=   None    Shift=    0.000
 RMSDP=2.44D-04 MaxDP=8.85D-03 DE=-2.45D-03 OVMax= 1.71D-02

 Cycle   5  Pass 0  IDiag  1:
 RMSU=  1.19D-04    CP:  9.45D-01  9.60D-01  8.54D-01  4.41D-01
 E= -890.869648240710     Delta-E=       -0.003470354525 Rises=F Damp=F
 DIIS: error= 7.83D-04 at cycle   5 NSaved=   5.
 NSaved= 5 IEnMin= 5 EnMin= -890.869648240710     IErMin= 5 ErrMin= 7.83D-04
 ErrMax= 7.83D-04  0.00D+00 EMaxC= 1.00D-01 BMatC= 4.23D-04 BMatP= 3.69D-03
 IDIUse=3 WtCom= 9.92D-01 WtEn= 7.83D-03
 Coeff-Com: -0.871D-02 0.282D-01 0.204D+00 0.293D+00 0.483D+00
 Coeff-En:   0.000D+00 0.000D+00 0.000D+00 0.793D-01 0.921D+00
 Coeff:     -0.864D-02 0.280D-01 0.203D+00 0.291D+00 0.487D+00
 Gap=     0.171 Goal=   None    Shift=    0.000
 RMSDP=7.66D-05 MaxDP=3.00D-03 DE=-3.47D-03 OVMax= 6.52D-03

 Cycle   6  Pass 0  IDiag  1:
 RMSU=  4.19D-05    CP:  9.44D-01  9.62D-01  8.62D-01  5.31D-01  5.56D-01
 E= -890.870050100826     Delta-E=       -0.000401860115 Rises=F Damp=F
 DIIS: error= 1.90D-04 at cycle   6 NSaved=   6.
 NSaved= 6 IEnMin= 6 EnMin= -890.870050100826     IErMin= 6 ErrMin= 1.90D-04
 ErrMax= 1.90D-04  0.00D+00 EMaxC= 1.00D-01 BMatC= 4.25D-05 BMatP= 4.23D-04
 IDIUse=3 WtCom= 9.98D-01 WtEn= 1.90D-03
 Coeff-Com: -0.246D-02 0.421D-02 0.628D-01 0.118D+00 0.296D+00 0.521D+00
 Coeff-En:   0.000D+00 0.000D+00 0.000D+00 0.000D+00 0.703D-01 0.930D+00
 Coeff:     -0.246D-02 0.420D-02 0.627D-01 0.118D+00 0.296D+00 0.521D+00
 Gap=     0.171 Goal=   None    Shift=    0.000
 RMSDP=2.08D-05 MaxDP=6.79D-04 DE=-4.02D-04 OVMax= 1.68D-03

 Cycle   7  Pass 0  IDiag  1:
 RMSU=  7.81D-06    CP:  9.44D-01  9.62D-01  8.63D-01  5.29D-01  6.20D-01
                    CP:  5.78D-01
 E= -890.870093077948     Delta-E=       -0.000042977123 Rises=F Damp=F
 DIIS: error= 4.39D-05 at cycle   7 NSaved=   7.
 NSaved= 7 IEnMin= 7 EnMin= -890.870093077948     IErMin= 7 ErrMin= 4.39D-05
 ErrMax= 4.39D-05  0.00D+00 EMaxC= 1.00D-01 BMatC= 1.17D-06 BMatP= 4.25D-05
 IDIUse=1 WtCom= 1.00D+00 WtEn= 0.00D+00
 Coeff-Com: -0.100D-02 0.133D-02 0.265D-01 0.528D-01 0.138D+00 0.272D+00
 Coeff-Com:  0.510D+00
 Coeff:     -0.100D-02 0.133D-02 0.265D-01 0.528D-01 0.138D+00 0.272D+00
 Coeff:      0.510D+00
 Gap=     0.171 Goal=   None    Shift=    0.000
 RMSDP=4.68D-06 MaxDP=1.49D-04 DE=-4.30D-05 OVMax= 3.90D-04

 Initial convergence to 1.0D-05 achieved.  Increase integral accuracy.
 Cycle   8  Pass 1  IDiag  1:
 E= -890.870101146536     Delta-E=       -0.000008068588 Rises=F Damp=F
 DIIS: error= 1.27D-04 at cycle   1 NSaved=   1.
 NSaved= 1 IEnMin= 1 EnMin= -890.870101146536     IErMin= 1 ErrMin= 1.27D-04
 ErrMax= 1.27D-04  0.00D+00 EMaxC= 1.00D-01 BMatC= 1.76D-06 BMatP= 1.76D-06
 IDIUse=3 WtCom= 9.99D-01 WtEn= 1.27D-03
 Coeff-Com:  0.100D+01
 Coeff-En:   0.100D+01
 Coeff:      0.100D+01
 Gap=     0.171 Goal=   None    Shift=    0.000
 RMSDP=4.68D-06 MaxDP=1.49D-04 DE=-8.07D-06 OVMax= 3.86D-04

 Cycle   9  Pass 1  IDiag  1:
 RMSU=  6.73D-05    CP:  1.00D+00
 E= -890.870101983217     Delta-E=       -0.000000836681 Rises=F Damp=F
 DIIS: error= 3.60D-05 at cycle   2 NSaved=   2.
 NSaved= 2 IEnMin= 2 EnMin= -890.870101983217     IErMin= 2 ErrMin= 3.60D-05
 ErrMax= 3.60D-05  0.00D+00 EMaxC= 1.00D-01 BMatC= 6.56D-07 BMatP= 1.76D-06
 IDIUse=1 WtCom= 1.00D+00 WtEn= 0.00D+00
 Coeff-Com:  0.317D+00 0.683D+00
 Coeff:      0.317D+00 0.683D+00
 Gap=     0.171 Goal=   None    Shift=    0.000
 RMSDP=5.33D-06 MaxDP=1.82D-04 DE=-8.37D-07 OVMax= 5.40D-04

 Cycle  10  Pass 1  IDiag  1:
 RMSU=  5.31D-06    CP:  1.00D+00  1.01D+00
 E= -890.870101794871     Delta-E=        0.000000188346 Rises=F Damp=F
 DIIS: error= 4.19D-05 at cycle   3 NSaved=   3.
 NSaved= 3 IEnMin= 2 EnMin= -890.870101983217     IErMin= 2 ErrMin= 3.60D-05
 ErrMax= 4.19D-05  0.00D+00 EMaxC= 1.00D-01 BMatC= 8.19D-07 BMatP= 6.56D-07
 IDIUse=1 WtCom= 1.00D+00 WtEn= 0.00D+00
 Coeff-Com: -0.146D-02 0.528D+00 0.473D+00
 Coeff:     -0.146D-02 0.528D+00 0.473D+00
 Gap=     0.171 Goal=   None    Shift=    0.000
 RMSDP=2.87D-06 MaxDP=9.90D-05 DE= 1.88D-07 OVMax= 2.92D-04

 Cycle  11  Pass 1  IDiag  1:
 RMSU=  4.10D-07    CP:  1.00D+00  1.01D+00  4.69D-01
 E= -890.870102717958     Delta-E=       -0.000000923087 Rises=F Damp=F
 DIIS: error= 2.60D-06 at cycle   4 NSaved=   4.
 NSaved= 4 IEnMin= 4 EnMin= -890.870102717958     IErMin= 4 ErrMin= 2.60D-06
 ErrMax= 2.60D-06  0.00D+00 EMaxC= 1.00D-01 BMatC= 6.90D-09 BMatP= 6.56D-07
 IDIUse=1 WtCom= 1.00D+00 WtEn= 0.00D+00
 Coeff-Com: -0.345D-02 0.320D+00 0.291D+00 0.393D+00
 Coeff:     -0.345D-02 0.320D+00 0.291D+00 0.393D+00
 Gap=     0.171 Goal=   None    Shift=    0.000
 RMSDP=2.66D-07 MaxDP=1.35D-05 DE=-9.23D-07 OVMax= 2.98D-05

 Cycle  12  Pass 1  IDiag  1:
 RMSU=  1.23D-07    CP:  1.00D+00  1.01D+00  4.78D-01  4.35D-01
 E= -890.870102724711     Delta-E=       -0.000000006753 Rises=F Damp=F
 DIIS: error= 6.65D-07 at cycle   5 NSaved=   5.
 NSaved= 5 IEnMin= 5 EnMin= -890.870102724711     IErMin= 5 ErrMin= 6.65D-07
 ErrMax= 6.65D-07  0.00D+00 EMaxC= 1.00D-01 BMatC= 2.91D-10 BMatP= 6.90D-09
 IDIUse=1 WtCom= 1.00D+00 WtEn= 0.00D+00
 Coeff-Com: -0.204D-02 0.169D+00 0.154D+00 0.241D+00 0.438D+00
 Coeff:     -0.204D-02 0.169D+00 0.154D+00 0.241D+00 0.438D+00
 Gap=     0.171 Goal=   None    Shift=    0.000
 RMSDP=5.96D-08 MaxDP=2.91D-06 DE=-6.75D-09 OVMax= 5.78D-06

 Cycle  13  Pass 1  IDiag  1:
 RMSU=  4.28D-08    CP:  1.00D+00  1.01D+00  4.77D-01  4.81D-01  7.00D-01
 E= -890.870102724992     Delta-E=       -0.000000000281 Rises=F Damp=F
 DIIS: error= 1.41D-07 at cycle   6 NSaved=   6.
 NSaved= 6 IEnMin= 6 EnMin= -890.870102724992     IErMin= 6 ErrMin= 1.41D-07
 ErrMax= 1.41D-07  0.00D+00 EMaxC= 1.00D-01 BMatC= 1.60D-11 BMatP= 2.91D-10
 IDIUse=1 WtCom= 1.00D+00 WtEn= 0.00D+00
 Coeff-Com: -0.669D-03 0.518D-01 0.475D-01 0.805D-01 0.233D+00 0.588D+00
 Coeff:     -0.669D-03 0.518D-01 0.475D-01 0.805D-01 0.233D+00 0.588D+00
 Gap=     0.171 Goal=   None    Shift=    0.000
 RMSDP=1.67D-08 MaxDP=5.10D-07 DE=-2.81D-10 OVMax= 1.52D-06

 Cycle  14  Pass 1  IDiag  1:
 RMSU=  1.22D-08    CP:  1.00D+00  1.01D+00  4.77D-01  4.78D-01  7.47D-01
                    CP:  7.76D-01
 E= -890.870102724999     Delta-E=       -0.000000000007 Rises=F Damp=F
 DIIS: error= 6.08D-08 at cycle   7 NSaved=   7.
 NSaved= 7 IEnMin= 7 EnMin= -890.870102724999     IErMin= 7 ErrMin= 6.08D-08
 ErrMax= 6.08D-08  0.00D+00 EMaxC= 1.00D-01 BMatC= 2.67D-12 BMatP= 1.60D-11
 IDIUse=1 WtCom= 1.00D+00 WtEn= 0.00D+00
 Coeff-Com: -0.187D-03 0.133D-01 0.123D-01 0.226D-01 0.946D-01 0.350D+00
 Coeff-Com:  0.507D+00
 Coeff:     -0.187D-03 0.133D-01 0.123D-01 0.226D-01 0.946D-01 0.350D+00
 Coeff:      0.507D+00
 Gap=     0.171 Goal=   None    Shift=    0.000
 RMSDP=6.35D-09 MaxDP=2.43D-07 DE=-7.28D-12 OVMax= 7.07D-07

 SCF Done:  E(RB3LYP) =  -890.870102725     A.U. after   14 cycles
            NFock= 14  Conv=0.63D-08     -V/T= 2.0087
 KE= 8.831874922628D+02 PE=-5.778846506423D+03 EE= 2.146499141207D+03
 Leave Link  502 at Fri Nov  4 22:50:52 2022, MaxMem=   805306368 cpu:             460.6 elap:              66.3
 (Enter /home/wykgroup/appl/g16/l508.exe)
 QCSCF skips out because SCF is already converged.
 Leave Link  508 at Fri Nov  4 22:50:52 2022, MaxMem=   805306368 cpu:               0.2 elap:               0.1
 (Enter /home/wykgroup/appl/g16/l601.exe)
 Copying SCF densities to generalized density rwf, IOpCl= 0 IROHF=0.

 **********************************************************************

            Population analysis using the SCF Density.

 **********************************************************************

 Orbital symmetries:
       Occupied  (A) (A) (A) (A) (A) (A) (A) (A) (A) (A) (A) (A)
                 (A) (A) (A) (A) (A) (A) (A) (A) (A) (A) (A) (A)
                 (A) (A) (A) (A) (A) (A) (A) (A) (A) (A) (A) (A)
                 (A) (A) (A) (A) (A) (A) (A) (A) (A) (A) (A) (A)
                 (A) (A) (A) (A) (A) (A) (A) (A) (A) (A) (A) (A)
                 (A) (A) (A) (A) (A) (A) (A) (A) (A) (A) (A) (A)
                 (A) (A) (A) (A) (A) (A) (A) (A) (A)
       Virtual   (A) (A) (A) (A) (A) (A) (A) (A) (A) (A) (A) (A)
                 (A) (A) (A) (A) (A) (A) (A) (A) (A) (A) (A) (A)
                 (A) (A) (A) (A) (A) (A) (A) (A) (A) (A) (A) (A)
                 (A) (A) (A) (A) (A) (A) (A) (A) (A) (A) (A) (A)
                 (A) (A) (A) (A) (A) (A) (A) (A) (A) (A) (A) (A)
                 (A) (A) (A) (A) (A) (A) (A) (A) (A) (A) (A) (A)
                 (A) (A) (A) (A) (A) (A) (A) (A) (A) (A) (A) (A)
                 (A) (A) (A) (A) (A) (A) (A) (A) (A) (A) (A) (A)
                 (A) (A) (A) (A) (A) (A) (A) (A) (A) (A) (A) (A)
                 (A) (A) (A) (A) (A) (A) (A) (A) (A) (A) (A) (A)
                 (A) (A) (A) (A) (A) (A) (A) (A) (A) (A) (A) (A)
                 (A) (A) (A) (A) (A) (A) (A) (A) (A) (A) (A) (A)
                 (A) (A) (A) (A) (A) (A) (A) (A) (A) (A) (A) (A)
                 (A) (A) (A) (A) (A) (A) (A) (A) (A) (A) (A) (A)
                 (A) (A) (A) (A) (A) (A) (A) (A) (A) (A) (A) (A)
                 (A) (A) (A) (A) (A) (A) (A) (A) (A) (A) (A) (A)
                 (A) (A) (A) (A) (A) (A) (A) (A) (A) (A) (A) (A)
                 (A) (A) (A) (A) (A) (A) (A) (A) (A) (A) (A) (A)
                 (A) (A) (A) (A) (A) (A) (A) (A) (A) (A) (A) (A)
                 (A) (A) (A) (A) (A) (A) (A) (A) (A) (A) (A) (A)
                 (A) (A) (A) (A) (A) (A) (A) (A) (A) (A) (A) (A)
                 (A) (A) (A) (A) (A) (A) (A) (A) (A) (A) (A) (A)
                 (A) (A) (A) (A) (A) (A) (A) (A) (A) (A) (A) (A)
                 (A) (A) (A) (A) (A) (A) (A) (A) (A) (A) (A) (A)
                 (A) (A) (A) (A) (A) (A) (A) (A) (A) (A) (A) (A)
                 (A) (A) (A) (A) (A) (A) (A) (A) (A) (A) (A) (A)
 The electronic state is 1-A.
 Alpha  occ. eigenvalues --  -10.19641 -10.19560 -10.19314 -10.18990 -10.18560
 Alpha  occ. eigenvalues --  -10.18422 -10.18380 -10.18227 -10.18214 -10.18174
 Alpha  occ. eigenvalues --  -10.18166 -10.18119 -10.18047 -10.17897 -10.17887
 Alpha  occ. eigenvalues --  -10.17818 -10.17721 -10.17160 -10.16893 -10.16793
 Alpha  occ. eigenvalues --  -10.16503 -10.16194 -10.16021  -0.88847  -0.87294
 Alpha  occ. eigenvalues --   -0.83994  -0.80643  -0.79707  -0.76599  -0.75127
 Alpha  occ. eigenvalues --   -0.73879  -0.72414  -0.68691  -0.68270  -0.67986
 Alpha  occ. eigenvalues --   -0.67509  -0.65918  -0.62507  -0.58198  -0.57889
 Alpha  occ. eigenvalues --   -0.57186  -0.56029  -0.52893  -0.51708  -0.50456
 Alpha  occ. eigenvalues --   -0.49009  -0.47630  -0.47172  -0.45612  -0.44758
 Alpha  occ. eigenvalues --   -0.43973  -0.43845  -0.43283  -0.43213  -0.42290
 Alpha  occ. eigenvalues --   -0.41788  -0.40736  -0.40359  -0.39837  -0.39007
 Alpha  occ. eigenvalues --   -0.38477  -0.37951  -0.37260  -0.36456  -0.36199
 Alpha  occ. eigenvalues --   -0.35594  -0.35190  -0.34957  -0.34558  -0.34226
 Alpha  occ. eigenvalues --   -0.33227  -0.32855  -0.32003  -0.30986  -0.30350
 Alpha  occ. eigenvalues --   -0.28559  -0.27126  -0.24686  -0.23886  -0.20872
 Alpha  occ. eigenvalues --   -0.19843
 Alpha virt. eigenvalues --   -0.02736  -0.00915  -0.00293   0.01674   0.04855
 Alpha virt. eigenvalues --    0.08561   0.09322   0.10314   0.10768   0.11365
 Alpha virt. eigenvalues --    0.12306   0.12622   0.13475   0.14115   0.14556
 Alpha virt. eigenvalues --    0.14971   0.15876   0.16190   0.16614   0.17159
 Alpha virt. eigenvalues --    0.17425   0.17938   0.18417   0.18937   0.19549
 Alpha virt. eigenvalues --    0.20091   0.20227   0.20743   0.21284   0.22010
 Alpha virt. eigenvalues --    0.22477   0.22731   0.23399   0.24375   0.24921
 Alpha virt. eigenvalues --    0.25327   0.26364   0.26634   0.27504   0.27801
 Alpha virt. eigenvalues --    0.28722   0.29431   0.30036   0.30802   0.31993
 Alpha virt. eigenvalues --    0.33750   0.34330   0.37483   0.37690   0.38346
 Alpha virt. eigenvalues --    0.41350   0.42207   0.44729   0.45584   0.49356
 Alpha virt. eigenvalues --    0.49990   0.50274   0.51079   0.51819   0.52342
 Alpha virt. eigenvalues --    0.52507   0.53762   0.54482   0.55584   0.56075
 Alpha virt. eigenvalues --    0.56558   0.57216   0.57779   0.58000   0.58549
 Alpha virt. eigenvalues --    0.59274   0.59478   0.59739   0.60414   0.60802
 Alpha virt. eigenvalues --    0.61417   0.61590   0.62041   0.62458   0.62551
 Alpha virt. eigenvalues --    0.62656   0.63144   0.63955   0.64612   0.66071
 Alpha virt. eigenvalues --    0.66210   0.67074   0.67356   0.69311   0.70037
 Alpha virt. eigenvalues --    0.70477   0.71670   0.72377   0.74202   0.74801
 Alpha virt. eigenvalues --    0.75637   0.76474   0.77304   0.78057   0.79254
 Alpha virt. eigenvalues --    0.79451   0.81335   0.81599   0.82520   0.83426
 Alpha virt. eigenvalues --    0.84297   0.84849   0.85070   0.85668   0.86378
 Alpha virt. eigenvalues --    0.86674   0.87392   0.87565   0.88314   0.88552
 Alpha virt. eigenvalues --    0.89334   0.89577   0.90216   0.90873   0.91038
 Alpha virt. eigenvalues --    0.91887   0.92002   0.92118   0.92538   0.92617
 Alpha virt. eigenvalues --    0.94361   0.94773   0.95470   0.96445   0.97158
 Alpha virt. eigenvalues --    0.97891   0.98719   0.99856   1.00856   1.01921
 Alpha virt. eigenvalues --    1.02376   1.03133   1.03351   1.04745   1.06296
[...]
     8  C    0.000223  -0.000218  -0.000037  -0.000007  -0.000318   0.347955
     9  C    0.000000  -0.000013   0.000000  -0.000000   0.000006  -0.042804
    10  C   -0.000000   0.000000   0.000000   0.000000   0.000004   0.002353
    11  C    0.000000  -0.000000  -0.000000   0.000000   0.000325   0.000961
    12  C    0.000003   0.000005   0.000004  -0.000025   0.004253   0.006108
    13  C    0.000000   0.000000   0.000000   0.000000  -0.000008   0.000011
    14  C    0.000000  -0.000000  -0.000000  -0.000000   0.000000   0.000002
    15  C   -0.000000   0.000000  -0.000000   0.000000   0.000000  -0.000000
    16  C    0.000000  -0.000000   0.000000   0.000000  -0.000000  -0.000000
    17  C   -0.000000  -0.000000  -0.000000  -0.000000   0.000000  -0.000000
    18  C   -0.000000  -0.000000  -0.000000  -0.000000  -0.000000  -0.000001
    19  C   -0.000000   0.000000  -0.000000   0.000000  -0.000000  -0.000186
    20  C    0.000845  -0.000020  -0.000140  -0.000095  -0.002493   0.000421
    21  C   -0.000006   0.000002   0.000005  -0.000004   0.000433  -0.000006
    22  C   -0.002068   0.000249  -0.000001   0.000003  -0.000065  -0.000142
    23  C    0.000267   0.000040  -0.000024  -0.000036   0.000027  -0.000009
    24  H   -0.041507  -0.027789   0.000063   0.000003  -0.000000   0.004637
    25  H    0.581205  -0.028667   0.000104   0.000003  -0.000001   0.000093
    26  H   -0.028667   0.565171   0.005513  -0.000004   0.000003   0.000483
    27  H    0.000104   0.005513   0.613919  -0.001597  -0.000150   0.000028
    28  H    0.000003  -0.000004  -0.001597   0.603615  -0.003910   0.000000
    29  H   -0.000001   0.000003  -0.000150  -0.003910   0.590979  -0.000004
    30  H    0.000093   0.000483   0.000028   0.000000  -0.000004   0.598654
    31  H   -0.000000  -0.000001   0.000000   0.000000  -0.000000  -0.004884
    32  H   -0.000000   0.000000   0.000000   0.000008   0.001359  -0.000181
    33  H    0.000000   0.000000   0.000000   0.000000   0.000000  -0.000000
    34  H   -0.000000  -0.000000  -0.000000   0.000000  -0.000002   0.000000
    35  H    0.000000   0.000000  -0.000000   0.000000  -0.000000   0.000000
    36  H   -0.000000   0.000000   0.000000   0.000000  -0.000000   0.000000
    37  H    0.000000   0.000000   0.000000  -0.000000   0.000000   0.000000
    38  H    0.000000  -0.000000   0.000000   0.000000  -0.000000   0.000001
    39  H    0.000002  -0.000000   0.000000   0.000009   0.001933   0.000001
    40  H    0.000001  -0.000000  -0.000000  -0.000000  -0.000037   0.000000
    41  H    0.000000  -0.000000   0.000000  -0.000000  -0.000153   0.000000
    42  H    0.003461   0.000179   0.000001   0.000000  -0.000001  -0.000248
    43  H    0.000021  -0.000004  -0.000000  -0.000000   0.000002   0.000003
    44  H    0.000022  -0.000007   0.000000   0.000000  -0.000003  -0.000068
    45  H    0.005880   0.000053   0.000032  -0.000001   0.000003  -0.000002
    46  H    0.000124  -0.000006   0.000013   0.000061  -0.000091   0.000000
    47  H   -0.000139  -0.000000  -0.000000  -0.000000   0.000005   0.000000
              31         32         33         34         35         36
     1  C    0.000004   0.000002  -0.000000  -0.000000  -0.000000  -0.000000
     2  C   -0.000006   0.000015   0.000000  -0.000000   0.000000   0.000000
     3  C   -0.000000  -0.000045   0.000000  -0.000000  -0.000000   0.000000
     4  C    0.000001   0.000257  -0.000000   0.000000   0.000000   0.000000
     5  C    0.000002   0.001851   0.000000   0.000000   0.000000  -0.000000
     6  C   -0.000145  -0.007503   0.000002   0.000002  -0.000000  -0.000000
     7  C    0.003117  -0.045649  -0.000133  -0.000157  -0.000000  -0.000000
     8  C   -0.043558   0.005319   0.000019   0.000039  -0.000000   0.000000
     9  C    0.344777   0.000581  -0.000180  -0.000194   0.000001  -0.000000
    10  C   -0.031273   0.004688   0.000755   0.000602  -0.000302   0.000007
    11  C    0.005370  -0.039972  -0.019286  -0.019436   0.000296   0.000003
    12  C    0.000687   0.347050  -0.001197  -0.000751   0.000005  -0.000000
    13  C   -0.000296  -0.007538   0.337131   0.336660  -0.007517  -0.000154
    14  C    0.000010   0.000309  -0.020116  -0.019390  -0.041063   0.002906
    15  C    0.000008   0.000006  -0.000560  -0.000637   0.354981  -0.039477
    16  C   -0.000000  -0.000000  -0.000111  -0.000115  -0.046760   0.357404
    17  C   -0.000020  -0.000000   0.000030   0.000030   0.004510  -0.041108
    18  C    0.002604   0.000001  -0.000193  -0.000192   0.000637   0.004407
    19  C   -0.008231  -0.000311   0.000247   0.000230   0.004685   0.000993
    20  C   -0.000000  -0.000864  -0.000001   0.000000  -0.000000   0.000000
    21  C    0.000000   0.000674   0.000008  -0.000002  -0.000000  -0.000000
    22  C    0.000000   0.000171   0.000000  -0.000000   0.000000  -0.000000
    23  C   -0.000000  -0.000046   0.000000   0.000000   0.000000  -0.000000
    24  H    0.000017   0.000000   0.000000  -0.000000   0.000000  -0.000000
    25  H   -0.000000  -0.000000   0.000000  -0.000000   0.000000  -0.000000
    26  H   -0.000001   0.000000   0.000000  -0.000000   0.000000   0.000000
    27  H    0.000000   0.000000   0.000000  -0.000000  -0.000000   0.000000
    28  H    0.000000   0.000008   0.000000   0.000000   0.000000   0.000000
    29  H   -0.000000   0.001359   0.000000  -0.000002  -0.000000  -0.000000
    30  H   -0.004884  -0.000181  -0.000000   0.000000   0.000000   0.000000
    31  H    0.602168   0.000023   0.000004   0.000004   0.000000  -0.000000
    32  H    0.000023   0.608778   0.001346   0.001474   0.000000  -0.000000
    33  H    0.000004   0.001346   0.566099  -0.035492   0.001271   0.000000
    34  H    0.000004   0.001474  -0.035492   0.564173   0.001253   0.000000
    35  H    0.000000   0.000000   0.001271   0.001253   0.609295  -0.005027
    36  H   -0.000000  -0.000000   0.000000   0.000000  -0.005027   0.599345
    37  H    0.000001   0.000000  -0.000000  -0.000000  -0.000180  -0.005251
    38  H    0.002553   0.000000   0.000004   0.000004   0.000021  -0.000179
    39  H   -0.000000   0.001105  -0.000001  -0.000000  -0.000000   0.000000
    40  H    0.000000   0.000087  -0.000000   0.000000   0.000000  -0.000000
    41  H   -0.000000   0.001230   0.000012   0.000005   0.000000   0.000000
    42  H    0.000000  -0.000007  -0.000000   0.000000  -0.000000   0.000000
    43  H    0.000000   0.000004   0.000000  -0.000000   0.000000  -0.000000
    44  H   -0.000002  -0.000044   0.000001  -0.000000  -0.000000  -0.000000
    45  H    0.000000  -0.000001  -0.000000   0.000000   0.000000  -0.000000
    46  H   -0.000000  -0.000006   0.000000  -0.000000  -0.000000  -0.000000
    47  H    0.000000   0.000003  -0.000000   0.000000   0.000000   0.000000
              37         38         39         40         41         42
     1  C   -0.000000  -0.000000   0.000002   0.000002  -0.000002   0.001971
     2  C    0.000000   0.000000  -0.000042  -0.000097  -0.000083  -0.000723
     3  C   -0.000000   0.000000  -0.000038  -0.000003   0.000004  -0.000020
     4  C    0.000000   0.000000   0.000203   0.000002  -0.000012   0.000007
     5  C    0.000000   0.000000   0.005876   0.000222  -0.000191  -0.000090
     6  C   -0.000000  -0.000000  -0.007367   0.004492  -0.004335  -0.002193
     7  C   -0.000000  -0.000001   0.000169   0.000121   0.001900  -0.000440
     8  C   -0.000000  -0.000006   0.000005   0.000003   0.000009  -0.000020
     9  C   -0.000001   0.002642  -0.000000  -0.000000  -0.000028   0.000005
    10  C   -0.000185  -0.008874   0.000000   0.000000   0.000001  -0.000001
    11  C    0.000003   0.000034   0.000003  -0.000002   0.000701   0.000004
    12  C   -0.000000   0.000009  -0.001003   0.000123   0.004010   0.000055
    13  C    0.000011  -0.000281  -0.000001   0.000000  -0.000018   0.000000
    14  C    0.001121   0.005321  -0.000000  -0.000000   0.000001   0.000000
    15  C    0.004310   0.000519   0.000000  -0.000000   0.000000   0.000000
    16  C   -0.040333   0.004259  -0.000000   0.000000  -0.000000  -0.000000
    17  C    0.356962  -0.047818  -0.000000  -0.000000   0.000000  -0.000000
    18  C   -0.038459   0.347852  -0.000000   0.000000  -0.000000   0.000000
    19  C    0.002097  -0.032415   0.000000   0.000000  -0.000001   0.000000
    20  C   -0.000000   0.000000  -0.027893  -0.028230  -0.027637  -0.029187
    21  C   -0.000000  -0.000000   0.362570   0.362159   0.361332   0.005762
    22  C    0.000000  -0.000000   0.006063  -0.005135  -0.005109   0.364725
    23  C    0.000000  -0.000000  -0.003997  -0.007669   0.005984  -0.004591
    24  H    0.000000   0.000000  -0.000001  -0.000000  -0.000001   0.001256
    25  H    0.000000   0.000000   0.000002   0.000001   0.000000   0.003461
    26  H    0.000000  -0.000000  -0.000000  -0.000000  -0.000000   0.000179
    27  H    0.000000   0.000000   0.000000  -0.000000   0.000000   0.000001
    28  H   -0.000000   0.000000   0.000009  -0.000000  -0.000000   0.000000
    29  H    0.000000  -0.000000   0.001933  -0.000037  -0.000153  -0.000001
    30  H    0.000000   0.000001   0.000001   0.000000   0.000000  -0.000248
    31  H    0.000001   0.002553  -0.000000   0.000000  -0.000000   0.000000
    32  H    0.000000   0.000000   0.001105   0.000087   0.001230  -0.000007
    33  H   -0.000000   0.000004  -0.000001  -0.000000   0.000012  -0.000000
    34  H   -0.000000   0.000004  -0.000000   0.000000   0.000005   0.000000
    35  H   -0.000180   0.000021  -0.000000   0.000000   0.000000  -0.000000
    36  H   -0.005251  -0.000179   0.000000  -0.000000   0.000000   0.000000
    37  H    0.597734  -0.004780  -0.000000   0.000000  -0.000000  -0.000000
    38  H   -0.004780   0.602758  -0.000000   0.000000  -0.000000  -0.000000
    39  H   -0.000000  -0.000000   0.581625  -0.029676  -0.031895  -0.000199
    40  H    0.000000   0.000000  -0.029676   0.583102  -0.029047  -0.000019
    41  H   -0.000000  -0.000000  -0.031895  -0.029047   0.569622   0.000014
    42  H   -0.000000  -0.000000  -0.000199  -0.000019   0.000014   0.573075
    43  H    0.000000   0.000000   0.000019   0.004873  -0.000158  -0.029841
    44  H    0.000000  -0.000000  -0.000038  -0.000211   0.004123  -0.030181
    45  H    0.000000   0.000000  -0.000054   0.000029  -0.000195   0.002679
    46  H   -0.000000  -0.000000   0.003498  -0.000033  -0.000057  -0.000005
    47  H    0.000000   0.000000  -0.000234   0.005421   0.000011  -0.000045
              43         44         45         46         47
     1  C   -0.000037  -0.000047  -0.000962   0.000142   0.000068
     2  C    0.000125   0.000126   0.005061  -0.002835   0.000389
     3  C    0.000005  -0.000004  -0.000435  -0.000670   0.000073
     4  C   -0.000000  -0.000005   0.000197   0.002766   0.000001
     5  C   -0.000111   0.000110  -0.000188   0.011439  -0.000115
     6  C    0.004552  -0.007961  -0.007054  -0.007591   0.005221
     7  C    0.000279   0.007661  -0.000044   0.000072  -0.000072
     8  C    0.000010   0.001780  -0.000004   0.000004  -0.000000
     9  C    0.000000   0.000059   0.000000   0.000000  -0.000000
    10  C    0.000000  -0.000046  -0.000000  -0.000000   0.000000
    11  C   -0.000003  -0.000060   0.000000   0.000000  -0.000000
    12  C   -0.000006   0.001167   0.000004  -0.000009  -0.000004
    13  C   -0.000000  -0.000003  -0.000000   0.000000   0.000000
    14  C    0.000000   0.000000   0.000000  -0.000000  -0.000000
    15  C   -0.000000   0.000000  -0.000000   0.000000  -0.000000
    16  C   -0.000000  -0.000000   0.000000  -0.000000   0.000000
    17  C   -0.000000   0.000000  -0.000000  -0.000000  -0.000000
    18  C    0.000000   0.000000  -0.000000   0.000000  -0.000000
    19  C    0.000000  -0.000001  -0.000000   0.000000   0.000000
    20  C   -0.028914  -0.026959  -0.026918  -0.025776  -0.028774
    21  C   -0.006892  -0.004896   0.005808  -0.005088  -0.006926
    22  C    0.362115   0.366567  -0.005142   0.005724  -0.004778
    23  C   -0.004082   0.005554   0.365739   0.363971   0.363839
    24  H    0.000057   0.000268  -0.000057  -0.000018   0.000002
    25  H    0.000021   0.000022   0.005880   0.000124  -0.000139
    26  H   -0.000004  -0.000007   0.000053  -0.000006  -0.000000
    27  H   -0.000000   0.000000   0.000032   0.000013  -0.000000
    28  H   -0.000000   0.000000  -0.000001   0.000061  -0.000000
    29  H    0.000002  -0.000003   0.000003  -0.000091   0.000005
    30  H    0.000003  -0.000068  -0.000002   0.000000   0.000000
    31  H    0.000000  -0.000002   0.000000  -0.000000   0.000000
    32  H    0.000004  -0.000044  -0.000001  -0.000006   0.000003
    33  H    0.000000   0.000001  -0.000000   0.000000  -0.000000
    34  H   -0.000000  -0.000000   0.000000  -0.000000   0.000000
    35  H    0.000000  -0.000000   0.000000  -0.000000   0.000000
    36  H   -0.000000  -0.000000  -0.000000  -0.000000   0.000000
    37  H    0.000000   0.000000   0.000000  -0.000000   0.000000
    38  H    0.000000  -0.000000   0.000000  -0.000000   0.000000
    39  H    0.000019  -0.000038  -0.000054   0.003498  -0.000234
    40  H    0.004873  -0.000211   0.000029  -0.000033   0.005421
    41  H   -0.000158   0.004123  -0.000195  -0.000057   0.000011
    42  H   -0.029841  -0.030181   0.002679  -0.000005  -0.000045
    43  H    0.587323  -0.029515  -0.000096  -0.000086   0.003627
    44  H   -0.029515   0.558094   0.000008  -0.000178  -0.000097
    45  H   -0.000096   0.000008   0.570403  -0.028716  -0.030929
    46  H   -0.000086  -0.000178  -0.028716   0.561555  -0.030492
    47  H    0.003627  -0.000097  -0.030929  -0.030492   0.589723
 Mulliken charges:
               1
     1  C   -0.532989
     2  C    0.132064
     3  C   -0.164925
     4  C   -0.119649
     5  C   -0.141924
     6  C   -0.098697
     7  C    0.160754
     8  C   -0.193124
     9  C   -0.200437
    10  C    0.091525
    11  C    0.105210
    12  C   -0.257785
    13  C   -0.419332
    14  C    0.107918
    15  C   -0.203970
    16  C   -0.129511
    17  C   -0.137980
    18  C   -0.190914
    19  C    0.085412
    20  C    0.097244
    21  C   -0.458131
    22  C   -0.460825
    23  C   -0.450095
    24  H    0.159467
    25  H    0.162386
    26  H    0.154973
    27  H    0.119174
    28  H    0.125847
    29  H    0.131107
    30  H    0.130353
    31  H    0.127066
    32  H    0.125825
    33  H    0.170340
    34  H    0.171891
    35  H    0.123893
    36  H    0.126132
    37  H    0.126949
    38  H    0.128377
    39  H    0.139355
    40  H    0.139521
    41  H    0.149962
    42  H    0.144615
    43  H    0.136730
    44  H    0.154783
    45  H    0.144902
    46  H    0.152289
    47  H    0.134224
 Sum of Mulliken charges =  -0.00000
 Mulliken charges with hydrogens summed into heavy atoms:
               1
     1  C   -0.056163
     2  C    0.132064
     3  C   -0.045751
     4  C    0.006197
     5  C   -0.010817
     6  C   -0.098697
     7  C    0.160754
     8  C   -0.062771
     9  C   -0.073371
    10  C    0.091525
    11  C    0.105210
    12  C   -0.131960
    13  C   -0.077101
    14  C    0.107918
    15  C   -0.080077
    16  C   -0.003379
    17  C   -0.011031
    18  C   -0.062537
    19  C    0.085412
    20  C    0.097244
    21  C   -0.029293
    22  C   -0.024698
    23  C   -0.018680
 Electronic spatial extent (au):  <R**2>=           8704.9050
 Charge=             -0.0000 electrons
 Dipole moment (field-independent basis, Debye):
    X=             -0.1540    Y=             -0.3720    Z=             -0.1043  Tot=              0.4159
 Quadrupole moment (field-independent basis, Debye-Ang):
   XX=           -130.4908   YY=           -127.6320   ZZ=           -137.5761
   XY=             -3.1161   XZ=              0.2754   YZ=             -4.1361
 Traceless Quadrupole moment (field-independent basis, Debye-Ang):
   XX=              1.4088   YY=              4.2676   ZZ=             -5.6764
   XY=             -3.1161   XZ=              0.2754   YZ=             -4.1361
 Octapole moment (field-independent basis, Debye-Ang**2):
  XXX=             50.9869  YYY=              5.9874  ZZZ=             10.6978  XYY=              7.9192
  XXY=              9.7175  XXZ=             -1.2892  XZZ=            -21.5638  YZZ=             -3.9464
  YYZ=             -2.1708  XYZ=            -13.5260
 Hexadecapole moment (field-independent basis, Debye-Ang**3):
 XXXX=          -9143.2314 YYYY=          -1526.7364 ZZZZ=          -1009.0620 XXXY=            -62.2915
 XXXZ=            -10.3069 YYYX=            -19.2194 YYYZ=            -19.2423 ZZZX=            -27.9256
 ZZZY=              0.7740 XXYY=          -1736.8910 XXZZ=          -1786.8529 YYZZ=           -424.4573
 XXYZ=            -36.9477 YYXZ=             -7.7408 ZZXY=             -6.6095
 N-N= 1.836248626332D+03 E-N=-5.733888252016D+03  KE= 8.821416022972D+02
 No NMR shielding tensors so no spin-rotation constants.
 Leave Link  601 at Fri Nov  4 23:06:23 2022, MaxMem=   805306368 cpu:               1.3 elap:               0.2
 (Enter /home/wykgroup/appl/g16/l9999.exe)
 1\1\GINC-NODE92\FOpt\RB3LYP\6-31G(d)\C23H24\WYKGROUP\04-Nov-2022\0\\#p
  b3lyp/6-31g(d) opt SCF=XQC\\Gaussian input prepared by ASE\\0,1\C,-1.
 1395737554,-2.4459860126,2.8917750531\C,-1.1812353267,-2.5596946713,1.
 3909576763\C,-1.1385096061,-3.7452936202,0.7445022838\C,-1.345630032,-
 3.5593028249,-0.6888426456\C,-1.5281827359,-2.2511309146,-0.9370308486
 \C,-1.4023047749,-1.4312029799,0.3488965006\C,-0.1385956614,-0.5451170
 409,0.1667705049\C,0.9143016443,-0.5306629322,1.0997787963\C,2.0599497
 52,0.2489893917,0.9233305345\C,2.1794176114,1.0408903736,-0.2159955212
 \C,1.1490177592,1.0255751379,-1.1760177988\C,0.0182599775,0.2427711864
 ,-0.9948650478\C,1.5079431571,1.9355148644,-2.3356894751\C,2.861696003
 2,2.4820722199,-1.9243965258\C,3.6941822432,3.375528026,-2.5884751669\
 C,4.9129124888,3.7346709246,-2.0011217124\C,5.2894859003,3.2026845455,
 -0.7629623732\C,4.4574312465,2.304684594,-0.0912114025\C,3.2408482801,
 1.945224288,-0.6755858291\C,-2.731199562,-0.5811866412,0.6545606906\C,
 -3.1475689667,0.3083969863,-0.5391322268\C,-2.5341452935,0.3601535783,
 1.8612830014\C,-3.9056980835,-1.5448560479,0.9328467453\H,-0.553892063
 2,-1.5987690681,3.2606716013\H,-2.1452770968,-2.3293381401,3.3185827\H
 ,-0.7157435269,-3.3609213252,3.3210916689\H,-0.9945772822,-4.709194028
 7,1.2247584582\H,-1.3374953084,-4.3573673699,-1.4242924132\H,-1.664826
 8953,-1.805968561,-1.9138856706\H,0.8623379342,-1.1546966409,1.9805018
 828\H,2.8471729306,0.2226226859,1.6728346039\H,-0.7397831031,0.2311984
 795,-1.7696347156\H,0.7676962163,2.7353502502,-2.4777804568\H,1.558170
 4552,1.3883862612,-3.2876363572\H,3.4074976027,3.7925465667,-3.5512884
 809\H,5.5718928864,4.4324276515,-2.5109410357\H,6.2389433935,3.4913600
 252,-0.3197097993\H,4.7555227536,1.8950776308,0.8706546496\H,-3.298397
 2099,-0.2686154664,-1.4575199729\H,-4.1002400022,0.7970627068,-0.30249
 17082\H,-2.422232831,1.1013404549,-0.7386429817\H,-2.34174719,-0.17659
 18791,2.792769182\H,-3.4427713443,0.955928402,2.0124344395\H,-1.704732
 7876,1.0549800727,1.6938109183\H,-3.7592045782,-2.132093972,1.84324284
 91\H,-4.0472594491,-2.2437659922,0.1017545949\H,-4.8338557695,-0.97368
 0175,1.0549968315\\Version=ES64L-G16RevB.01\State=1-A\HF=-890.8770498\
 RMSD=2.778e-09\RMSF=7.718e-06\Dipole=-0.1435991,0.0604474,-0.0499587\Q
 uadrupole=-1.465095,-1.6616845,3.1267795,1.8140576,1.6354991,-4.005651
 6\PG=C01 [X(C23H24)]\\@


 NO SCIENCE HAS EVER MADE MORE RAPID PROGRESS IN A
 SHORTER TIME THAN CHEMISTRY.
   -- MARTIN HEINRICH KLOPROTH, 1791
 (FIRST PROFESSOR OF CHEMISTRY AT THE UNIVERSITY OF BERLIN)
 Job cpu time:       0 days  1 hours 54 minutes 55.7 seconds.
 Elapsed time:       0 days  0 hours 16 minutes 41.6 seconds.
 File lengths (MBytes):  RWF=    102 Int=      0 D2E=      0 Chk=     15 Scr=      1
 Normal termination of Gaussian 16 at Fri Nov  4 23:06:24 2022.
