 Entering Gaussian System, Link 0=/home/wykgroup/appl/g16/g16
 Input=./calculation/no_transfer_pubchem_sampling_0_b3lyp/119202993.com
 Output=./calculation/no_transfer_pubchem_sampling_0_b3lyp/119202993.log
 Initial command:
 /home/wykgroup/appl/g16/l1.exe "/userdata/scratch/wykgroup/khs/./calculation/no_transfer_pubchem_sampling_0_b3lyp/119202993/Gau-14760.inp" -scrdir="/userdata/scratch/wykgroup/khs/./calculation/no_transfer_pubchem_sampling_0_b3lyp/119202993/"
 Entering Link 1 = /home/wykgroup/appl/g16/l1.exe PID=     14764.
  
 Copyright (c) 1988-2017, Gaussian, Inc.  All Rights Reserved.
  
 This is part of the Gaussian(R) 16 program.  It is based on
 the Gaussian(R) 09 system (copyright 2009, Gaussian, Inc.),
 the Gaussian(R) 03 system (copyright 2003, Gaussian, Inc.),
 the Gaussian(R) 98 system (copyright 1998, Gaussian, Inc.),
 the Gaussian(R) 94 system (copyright 1995, Gaussian, Inc.),
 the Gaussian 92(TM) system (copyright 1992, Gaussian, Inc.),
 the Gaussian 90(TM) system (copyright 1990, Gaussian, Inc.),
 the Gaussian 88(TM) system (copyright 1988, Gaussian, Inc.),
 the Gaussian 86(TM) system (copyright 1986, Carnegie Mellon
 University), and the Gaussian 82(TM) system (copyright 1983,
 Carnegie Mellon University). Gaussian is a federally registered
 trademark of Gaussian, Inc.
  
 This software contains proprietary and confidential information,
 including trade secrets, belonging to Gaussian, Inc.
  
 This software is provided under written license and may be
 used, copied, transmitted, or stored only in accord with that
 written license.
  
 The following legend is applicable only to US Government
 contracts under FAR:
  
                    RESTRICTED RIGHTS LEGEND
  
 Use, reproduction and disclosure by the US Government is
 subject to restrictions as set forth in subparagraphs (a)
 and (c) of the Commercial Computer Software - Restricted
 Rights clause in FAR 52.227-19.
  
 Gaussian, Inc.
 340 Quinnipiac St., Bldg. 40, Wallingford CT 06492
  
  
 ---------------------------------------------------------------
 Warning -- This program may not be used in any manner that
 competes with the business of Gaussian, Inc. or will provide
 assistance to any competitor of Gaussian, Inc.  The licensee
 of this program is prohibited from giving any competitor of
 Gaussian, Inc. access to this program.  By using this program,
 the user acknowledges that Gaussian, Inc. is engaged in the
 business of creating and licensing software in the field of
 computational chemistry and represents and warrants to the
 licensee that it is not a competitor of Gaussian, Inc. and that
 it will not use this program in any manner prohibited above.
 ---------------------------------------------------------------
  

 Cite this work as:
 Gaussian 16, Revision B.01,
 M. J. Frisch, G. W. Trucks, H. B. Schlegel, G. E. Scuseria, 
 M. A. Robb, J. R. Cheeseman, G. Scalmani, V. Barone, 
 G. A. Petersson, H. Nakatsuji, X. Li, M. Caricato, A. V. Marenich, 
 J. Bloino, B. G. Janesko, R. Gomperts, B. Mennucci, H. P. Hratchian, 
 J. V. Ortiz, A. F. Izmaylov, J. L. Sonnenberg, D. Williams-Young, 
 F. Ding, F. Lipparini, F. Egidi, J. Goings, B. Peng, A. Petrone, 
 T. Henderson, D. Ranasinghe, V. G. Zakrzewski, J. Gao, N. Rega, 
 G. Zheng, W. Liang, M. Hada, M. Ehara, K. Toyota, R. Fukuda, 
 J. Hasegawa, M. Ishida, T. Nakajima, Y. Honda, O. Kitao, H. Nakai, 
 T. Vreven, K. Throssell, J. A. Montgomery, Jr., J. E. Peralta, 
 F. Ogliaro, M. J. Bearpark, J. J. Heyd, E. N. Brothers, K. N. Kudin, 
 V. N. Staroverov, T. A. Keith, R. Kobayashi, J. Normand, 
 K. Raghavachari, A. P. Rendell, J. C. Burant, S. S. Iyengar, 
 J. Tomasi, M. Cossi, J. M. Millam, M. Klene, C. Adamo, R. Cammi, 
 J. W. Ochterski, R. L. Martin, K. Morokuma, O. Farkas, 
 J. B. Foresman, and D. J. Fox, Gaussian, Inc., Wallingford CT, 2016.
 
 ******************************************
 Gaussian 16:  ES64L-G16RevB.01 20-Dec-2017
                 4-Nov-2022 
 ******************************************
 %chk=./calculation/no_transfer_pubchem_sampling_0_b3lyp/119202993.chk
 %nprocshared=7
 Will use up to    7 processors via shared memory.
 %mem=6GB
 -----------------------------
 #p b3lyp/6-31g(d) opt SCF=XQC
 -----------------------------
 1/18=20,19=15,26=3,38=1/1,3;
 2/9=110,12=2,17=6,18=5,40=1/2;
 3/5=1,6=6,7=1,11=2,25=1,30=1,71=1,74=-5/1,2,3;
 4//1;
 5/5=2,8=3,13=1,38=5/2,8;
 6/7=2,8=2,9=2,10=2,28=1/1;
 7//1,2,3,16;
 1/18=20,19=15,26=3/3(2);
 2/9=110/2;
 99//99;
 2/9=110/2;
 3/5=1,6=6,7=1,11=2,25=1,30=1,71=1,74=-5/1,2,3;
 4/5=5,16=3,69=1/1;
 5/5=2,8=3,13=1,38=5/2,8;
 7//1,2,3,16;
 1/18=20,19=15,26=3/3(-5);
 2/9=110/2;
 6/7=2,8=2,9=2,10=2,19=2,28=1/1;
 99/9=1/99;
 Leave Link    1 at Fri Nov  4 18:12:56 2022, MaxMem=   805306368 cpu:               0.6 elap:               0.2
 (Enter /home/wykgroup/appl/g16/l101.exe)
 ------------------------------
 Gaussian input prepared by ASE
 ------------------------------
 Symbolic Z-matrix:
 Charge =  0 Multiplicity = 1
 C                    -4.77163   1.0382    1.39033 
 C                    -4.25546  -0.28593   0.81964 
 C                    -5.40548  -1.17733   0.35552 
 O                    -6.5641   -0.99439   0.60736 
 O                    -4.96233  -2.24466  -0.30917 
 N                    -3.2721   -0.11387  -0.22914 
 C                    -1.9217   -0.09535  -0.03588 
 O                    -1.16892   0.06386  -0.97456 
 C                    -1.42229  -0.27909   1.39 
 C                     0.10071  -0.18349   1.46995 
 C                     0.78233  -1.40406   0.83777 
 C                     2.25302  -1.3268    1.0058 
 N                     2.97317  -1.99801   1.85242 
 C                     4.2507   -1.56917   1.65882 
 C                     4.25942  -0.61953   0.67052 
 C                     5.31072   0.1652    0.06047 
 C                     5.00795   1.07458  -0.95384 
 C                     6.00931   1.82502  -1.53856 
 C                     7.3227    1.68082  -1.12246 
 C                     7.63101   0.77947  -0.11558 
 C                     6.63609   0.02515   0.4745 
 O                     2.96938  -0.4723    0.25939 
 C                    -3.68336   0.00422  -1.60433 
 C                    -3.83841   1.36123  -2.23101 
 C                    -5.03658   0.48692  -2.01496 
 H                    -3.96594   1.57359   1.88494 
 H                    -5.17467   1.67279   0.60765 
 H                    -5.56125   0.83677   2.10887 
 H                    -3.79416  -0.85644   1.63598 
 H                    -5.70267  -2.81012  -0.58139 
 H                    -1.8641    0.49125   2.02493 
 H                    -1.73965  -1.25736   1.75978 
 H                     0.43066   0.71461   0.94591 
 H                     0.40053  -0.10801   2.51737 
 H                     0.43775  -2.32053   1.31749 
 H                     0.53798  -1.42591  -0.22497 
 H                     5.05787  -1.96993   2.23533 
 H                     3.98331   1.18301  -1.27593 
 H                     5.76483   2.52595  -2.32327 
 H                     8.10443   2.26819  -1.58087 
 H                     8.65447   0.66496   0.21041 
 H                     6.87914  -0.67585   1.25781 
 H                    -3.22463  -0.76343  -2.21905 
 H                    -3.71929   2.2203   -1.58932 
 H                    -3.46521   1.50934  -3.23124 
 H                    -5.75957   0.7773   -1.2705 
 H                    -5.484     0.00882  -2.87399 
 
 ITRead=  0  0  0  0  0  0  0  0  0  0  0  0  0  0  0  0  0  0  0  0
 ITRead=  0  0  0  0  0  0  0  0  0  0  0  0  0  0  0  0  0  0  0  0
 ITRead=  0  0  0  0  0  0  0
 MicOpt= -1 -1 -1 -1 -1 -1 -1 -1 -1 -1 -1 -1 -1 -1 -1 -1 -1 -1 -1 -1
 MicOpt= -1 -1 -1 -1 -1 -1 -1 -1 -1 -1 -1 -1 -1 -1 -1 -1 -1 -1 -1 -1
 MicOpt= -1 -1 -1 -1 -1 -1 -1
 NAtoms=     47 NQM=       47 NQMF=       0 NMMI=      0 NMMIF=      0
                NMic=       0 NMicF=      0.
                    Isotopes and Nuclear Properties:
 (Nuclear quadrupole moments (NQMom) in fm**2, nuclear magnetic moments (NMagM)
  in nuclear magnetons)

  Atom         1           2           3           4           5           6           7           8           9          10
 IAtWgt=          12          12          12          16          16          14          12          16          12          12
 AtmWgt=  12.0000000  12.0000000  12.0000000  15.9949146  15.9949146  14.0030740  12.0000000  15.9949146  12.0000000  12.0000000
 NucSpn=           0           0           0           0           0           2           0           0           0           0
 AtZEff=  -0.0000000  -0.0000000  -0.0000000  -0.0000000  -0.0000000  -0.0000000  -0.0000000  -0.0000000  -0.0000000  -0.0000000
 NQMom=    0.0000000   0.0000000   0.0000000   0.0000000   0.0000000   2.0440000   0.0000000   0.0000000   0.0000000   0.0000000
 NMagM=    0.0000000   0.0000000   0.0000000   0.0000000   0.0000000   0.4037610   0.0000000   0.0000000   0.0000000   0.0000000
 AtZNuc=   6.0000000   6.0000000   6.0000000   8.0000000   8.0000000   7.0000000   6.0000000   8.0000000   6.0000000   6.0000000

  Atom        11          12          13          14          15          16          17          18          19          20
 IAtWgt=          12          12          14          12          12          12          12          12          12          12
 AtmWgt=  12.0000000  12.0000000  14.0030740  12.0000000  12.0000000  12.0000000  12.0000000  12.0000000  12.0000000  12.0000000
 NucSpn=           0           0           2           0           0           0           0           0           0           0
 AtZEff=  -0.0000000  -0.0000000  -0.0000000  -0.0000000  -0.0000000  -0.0000000  -0.0000000  -0.0000000  -0.0000000  -0.0000000
 NQMom=    0.0000000   0.0000000   2.0440000   0.0000000   0.0000000   0.0000000   0.0000000   0.0000000   0.0000000   0.0000000
 NMagM=    0.0000000   0.0000000   0.4037610   0.0000000   0.0000000   0.0000000   0.0000000   0.0000000   0.0000000   0.0000000
 AtZNuc=   6.0000000   6.0000000   7.0000000   6.0000000   6.0000000   6.0000000   6.0000000   6.0000000   6.0000000   6.0000000

  Atom        21          22          23          24          25          26          27          28          29          30
 IAtWgt=          12          16          12          12          12           1           1           1           1           1
 AtmWgt=  12.0000000  15.9949146  12.0000000  12.0000000  12.0000000   1.0078250   1.0078250   1.0078250   1.0078250   1.0078250
 NucSpn=           0           0           0           0           0           1           1           1           1           1
 AtZEff=  -0.0000000  -0.0000000  -0.0000000  -0.0000000  -0.0000000  -0.0000000  -0.0000000  -0.0000000  -0.0000000  -0.0000000
 NQMom=    0.0000000   0.0000000   0.0000000   0.0000000   0.0000000   0.0000000   0.0000000   0.0000000   0.0000000   0.0000000
 NMagM=    0.0000000   0.0000000   0.0000000   0.0000000   0.0000000   2.7928460   2.7928460   2.7928460   2.7928460   2.7928460
 AtZNuc=   6.0000000   8.0000000   6.0000000   6.0000000   6.0000000   1.0000000   1.0000000   1.0000000   1.0000000   1.0000000

  Atom        31          32          33          34          35          36          37          38          39          40
 IAtWgt=           1           1           1           1           1           1           1           1           1           1
 AtmWgt=   1.0078250   1.0078250   1.0078250   1.0078250   1.0078250   1.0078250   1.0078250   1.0078250   1.0078250   1.0078250
 NucSpn=           1           1           1           1           1           1           1           1           1           1
 AtZEff=  -0.0000000  -0.0000000  -0.0000000  -0.0000000  -0.0000000  -0.0000000  -0.0000000  -0.0000000  -0.0000000  -0.0000000
 NQMom=    0.0000000   0.0000000   0.0000000   0.0000000   0.0000000   0.0000000   0.0000000   0.0000000   0.0000000   0.0000000
 NMagM=    2.7928460   2.7928460   2.7928460   2.7928460   2.7928460   2.7928460   2.7928460   2.7928460   2.7928460   2.7928460
 AtZNuc=   1.0000000   1.0000000   1.0000000   1.0000000   1.0000000   1.0000000   1.0000000   1.0000000   1.0000000   1.0000000

  Atom        41          42          43          44          45          46          47
 IAtWgt=           1           1           1           1           1           1           1
 AtmWgt=   1.0078250   1.0078250   1.0078250   1.0078250   1.0078250   1.0078250   1.0078250
 NucSpn=           1           1           1           1           1           1           1
 AtZEff=  -0.0000000  -0.0000000  -0.0000000  -0.0000000  -0.0000000  -0.0000000  -0.0000000
 NQMom=    0.0000000   0.0000000   0.0000000   0.0000000   0.0000000   0.0000000   0.0000000
 NMagM=    2.7928460   2.7928460   2.7928460   2.7928460   2.7928460   2.7928460   2.7928460
 AtZNuc=   1.0000000   1.0000000   1.0000000   1.0000000   1.0000000   1.0000000   1.0000000
 Leave Link  101 at Fri Nov  4 18:12:56 2022, MaxMem=   805306368 cpu:               1.3 elap:               0.3
 (Enter /home/wykgroup/appl/g16/l103.exe)

 GradGradGradGradGradGradGradGradGradGradGradGradGradGradGradGradGradGrad
 Berny optimization.
 Initialization pass.
                           ----------------------------
                           !    Initial Parameters    !
                           ! (Angstroms and Degrees)  !
 --------------------------                            --------------------------
 ! Name  Definition              Value          Derivative Info.                !
 --------------------------------------------------------------------------------
 ! R1    R(1,2)                  1.5315         estimate D2E/DX2                !
 ! R2    R(1,26)                 1.0865         estimate D2E/DX2                !
 ! R3    R(1,27)                 1.0852         estimate D2E/DX2                !
 ! R4    R(1,28)                 1.0865         estimate D2E/DX2                !
 ! R5    R(2,3)                  1.5273         estimate D2E/DX2                !
 ! R6    R(2,6)                  1.4479         estimate D2E/DX2                !
 ! R7    R(2,29)                 1.0976         estimate D2E/DX2                !
 ! R8    R(3,4)                  1.1997         estimate D2E/DX2                !
 ! R9    R(3,5)                  1.3332         estimate D2E/DX2                !
 ! R10   R(5,30)                 0.9705         estimate D2E/DX2                !
 ! R11   R(6,7)                  1.3643         estimate D2E/DX2                !
 ! R12   R(6,23)                 1.4402         estimate D2E/DX2                !
 ! R13   R(7,8)                  1.2137         estimate D2E/DX2                !
 ! R14   R(7,9)                  1.5219         estimate D2E/DX2                !
 ! R15   R(9,10)                 1.5281         estimate D2E/DX2                !
 ! R16   R(9,31)                 1.0917         estimate D2E/DX2                !
 ! R17   R(9,32)                 1.0929         estimate D2E/DX2                !
 ! R18   R(10,11)                1.5343         estimate D2E/DX2                !
 ! R19   R(10,33)                1.0909         estimate D2E/DX2                !
 ! R20   R(10,34)                1.0921         estimate D2E/DX2                !
 ! R21   R(11,12)                1.4823         estimate D2E/DX2                !
 ! R22   R(11,35)                1.0903         estimate D2E/DX2                !
 ! R23   R(11,36)                1.0907         estimate D2E/DX2                !
 ! R24   R(12,13)                1.2984         estimate D2E/DX2                !
 ! R25   R(12,22)                1.3418         estimate D2E/DX2                !
 ! R26   R(13,14)                1.3614         estimate D2E/DX2                !
 ! R27   R(14,15)                1.3706         estimate D2E/DX2                !
 ! R28   R(14,37)                1.0698         estimate D2E/DX2                !
 ! R29   R(15,16)                1.4468         estimate D2E/DX2                !
 ! R30   R(15,22)                1.3619         estimate D2E/DX2                !
 ! R31   R(16,17)                1.3955         estimate D2E/DX2                !
 ! R32   R(16,21)                1.3956         estimate D2E/DX2                !
 ! R33   R(17,18)                1.3812         estimate D2E/DX2                !
 ! R34   R(17,38)                1.0795         estimate D2E/DX2                !
 ! R35   R(18,19)                1.3853         estimate D2E/DX2                !
 ! R36   R(18,39)                1.0802         estimate D2E/DX2                !
 ! R37   R(19,20)                1.3861         estimate D2E/DX2                !
 ! R38   R(19,40)                1.0799         estimate D2E/DX2                !
 ! R39   R(20,21)                1.381          estimate D2E/DX2                !
 ! R40   R(20,41)                1.0802         estimate D2E/DX2                !
 ! R41   R(21,42)                1.0789         estimate D2E/DX2                !
 ! R42   R(23,24)                1.5027         estimate D2E/DX2                !
 ! R43   R(23,25)                1.4943         estimate D2E/DX2                !
 ! R44   R(23,43)                1.0852         estimate D2E/DX2                !
 ! R45   R(24,25)                1.4989         estimate D2E/DX2                !
 ! R46   R(24,44)                1.0789         estimate D2E/DX2                !
 ! R47   R(24,45)                1.0778         estimate D2E/DX2                !
 ! R48   R(25,46)                1.0776         estimate D2E/DX2                !
 ! R49   R(25,47)                1.0801         estimate D2E/DX2                !
 ! A1    A(2,1,26)             110.2288         estimate D2E/DX2                !
 ! A2    A(2,1,27)             111.2233         estimate D2E/DX2                !
 ! A3    A(2,1,28)             109.3362         estimate D2E/DX2                !
 ! A4    A(26,1,27)            108.3961         estimate D2E/DX2                !
 ! A5    A(26,1,28)            109.2223         estimate D2E/DX2                !
 ! A6    A(27,1,28)            108.389          estimate D2E/DX2                !
 ! A7    A(1,2,3)              111.3512         estimate D2E/DX2                !
 ! A8    A(1,2,6)              113.3327         estimate D2E/DX2                !
 ! A9    A(1,2,29)             108.2953         estimate D2E/DX2                !
 ! A10   A(3,2,6)              111.1388         estimate D2E/DX2                !
 ! A11   A(3,2,29)             103.8343         estimate D2E/DX2                !
 ! A12   A(6,2,29)             108.3641         estimate D2E/DX2                !
 ! A13   A(2,3,4)              125.059          estimate D2E/DX2                !
 ! A14   A(2,3,5)              111.6219         estimate D2E/DX2                !
 ! A15   A(4,3,5)              123.2129         estimate D2E/DX2                !
 ! A16   A(3,5,30)             110.6538         estimate D2E/DX2                !
 ! A17   A(2,6,7)              124.8369         estimate D2E/DX2                !
 ! A18   A(2,6,23)             120.4928         estimate D2E/DX2                !
 ! A19   A(7,6,23)             114.6322         estimate D2E/DX2                !
 ! A20   A(6,7,8)              120.4068         estimate D2E/DX2                !
 ! A21   A(6,7,9)              117.121          estimate D2E/DX2                !
 ! A22   A(8,7,9)              122.4721         estimate D2E/DX2                !
 ! A23   A(7,9,10)             111.6237         estimate D2E/DX2                !
 ! A24   A(7,9,31)             109.0811         estimate D2E/DX2                !
 ! A25   A(7,9,32)             109.2549         estimate D2E/DX2                !
 ! A26   A(10,9,31)            109.195          estimate D2E/DX2                !
 ! A27   A(10,9,32)            109.13           estimate D2E/DX2                !
 ! A28   A(31,9,32)            108.5009         estimate D2E/DX2                !
 ! A29   A(9,10,11)            111.8051         estimate D2E/DX2                !
 ! A30   A(9,10,33)            109.1371         estimate D2E/DX2                !
 ! A31   A(9,10,34)            109.1549         estimate D2E/DX2                !
 ! A32   A(11,10,33)           108.8221         estimate D2E/DX2                !
 ! A33   A(11,10,34)           109.159          estimate D2E/DX2                !
 ! A34   A(33,10,34)           108.7103         estimate D2E/DX2                !
 ! A35   A(10,11,12)           110.6473         estimate D2E/DX2                !
 ! A36   A(10,11,35)           110.3038         estimate D2E/DX2                !
 ! A37   A(10,11,36)           108.5349         estimate D2E/DX2                !
 ! A38   A(12,11,35)           107.9088         estimate D2E/DX2                !
 ! A39   A(12,11,36)           109.4986         estimate D2E/DX2                !
 ! A40   A(35,11,36)           109.9418         estimate D2E/DX2                !
 ! A41   A(11,12,13)           126.6747         estimate D2E/DX2                !
 ! A42   A(11,12,22)           119.9896         estimate D2E/DX2                !
 ! A43   A(13,12,22)           113.3157         estimate D2E/DX2                !
 ! A44   A(12,13,14)           105.3609         estimate D2E/DX2                !
 ! A45   A(13,14,15)           109.0722         estimate D2E/DX2                !
 ! A46   A(13,14,37)           120.8886         estimate D2E/DX2                !
 ! A47   A(15,14,37)           130.0391         estimate D2E/DX2                !
 ! A48   A(14,15,16)           133.1935         estimate D2E/DX2                !
 ! A49   A(14,15,22)           106.6501         estimate D2E/DX2                !
 ! A50   A(16,15,22)           120.1564         estimate D2E/DX2                !
 ! A51   A(15,16,17)           120.1504         estimate D2E/DX2                !
 ! A52   A(15,16,21)           120.7015         estimate D2E/DX2                !
 ! A53   A(17,16,21)           119.1481         estimate D2E/DX2                !
 ! A54   A(16,17,18)           120.2946         estimate D2E/DX2                !
 ! A55   A(16,17,38)           119.2247         estimate D2E/DX2                !
 ! A56   A(18,17,38)           120.4806         estimate D2E/DX2                !
 ! A57   A(17,18,19)           120.2422         estimate D2E/DX2                !
 ! A58   A(17,18,39)           119.7349         estimate D2E/DX2                !
 ! A59   A(19,18,39)           120.0229         estimate D2E/DX2                !
 ! A60   A(18,19,20)           119.7869         estimate D2E/DX2                !
 ! A61   A(18,19,40)           120.1452         estimate D2E/DX2                !
 ! A62   A(20,19,40)           120.0679         estimate D2E/DX2                !
 ! A63   A(19,20,21)           120.3541         estimate D2E/DX2                !
 ! A64   A(19,20,41)           119.9265         estimate D2E/DX2                !
 ! A65   A(21,20,41)           119.7194         estimate D2E/DX2                !
 ! A66   A(16,21,20)           120.1742         estimate D2E/DX2                !
 ! A67   A(16,21,42)           119.6387         estimate D2E/DX2                !
 ! A68   A(20,21,42)           120.1871         estimate D2E/DX2                !
 ! A69   A(12,22,15)           105.6008         estimate D2E/DX2                !
 ! A70   A(6,23,24)            120.113          estimate D2E/DX2                !
 ! A71   A(6,23,25)            123.1949         estimate D2E/DX2                !
 ! A72   A(6,23,43)            111.2341         estimate D2E/DX2                !
 ! A73   A(24,23,43)           116.4986         estimate D2E/DX2                !
 ! A74   A(25,23,43)           117.1078         estimate D2E/DX2                !
 ! A75   A(23,24,44)           117.3622         estimate D2E/DX2                !
 ! A76   A(23,24,45)           118.384          estimate D2E/DX2                !
 ! A77   A(25,24,44)           117.8388         estimate D2E/DX2                !
 ! A78   A(25,24,45)           119.3873         estimate D2E/DX2                !
 ! A79   A(44,24,45)           113.8482         estimate D2E/DX2                !
 ! A80   A(23,25,46)           120.3171         estimate D2E/DX2                !
 ! A81   A(23,25,47)           116.7883         estimate D2E/DX2                !
 ! A82   A(24,25,46)           118.6013         estimate D2E/DX2                !
 ! A83   A(24,25,47)           118.3381         estimate D2E/DX2                !
 ! A84   A(46,25,47)           113.0031         estimate D2E/DX2                !
 ! D1    D(26,1,2,3)           169.2076         estimate D2E/DX2                !
 ! D2    D(26,1,2,6)           -64.6135         estimate D2E/DX2                !
 ! D3    D(26,1,2,29)           55.6513         estimate D2E/DX2                !
 ! D4    D(27,1,2,3)           -70.5337         estimate D2E/DX2                !
 ! D5    D(27,1,2,6)            55.6452         estimate D2E/DX2                !
 ! D6    D(27,1,2,29)          175.9099         estimate D2E/DX2                !
 ! D7    D(28,1,2,3)            49.1308         estimate D2E/DX2                !
 ! D8    D(28,1,2,6)           175.3098         estimate D2E/DX2                !
 ! D9    D(28,1,2,29)          -64.4255         estimate D2E/DX2                !
 ! D10   D(1,2,3,4)            -12.3653         estimate D2E/DX2                !
 ! D11   D(1,2,3,5)            171.2929         estimate D2E/DX2                !
 ! D12   D(6,2,3,4)           -139.7442         estimate D2E/DX2                !
 ! D13   D(6,2,3,5)             43.914          estimate D2E/DX2                !
 ! D14   D(29,2,3,4)           103.9546         estimate D2E/DX2                !
 ! D15   D(29,2,3,5)           -72.3873         estimate D2E/DX2                !
 ! D16   D(1,2,6,7)             93.258          estimate D2E/DX2                !
 ! D17   D(1,2,6,23)           -89.1089         estimate D2E/DX2                !
 ! D18   D(3,2,6,7)           -140.4505         estimate D2E/DX2                !
 ! D19   D(3,2,6,23)            37.1827         estimate D2E/DX2                !
 ! D20   D(29,2,6,7)           -26.9677         estimate D2E/DX2                !
 ! D21   D(29,2,6,23)          150.6654         estimate D2E/DX2                !
 ! D22   D(2,3,5,30)           178.8346         estimate D2E/DX2                !
 ! D23   D(4,3,5,30)             2.4136         estimate D2E/DX2                !
 ! D24   D(2,6,7,8)           -179.4906         estimate D2E/DX2                !
 ! D25   D(2,6,7,9)              0.4213         estimate D2E/DX2                !
 ! D26   D(23,6,7,8)             2.753          estimate D2E/DX2                !
 ! D27   D(23,6,7,9)          -177.3351         estimate D2E/DX2                !
 ! D28   D(2,6,23,24)           96.5256         estimate D2E/DX2                !
 ! D29   D(2,6,23,25)           24.6405         estimate D2E/DX2                !
 ! D30   D(2,6,23,43)         -122.3314         estimate D2E/DX2                !
 ! D31   D(7,6,23,24)          -85.6115         estimate D2E/DX2                !
 ! D32   D(7,6,23,25)         -157.4965         estimate D2E/DX2                !
 ! D33   D(7,6,23,43)           55.5315         estimate D2E/DX2                !
 ! D34   D(6,7,9,10)          -177.7925         estimate D2E/DX2                !
 ! D35   D(6,7,9,31)           -57.0382         estimate D2E/DX2                !
 ! D36   D(6,7,9,32)            61.4185         estimate D2E/DX2                !
 ! D37   D(8,7,9,10)             2.1175         estimate D2E/DX2                !
 ! D38   D(8,7,9,31)           122.8718         estimate D2E/DX2                !
 ! D39   D(8,7,9,32)          -118.6715         estimate D2E/DX2                !
 ! D40   D(7,9,10,11)          -70.9942         estimate D2E/DX2                !
 ! D41   D(7,9,10,33)           49.4466         estimate D2E/DX2                !
 ! D42   D(7,9,10,34)          168.1308         estimate D2E/DX2                !
 ! D43   D(31,9,10,11)         168.318          estimate D2E/DX2                !
 ! D44   D(31,9,10,33)         -71.2412         estimate D2E/DX2                !
 ! D45   D(31,9,10,34)          47.443          estimate D2E/DX2                !
 ! D46   D(32,9,10,11)          49.8677         estimate D2E/DX2                !
 ! D47   D(32,9,10,33)         170.3085         estimate D2E/DX2                !
 ! D48   D(32,9,10,34)         -71.0073         estimate D2E/DX2                !
 ! D49   D(9,10,11,12)        -176.3906         estimate D2E/DX2                !
 ! D50   D(9,10,11,35)         -57.0633         estimate D2E/DX2                !
 ! D51   D(9,10,11,36)          63.4409         estimate D2E/DX2                !
 ! D52   D(33,10,11,12)         62.9849         estimate D2E/DX2                !
 ! D53   D(33,10,11,35)       -177.6879         estimate D2E/DX2                !
 ! D54   D(33,10,11,36)        -57.1837         estimate D2E/DX2                !
 ! D55   D(34,10,11,12)        -55.5181         estimate D2E/DX2                !
 ! D56   D(34,10,11,35)         63.8092         estimate D2E/DX2                !
 ! D57   D(34,10,11,36)       -175.6866         estimate D2E/DX2                !
 ! D58   D(10,11,12,13)        103.7493         estimate D2E/DX2                !
 ! D59   D(10,11,12,22)        -74.5084         estimate D2E/DX2                !
 ! D60   D(35,11,12,13)        -17.0125         estimate D2E/DX2                !
 ! D61   D(35,11,12,22)        164.7298         estimate D2E/DX2                !
 ! D62   D(36,11,12,13)       -136.6603         estimate D2E/DX2                !
 ! D63   D(36,11,12,22)         45.082          estimate D2E/DX2                !
 ! D64   D(11,12,13,14)       -178.5147         estimate D2E/DX2                !
 ! D65   D(22,12,13,14)         -0.1579         estimate D2E/DX2                !
 ! D66   D(11,12,22,15)        178.6066         estimate D2E/DX2                !
 ! D67   D(13,12,22,15)          0.1281         estimate D2E/DX2                !
 ! D68   D(12,13,14,15)          0.1247         estimate D2E/DX2                !
 ! D69   D(12,13,14,37)       -179.8136         estimate D2E/DX2                !
 ! D70   D(13,14,15,16)       -179.9797         estimate D2E/DX2                !
 ! D71   D(13,14,15,22)         -0.0507         estimate D2E/DX2                !
 ! D72   D(37,14,15,16)         -0.0487         estimate D2E/DX2                !
 ! D73   D(37,14,15,22)        179.8802         estimate D2E/DX2                !
 ! D74   D(14,15,16,17)        179.7935         estimate D2E/DX2                !
 ! D75   D(14,15,16,21)         -0.1884         estimate D2E/DX2                !
 ! D76   D(22,15,16,17)         -0.1277         estimate D2E/DX2                !
 ! D77   D(22,15,16,21)        179.8903         estimate D2E/DX2                !
 ! D78   D(14,15,22,12)         -0.0415         estimate D2E/DX2                !
 ! D79   D(16,15,22,12)        179.8986         estimate D2E/DX2                !
 ! D80   D(15,16,17,18)       -179.9832         estimate D2E/DX2                !
 ! D81   D(15,16,17,38)         -0.0584         estimate D2E/DX2                !
 ! D82   D(21,16,17,18)         -0.001          estimate D2E/DX2                !
 ! D83   D(21,16,17,38)        179.9238         estimate D2E/DX2                !
 ! D84   D(15,16,21,20)        179.9831         estimate D2E/DX2                !
 ! D85   D(15,16,21,42)          0.0034         estimate D2E/DX2                !
 ! D86   D(17,16,21,20)          0.001          estimate D2E/DX2                !
 ! D87   D(17,16,21,42)       -179.9787         estimate D2E/DX2                !
 ! D88   D(16,17,18,19)         -0.0034         estimate D2E/DX2                !
 ! D89   D(16,17,18,39)        179.9727         estimate D2E/DX2                !
 ! D90   D(38,17,18,19)       -179.9272         estimate D2E/DX2                !
 ! D91   D(38,17,18,39)          0.0488         estimate D2E/DX2                !
 ! D92   D(17,18,19,20)          0.0077         estimate D2E/DX2                !
 ! D93   D(17,18,19,40)        179.986          estimate D2E/DX2                !
 ! D94   D(39,18,19,20)       -179.9683         estimate D2E/DX2                !
 ! D95   D(39,18,19,40)          0.01           estimate D2E/DX2                !
 ! D96   D(18,19,20,21)         -0.0077         estimate D2E/DX2                !
 ! D97   D(18,19,20,41)        179.979          estimate D2E/DX2                !
 ! D98   D(40,19,20,21)       -179.986          estimate D2E/DX2                !
 ! D99   D(40,19,20,41)          0.0007         estimate D2E/DX2                !
 ! D100  D(19,20,21,16)          0.0033         estimate D2E/DX2                !
 ! D101  D(19,20,21,42)        179.983          estimate D2E/DX2                !
 ! D102  D(41,20,21,16)       -179.9834         estimate D2E/DX2                !
 ! D103  D(41,20,21,42)         -0.0037         estimate D2E/DX2                !
 ! D104  D(6,23,24,44)          -5.4744         estimate D2E/DX2                !
 ! D105  D(6,23,24,45)         137.3786         estimate D2E/DX2                !
 ! D106  D(43,23,24,44)       -144.6736         estimate D2E/DX2                !
 ! D107  D(43,23,24,45)         -1.8206         estimate D2E/DX2                !
 ! D108  D(6,23,25,46)           0.6036         estimate D2E/DX2                !
 ! D109  D(6,23,25,47)        -142.7509         estimate D2E/DX2                !
 ! D110  D(43,23,25,46)        145.8017         estimate D2E/DX2                !
 ! D111  D(43,23,25,47)          2.4473         estimate D2E/DX2                !
 ! D112  D(44,24,25,46)          3.4657         estimate D2E/DX2                !
 ! D113  D(44,24,25,47)        146.5718         estimate D2E/DX2                !
 ! D114  D(45,24,25,46)       -141.8373         estimate D2E/DX2                !
 ! D115  D(45,24,25,47)          1.2688         estimate D2E/DX2                !
 --------------------------------------------------------------------------------
 Trust Radius=3.00D-01 FncErr=1.00D-07 GrdErr=1.00D-06 EigMax=2.50D+02 EigMin=1.00D-04
 Number of steps in this run=    258 maximum allowed number of steps=    282.
 GradGradGradGradGradGradGradGradGradGradGradGradGradGradGradGradGradGrad

 Leave Link  103 at Fri Nov  4 18:12:56 2022, MaxMem=   805306368 cpu:               0.1 elap:               0.0
 (Enter /home/wykgroup/appl/g16/l202.exe)
                          Input orientation:                          
 ---------------------------------------------------------------------
 Center     Atomic      Atomic             Coordinates (Angstroms)
 Number     Number       Type             X           Y           Z
 ---------------------------------------------------------------------
      1          6           0       -4.771625    1.038200    1.390327
      2          6           0       -4.255456   -0.285926    0.819642
      3          6           0       -5.405482   -1.177326    0.355520
      4          8           0       -6.564105   -0.994392    0.607357
      5          8           0       -4.962328   -2.244658   -0.309170
      6          7           0       -3.272096   -0.113873   -0.229137
      7          6           0       -1.921696   -0.095346   -0.035882
      8          8           0       -1.168923    0.063861   -0.974555
      9          6           0       -1.422289   -0.279092    1.389996
     10          6           0        0.100706   -0.183488    1.469945
     11          6           0        0.782331   -1.404060    0.837768
     12          6           0        2.253017   -1.326798    1.005799
     13          7           0        2.973170   -1.998011    1.852419
     14          6           0        4.250696   -1.569169    1.658815
     15          6           0        4.259424   -0.619528    0.670521
     16          6           0        5.310724    0.165197    0.060468
     17          6           0        5.007951    1.074582   -0.953843
     18          6           0        6.009313    1.825017   -1.538558
     19          6           0        7.322702    1.680818   -1.122456
     20          6           0        7.631006    0.779465   -0.115583
     21          6           0        6.636091    0.025153    0.474495
     22          8           0        2.969383   -0.472305    0.259393
     23          6           0       -3.683357    0.004221   -1.604325
     24          6           0       -3.838407    1.361225   -2.231012
     25          6           0       -5.036578    0.486923   -2.014961
     26          1           0       -3.965942    1.573592    1.884945
     27          1           0       -5.174670    1.672792    0.607650
     28          1           0       -5.561251    0.836774    2.108868
     29          1           0       -3.794159   -0.856439    1.635980
     30          1           0       -5.702673   -2.810123   -0.581393
     31          1           0       -1.864105    0.491251    2.024931
     32          1           0       -1.739651   -1.257361    1.759778
     33          1           0        0.430663    0.714613    0.945912
     34          1           0        0.400525   -0.108013    2.517372
     35          1           0        0.437753   -2.320531    1.317487
     36          1           0        0.537979   -1.425912   -0.224974
     37          1           0        5.057872   -1.969929    2.235331
     38          1           0        3.983311    1.183011   -1.275928
     39          1           0        5.764827    2.525953   -2.323265
     40          1           0        8.104432    2.268194   -1.580869
     41          1           0        8.654469    0.664959    0.210406
     42          1           0        6.879141   -0.675845    1.257814
     43          1           0       -3.224628   -0.763434   -2.219048
     44          1           0       -3.719293    2.220302   -1.589318
     45          1           0       -3.465207    1.509339   -3.231237
     46          1           0       -5.759568    0.777298   -1.270501
     47          1           0       -5.483999    0.008820   -2.873985
 ---------------------------------------------------------------------
                    Distance matrix (angstroms):
                    1          2          3          4          5
     1  C    0.000000
     2  C    1.531478   0.000000
     3  C    2.526095   1.527273   0.000000
     4  O    2.820897   2.424222   1.199706   0.000000
     5  O    3.701596   2.368652   1.333190   2.229097   0.000000
     6  N    2.489683   1.447942   2.454402   3.508897   2.720943
     7  C    3.382469   2.492925   3.668874   4.772211   3.733586
     8  O    4.418310   3.587224   4.610648   5.721043   4.490202
     9  C    3.599071   2.890014   4.212219   5.249995   4.391183
    10  C    5.023790   4.405625   5.705064   6.769145   5.748737
    11  C    6.092321   5.160411   6.210716   7.361456   5.918038
    12  C    7.422039   6.593806   7.687510   8.832377   7.391401
    13  N    8.331504   7.500059   8.550791   9.670421   8.228330
    14  C    9.395357   8.643237   9.751610  10.880986   9.445055
    15  C    9.210105   8.522717   9.686112  10.830202   9.414963
    16  C   10.207077   9.606854  10.804003  11.943839  10.558391
    17  C   10.056668   9.529267  10.734296  11.858772  10.528030
    18  C   11.199379  10.741633  11.954043  13.063111  11.766501
    19  C   12.369308  11.903510  13.128597  14.247540  12.922567
    20  C   12.496398  11.970701  13.190943  14.323770  12.952793
    21  C   11.489168  10.901453  12.102049  13.240177  11.844386
    22  O    7.967675   7.248925   8.405038   9.554112   8.147179
    23  C    3.349833   2.507409   2.864046   3.766626   2.893207
    24  C    3.753577   3.491923   3.948432   4.586360   4.237814
    25  C    3.459783   3.040135   2.919759   3.377008   3.221299
    26  H    1.086469   2.162521   3.461064   3.870042   4.515080
    27  H    1.085235   2.174045   2.870542   3.007391   4.028903
    28  H    1.086453   2.151200   2.674900   2.571658   3.962428
    29  H    2.146030   1.097582   2.083005   2.957989   2.659958
    30  H    4.423134   3.229381   1.905820   2.334966   0.970550
    31  H    3.025814   2.788420   4.255871   5.129002   4.746810
    32  H    3.820859   2.856014   3.926406   4.967151   3.954864
    33  H    5.231254   4.793405   6.163488   7.208474   6.278285
    34  H    5.416196   4.959042   6.287031   7.275981   6.427658
    35  H    6.198709   5.139423   6.031226   7.161630   5.640269
    36  H    6.072309   5.036646   5.976913   7.163698   5.561547
    37  H   10.314159   9.569645  10.660379  11.775921  10.341874
    38  H    9.153076   8.627078   9.817446  10.933245   9.628499
    39  H   11.270359  10.871550  12.069215  13.152336  11.911639
    40  H   13.271539  12.847288  14.076185  15.185480  13.882481
    41  H   13.483009  12.959225  14.180877  15.313915  13.933879
    42  H   11.776921  11.150035  12.327919  13.462743  12.047282
    43  H    4.320495   3.244111   3.399386   4.381097   2.976786
    44  H    3.373878   3.517348   4.262570   4.822094   4.808303
    45  H    4.825718   4.500787   4.883406   5.532326   4.987217
    46  H    2.850283   2.785947   2.567075   2.704167   3.269857
    47  H    4.444262   3.903726   3.441338   3.780583   3.453777
                    6          7          8          9         10
     6  N    0.000000
     7  C    1.364284   0.000000
     8  O    2.238431   1.213722   0.000000
     9  C    2.463874   1.521939   2.402689   0.000000
    10  C    3.777237   2.522973   2.765632   1.528086   0.000000
    11  C    4.386485   3.128539   3.040839   2.535914   1.534293
    12  C    5.789916   4.475466   4.191111   3.840985   2.480933
    13  N    6.847350   5.580818   5.422180   4.742212   3.419039
    14  C    7.891429   6.568301   6.242892   5.824030   4.379292
    15  C    7.601899   6.243398   5.713165   5.737195   4.257246
    16  C    8.592238   7.237753   6.562573   6.877391   5.408558
    17  C    8.396238   7.087411   6.259054   6.976676   5.615919
    18  C    9.571752   8.297394   7.412614   8.260292   6.927974
    19  C   10.782795   9.475985   8.645468   9.307445   7.896417
    20  C   10.940228   9.593006   8.870664   9.238478   7.755424
    21  C    9.934113   8.573839   7.938482   8.115922   6.614054
    22  O    6.270821   4.914462   4.351515   4.538985   3.127005
    23  C    1.440217   2.360800   2.592787   3.762799   4.879088
    24  C    2.550319   3.257910   3.223039   4.651878   5.621373
    25  C    2.581379   3.736078   4.027428   5.024301   6.243853
    26  H    2.792543   3.264026   4.275434   3.185527   4.449402
    27  H    2.740833   3.757962   4.597612   4.301427   5.658526
    28  H    3.407378   4.326102   5.421940   4.346601   5.788515
    29  H    2.074274   2.623071   3.814932   2.453488   3.956059
    30  H    3.647129   4.686510   5.382309   5.349222   6.692264
    31  H    2.725700   2.143447   3.108514   1.091683   2.150294
    32  H    2.758938   2.146582   3.089974   1.092916   2.150376
    33  H    3.972097   2.674612   2.582702   2.148975   1.090902
    34  H    4.586011   3.451374   3.832267   2.150093   1.092104
    35  H    4.585233   3.514264   3.676981   2.762695   2.168823
    36  H    4.029657   2.802885   2.386381   2.786750   2.146526
    37  H    8.882956   7.575410   7.294700   6.750259   5.324535
    38  H    7.444368   6.167741   5.280989   6.202050   4.947905
    39  H    9.644689   8.437177   7.480495   8.562198   7.335652
    40  H   11.701574  10.416168   9.551012  10.299181   8.909425
    41  H   11.960047  10.606318   9.912844  10.189393   8.687529
    42  H   10.274943   8.914335   8.384628   8.311957   6.799603
    43  H    2.093783   2.628723   2.541476   4.063030   5.000285
    44  H    2.738330   3.317641   3.395962   4.516582   5.452494
    45  H    3.418291   3.894577   3.529155   5.359832   6.138608
    46  H    2.840095   4.124931   4.655169   5.196749   6.540334
    47  H    3.450042   4.555840   4.714948   5.895924   7.077827
                   11         12         13         14         15
    11  C    0.000000
    12  C    1.482269   0.000000
    13  N    2.486377   1.298427   0.000000
    14  C    3.568044   2.115631   1.361419   0.000000
    15  C    3.568422   2.153674   2.225207   1.370627   0.000000
    16  C    4.855215   3.531186   3.654411   2.585807   1.446787
    17  C    5.216264   4.146864   4.632091   3.793262   2.463506
    18  C    6.587504   5.524260   5.944109   4.983616   3.730676
    19  C    7.492356   6.267131   6.426670   5.266412   4.229661
    20  C    7.251277   5.883588   5.769129   4.482306   3.733994
    21  C    6.036649   4.617509   4.405548   3.103963   2.470341
    22  O    2.446607   1.341813   2.205794   2.191633   1.361949
    23  C    5.281045   6.620037   7.763205   8.721974   8.285635
    24  C    6.198018   7.403233   8.623019   9.442010   8.827069
    25  C    6.750820   8.096466   9.235127  10.196941   9.739183
    26  H    5.701674   6.918136   7.804401   8.800069   8.598909
    27  H    6.708638   8.020386   9.022834  10.022613   9.708800
    28  H    6.846755   8.182944   8.996561  10.112636  10.031715
    29  H    4.677744   6.098090   6.866350   8.076397   8.114704
    30  H    6.785742   8.246965   9.047276  10.277551  10.276641
    31  H    3.464849   4.614609   5.442923   6.462984   6.369133
    32  H    2.689240   4.063828   4.771564   5.999306   6.130433
    33  H    2.150381   2.737136   3.826803   4.507387   4.063887
    34  H    2.155594   2.683657   3.260791   4.206651   4.308550
    35  H    1.090313   2.092806   2.611228   3.901229   4.232865
    36  H    1.090690   2.113287   3.251617   4.165748   3.911690
    37  H    4.533612   3.129309   2.119762   1.069818   2.215791
    38  H    4.626762   3.807800   4.574477   4.032208   2.667218
    39  H    7.089598   6.185400   6.759877   5.909279   4.595982
    40  H    8.540986   7.338521   7.504521   6.330260   5.309595
    41  H    8.163638   6.751173   6.485736   5.146108   4.601960
    42  H    6.154497   4.678491   4.166328   2.804916   2.685332
    43  H    5.080378   6.381348   7.517560   8.459757   8.023799
    44  H    6.268282   7.415189   8.627211   9.403786   8.765354
    45  H    6.564013   7.661216   8.921757   9.639761   8.912111
    46  H    7.211072   8.591291   9.680686  10.690753  10.300431
    47  H    7.418910   8.757740   9.893936  10.853599  10.387137
                   16         17         18         19         20
    16  C    0.000000
    17  C    1.395521   0.000000
    18  C    2.408300   1.381221   0.000000
    19  C    2.782888   2.398754   1.385252   0.000000
    20  C    2.406664   2.769511   2.397483   1.386103   0.000000
    21  C    1.395575   2.406718   2.772137   2.400607   1.380955
    22  O    2.434719   2.832059   4.213252   5.049438   4.841308
    23  C    9.148275   8.781095   9.862428  11.143451  11.438189
    24  C    9.507258   8.942672   9.882924  11.220578  11.677368
    25  C   10.558293  10.117503  11.136838  12.448845  12.812529
    26  H    9.558704   9.425417  10.549375  11.682869  11.794997
    27  H   10.607343  10.319006  11.389068  12.616562  12.857155
    28  H   11.083627  11.006579  12.172029  13.309774  13.378606
    29  H    9.296497   9.376202  10.647815  11.731634  11.673840
    30  H   11.426260  11.399435  12.632154  13.788462  13.816263
    31  H    7.446045   7.512558   8.744604   9.783585   9.737659
    32  H    7.390474   7.637528   8.968083   9.953210   9.771123
    33  H    4.990076   4.968924   6.207006   7.260295   7.278455
    34  H    5.497370   5.888653   7.186493   8.022767   7.745962
    35  H    5.612913   6.129636   7.508984   8.328663   7.962824
    36  H    5.039068   5.173430   6.498427   7.515964   7.428775
    37  H    3.058223   4.409350   5.435907   5.452718   4.439255
    38  H    2.141009   1.079528   2.141455   3.379777   3.849016
    39  H    3.385493   2.134164   1.080209   2.140834   3.377382
    40  H    3.862822   3.377287   2.141896   1.079934   2.141848
    41  H    3.384210   3.849722   3.376604   2.140582   1.080211
    42  H    2.144977   3.384786   3.851053   3.378800   2.137627
    43  H    8.883174   8.529619   9.613990  10.882235  11.164672
    44  H    9.406724   8.825038   9.736766  11.065019  11.535909
    45  H    9.468844   8.784643   9.629712  10.993423  11.548419
    46  H   11.166804  10.776276  11.818466  13.114269  13.440287
    47  H   11.187560  10.719319  11.712308  13.033611  13.424084
                   21         22         23         24         25
    21  C    0.000000
    22  O    3.706545   0.000000
    23  C   10.526772   6.925277   0.000000
    24  C   10.900457   7.477296   1.502743   0.000000
    25  C   11.944112   8.377840   1.494266   1.498898   0.000000
    26  H   10.806948   7.411265   3.836376   4.123405   4.187646
    27  H   11.925876   8.429017   3.146582   3.152884   2.881570
    28  H   12.333087   8.826435   4.243516   4.698702   4.171767
    29  H   10.531683   6.912890   3.354488   4.457984   4.083821
    30  H   12.704282   9.020913   3.611725   4.857662   3.656407
    31  H    8.653001   5.235281   4.088811   4.771560   5.136666
    32  H    8.570288   5.004245   4.084945   5.214229   5.306686
    33  H    6.261383   2.885339   4.892191   5.360589   6.221683
    34  H    6.563029   3.439507   5.803368   6.532562   7.103386
    35  H    6.680738   3.308271   5.561025   6.665787   6.996806
    36  H    6.307283   2.656258   4.665572   5.562830   6.159438
    37  H    3.093811   3.241758   9.749323  10.497075  11.224928
    38  H    3.382581   2.474940   7.763710   7.881829   9.076845
    39  H    3.852346   4.845016   9.805314   9.674047  10.996501
    40  H    3.378133   6.104558  12.003254  11.994861  13.268290
    41  H    2.133763   5.797928  12.488065  12.748225  13.871868
    42  H    1.078916   4.040357  10.964520  11.453707  12.411585
    43  H   10.252357   6.677814   1.085177   2.211570   2.210928
    44  H   10.784803   7.443538   2.216423   1.078875   2.218336
    45  H   10.861468   7.583888   2.227063   1.077805   2.234696
    46  H   12.540458   8.949674   2.240477   2.225851   1.077615
    47  H   12.574146   9.028245   2.203263   2.224947   1.080134
                   26         27         28         29         30
    26  H    0.000000
    27  H    1.761348   0.000000
    28  H    1.771455   1.761256   0.000000
    29  H    2.448784   3.059458   2.492631   0.000000
    30  H    5.321278   4.667883   4.534022   3.517960   0.000000
    31  H    2.368286   3.790062   3.714205   2.385930   5.694435
    32  H    3.603655   4.659672   4.371715   2.096918   4.857746
    33  H    4.577091   5.696691   6.104951   4.559991   7.237004
    34  H    4.721630   6.156387   6.049981   4.351134   7.358857
    35  H    5.905821   6.924578   6.825167   4.489329   6.445950
    36  H    5.808105   6.552067   6.911379   4.749196   6.402250
    37  H    9.700954  10.982880  10.984504   8.941897  11.154782
    38  H    8.563545   9.362498  10.132886   8.551468  10.499799
    39  H   10.644429  11.357409  12.279135  10.885330  12.767591
    40  H   12.577292  13.471402  14.227228  12.715657  14.745318
    41  H   12.763403  13.871503  14.342955  12.622014  14.792926
    42  H   11.093651  12.297690  12.560878  10.681524  12.893404
    43  H    4.780584   4.210472   5.172168   3.897980   3.607154
    44  H    3.542537   2.691571   4.357009   4.458081   5.500443
    45  H    5.141029   4.205476   5.776024   5.421707   5.539465
    46  H    3.715915   2.161358   3.385706   3.870344   3.653449
    47  H    5.234541   3.871211   5.051762   4.893262   3.640087
                   31         32         33         34         35
    31  H    0.000000
    32  H    1.772974   0.000000
    33  H    2.545611   3.043242   0.000000
    34  H    2.393776   2.544662   1.774009   0.000000
    35  H    3.702045   2.463136   3.057812   2.517210   0.000000
    36  H    3.808883   3.025764   2.442199   3.045688   1.785937
    37  H    7.349519   6.851293   5.502765   5.023659   4.723437
    38  H    6.750295   6.922660   4.216311   5.375149   5.618860
    39  H    9.013735   9.343548   6.513200   7.690596   8.069771
    40  H   10.748538  10.977041   8.227088   9.043900   9.393341
    41  H   10.675349  10.683332   8.256780   8.605066   8.812105
    42  H    8.854091   8.652959   6.604054   6.624303   6.648311
    43  H    4.629969   4.275532   5.055961   6.000416   5.323970
    44  H    4.415217   5.218196   5.090838   6.265689   6.808062
    45  H    5.588143   5.961745   5.766972   7.113805   7.112797
    46  H    5.110415   5.429748   6.575362   7.285500   7.396013
    47  H    6.110299   6.090576   7.076227   7.981730   7.619807
                   36         37         38         39         40
    36  H    0.000000
    37  H    5.174793   0.000000
    38  H    4.447618   4.839901   0.000000
    39  H    6.880408   6.441548   2.464590   0.000000
    40  H    8.528546   6.465803   4.272499   2.468065   0.000000
    41  H    8.392777   4.896781   4.929227   4.269991   2.466084
    42  H    6.555273   2.438691   4.273292   4.931262   4.269289
    43  H    4.309573   9.481398   7.525458   9.572942  11.745027
    44  H    5.768941  10.451057   7.778451   9.517386  11.823826
    45  H    5.803345  10.706612   7.707798   9.330136  11.711368
    46  H    6.753248  11.698509   9.751325  11.703751  13.947387
    47  H    6.733493  11.880723   9.672770  11.540161  13.835548
                   41         42         43         44         45
    41  H    0.000000
    42  H    2.458985   0.000000
    43  H   12.208828  10.685616   0.000000
    44  H   12.600321  11.349918   3.089325   0.000000
    45  H   12.627131  11.486173   2.499580   1.807187   0.000000
    46  H   14.490347  12.970774   3.114404   2.519251   3.105553
    47  H   14.485864  13.053266   2.475899   3.107283   2.540611
                   46         47
    46  H    0.000000
    47  H    1.799349   0.000000
 Stoichiometry    C19H22N2O4
 Framework group  C1[X(C19H22N2O4)]
 Deg. of freedom   135
 Full point group                 C1      NOp   1
 Largest Abelian subgroup         C1      NOp   1
 Largest concise Abelian subgroup C1      NOp   1
                         Standard orientation:                         
 ---------------------------------------------------------------------
 Center     Atomic      Atomic             Coordinates (Angstroms)
 Number     Number       Type             X           Y           Z
 ---------------------------------------------------------------------
      1          6           0       -4.810802   -0.109210    2.053013
      2          6           0       -4.385101   -0.538424    0.645896
      3          6           0       -5.594497   -0.728296   -0.267270
      4          8           0       -6.735472   -0.773740    0.100705
      5          8           0       -5.227895   -0.918433   -1.534884
      6          7           0       -3.411662    0.349463    0.045390
      7          6           0       -2.059415    0.179388    0.106819
      8          8           0       -1.314959    0.980646   -0.419386
      9          6           0       -1.547102   -1.041976    0.856554
     10          6           0       -0.019950   -1.080150    0.893928
     11          6           0        0.576025   -1.399858   -0.483263
     12          6           0        2.051408   -1.515875   -0.400154
     13          7           0        2.744652   -2.613720   -0.407981
     14          6           0        4.042039   -2.221923   -0.278589
     15          6           0        4.090489   -0.854937   -0.191298
     16          6           0        5.176180    0.090200   -0.045758
     17          6           0        4.910867    1.459056    0.011873
     18          6           0        5.945102    2.364003    0.150432
     19          6           0        7.254535    1.919676    0.233391
     20          6           0        7.525721    0.561540    0.176780
     21          6           0        6.497781   -0.350168    0.038350
     22          8           0        2.804626   -0.413058   -0.270082
     23          6           0       -3.839057    1.487559   -0.726812
     24          6           0       -3.923293    2.844451   -0.086510
     25          6           0       -5.167829    2.146663   -0.545770
     26          1           0       -3.965914   -0.163153    2.733946
     27          1           0       -5.188640    0.908123    2.055967
     28          1           0       -5.598420   -0.768376    2.407327
     29          1           0       -3.944691   -1.541716    0.710173
     30          1           0       -6.005493   -1.055579   -2.099241
     31          1           0       -1.930715   -1.020338    1.878388
     32          1           0       -1.916106   -1.946584    0.366670
     33          1           0        0.354119   -0.109519    1.222586
     34          1           0        0.302115   -1.840143    1.609034
     35          1           0        0.185488   -2.348058   -0.853641
     36          1           0        0.312271   -0.595033   -1.170500
     37          1           0        4.833652   -2.941284   -0.259072
     38          1           0        3.889113    1.801138   -0.054317
     39          1           0        5.729460    3.421587    0.193622
     40          1           0        8.061987    2.628616    0.341479
     41          1           0        8.546004    0.212590    0.240916
     42          1           0        6.711962   -1.406694   -0.005700
     43          1           0       -3.438048    1.451765   -1.734542
     44          1           0       -3.741630    2.903839    0.975301
     45          1           0       -3.559409    3.695254   -0.639128
     46          1           0       -5.858966    1.782637    0.196570
     47          1           0       -5.658084    2.507084   -1.438202
 ---------------------------------------------------------------------
 Rotational constants (GHZ):           0.5757817           0.0701287           0.0653556
 Leave Link  202 at Fri Nov  4 18:12:56 2022, MaxMem=   805306368 cpu:               0.1 elap:               0.0
 (Enter /home/wykgroup/appl/g16/l301.exe)
 Standard basis: 6-31G(d) (6D, 7F)
 Ernie: Thresh=  0.10000D-02 Tol=  0.10000D-05 Strict=F.
 There are   419 symmetry adapted cartesian basis functions of A   symmetry.
 There are   419 symmetry adapted basis functions of A   symmetry.
   419 basis functions,   788 primitive gaussians,   419 cartesian basis functions
    91 alpha electrons       91 beta electrons
       nuclear repulsion energy      2072.9299850971 Hartrees.
 IExCor=  402 DFT=T Ex+Corr=B3LYP ExCW=0 ScaHFX=  0.200000
 ScaDFX=  0.800000  0.720000  1.000000  0.810000 ScalE2=  1.000000  1.000000
 IRadAn=      5 IRanWt=     -1 IRanGd=            0 ICorTp=0 IEmpDi=  4
 NAtoms=   47 NActive=   47 NUniq=   47 SFac= 1.00D+00 NAtFMM=   60 NAOKFM=F Big=F
 Integral buffers will be    131072 words long.
 Raffenetti 2 integral format.
 Two-electron integral symmetry is turned on.
 Leave Link  301 at Fri Nov  4 18:12:56 2022, MaxMem=   805306368 cpu:               0.3 elap:               0.1
 (Enter /home/wykgroup/appl/g16/l302.exe)
 NPDir=0 NMtPBC=     1 NCelOv=     1 NCel=       1 NClECP=     1 NCelD=      1
         NCelK=      1 NCelE2=     1 NClLst=     1 CellRange=     0.0.
 One-electron integrals computed using PRISM.
 One-electron integral symmetry used in STVInt
 NBasis=   419 RedAO= T EigKep=  4.25D-04  NBF=   419
 NBsUse=   419 1.00D-06 EigRej= -1.00D+00 NBFU=   419
 Precomputing XC quadrature grid using
 IXCGrd= 4 IRadAn=           5 IRanWt=          -1 IRanGd=           0 AccXCQ= 0.00D+00.
 Generated NRdTot=       0 NPtTot=           0 NUsed=           0 NTot=          32
 NSgBfM=   410   410   410   410   410 MxSgAt=    47 MxSgA2=    47.
 Leave Link  302 at Fri Nov  4 18:12:57 2022, MaxMem=   805306368 cpu:               4.1 elap:               0.6
 (Enter /home/wykgroup/appl/g16/l303.exe)
 DipDrv:  MaxL=1.
 Leave Link  303 at Fri Nov  4 18:12:57 2022, MaxMem=   805306368 cpu:               0.5 elap:               0.1
 (Enter /home/wykgroup/appl/g16/l401.exe)
 ExpMin= 1.61D-01 ExpMax= 5.48D+03 ExpMxC= 8.25D+02 IAcc=3 IRadAn=         5 AccDes= 0.00D+00
 Harris functional with IExCor=  402 and IRadAn=       5 diagonalized for initial guess.
 HarFok:  IExCor=  402 AccDes= 0.00D+00 IRadAn=         5 IDoV= 1 UseB2=F ITyADJ=14
 ICtDFT=  3500011 ScaDFX=  1.000000  1.000000  1.000000  1.000000
 FoFCou: FMM=F IPFlag=           0 FMFlag=      100000 FMFlg1=           0
         NFxFlg=           0 DoJE=T BraDBF=F KetDBF=T FulRan=T
         wScrn=  0.000000 ICntrl=       500 IOpCl=  0 I1Cent=   200000004 NGrid=           0
         NMat0=    1 NMatS0=      1 NMatT0=    0 NMatD0=    1 NMtDS0=    0 NMtDT0=    0
 Petite list used in FoFCou.
 Harris En= -1147.68045028296    
 JPrj=0 DoOrth=F DoCkMO=F.
 Leave Link  401 at Fri Nov  4 18:13:00 2022, MaxMem=   805306368 cpu:              18.4 elap:               2.7
 (Enter /home/wykgroup/appl/g16/l502.exe)
 Integral symmetry usage will be decided dynamically.
 Closed shell SCF:
 Using DIIS extrapolation, IDIIS=  1040.
 NGot=   805306368 LenX=   804947613 LenY=   804771611
 Requested convergence on RMS density matrix=1.00D-08 within  32 cycles.
 Requested convergence on MAX density matrix=1.00D-06.
 Requested convergence on             energy=1.00D-06.
 No special actions if energy rises.
 Fock matrices will be formed incrementally for  20 cycles.
 Integral accuracy reduced to 1.0D-05 until final iterations.

 Cycle   1  Pass 0  IDiag  1:
 FoFJK:  IHMeth= 1 ICntrl=       0 DoSepK=F KAlg= 0 I1Cent=           0 FoldK=F
 IRaf= 620000000 NMat=       1 IRICut=       1 DoRegI=T DoRafI=F ISym2E= 0 IDoP0=0 IntGTp=1.
 FoFCou: FMM=F IPFlag=           0 FMFlag=      100000 FMFlg1=           0
         NFxFlg=           0 DoJE=F BraDBF=F KetDBF=F FulRan=T
         wScrn=  0.000000 ICntrl=         0 IOpCl=  0 I1Cent=           0 NGrid=           0
         NMat0=    1 NMatS0=      1 NMatT0=    0 NMatD0=    1 NMtDS0=    0 NMtDT0=    0
 Symmetry not used in FoFCou.
 E= -1147.00355351312    
 DIIS: error= 4.42D-02 at cycle   1 NSaved=   1.
 NSaved= 1 IEnMin= 1 EnMin= -1147.00355351312     IErMin= 1 ErrMin= 4.42D-02
 ErrMax= 4.42D-02  0.00D+00 EMaxC= 1.00D-01 BMatC= 6.84D-01 BMatP= 6.84D-01
 IDIUse=3 WtCom= 5.58D-01 WtEn= 4.42D-01
 Coeff-Com:  0.100D+01
 Coeff-En:   0.100D+01
 Coeff:      0.100D+01
 Gap=     0.210 Goal=   None    Shift=    0.000
 GapD=    0.210 DampG=1.000 DampE=0.500 DampFc=0.5000 IDamp=-1.
 Damping current iteration by 5.00D-01
 RMSDP=4.71D-03 MaxDP=2.15D-01              OVMax= 2.40D-01

 Cycle   2  Pass 0  IDiag  1:
 RMSU=  2.33D-03    CP:  9.78D-01
 E= -1147.22419320500     Delta-E=       -0.220639691885 Rises=F Damp=T
 DIIS: error= 1.23D-02 at cycle   2 NSaved=   2.
 NSaved= 2 IEnMin= 2 EnMin= -1147.22419320500     IErMin= 2 ErrMin= 1.23D-02
 ErrMax= 1.23D-02  0.00D+00 EMaxC= 1.00D-01 BMatC= 9.10D-02 BMatP= 6.84D-01
 IDIUse=3 WtCom= 8.77D-01 WtEn= 1.23D-01
 Coeff-Com:  0.178D+00 0.822D+00
 Coeff-En:   0.268D+00 0.732D+00
 Coeff:      0.189D+00 0.811D+00
 Gap=     0.262 Goal=   None    Shift=    0.000
 RMSDP=1.48D-03 MaxDP=1.13D-01 DE=-2.21D-01 OVMax= 1.80D-01

 Cycle   3  Pass 0  IDiag  1:
 RMSU=  1.36D-03    CP:  9.68D-01  7.55D-01
 E= -1147.56003596186     Delta-E=       -0.335842756862 Rises=F Damp=F
 DIIS: error= 2.15D-02 at cycle   3 NSaved=   3.
 NSaved= 3 IEnMin= 3 EnMin= -1147.56003596186     IErMin= 2 ErrMin= 1.23D-02
 ErrMax= 2.15D-02  0.00D+00 EMaxC= 1.00D-01 BMatC= 1.05D-01 BMatP= 9.10D-02
 IDIUse=2 WtCom= 0.00D+00 WtEn= 1.00D+00
 Coeff-En:   0.000D+00 0.000D+00 0.100D+01
 Coeff:      0.000D+00 0.000D+00 0.100D+01
 Gap=     0.176 Goal=   None    Shift=    0.000
 RMSDP=2.50D-03 MaxDP=2.10D-01 DE=-3.36D-01 OVMax= 2.41D-01

 Cycle   4  Pass 0  IDiag  1:
 RMSU=  1.24D-03    CP:  9.77D-01  1.20D+00 -3.96D-01
 E= -1147.15783401988     Delta-E=        0.402201941988 Rises=F Damp=F
 DIIS: error= 4.37D-02 at cycle   4 NSaved=   4.
 NSaved= 4 IEnMin= 3 EnMin= -1147.56003596186     IErMin= 2 ErrMin= 1.23D-02
 ErrMax= 4.37D-02  0.00D+00 EMaxC= 1.00D-01 BMatC= 6.18D-01 BMatP= 9.10D-02
 IDIUse=2 WtCom= 0.00D+00 WtEn= 1.00D+00
 Coeff-En:   0.000D+00 0.000D+00 0.794D+00 0.206D+00
 Coeff:      0.000D+00 0.000D+00 0.794D+00 0.206D+00
 Gap=     0.200 Goal=   None    Shift=    0.000
 RMSDP=1.38D-03 MaxDP=1.33D-01 DE= 4.02D-01 OVMax= 1.37D-01

 Cycle   5  Pass 0  IDiag  1:
 RMSU=  2.34D-04    CP:  9.74D-01  8.93D-01  3.19D-01  4.98D-01
 E= -1147.61317455011     Delta-E=       -0.455340530235 Rises=F Damp=F
 DIIS: error= 1.23D-02 at cycle   5 NSaved=   5.
 NSaved= 5 IEnMin= 5 EnMin= -1147.61317455011     IErMin= 5 ErrMin= 1.23D-02
 ErrMax= 1.23D-02  0.00D+00 EMaxC= 1.00D-01 BMatC= 4.27D-02 BMatP= 9.10D-02
 IDIUse=3 WtCom= 8.77D-01 WtEn= 1.23D-01
 Coeff-Com: -0.222D-02 0.309D-01 0.328D+00-0.602D-01 0.703D+00
 Coeff-En:   0.000D+00 0.000D+00 0.330D+00 0.000D+00 0.670D+00
 Coeff:     -0.195D-02 0.271D-01 0.329D+00-0.529D-01 0.699D+00
 Gap=     0.176 Goal=   None    Shift=    0.000
 RMSDP=4.84D-04 MaxDP=3.50D-02 DE=-4.55D-01 OVMax= 4.96D-02

 Cycle   6  Pass 0  IDiag  1:
 RMSU=  9.06D-05    CP:  9.72D-01  8.29D-01  5.86D-01  2.91D-01  6.94D-01
 E= -1147.64759885696     Delta-E=       -0.034424306851 Rises=F Damp=F
 DIIS: error= 8.81D-04 at cycle   6 NSaved=   6.
 NSaved= 6 IEnMin= 6 EnMin= -1147.64759885696     IErMin= 6 ErrMin= 8.81D-04
 ErrMax= 8.81D-04  0.00D+00 EMaxC= 1.00D-01 BMatC= 5.73D-04 BMatP= 4.27D-02
 IDIUse=3 WtCom= 9.91D-01 WtEn= 8.81D-03
 Coeff-Com: -0.571D-02 0.182D-01 0.157D+00-0.611D-01 0.465D+00 0.427D+00
 Coeff-En:   0.000D+00 0.000D+00 0.000D+00 0.000D+00 0.000D+00 0.100D+01
 Coeff:     -0.566D-02 0.180D-01 0.156D+00-0.606D-01 0.461D+00 0.432D+00
 Gap=     0.176 Goal=   None    Shift=    0.000
 RMSDP=6.10D-05 MaxDP=4.21D-03 DE=-3.44D-02 OVMax= 7.60D-03

 Cycle   7  Pass 0  IDiag  1:
 RMSU=  2.37D-05    CP:  9.72D-01  8.34D-01  5.78D-01  3.02D-01  7.77D-01
                    CP:  4.70D-01
 E= -1147.64808565678     Delta-E=       -0.000486799820 Rises=F Damp=F
 DIIS: error= 2.00D-04 at cycle   7 NSaved=   7.
 NSaved= 7 IEnMin= 7 EnMin= -1147.64808565678     IErMin= 7 ErrMin= 2.00D-04
 ErrMax= 2.00D-04  0.00D+00 EMaxC= 1.00D-01 BMatC= 2.65D-05 BMatP= 5.73D-04
 IDIUse=3 WtCom= 9.98D-01 WtEn= 2.00D-03
 Coeff-Com: -0.260D-02 0.693D-02 0.619D-01-0.283D-01 0.195D+00 0.234D+00
 Coeff-Com:  0.533D+00
 Coeff-En:   0.000D+00 0.000D+00 0.000D+00 0.000D+00 0.000D+00 0.000D+00
 Coeff-En:   0.100D+01
 Coeff:     -0.259D-02 0.691D-02 0.618D-01-0.283D-01 0.195D+00 0.234D+00
 Coeff:      0.534D+00
 Gap=     0.176 Goal=   None    Shift=    0.000
 RMSDP=1.42D-05 MaxDP=9.37D-04 DE=-4.87D-04 OVMax= 2.24D-03

 Cycle   8  Pass 0  IDiag  1:
 RMSU=  8.88D-06    CP:  9.72D-01  8.34D-01  5.79D-01  3.00D-01  7.75D-01
                    CP:  5.16D-01  5.84D-01
 E= -1147.64810600747     Delta-E=       -0.000020350690 Rises=F Damp=F
 DIIS: error= 7.67D-05 at cycle   8 NSaved=   8.
 NSaved= 8 IEnMin= 8 EnMin= -1147.64810600747     IErMin= 8 ErrMin= 7.67D-05
 ErrMax= 7.67D-05  0.00D+00 EMaxC= 1.00D-01 BMatC= 3.95D-06 BMatP= 2.65D-05
 IDIUse=1 WtCom= 1.00D+00 WtEn= 0.00D+00
 Coeff-Com: -0.533D-03 0.105D-02 0.149D-01-0.769D-02 0.475D-01 0.782D-01
 Coeff-Com:  0.327D+00 0.540D+00
 Coeff:     -0.533D-03 0.105D-02 0.149D-01-0.769D-02 0.475D-01 0.782D-01
 Coeff:      0.327D+00 0.540D+00
 Gap=     0.176 Goal=   None    Shift=    0.000
 RMSDP=5.43D-06 MaxDP=3.44D-04 DE=-2.04D-05 OVMax= 7.07D-04

 Initial convergence to 1.0D-05 achieved.  Increase integral accuracy.
 Cycle   9  Pass 1  IDiag  1:
 E= -1147.64807709828     Delta-E=        0.000028909192 Rises=F Damp=F
 DIIS: error= 1.04D-04 at cycle   1 NSaved=   1.
 NSaved= 1 IEnMin= 1 EnMin= -1147.64807709828     IErMin= 1 ErrMin= 1.04D-04
 ErrMax= 1.04D-04  0.00D+00 EMaxC= 1.00D-01 BMatC= 9.03D-07 BMatP= 9.03D-07
 IDIUse=3 WtCom= 9.99D-01 WtEn= 1.04D-03
 Coeff-Com:  0.100D+01
 Coeff-En:   0.100D+01
 Coeff:      0.100D+01
 Gap=     0.176 Goal=   None    Shift=    0.000
 RMSDP=5.43D-06 MaxDP=3.44D-04 DE= 2.89D-05 OVMax= 3.13D-04

 Cycle  10  Pass 1  IDiag  1:
 RMSU=  3.86D-05    CP:  1.00D+00
 E= -1147.64807738180     Delta-E=       -0.000000283518 Rises=F Damp=F
 DIIS: error= 2.71D-05 at cycle   2 NSaved=   2.
 NSaved= 2 IEnMin= 2 EnMin= -1147.64807738180     IErMin= 2 ErrMin= 2.71D-05
 ErrMax= 2.71D-05  0.00D+00 EMaxC= 1.00D-01 BMatC= 6.97D-07 BMatP= 9.03D-07
 IDIUse=1 WtCom= 1.00D+00 WtEn= 0.00D+00
 Coeff-Com:  0.456D+00 0.544D+00
 Coeff:      0.456D+00 0.544D+00
 Gap=     0.176 Goal=   None    Shift=    0.000
 RMSDP=3.14D-06 MaxDP=2.03D-04 DE=-2.84D-07 OVMax= 3.31D-04

 Cycle  11  Pass 1  IDiag  1:
 RMSU=  3.14D-06    CP:  1.00D+00  1.00D+00
 E= -1147.64807777465     Delta-E=       -0.000000392848 Rises=F Damp=F
 DIIS: error= 2.14D-05 at cycle   3 NSaved=   3.
 NSaved= 3 IEnMin= 3 EnMin= -1147.64807777465     IErMin= 3 ErrMin= 2.14D-05
 ErrMax= 2.14D-05  0.00D+00 EMaxC= 1.00D-01 BMatC= 2.73D-07 BMatP= 6.97D-07
 IDIUse=1 WtCom= 1.00D+00 WtEn= 0.00D+00
 Coeff-Com:  0.457D-01 0.378D+00 0.576D+00
 Coeff:      0.457D-01 0.378D+00 0.576D+00
 Gap=     0.176 Goal=   None    Shift=    0.000
 RMSDP=1.40D-06 MaxDP=7.31D-05 DE=-3.93D-07 OVMax= 1.65D-04

 Cycle  12  Pass 1  IDiag  1:
 RMSU=  7.19D-07    CP:  1.00D+00  1.01D+00  6.28D-01
 E= -1147.64807800001     Delta-E=       -0.000000225369 Rises=F Damp=F
 DIIS: error= 5.82D-06 at cycle   4 NSaved=   4.
 NSaved= 4 IEnMin= 4 EnMin= -1147.64807800001     IErMin= 4 ErrMin= 5.82D-06
 ErrMax= 5.82D-06  0.00D+00 EMaxC= 1.00D-01 BMatC= 2.82D-08 BMatP= 2.73D-07
 IDIUse=1 WtCom= 1.00D+00 WtEn= 0.00D+00
 Coeff-Com: -0.138D-02 0.205D+00 0.367D+00 0.429D+00
 Coeff:     -0.138D-02 0.205D+00 0.367D+00 0.429D+00
 Gap=     0.176 Goal=   None    Shift=    0.000
 RMSDP=4.25D-07 MaxDP=2.48D-05 DE=-2.25D-07 OVMax= 4.39D-05

 Cycle  13  Pass 1  IDiag  1:
 RMSU=  1.29D-07    CP:  1.00D+00  1.01D+00  6.49D-01  4.47D-01
 E= -1147.64807802535     Delta-E=       -0.000000025339 Rises=F Damp=F
 DIIS: error= 7.63D-07 at cycle   5 NSaved=   5.
 NSaved= 5 IEnMin= 5 EnMin= -1147.64807802535     IErMin= 5 ErrMin= 7.63D-07
 ErrMax= 7.63D-07  0.00D+00 EMaxC= 1.00D-01 BMatC= 6.51D-10 BMatP= 2.82D-08
 IDIUse=1 WtCom= 1.00D+00 WtEn= 0.00D+00
 Coeff-Com: -0.224D-02 0.108D+00 0.196D+00 0.251D+00 0.448D+00
 Coeff:     -0.224D-02 0.108D+00 0.196D+00 0.251D+00 0.448D+00
 Gap=     0.176 Goal=   None    Shift=    0.000
 RMSDP=6.65D-08 MaxDP=3.76D-06 DE=-2.53D-08 OVMax= 5.67D-06

 Cycle  14  Pass 1  IDiag  1:
 RMSU=  3.19D-08    CP:  1.00D+00  1.01D+00  6.45D-01  4.51D-01  5.58D-01
 E= -1147.64807802591     Delta-E=       -0.000000000561 Rises=F Damp=F
 DIIS: error= 1.11D-07 at cycle   6 NSaved=   6.
 NSaved= 6 IEnMin= 6 EnMin= -1147.64807802591     IErMin= 6 ErrMin= 1.11D-07
 ErrMax= 1.11D-07  0.00D+00 EMaxC= 1.00D-01 BMatC= 1.46D-11 BMatP= 6.51D-10
 IDIUse=1 WtCom= 1.00D+00 WtEn= 0.00D+00
 Coeff-Com: -0.111D-02 0.494D-01 0.895D-01 0.117D+00 0.229D+00 0.517D+00
 Coeff:     -0.111D-02 0.494D-01 0.895D-01 0.117D+00 0.229D+00 0.517D+00
 Gap=     0.176 Goal=   None    Shift=    0.000
 RMSDP=1.26D-08 MaxDP=8.16D-07 DE=-5.61D-10 OVMax= 1.47D-06

 Cycle  15  Pass 1  IDiag  1:
 RMSU=  1.06D-08    CP:  1.00D+00  1.01D+00  6.45D-01  4.53D-01  5.60D-01
                    CP:  7.99D-01
 E= -1147.64807802593     Delta-E=       -0.000000000021 Rises=F Damp=F
 DIIS: error= 5.07D-08 at cycle   7 NSaved=   7.
 NSaved= 7 IEnMin= 7 EnMin= -1147.64807802593     IErMin= 7 ErrMin= 5.07D-08
 ErrMax= 5.07D-08  0.00D+00 EMaxC= 1.00D-01 BMatC= 1.95D-12 BMatP= 1.46D-11
 IDIUse=1 WtCom= 1.00D+00 WtEn= 0.00D+00
 Coeff-Com: -0.308D-03 0.125D-01 0.227D-01 0.305D-01 0.625D-01 0.287D+00
 Coeff-Com:  0.585D+00
 Coeff:     -0.308D-03 0.125D-01 0.227D-01 0.305D-01 0.625D-01 0.287D+00
 Coeff:      0.585D+00
 Gap=     0.176 Goal=   None    Shift=    0.000
 RMSDP=4.17D-09 MaxDP=2.21D-07 DE=-2.14D-11 OVMax= 4.12D-07

 SCF Done:  E(RB3LYP) =  -1147.64807803     A.U. after   15 cycles
            NFock= 15  Conv=0.42D-08     -V/T= 2.0086
 KE= 1.137860827984D+03 PE=-6.817378970200D+03 EE= 2.458940079093D+03
 Leave Link  502 at Fri Nov  4 18:13:57 2022, MaxMem=   805306368 cpu:             393.1 elap:              56.7
 (Enter /home/wykgroup/appl/g16/l508.exe)
 QCSCF skips out because SCF is already converged.
 Leave Link  508 at Fri Nov  4 18:13:57 2022, MaxMem=   805306368 cpu:               0.2 elap:               0.1
 (Enter /home/wykgroup/appl/g16/l601.exe)
 Copying SCF densities to generalized density rwf, IOpCl= 0 IROHF=0.

 **********************************************************************

            Population analysis using the SCF Density.

 **********************************************************************

 Orbital symmetries:
       Occupied  (A) (A) (A) (A) (A) (A) (A) (A) (A) (A) (A) (A)
                 (A) (A) (A) (A) (A) (A) (A) (A) (A) (A) (A) (A)
                 (A) (A) (A) (A) (A) (A) (A) (A) (A) (A) (A) (A)
                 (A) (A) (A) (A) (A) (A) (A) (A) (A) (A) (A) (A)
                 (A) (A) (A) (A) (A) (A) (A) (A) (A) (A) (A) (A)
                 (A) (A) (A) (A) (A) (A) (A) (A) (A) (A) (A) (A)
                 (A) (A) (A) (A) (A) (A) (A) (A) (A) (A) (A) (A)
                 (A) (A) (A) (A) (A) (A) (A)
       Virtual   (A) (A) (A) (A) (A) (A) (A) (A) (A) (A) (A) (A)
                 (A) (A) (A) (A) (A) (A) (A) (A) (A) (A) (A) (A)
                 (A) (A) (A) (A) (A) (A) (A) (A) (A) (A) (A) (A)
                 (A) (A) (A) (A) (A) (A) (A) (A) (A) (A) (A) (A)
                 (A) (A) (A) (A) (A) (A) (A) (A) (A) (A) (A) (A)
                 (A) (A) (A) (A) (A) (A) (A) (A) (A) (A) (A) (A)
                 (A) (A) (A) (A) (A) (A) (A) (A) (A) (A) (A) (A)
                 (A) (A) (A) (A) (A) (A) (A) (A) (A) (A) (A) (A)
                 (A) (A) (A) (A) (A) (A) (A) (A) (A) (A) (A) (A)
                 (A) (A) (A) (A) (A) (A) (A) (A) (A) (A) (A) (A)
                 (A) (A) (A) (A) (A) (A) (A) (A) (A) (A) (A) (A)
                 (A) (A) (A) (A) (A) (A) (A) (A) (A) (A) (A) (A)
                 (A) (A) (A) (A) (A) (A) (A) (A) (A) (A) (A) (A)
                 (A) (A) (A) (A) (A) (A) (A) (A) (A) (A) (A) (A)
                 (A) (A) (A) (A) (A) (A) (A) (A) (A) (A) (A) (A)
                 (A) (A) (A) (A) (A) (A) (A) (A) (A) (A) (A) (A)
                 (A) (A) (A) (A) (A) (A) (A) (A) (A) (A) (A) (A)
                 (A) (A) (A) (A) (A) (A) (A) (A) (A) (A) (A) (A)
                 (A) (A) (A) (A) (A) (A) (A) (A) (A) (A) (A) (A)
                 (A) (A) (A) (A) (A) (A) (A) (A) (A) (A) (A) (A)
                 (A) (A) (A) (A) (A) (A) (A) (A) (A) (A) (A) (A)
                 (A) (A) (A) (A) (A) (A) (A) (A) (A) (A) (A) (A)
                 (A) (A) (A) (A) (A) (A) (A) (A) (A) (A) (A) (A)
                 (A) (A) (A) (A) (A) (A) (A) (A) (A) (A) (A) (A)
                 (A) (A) (A) (A) (A) (A) (A) (A) (A) (A) (A) (A)
                 (A) (A) (A) (A) (A) (A) (A) (A) (A) (A) (A) (A)
                 (A) (A) (A) (A) (A) (A) (A) (A) (A) (A) (A) (A)
                 (A) (A) (A) (A)
 The electronic state is 1-A.
 Alpha  occ. eigenvalues --  -19.21890 -19.20998 -19.15190 -19.11366 -14.36959
 Alpha  occ. eigenvalues --  -14.31335 -10.33416 -10.28457 -10.26218 -10.25599
 Alpha  occ. eigenvalues --  -10.23777 -10.22703 -10.20094 -10.20028 -10.20019
 Alpha  occ. eigenvalues --  -10.19538 -10.19227 -10.18824 -10.18793 -10.18750
 Alpha  occ. eigenvalues --  -10.18688 -10.18618 -10.18490 -10.18377 -10.18330
 Alpha  occ. eigenvalues --   -1.13405  -1.12733  -1.04537  -1.03467  -0.95359
 Alpha  occ. eigenvalues --   -0.91351  -0.86169  -0.85848  -0.81665  -0.78891
 Alpha  occ. eigenvalues --   -0.78442  -0.74756  -0.74654  -0.70331  -0.69561
 Alpha  occ. eigenvalues --   -0.64809  -0.63438  -0.62374  -0.61334  -0.60829
 Alpha  occ. eigenvalues --   -0.59344  -0.58876  -0.56407  -0.56005  -0.53413
 Alpha  occ. eigenvalues --   -0.53219  -0.51191  -0.50224  -0.49297  -0.49152
 Alpha  occ. eigenvalues --   -0.47827  -0.47272  -0.46681  -0.45999  -0.45125
 Alpha  occ. eigenvalues --   -0.44688  -0.44306  -0.42975  -0.42376  -0.42287
 Alpha  occ. eigenvalues --   -0.42139  -0.41700  -0.40976  -0.40377  -0.39002
 Alpha  occ. eigenvalues --   -0.38730  -0.37888  -0.37337  -0.37082  -0.36632
 Alpha  occ. eigenvalues --   -0.35709  -0.35119  -0.35062  -0.34639  -0.34028
 Alpha  occ. eigenvalues --   -0.33525  -0.31232  -0.31128  -0.30806  -0.29240
 Alpha  occ. eigenvalues --   -0.27944  -0.27269  -0.25095  -0.25053  -0.24019
 Alpha  occ. eigenvalues --   -0.20300
 Alpha virt. eigenvalues --   -0.02705  -0.00244   0.00368   0.02377   0.04087
 Alpha virt. eigenvalues --    0.05977   0.06925   0.08779   0.09353   0.09624
 Alpha virt. eigenvalues --    0.09814   0.11202   0.12333   0.12955   0.14030
 Alpha virt. eigenvalues --    0.14521   0.14827   0.15175   0.15507   0.15925
 Alpha virt. eigenvalues --    0.16756   0.16911   0.17556   0.17927   0.18676
 Alpha virt. eigenvalues --    0.18751   0.19036   0.19446   0.20247   0.20965
 Alpha virt. eigenvalues --    0.21496   0.22172   0.22227   0.23236   0.24099
 Alpha virt. eigenvalues --    0.24820   0.25312   0.25869   0.26924   0.27890
 Alpha virt. eigenvalues --    0.28125   0.28791   0.30835   0.31289   0.31452
 Alpha virt. eigenvalues --    0.33071   0.33815   0.36020   0.36524   0.37505
 Alpha virt. eigenvalues --    0.39193   0.40409   0.43836   0.46062   0.47127
 Alpha virt. eigenvalues --    0.47776   0.49643   0.50963   0.51427   0.51729
 Alpha virt. eigenvalues --    0.52751   0.53390   0.53822   0.54242   0.54805
 Alpha virt. eigenvalues --    0.55124   0.55780   0.57050   0.57284   0.57765
 Alpha virt. eigenvalues --    0.58517   0.58908   0.59206   0.59857   0.60124
 Alpha virt. eigenvalues --    0.60703   0.61381   0.61504   0.61988   0.62141
 Alpha virt. eigenvalues --    0.62615   0.62968   0.63301   0.64492   0.65218
 Alpha virt. eigenvalues --    0.65454   0.66139   0.66399   0.66805   0.67569
 Alpha virt. eigenvalues --    0.68215   0.68995   0.70072   0.70579   0.72546
 Alpha virt. eigenvalues --    0.73079   0.74140   0.74988   0.76430   0.77265
 Alpha virt. eigenvalues --    0.77804   0.78472   0.79988   0.80080   0.80957
 Alpha virt. eigenvalues --    0.81605   0.82377   0.83004   0.84222   0.84356
 Alpha virt. eigenvalues --    0.84535   0.85282   0.85979   0.86129   0.87131
 Alpha virt. eigenvalues --    0.87670   0.88309   0.88626   0.89389   0.89532
 Alpha virt. eigenvalues --    0.90075   0.90806   0.91442   0.91895   0.92778
 Alpha virt. eigenvalues --    0.93820   0.93949   0.94223   0.94364   0.94701
 Alpha virt. eigenvalues --    0.96590   0.96878   0.97639   0.98923   0.99753
 Alpha virt. eigenvalues --    1.00087   1.00993   1.01508   1.01759   1.02653
 Alpha virt. eigenvalues --    1.04089   1.05944   1.06665   1.07483   1.08224
 Alpha virt. eigenvalues --    1.10843   1.11859   1.12604   1.14890   1.15248
 Alpha virt. eigenvalues --    1.16383   1.17335   1.19311   1.19887   1.21365
 Alpha virt. eigenvalues --    1.23393   1.24257   1.25537   1.26610   1.29109
 Alpha virt. eigenvalues --    1.30275   1.30893   1.33827   1.33926   1.36545
 Alpha virt. eigenvalues --    1.37639   1.38054   1.39075   1.39948   1.40285
 Alpha virt. eigenvalues --    1.42171   1.43332   1.43617   1.44653   1.47049
 Alpha virt. eigenvalues --    1.47549   1.48650   1.49399   1.49668   1.51090
 Alpha virt. eigenvalues --    1.51405   1.54582   1.56805   1.57113   1.59686
 Alpha virt. eigenvalues --    1.60314   1.63781   1.65613   1.65997   1.68584
 Alpha virt. eigenvalues --    1.69873   1.72845   1.73267   1.75910   1.76129
 Alpha virt. eigenvalues --    1.78372   1.79243   1.79594   1.80342   1.81074
 Alpha virt. eigenvalues --    1.81665   1.82568   1.82704   1.83576   1.85073
 Alpha virt. eigenvalues --    1.85678   1.86377   1.88049   1.88519   1.89191
 Alpha virt. eigenvalues --    1.90123   1.90424   1.91218   1.91418   1.92161
[...]
     8  O    0.001452  -0.000027   0.000001   0.000000   0.000213  -0.000000
     9  C   -0.000063  -0.000749   0.000064   0.000030   0.009045   0.000001
    10  C    0.000001  -0.000040   0.000001  -0.000001   0.000059  -0.000000
    11  C    0.000000   0.000001   0.000000   0.000000  -0.000010  -0.000000
    12  C    0.000000  -0.000000   0.000000   0.000000   0.000000   0.000000
    13  N    0.000000  -0.000000  -0.000000  -0.000000   0.000000  -0.000000
    14  C   -0.000000  -0.000000   0.000000   0.000000  -0.000000  -0.000000
    15  C   -0.000000   0.000000   0.000000   0.000000   0.000000   0.000000
    16  C    0.000000   0.000000   0.000000   0.000000  -0.000000   0.000000
    17  C    0.000000  -0.000000  -0.000000  -0.000000  -0.000000  -0.000000
    18  C   -0.000000   0.000000  -0.000000   0.000000  -0.000000   0.000000
    19  C   -0.000000   0.000000   0.000000   0.000000   0.000000   0.000000
    20  C    0.000000   0.000000   0.000000   0.000000  -0.000000   0.000000
    21  C    0.000000  -0.000000  -0.000000  -0.000000   0.000000   0.000000
    22  O   -0.000000   0.000000   0.000000  -0.000000  -0.000000   0.000000
    23  C    0.275394  -0.000172   0.001400  -0.000090   0.004223  -0.000008
    24  C    0.240299  -0.000004  -0.000374  -0.000001  -0.000252  -0.000003
    25  C    5.189107   0.000109  -0.000426   0.000039   0.000255  -0.000031
    26  H    0.000109   0.563719  -0.027506  -0.026669  -0.002695   0.000003
    27  H   -0.000426  -0.027506   0.526138  -0.024541   0.004674  -0.000008
    28  H    0.000039  -0.026669  -0.024541   0.550907  -0.001652   0.000000
    29  H    0.000255  -0.002695   0.004674  -0.001652   0.570126  -0.000442
    30  H   -0.000031   0.000003  -0.000008   0.000000  -0.000442   0.353747
    31  H   -0.000002   0.004489  -0.000045  -0.000083  -0.002753   0.000000
    32  H   -0.000006   0.000010  -0.000006   0.000006   0.005383   0.000001
    33  H   -0.000000   0.000003  -0.000000  -0.000000   0.000007   0.000000
    34  H   -0.000000  -0.000003  -0.000000  -0.000000   0.000003  -0.000000
    35  H   -0.000000   0.000000  -0.000000   0.000000  -0.000006   0.000000
    36  H   -0.000000   0.000000  -0.000000   0.000000   0.000001   0.000000
    37  H   -0.000000   0.000000   0.000000   0.000000  -0.000000   0.000000
    38  H   -0.000000   0.000000  -0.000000  -0.000000   0.000000   0.000000
    39  H    0.000000  -0.000000   0.000000   0.000000   0.000000   0.000000
    40  H    0.000000   0.000000   0.000000   0.000000  -0.000000   0.000000
    41  H    0.000000   0.000000   0.000000   0.000000   0.000000   0.000000
    42  H    0.000000   0.000000   0.000000   0.000000   0.000000   0.000000
    43  H   -0.033996   0.000004  -0.000010   0.000012   0.000020   0.000104
    44  H   -0.023348   0.000036   0.000006   0.000001   0.000001   0.000000
    45  H   -0.021108   0.000001   0.000009   0.000000   0.000004  -0.000000
    46  H    0.373900  -0.000062   0.007744   0.000057   0.000001  -0.000002
    47  H    0.371220  -0.000001  -0.000019  -0.000002  -0.000002   0.000004
              31         32         33         34         35         36
     1  C    0.000267   0.000119   0.000005   0.000002   0.000000  -0.000000
     2  C    0.000156  -0.004114  -0.000026  -0.000004  -0.000004  -0.000011
     3  C    0.000274   0.000039  -0.000000  -0.000000   0.000000   0.000000
     4  O   -0.000001  -0.000001  -0.000000  -0.000000  -0.000000  -0.000000
     5  O   -0.000002   0.000106   0.000000   0.000000  -0.000000   0.000000
     6  N    0.000349   0.000982   0.000318  -0.000056   0.000010   0.000078
     7  C   -0.023386  -0.025319  -0.004304   0.004376  -0.000195   0.003154
     8  O    0.001662   0.000806   0.006712   0.000425   0.000351   0.013913
     9  C    0.350899   0.350549  -0.037880  -0.034618  -0.005134  -0.005884
    10  C   -0.029305  -0.034067   0.374919   0.366433  -0.035350  -0.036572
    11  C    0.003912  -0.005989  -0.033846  -0.040870   0.354611   0.353441
    12  C   -0.000069   0.000009  -0.005255  -0.001530  -0.027181  -0.022124
    13  N   -0.000000  -0.000000   0.000021   0.001057   0.001230   0.001557
    14  C   -0.000000  -0.000000   0.000013  -0.000047   0.000111  -0.000163
    15  C    0.000000   0.000000   0.000008  -0.000119  -0.000088   0.000261
    16  C    0.000000   0.000000  -0.000008  -0.000004   0.000000  -0.000003
    17  C   -0.000000  -0.000000  -0.000001   0.000001   0.000000  -0.000003
    18  C   -0.000000  -0.000000   0.000000  -0.000000  -0.000000  -0.000000
    19  C    0.000000   0.000000   0.000000  -0.000000  -0.000000   0.000000
    20  C    0.000000  -0.000000  -0.000000   0.000000   0.000000   0.000000
    21  C   -0.000000  -0.000000  -0.000000   0.000000  -0.000000  -0.000000
    22  O    0.000000  -0.000001   0.003974  -0.000147   0.003107  -0.000314
    23  C   -0.000120  -0.000308  -0.000023   0.000001  -0.000001  -0.000004
    24  C    0.000019  -0.000004   0.000001   0.000000  -0.000000  -0.000001
    25  C   -0.000002  -0.000006  -0.000000  -0.000000  -0.000000  -0.000000
    26  H    0.004489   0.000010   0.000003  -0.000003   0.000000   0.000000
    27  H   -0.000045  -0.000006  -0.000000  -0.000000  -0.000000  -0.000000
    28  H   -0.000083   0.000006  -0.000000  -0.000000   0.000000   0.000000
    29  H   -0.002753   0.005383   0.000007   0.000003  -0.000006   0.000001
    30  H    0.000000   0.000001   0.000000  -0.000000   0.000000   0.000000
    31  H    0.568005  -0.033857  -0.001015  -0.004281   0.000081   0.000039
    32  H   -0.033857   0.567529   0.005054  -0.000875   0.005641  -0.000151
    33  H   -0.001015   0.005054   0.555062  -0.033599   0.004970  -0.004282
    34  H   -0.004281  -0.000875  -0.033599   0.599095  -0.003753   0.005363
    35  H    0.000081   0.005641   0.004970  -0.003753   0.566680  -0.027315
    36  H    0.000039  -0.000151  -0.004282   0.005363  -0.027315   0.521551
    37  H    0.000000  -0.000000  -0.000001   0.000000  -0.000014   0.000003
    38  H    0.000000   0.000000   0.000066  -0.000000  -0.000000   0.000011
    39  H   -0.000000  -0.000000  -0.000000   0.000000   0.000000  -0.000000
    40  H    0.000000   0.000000  -0.000000  -0.000000  -0.000000   0.000000
    41  H   -0.000000  -0.000000  -0.000000   0.000000  -0.000000   0.000000
    42  H    0.000000   0.000000   0.000000  -0.000000  -0.000000   0.000000
    43  H   -0.000011   0.000040  -0.000000  -0.000000   0.000000   0.000008
    44  H   -0.000005   0.000002   0.000003  -0.000000   0.000000   0.000000
    45  H   -0.000000   0.000000  -0.000000  -0.000000   0.000000   0.000000
    46  H   -0.000000   0.000000   0.000000   0.000000   0.000000   0.000000
    47  H    0.000000  -0.000000  -0.000000   0.000000   0.000000   0.000000
              37         38         39         40         41         42
     1  C   -0.000000  -0.000000  -0.000000   0.000000   0.000000  -0.000000
     2  C   -0.000000  -0.000000   0.000000   0.000000   0.000000   0.000000
     3  C    0.000000   0.000000  -0.000000   0.000000   0.000000   0.000000
     4  O    0.000000  -0.000000   0.000000   0.000000   0.000000   0.000000
     5  O    0.000000   0.000000   0.000000   0.000000   0.000000   0.000000
     6  N   -0.000000   0.000000  -0.000000  -0.000000   0.000000  -0.000000
     7  C    0.000000  -0.000000   0.000000   0.000000   0.000000  -0.000000
     8  O   -0.000000   0.000000  -0.000000   0.000000  -0.000000  -0.000000
     9  C   -0.000000  -0.000000   0.000000  -0.000000   0.000000  -0.000000
    10  C    0.000002   0.000002  -0.000000   0.000000  -0.000000   0.000000
    11  C   -0.000191  -0.000004   0.000000  -0.000000   0.000000  -0.000000
    12  C    0.005795  -0.000025  -0.000000  -0.000000  -0.000000  -0.000005
    13  N   -0.038511   0.000054  -0.000000   0.000000  -0.000000   0.000012
    14  C    0.367073   0.000275   0.000001  -0.000000  -0.000000   0.005685
    15  C   -0.042111  -0.012734  -0.000178   0.000003  -0.000212  -0.012918
    16  C   -0.000334  -0.039385   0.003286   0.000545   0.003272  -0.037517
    17  C   -0.000118   0.358049  -0.038822   0.004715   0.000897   0.006125
    18  C    0.000002  -0.043826   0.358439  -0.043088   0.004560   0.000247
    19  C    0.000001   0.004555  -0.043064   0.359714  -0.042676   0.004737
    20  C    0.000033   0.000268   0.004584  -0.043275   0.357641  -0.045497
    21  C    0.001034   0.005723   0.000879   0.004936  -0.039130   0.351536
    22  O    0.003298   0.009271  -0.000003   0.000000   0.000000   0.000015
    23  C    0.000000  -0.000000   0.000000  -0.000000  -0.000000  -0.000000
    24  C   -0.000000  -0.000000   0.000000  -0.000000  -0.000000  -0.000000
    25  C   -0.000000  -0.000000   0.000000   0.000000   0.000000   0.000000
    26  H    0.000000   0.000000  -0.000000   0.000000   0.000000   0.000000
    27  H    0.000000  -0.000000   0.000000   0.000000   0.000000   0.000000
    28  H    0.000000  -0.000000   0.000000   0.000000   0.000000   0.000000
    29  H   -0.000000   0.000000   0.000000  -0.000000   0.000000   0.000000
    30  H    0.000000   0.000000   0.000000   0.000000   0.000000   0.000000
    31  H    0.000000   0.000000  -0.000000   0.000000  -0.000000   0.000000
    32  H   -0.000000   0.000000  -0.000000   0.000000  -0.000000   0.000000
    33  H   -0.000001   0.000066  -0.000000  -0.000000  -0.000000   0.000000
    34  H    0.000000  -0.000000   0.000000  -0.000000   0.000000  -0.000000
    35  H   -0.000014  -0.000000   0.000000  -0.000000  -0.000000  -0.000000
    36  H    0.000003   0.000011  -0.000000   0.000000   0.000000   0.000000
    37  H    0.554445  -0.000006   0.000000  -0.000000  -0.000002   0.002138
    38  H   -0.000006   0.569942  -0.005200  -0.000162   0.000016  -0.000156
    39  H    0.000000  -0.005200   0.592964  -0.005513  -0.000185   0.000016
    40  H   -0.000000  -0.000162  -0.005513   0.597497  -0.005487  -0.000174
    41  H   -0.000002   0.000016  -0.000185  -0.005487   0.595064  -0.005464
    42  H    0.002138  -0.000156   0.000016  -0.000174  -0.005464   0.598888
    43  H    0.000000   0.000000  -0.000000  -0.000000   0.000000   0.000000
    44  H    0.000000   0.000000  -0.000000  -0.000000   0.000000  -0.000000
    45  H    0.000000   0.000000   0.000000   0.000000   0.000000   0.000000
    46  H   -0.000000   0.000000  -0.000000   0.000000   0.000000   0.000000
    47  H    0.000000   0.000000  -0.000000   0.000000   0.000000   0.000000
              43         44         45         46         47
     1  C   -0.000293   0.000126  -0.000011  -0.000582   0.000087
     2  C   -0.002487  -0.000111  -0.000100   0.001566   0.000076
     3  C    0.003218   0.000029   0.000017  -0.000489  -0.000104
     4  O    0.000059  -0.000001  -0.000000   0.000155   0.000024
     5  O    0.003065  -0.000003  -0.000000   0.000014   0.000046
     6  N   -0.044719  -0.001818   0.001400  -0.003648   0.001396
     7  C   -0.001786   0.001670   0.000238  -0.000129  -0.000058
     8  O    0.002692  -0.000238  -0.000035  -0.000018  -0.000009
     9  C   -0.000043  -0.000097   0.000000  -0.000012   0.000002
    10  C   -0.000003   0.000001  -0.000000   0.000000  -0.000000
    11  C    0.000000   0.000000  -0.000000  -0.000000   0.000000
    12  C    0.000000   0.000000   0.000000   0.000000  -0.000000
    13  N   -0.000000  -0.000000  -0.000000  -0.000000  -0.000000
    14  C    0.000000   0.000000   0.000000   0.000000   0.000000
    15  C    0.000000   0.000000   0.000000   0.000000   0.000000
    16  C    0.000000   0.000000  -0.000000   0.000000  -0.000000
    17  C   -0.000000  -0.000000  -0.000000  -0.000000  -0.000000
    18  C    0.000000   0.000000   0.000000   0.000000   0.000000
    19  C    0.000000   0.000000   0.000000   0.000000   0.000000
    20  C    0.000000  -0.000000   0.000000   0.000000   0.000000
    21  C   -0.000000   0.000000  -0.000000  -0.000000   0.000000
    22  O   -0.000000  -0.000000   0.000000   0.000000   0.000000
    23  C    0.384161  -0.021860  -0.016505  -0.022148  -0.017474
    24  C   -0.034334   0.382300   0.374996  -0.018379  -0.019006
    25  C   -0.033996  -0.023348  -0.021108   0.373900   0.371220
    26  H    0.000004   0.000036   0.000001  -0.000062  -0.000001
    27  H   -0.000010   0.000006   0.000009   0.007744  -0.000019
    28  H    0.000012   0.000001   0.000000   0.000057  -0.000002
    29  H    0.000020   0.000001   0.000004   0.000001  -0.000002
    30  H    0.000104   0.000000  -0.000000  -0.000002   0.000004
    31  H   -0.000011  -0.000005  -0.000000  -0.000000   0.000000
    32  H    0.000040   0.000002   0.000000   0.000000  -0.000000
    33  H   -0.000000   0.000003  -0.000000   0.000000  -0.000000
    34  H   -0.000000  -0.000000  -0.000000   0.000000   0.000000
    35  H    0.000000   0.000000   0.000000   0.000000   0.000000
    36  H    0.000008   0.000000   0.000000   0.000000   0.000000
    37  H    0.000000   0.000000   0.000000  -0.000000   0.000000
    38  H    0.000000   0.000000   0.000000   0.000000   0.000000
    39  H   -0.000000  -0.000000   0.000000  -0.000000  -0.000000
    40  H   -0.000000  -0.000000   0.000000   0.000000   0.000000
    41  H    0.000000   0.000000   0.000000   0.000000   0.000000
    42  H    0.000000  -0.000000   0.000000   0.000000   0.000000
    43  H    0.560465   0.002469  -0.003209   0.002413  -0.003737
    44  H    0.002469   0.527565  -0.026764  -0.005588   0.002231
    45  H   -0.003209  -0.026764   0.533024   0.002012  -0.005667
    46  H    0.002413  -0.005588   0.002012   0.523603  -0.028198
    47  H   -0.003737   0.002231  -0.005667  -0.028198   0.538242
 Mulliken charges:
               1
     1  C   -0.441423
     2  C   -0.038783
     3  C    0.586824
     4  O   -0.459432
     5  O   -0.564400
     6  N   -0.457248
     7  C    0.608492
     8  O   -0.502891
     9  C   -0.395168
    10  C   -0.256516
    11  C   -0.347453
    12  C    0.508365
    13  N   -0.459884
    14  C   -0.076239
    15  C    0.291663
    16  C    0.083293
    17  C   -0.175937
    18  C   -0.131252
    19  C   -0.126387
    20  C   -0.137757
    21  C   -0.170782
    22  O   -0.474917
    23  C    0.034307
    24  C   -0.292128
    25  C   -0.339197
    26  H    0.152505
    27  H    0.173421
    28  H    0.163542
    29  H    0.177934
    30  H    0.414709
    31  H    0.164783
    32  H    0.168421
    33  H    0.169106
    34  H    0.143152
    35  H    0.162248
    36  H    0.197446
    37  H    0.147462
    38  H    0.153266
    39  H    0.132796
    40  H    0.130290
    41  H    0.131706
    42  H    0.132332
    43  H    0.165898
    44  H    0.163392
    45  H    0.161699
    46  H    0.167792
    47  H    0.160948
 Sum of Mulliken charges =  -0.00000
 Mulliken charges with hydrogens summed into heavy atoms:
               1
     1  C    0.048046
     2  C    0.139151
     3  C    0.586824
     4  O   -0.459432
     5  O   -0.149691
     6  N   -0.457248
     7  C    0.608492
     8  O   -0.502891
     9  C   -0.061963
    10  C    0.055742
    11  C    0.012242
    12  C    0.508365
    13  N   -0.459884
    14  C    0.071223
    15  C    0.291663
    16  C    0.083293
    17  C   -0.022671
    18  C    0.001544
    19  C    0.003903
    20  C   -0.006052
    21  C   -0.038450
    22  O   -0.474917
    23  C    0.200204
    24  C    0.032964
    25  C   -0.010457
 Electronic spatial extent (au):  <R**2>=          15609.8657
 Charge=             -0.0000 electrons
 Dipole moment (field-independent basis, Debye):
    X=             -1.7498    Y=              0.2490    Z=              0.8546  Tot=              1.9632
 Quadrupole moment (field-independent basis, Debye-Ang):
   XX=           -132.4316   YY=           -144.0782   ZZ=           -142.0878
   XY=              6.5307   XZ=              7.6347   YZ=              0.0198
 Traceless Quadrupole moment (field-independent basis, Debye-Ang):
   XX=              7.1009   YY=             -4.5456   ZZ=             -2.5553
   XY=              6.5307   XZ=              7.6347   YZ=              0.0198
 Octapole moment (field-independent basis, Debye-Ang**2):
  XXX=            144.4463  YYY=             32.9688  ZZZ=            -16.8732  XYY=            -28.9354
  XXY=              0.0223  XXZ=            -55.3336  XZZ=            -78.1180  YZZ=             -5.5197
  YYZ=             -1.0417  XYZ=             -3.6278
 Hexadecapole moment (field-independent basis, Debye-Ang**3):
 XXXX=         -17604.5962 YYYY=          -2241.2697 ZZZZ=           -618.8582 XXXY=             56.6216
 XXXZ=            577.4013 YYYX=            175.0784 YYYZ=            -15.5213 ZZZX=             77.5715
 ZZZY=              4.9149 XXYY=          -3100.1487 XXZZ=          -3035.7129 YYZZ=           -468.1111
 XXYZ=             79.5779 YYXZ=             60.0242 ZZXY=             10.3329
 N-N= 2.053458981805D+03 E-N=-6.777804083577D+03  KE= 1.136966695590D+03
 No NMR shielding tensors so no spin-rotation constants.
 Leave Link  601 at Fri Nov  4 18:36:35 2022, MaxMem=   805306368 cpu:               2.8 elap:               0.5
 (Enter /home/wykgroup/appl/g16/l9999.exe)
 1\1\GINC-NODE72\FOpt\RB3LYP\6-31G(d)\C19H22N2O4\WYKGROUP\04-Nov-2022\0
 \\#p b3lyp/6-31g(d) opt SCF=XQC\\Gaussian input prepared by ASE\\0,1\C
 ,-4.8312368031,1.0176566174,1.4677914214\C,-4.2995705782,-0.2709942917
 ,0.8302866935\C,-5.4471220843,-1.177437225,0.3743357247\O,-6.624476238
 2,-0.9217145735,0.4754381211\O,-4.9858706838,-2.3515033753,-0.11837389
 53\N,-3.3302945039,-0.0570131242,-0.2567854635\C,-1.9611849944,-0.1818
 440191,-0.0731299818\O,-1.1967520834,-0.1543087311,-1.0301105845\C,-1.
 4337994344,-0.3232209142,1.3598714039\C,0.0963878072,-0.2379471767,1.4
 431701989\C,0.8089409965,-1.498914277,0.9101797317\C,2.2885052277,-1.4
 433335826,1.0789849952\N,3.045905142,-2.1544186757,1.8623430118\C,4.32
 78232847,-1.6799995526,1.6369115696\C,4.299483742,-0.6766247433,0.7103
 33955\C,5.2935815552,0.1812176221,0.0818076277\C,4.9234584142,1.120401
 9115,-0.8965169962\C,5.8845562346,1.9350802198,-1.4915867576\C,7.22731
 10581,1.8294647147,-1.1248819141\C,7.6036906632,0.8982714781,-0.153037
 9259\C,6.6489690006,0.082211514,0.4458985051\O,2.9779262819,-0.5210219
 492,0.3474058877\C,-3.7806929189,-0.0107318858,-1.6343241955\C,-3.5323
 633887,1.2122492776,-2.4688164431\C,-4.9392385958,0.8673910482,-2.0529
 856932\H,-3.9947290567,1.6459003003,1.787984369\H,-5.4510567516,1.5883
 475115,0.7741138915\H,-5.446077149,0.7799412049,2.341118413\H,-3.79326
 4232,-0.8517957557,1.6071280273\H,-5.77379985,-2.8700926609,-0.3689168
 837\H,-1.8793811647,0.4553852694,1.9917927054\H,-1.7687904925,-1.28252
 12873,1.7807367676\H,0.4436888391,0.6353668689,0.8824242872\H,0.376879
 2303,-0.087852371,2.4928230381\H,0.4639100189,-2.3870294636,1.45006137
 37\H,0.559503649,-1.6205718617,-0.1484915437\H,5.1793724831,-2.0972087
 285,2.1553731782\H,3.8812897437,1.2041567508,-1.1861684232\H,5.5812089
 448,2.6553701578,-2.2467573129\H,7.9745072934,2.4658143437,-1.59093219
 68\H,8.6461226685,0.8078333909,0.1405661793\H,6.9535512719,-0.63615989
 77,1.2018973921\H,-3.6911830559,-0.9658286483,-2.1477915376\H,-3.05863
 94068,2.0557082941,-1.9767806374\H,-3.2252795632,1.06206692,-3.4992041
 395\H,-5.4172281899,1.5033104714,-1.3170801306\H,-5.6245443309,0.45694
 18852,-2.7891668137\\Version=ES64L-G16RevB.01\State=1-A\HF=-1147.65607
 48\RMSD=9.663e-09\RMSF=2.473e-06\Dipole=-0.709385,0.2725619,0.138081\Q
 uadrupole=4.3242111,-1.5994753,-2.7247358,7.8753891,0.2764109,0.898258
 9\PG=C01 [X(C19H22N2O4)]\\@


 IF NO USE IS MADE OF THE LABOR OF PAST AGES,
 THE WORLD MUST REMAIN ALWAYS IN THE INFANCY OF KNOWLEDGE.

                          -- CICERO
 Job cpu time:       0 days  2 hours 42 minutes 53.0 seconds.
 Elapsed time:       0 days  0 hours 23 minutes 36.3 seconds.
 File lengths (MBytes):  RWF=    115 Int=      0 D2E=      0 Chk=     16 Scr=      1
 Normal termination of Gaussian 16 at Fri Nov  4 18:36:35 2022.
