 Entering Gaussian System, Link 0=/home/wykgroup/appl/g16/g16
 Input=calculation/no_transfer_pubchem_sampling_0_b3lyp/119202993_rwf.com
 Output=calculation/no_transfer_pubchem_sampling_0_b3lyp/119202993_rwf.log
 Initial command:
 /home/wykgroup/appl/g16/l1.exe "/userdata/scratch/wykgroup/khs/calculation/no_transfer_pubchem_sampling_0_b3lyp/119202993_rwf/Gau-15894.inp" -scrdir="/userdata/scratch/wykgroup/khs/calculation/no_transfer_pubchem_sampling_0_b3lyp/119202993_rwf/"
 Entering Link 1 = /home/wykgroup/appl/g16/l1.exe PID=     15897.
  
 Copyright (c) 1988-2017, Gaussian, Inc.  All Rights Reserved.
  
 This is part of the Gaussian(R) 16 program.  It is based on
 the Gaussian(R) 09 system (copyright 2009, Gaussian, Inc.),
 the Gaussian(R) 03 system (copyright 2003, Gaussian, Inc.),
 the Gaussian(R) 98 system (copyright 1998, Gaussian, Inc.),
 the Gaussian(R) 94 system (copyright 1995, Gaussian, Inc.),
 the Gaussian 92(TM) system (copyright 1992, Gaussian, Inc.),
 the Gaussian 90(TM) system (copyright 1990, Gaussian, Inc.),
 the Gaussian 88(TM) system (copyright 1988, Gaussian, Inc.),
 the Gaussian 86(TM) system (copyright 1986, Carnegie Mellon
 University), and the Gaussian 82(TM) system (copyright 1983,
 Carnegie Mellon University). Gaussian is a federally registered
 trademark of Gaussian, Inc.
  
 This software contains proprietary and confidential information,
 including trade secrets, belonging to Gaussian, Inc.
  
 This software is provided under written license and may be
 used, copied, transmitted, or stored only in accord with that
 written license.
  
 The following legend is applicable only to US Government
 contracts under FAR:
  
                    RESTRICTED RIGHTS LEGEND
  
 Use, reproduction and disclosure by the US Government is
 subject to restrictions as set forth in subparagraphs (a)
 and (c) of the Commercial Computer Software - Restricted
 Rights clause in FAR 52.227-19.
  
 Gaussian, Inc.
 340 Quinnipiac St., Bldg. 40, Wallingford CT 06492
  
  
 ---------------------------------------------------------------
 Warning -- This program may not be used in any manner that
 competes with the business of Gaussian, Inc. or will provide
 assistance to any competitor of Gaussian, Inc.  The licensee
 of this program is prohibited from giving any competitor of
 Gaussian, Inc. access to this program.  By using this program,
 the user acknowledges that Gaussian, Inc. is engaged in the
 business of creating and licensing software in the field of
 computational chemistry and represents and warrants to the
 licensee that it is not a competitor of Gaussian, Inc. and that
 it will not use this program in any manner prohibited above.
 ---------------------------------------------------------------
  

 Cite this work as:
 Gaussian 16, Revision B.01,
 M. J. Frisch, G. W. Trucks, H. B. Schlegel, G. E. Scuseria, 
 M. A. Robb, J. R. Cheeseman, G. Scalmani, V. Barone, 
 G. A. Petersson, H. Nakatsuji, X. Li, M. Caricato, A. V. Marenich, 
 J. Bloino, B. G. Janesko, R. Gomperts, B. Mennucci, H. P. Hratchian, 
 J. V. Ortiz, A. F. Izmaylov, J. L. Sonnenberg, D. Williams-Young, 
 F. Ding, F. Lipparini, F. Egidi, J. Goings, B. Peng, A. Petrone, 
 T. Henderson, D. Ranasinghe, V. G. Zakrzewski, J. Gao, N. Rega, 
 G. Zheng, W. Liang, M. Hada, M. Ehara, K. Toyota, R. Fukuda, 
 J. Hasegawa, M. Ishida, T. Nakajima, Y. Honda, O. Kitao, H. Nakai, 
 T. Vreven, K. Throssell, J. A. Montgomery, Jr., J. E. Peralta, 
 F. Ogliaro, M. J. Bearpark, J. J. Heyd, E. N. Brothers, K. N. Kudin, 
 V. N. Staroverov, T. A. Keith, R. Kobayashi, J. Normand, 
 K. Raghavachari, A. P. Rendell, J. C. Burant, S. S. Iyengar, 
 J. Tomasi, M. Cossi, J. M. Millam, M. Klene, C. Adamo, R. Cammi, 
 J. W. Ochterski, R. L. Martin, K. Morokuma, O. Farkas, 
 J. B. Foresman, and D. J. Fox, Gaussian, Inc., Wallingford CT, 2016.
 
 ******************************************
 Gaussian 16:  ES64L-G16RevB.01 20-Dec-2017
                 5-Nov-2022 
 ******************************************
 %chk=calculation/no_transfer_pubchem_sampling_0_b3lyp/119202993_rwf.chk
 %rwf=calculation/no_transfer_pubchem_sampling_0_b3lyp/119202993_rwf.rwf
 %nprocshared=14
 Will use up to   14 processors via shared memory.
 %mem=3GB
 -------------------------------------------------------------------
 #p b3lyp/6-31g(d) 6D 10F nosymm GFInput td=(50-50,nstate=2) SCF=XQC
 -------------------------------------------------------------------
 1/38=1,172=1/1;
 2/12=2,15=1,17=6,18=5,40=1/2;
 3/5=1,6=6,7=1,8=22,11=9,24=10,25=1,30=1,74=-5/1,2,3,8;
 4//1;
 5/5=2,8=3,13=1,38=5/2,8;
 8/6=1,10=2,108=2/1;
 9/41=2,42=1,48=2,70=2/14;
 6/7=2,8=2,9=2,10=2/1;
 99/5=1,9=1/99;
 Leave Link    1 at Sat Nov  5 11:08:20 2022, MaxMem=   402653184 cpu:               1.6 elap:               0.3
 (Enter /home/wykgroup/appl/g16/l101.exe)
 ------------------------------
 Gaussian input prepared by ASE
 ------------------------------
 Symbolic Z-matrix:
 Charge =  0 Multiplicity = 1
 C                    -4.83124   1.01766   1.46779 
 C                    -4.29957  -0.27099   0.83029 
 C                    -5.44712  -1.17744   0.37434 
 O                    -6.62448  -0.92171   0.47544 
 O                    -4.98587  -2.3515   -0.11837 
 N                    -3.33029  -0.05701  -0.25679 
 C                    -1.96118  -0.18184  -0.07313 
 O                    -1.19675  -0.15431  -1.03011 
 C                    -1.4338   -0.32322   1.35987 
 C                     0.09639  -0.23795   1.44317 
 C                     0.80894  -1.49891   0.91018 
 C                     2.28851  -1.44333   1.07898 
 N                     3.04591  -2.15442   1.86234 
 C                     4.32782  -1.68      1.63691 
 C                     4.29948  -0.67662   0.71033 
 C                     5.29358   0.18122   0.08181 
 C                     4.92346   1.1204   -0.89652 
 C                     5.88456   1.93508  -1.49159 
 C                     7.22731   1.82946  -1.12488 
 C                     7.60369   0.89827  -0.15304 
 C                     6.64897   0.08221   0.4459 
 O                     2.97793  -0.52102   0.34741 
 C                    -3.78069  -0.01073  -1.63432 
 C                    -3.53236   1.21225  -2.46882 
 C                    -4.93924   0.86739  -2.05299 
 H                    -3.99473   1.6459    1.78798 
 H                    -5.45106   1.58835   0.77411 
 H                    -5.44608   0.77994   2.34112 
 H                    -3.79326  -0.8518    1.60713 
 H                    -5.7738   -2.87009  -0.36892 
 H                    -1.87938   0.45539   1.99179 
 H                    -1.76879  -1.28252   1.78074 
 H                     0.44369   0.63537   0.88242 
 H                     0.37688  -0.08785   2.49282 
 H                     0.46391  -2.38703   1.45006 
 H                     0.5595   -1.62057  -0.14849 
 H                     5.17937  -2.09721   2.15537 
 H                     3.88129   1.20416  -1.18617 
 H                     5.58121   2.65537  -2.24676 
 H                     7.97451   2.46581  -1.59093 
 H                     8.64612   0.80783   0.14057 
 H                     6.95355  -0.63616   1.2019 
 H                    -3.69118  -0.96583  -2.14779 
 H                    -3.05864   2.05571  -1.97678 
 H                    -3.22528   1.06207  -3.4992 
 H                    -5.41723   1.50331  -1.31708 
 H                    -5.62454   0.45694  -2.78917 
 
 ITRead=  0  0  0  0  0  0  0  0  0  0  0  0  0  0  0  0  0  0  0  0
 ITRead=  0  0  0  0  0  0  0  0  0  0  0  0  0  0  0  0  0  0  0  0
 ITRead=  0  0  0  0  0  0  0
 MicOpt= -1 -1 -1 -1 -1 -1 -1 -1 -1 -1 -1 -1 -1 -1 -1 -1 -1 -1 -1 -1
 MicOpt= -1 -1 -1 -1 -1 -1 -1 -1 -1 -1 -1 -1 -1 -1 -1 -1 -1 -1 -1 -1
 MicOpt= -1 -1 -1 -1 -1 -1 -1
 NAtoms=     47 NQM=       47 NQMF=       0 NMMI=      0 NMMIF=      0
                NMic=       0 NMicF=      0.
                    Isotopes and Nuclear Properties:
 (Nuclear quadrupole moments (NQMom) in fm**2, nuclear magnetic moments (NMagM)
  in nuclear magnetons)

  Atom         1           2           3           4           5           6           7           8           9          10
 IAtWgt=          12          12          12          16          16          14          12          16          12          12
 AtmWgt=  12.0000000  12.0000000  12.0000000  15.9949146  15.9949146  14.0030740  12.0000000  15.9949146  12.0000000  12.0000000
 NucSpn=           0           0           0           0           0           2           0           0           0           0
 AtZEff=  -0.0000000  -0.0000000  -0.0000000  -0.0000000  -0.0000000  -0.0000000  -0.0000000  -0.0000000  -0.0000000  -0.0000000
 NQMom=    0.0000000   0.0000000   0.0000000   0.0000000   0.0000000   2.0440000   0.0000000   0.0000000   0.0000000   0.0000000
 NMagM=    0.0000000   0.0000000   0.0000000   0.0000000   0.0000000   0.4037610   0.0000000   0.0000000   0.0000000   0.0000000
 AtZNuc=   6.0000000   6.0000000   6.0000000   8.0000000   8.0000000   7.0000000   6.0000000   8.0000000   6.0000000   6.0000000

  Atom        11          12          13          14          15          16          17          18          19          20
 IAtWgt=          12          12          14          12          12          12          12          12          12          12
 AtmWgt=  12.0000000  12.0000000  14.0030740  12.0000000  12.0000000  12.0000000  12.0000000  12.0000000  12.0000000  12.0000000
 NucSpn=           0           0           2           0           0           0           0           0           0           0
 AtZEff=  -0.0000000  -0.0000000  -0.0000000  -0.0000000  -0.0000000  -0.0000000  -0.0000000  -0.0000000  -0.0000000  -0.0000000
 NQMom=    0.0000000   0.0000000   2.0440000   0.0000000   0.0000000   0.0000000   0.0000000   0.0000000   0.0000000   0.0000000
 NMagM=    0.0000000   0.0000000   0.4037610   0.0000000   0.0000000   0.0000000   0.0000000   0.0000000   0.0000000   0.0000000
 AtZNuc=   6.0000000   6.0000000   7.0000000   6.0000000   6.0000000   6.0000000   6.0000000   6.0000000   6.0000000   6.0000000

  Atom        21          22          23          24          25          26          27          28          29          30
 IAtWgt=          12          16          12          12          12           1           1           1           1           1
 AtmWgt=  12.0000000  15.9949146  12.0000000  12.0000000  12.0000000   1.0078250   1.0078250   1.0078250   1.0078250   1.0078250
 NucSpn=           0           0           0           0           0           1           1           1           1           1
 AtZEff=  -0.0000000  -0.0000000  -0.0000000  -0.0000000  -0.0000000  -0.0000000  -0.0000000  -0.0000000  -0.0000000  -0.0000000
 NQMom=    0.0000000   0.0000000   0.0000000   0.0000000   0.0000000   0.0000000   0.0000000   0.0000000   0.0000000   0.0000000
 NMagM=    0.0000000   0.0000000   0.0000000   0.0000000   0.0000000   2.7928460   2.7928460   2.7928460   2.7928460   2.7928460
 AtZNuc=   6.0000000   8.0000000   6.0000000   6.0000000   6.0000000   1.0000000   1.0000000   1.0000000   1.0000000   1.0000000

  Atom        31          32          33          34          35          36          37          38          39          40
 IAtWgt=           1           1           1           1           1           1           1           1           1           1
 AtmWgt=   1.0078250   1.0078250   1.0078250   1.0078250   1.0078250   1.0078250   1.0078250   1.0078250   1.0078250   1.0078250
 NucSpn=           1           1           1           1           1           1           1           1           1           1
 AtZEff=  -0.0000000  -0.0000000  -0.0000000  -0.0000000  -0.0000000  -0.0000000  -0.0000000  -0.0000000  -0.0000000  -0.0000000
 NQMom=    0.0000000   0.0000000   0.0000000   0.0000000   0.0000000   0.0000000   0.0000000   0.0000000   0.0000000   0.0000000
 NMagM=    2.7928460   2.7928460   2.7928460   2.7928460   2.7928460   2.7928460   2.7928460   2.7928460   2.7928460   2.7928460
 AtZNuc=   1.0000000   1.0000000   1.0000000   1.0000000   1.0000000   1.0000000   1.0000000   1.0000000   1.0000000   1.0000000

  Atom        41          42          43          44          45          46          47
 IAtWgt=           1           1           1           1           1           1           1
 AtmWgt=   1.0078250   1.0078250   1.0078250   1.0078250   1.0078250   1.0078250   1.0078250
 NucSpn=           1           1           1           1           1           1           1
 AtZEff=  -0.0000000  -0.0000000  -0.0000000  -0.0000000  -0.0000000  -0.0000000  -0.0000000
 NQMom=    0.0000000   0.0000000   0.0000000   0.0000000   0.0000000   0.0000000   0.0000000
 NMagM=    2.7928460   2.7928460   2.7928460   2.7928460   2.7928460   2.7928460   2.7928460
 AtZNuc=   1.0000000   1.0000000   1.0000000   1.0000000   1.0000000   1.0000000   1.0000000
 Leave Link  101 at Sat Nov  5 11:08:21 2022, MaxMem=   402653184 cpu:               2.0 elap:               0.4
 (Enter /home/wykgroup/appl/g16/l202.exe)
                          Input orientation:                          
 ---------------------------------------------------------------------
 Center     Atomic      Atomic             Coordinates (Angstroms)
 Number     Number       Type             X           Y           Z
 ---------------------------------------------------------------------
      1          6           0       -4.831237    1.017657    1.467791
      2          6           0       -4.299571   -0.270994    0.830287
      3          6           0       -5.447122   -1.177437    0.374336
      4          8           0       -6.624476   -0.921715    0.475438
      5          8           0       -4.985871   -2.351503   -0.118374
      6          7           0       -3.330295   -0.057013   -0.256785
      7          6           0       -1.961185   -0.181844   -0.073130
      8          8           0       -1.196752   -0.154309   -1.030111
      9          6           0       -1.433799   -0.323221    1.359871
     10          6           0        0.096388   -0.237947    1.443170
     11          6           0        0.808941   -1.498914    0.910180
     12          6           0        2.288505   -1.443334    1.078985
     13          7           0        3.045905   -2.154419    1.862343
     14          6           0        4.327823   -1.680000    1.636912
     15          6           0        4.299484   -0.676625    0.710334
     16          6           0        5.293582    0.181218    0.081808
     17          6           0        4.923458    1.120402   -0.896517
     18          6           0        5.884556    1.935080   -1.491587
     19          6           0        7.227311    1.829465   -1.124882
     20          6           0        7.603691    0.898271   -0.153038
     21          6           0        6.648969    0.082212    0.445899
     22          8           0        2.977926   -0.521022    0.347406
     23          6           0       -3.780693   -0.010732   -1.634324
     24          6           0       -3.532363    1.212249   -2.468816
     25          6           0       -4.939239    0.867391   -2.052986
     26          1           0       -3.994729    1.645900    1.787984
     27          1           0       -5.451057    1.588348    0.774114
     28          1           0       -5.446077    0.779941    2.341118
     29          1           0       -3.793264   -0.851796    1.607128
     30          1           0       -5.773800   -2.870093   -0.368917
     31          1           0       -1.879381    0.455385    1.991793
     32          1           0       -1.768790   -1.282521    1.780737
     33          1           0        0.443689    0.635367    0.882424
     34          1           0        0.376879   -0.087852    2.492823
     35          1           0        0.463910   -2.387029    1.450061
     36          1           0        0.559504   -1.620572   -0.148492
     37          1           0        5.179372   -2.097209    2.155373
     38          1           0        3.881290    1.204157   -1.186168
     39          1           0        5.581209    2.655370   -2.246757
     40          1           0        7.974507    2.465814   -1.590932
     41          1           0        8.646123    0.807833    0.140566
     42          1           0        6.953551   -0.636160    1.201897
     43          1           0       -3.691183   -0.965829   -2.147792
     44          1           0       -3.058639    2.055708   -1.976781
     45          1           0       -3.225280    1.062067   -3.499204
     46          1           0       -5.417228    1.503310   -1.317080
     47          1           0       -5.624544    0.456942   -2.789167
 ---------------------------------------------------------------------
                    Distance matrix (angstroms):
                    1          2          3          4          5
     1  C    0.000000
     2  C    1.532874   0.000000
     3  C    2.528517   1.531798   0.000000
     4  O    2.821637   2.440193   1.209040   0.000000
     5  O    3.727073   2.387359   1.354233   2.254315   0.000000
     6  N    2.526244   1.472077   2.476817   3.483603   2.832804
     7  C    3.471374   2.508417   3.652833   4.753380   3.722659
     8  O    4.563167   3.619693   4.591830   5.684697   4.473963
     9  C    3.654063   2.914761   4.219920   5.299391   4.349293
    10  C    5.085138   4.438600   5.723247   6.824519   5.721441
    11  C    6.201263   5.254623   6.287193   7.468457   5.946820
    12  C    7.543101   6.696191   7.772204   8.948608   7.427987
    13  N    8.501006   7.653002   8.677567   9.846793   8.274751
    14  C    9.549572   8.778830   9.868953  11.039786   9.501413
    15  C    9.317424   8.609452   9.765246  10.929234   9.471525
    16  C   10.253415   9.632927  10.830246  11.975454  10.588762
    17  C   10.037659   9.485889  10.697854  11.807087  10.528743
    18  C   11.154721  10.675875  11.898587  12.981000  11.765487
    19  C   12.360808  11.878704  13.112222  14.212742  12.948180
    20  C   12.540684  12.000906  13.225370  14.357857  13.002280
    21  C   11.563496  10.960977  12.161713  13.311389  11.900036
    22  O    8.037775   7.297784   8.450624   9.611612   8.184722
    23  C    3.432834   2.532050   2.858829   3.656240   3.038054
    24  C    4.149918   3.697661   4.178566   4.773217   4.509722
    25  C    3.525637   3.165179   3.214212   3.526167   3.755819
    26  H    1.094056   2.164393   3.475497   3.902691   4.538260
    27  H    1.091354   2.187745   2.794531   2.786850   4.066369
    28  H    1.094183   2.168307   2.774809   2.786579   4.008346
    29  H    2.142814   1.094148   2.088316   3.049815   2.578525
    30  H    4.401877   3.219744   1.877292   2.287523   0.975981
    31  H    3.050275   2.781014   4.243943   5.168333   4.688465
    32  H    3.842828   2.886415   3.939433   5.040999   3.885737
    33  H    5.321056   4.829360   6.184340   7.249076   6.277189
    34  H    5.421929   4.966563   6.292390   7.333768   6.379777
    35  H    6.295298   5.249045   6.128670   7.303578   5.671099
    36  H    6.215521   5.137117   6.045599   7.244809   5.593420
    37  H   10.506543   9.743781  10.813901  11.980602  10.419537
    38  H    9.109687   8.553867   9.753278  10.846722   9.612983
    39  H   11.175822  10.754609  11.965978  13.007099  11.885368
    40  H   13.245378  12.806460  14.045487  15.128634  13.904905
    41  H   13.544178  13.008865  14.234307  15.371879  13.995703
    42  H   11.903236  11.265176  12.440038  13.600445  12.134056
    43  H    4.278595   3.117993   3.080459   3.935415   2.777561
    44  H    4.010577   3.851374   4.656804   5.252963   5.156686
    45  H    5.220356   4.655711   4.995625   5.593542   5.116850
    46  H    2.886998   3.001416   3.169888   3.248279   4.059871
    47  H    4.366398   3.922485   3.565168   3.682146   3.927901
                    6          7          8          9         10
     6  N    0.000000
     7  C    1.387001   0.000000
     8  O    2.271454   1.225124   0.000000
     9  C    2.506220   1.533498   2.407641   0.000000
    10  C    3.829457   2.556544   2.792190   1.534824   0.000000
    11  C    4.535874   3.221051   3.097660   2.571840   1.543324
    12  C    5.939451   4.580239   4.272808   3.897320   2.528036
    13  N    7.038873   5.719096   5.510614   4.865544   3.542347
    14  C    8.054002   6.687327   6.321525   5.925698   4.474606
    15  C    7.715747   6.328870   5.788831   5.780772   4.288998
    16  C    8.633808   7.265498   6.593434   6.866262   5.388862
    17  C    8.361818   7.054936   6.252976   6.898555   5.533521
    18  C    9.508241   8.249184   7.397529   8.172458   6.843810
    19  C   10.759899   9.464671   8.655009   9.264064   7.856154
    20  C   10.976127   9.626000   8.906457   9.244304   7.758767
    21  C   10.004941   8.629824   7.986857   8.144376   6.635765
    22  O    6.354054   4.968572   4.411346   4.530732   3.095819
    23  C    1.450039   2.403584   2.657525   3.817167   4.955235
    24  C    2.558308   3.186128   3.064708   4.628228   5.529425
    25  C    2.582549   3.726865   4.012026   5.035201   6.229158
    26  H    2.742712   3.307521   4.360171   3.258693   4.517191
    27  H    2.875343   4.003824   4.938743   4.487267   5.878531
    28  H    3.453423   4.347194   5.504069   4.275299   5.706253
    29  H    2.078508   2.574610   3.766084   2.430556   3.941204
    30  H    3.727829   4.674420   5.363024   5.320796   6.683633
    31  H    2.724666   2.162558   3.157469   1.097313   2.164569
    32  H    2.844585   2.164562   3.082362   1.099820   2.164250
    33  H    4.002517   2.713731   2.640535   2.161437   1.094409
    34  H    4.615673   3.472678   3.858989   2.148845   1.096802
    35  H    4.768468   3.614421   3.727478   2.805128   2.180292
    36  H    4.193683   2.903358   2.451859   2.816298   2.158591
    37  H    9.077188   7.721555   7.387634   6.893033   5.459013
    38  H    7.379787   6.106911   5.258925   6.088134   4.828930
    39  H    9.525330   8.346385   7.437424   8.431496   7.215962
    40  H   11.659466  10.393835   9.554662  10.247058   8.864585
    41  H   12.014176  10.655520   9.958835  10.216204   8.711395
    42  H   10.402915   9.016907   8.464129   8.394673   6.872953
    43  H    2.128871   2.812783   2.851309   4.220477   5.269773
    44  H    2.737841   3.136070   3.040885   4.408249   5.187592
    45  H    3.431712   3.857879   3.419198   5.360880   6.095127
    46  H    2.813206   4.041212   4.543399   5.135172   6.407099
    47  H    3.455530   4.604900   4.803462   5.948573   7.150148
                   11         12         13         14         15
    11  C    0.000000
    12  C    1.490200   0.000000
    13  N    2.517997   1.301133   0.000000
    14  C    3.597703   2.127466   1.385354   0.000000
    15  C    3.591655   2.183525   2.254431   1.366056   0.000000
    16  C    4.860149   3.558653   3.698318   2.610587   1.455737
    17  C    5.201368   4.173527   4.675571   3.822995   2.490104
    18  C    6.581996   5.563551   6.002565   5.027894   3.765888
    19  C    7.510996   6.321396   6.502230   5.324554   4.268568
    20  C    7.283238   5.937356   5.844150   4.536817   3.760783
    21  C    6.068067   4.662803   4.471118   3.148272   2.483111
    22  O    2.444890   1.364246   2.228820   2.197334   1.379291
    23  C    5.454716   6.800703   7.963951   8.901431   8.439792
    24  C    6.133103   7.315841   8.565455   9.327628   8.660986
    25  C    6.886314   8.209078   9.392745  10.294803   9.765957
    26  H    5.808239   7.037406   8.001155   8.963778   8.680404
    27  H    6.981208   8.317743   9.348310  10.346642  10.010355
    28  H    6.809260   8.146146   8.997414  10.103284   9.987843
    29  H    4.699446   6.133251   6.966793   8.163264   8.144169
    30  H    6.844611   8.314615   9.125673  10.367375  10.365671
    31  H    3.495175   4.670078   5.575507   6.573827   6.411081
    32  H    2.729358   4.120675   4.893686   6.111250   6.191674
    33  H    2.165487   2.786212   3.938867   4.584395   4.076529
    34  H    2.163916   2.736893   3.433934   4.344822   4.348649
    35  H    1.095111   2.087440   2.625030   3.932509   4.264306
    36  H    1.094443   2.127806   3.242012   4.170303   3.951717
    37  H    4.583572   3.153296   2.154257   1.080741   2.209163
    38  H    4.597890   3.831069   4.612084   4.060484   2.703506
    39  H    7.070988   6.221080   6.815170   5.953931   4.635666
    40  H    8.562708   7.398683   7.587014   6.395706   5.355049
    41  H    8.205779   6.809382   6.565203   5.203467   4.628339
    42  H    6.211737   4.735957   4.243936   2.858896   2.699509
    43  H    5.466853   6.811517   7.929835   8.895981   8.491365
    44  H    5.994002   7.083287   8.350419   9.031839   8.296277
    45  H    6.502017   7.592014   8.855491   9.536665   8.795756
    46  H    7.262178   8.590819   9.752556  10.668906  10.162530
    47  H    7.674651   9.010549  10.180002  11.099834  10.583847
                   16         17         18         19         20
    16  C    0.000000
    17  C    1.405766   0.000000
    18  C    2.429168   1.393384   0.000000
    19  C    2.812850   2.421293   1.395929   0.000000
    20  C    2.430210   2.790295   2.412905   1.397592   0.000000
    21  C    1.406926   2.420187   2.787705   2.419654   1.391464
    22  O    2.434326   2.833145   4.226444   5.074415   4.864415
    23  C    9.237121   8.808296   9.860203  11.172377  11.516279
    24  C    9.244783   8.601249   9.495043  10.860834  11.378625
    25  C   10.475628   9.933490  10.890806  12.239767  12.686049
    26  H    9.556623   9.328278  10.413428  11.595373  11.783457
    27  H   10.858478  10.518581  11.565022  12.822064  13.105810
    28  H   10.991052  10.868554  12.016956  13.180646  13.286507
    29  H    9.271703   9.281113  10.537026  11.666453  11.664112
    30  H   11.489150  11.429512  12.659674  13.845079  13.899799
    31  H    7.427961   7.420459   8.637254   9.722839   9.732682
    32  H    7.409858   7.597889   8.923832   9.952734   9.815230
    33  H    4.936466   4.844402   6.076859   7.174446   7.239263
    34  H    5.482641   5.798180   7.092410   7.980746   7.758855
    35  H    5.638594   6.139713   7.531091   8.375724   8.021197
    36  H    5.070599   5.207358   6.542381   7.570716   7.480987
    37  H    3.082847   4.442133   5.482422   5.511161   4.492102
    38  H    2.156093   1.084909   2.154207   3.404501   3.875202
    39  H    3.409747   2.147536   1.086793   2.156473   3.400219
    40  H    3.899334   3.406060   2.158574   1.086483   2.159221
    41  H    3.411104   3.877044   3.400126   2.158267   1.086760
    42  H    2.162916   3.407364   3.874130   3.401198   2.147792
    43  H    9.328066   8.951541  10.026997  11.316957  11.620159
    44  H    8.804039   8.108986   8.957160  10.323647  10.878924
    45  H    9.282809   8.554491   9.369194  10.746300  11.335354
    46  H   10.882383  10.356317  11.311375  12.650205  13.086840
    47  H   11.292652  10.736977  11.675958  13.031648  13.495560
                   21         22         23         24         25
    21  C    0.000000
    22  O    3.721578   0.000000
    23  C   10.635498   7.061628   0.000000
    24  C   10.650450   7.302000   1.501242   0.000000
    25  C   11.880551   8.388747   1.512814   1.507030   0.000000
    26  H   10.841339   7.442361   3.808207   4.303741   4.031281
    27  H   12.197819   8.699384   3.338824   3.786744   2.962132
    28  H   12.262497   8.753926   4.382101   5.194677   4.424103
    29  H   10.548036   6.895312   3.348815   4.576207   4.203010
    30  H   12.794734   9.089772   3.708055   5.108731   4.183463
    31  H    8.675356   5.220231   4.120798   4.816869   5.088488
    32  H    8.631510   5.016537   4.162672   5.233810   5.419529
    33  H    6.245161   2.836519   4.959523   5.231883   6.135664
    34  H    6.599843   3.399396   5.858728   6.449055   7.059602
    35  H    6.735017   3.319354   5.759937   6.654518   7.215026
    36  H    6.350934   2.702534   4.861748   5.491098   6.328762
    37  H    3.135585   3.255684   9.949772  10.403364  11.352772
    38  H    3.403300   2.478741   7.770636   7.523796   8.869414
    39  H    3.874487   4.857595   9.753378   9.229795  10.673061
    40  H    3.404011   6.135484  12.013322  11.608194  13.020495
    41  H    2.146713   5.825555  12.579588  12.461459  13.761441
    42  H    1.086445   4.068047  11.120221  11.262556  12.421489
    43  H   10.711879   7.134485   1.088058   2.207330   2.219758
    44  H   10.198124   6.962866   2.215584   1.085328   2.225884
    45  H   10.678237   7.468758   2.221972   1.085612   2.251022
    46  H   12.276837   8.794717   2.251936   2.227988   1.083709
    47  H   12.698236   9.208529   2.225347   2.247295   1.086313
                   26         27         28         29         30
    26  H    0.000000
    27  H    1.775426   0.000000
    28  H    1.778273   1.763249   0.000000
    29  H    2.512326   3.065369   2.435795   0.000000
    30  H    5.311451   4.613932   4.557899   3.449753   0.000000
    31  H    2.435890   3.939951   3.598428   2.349391   5.638994
    32  H    3.678384   4.776428   4.253259   2.077055   4.814716
    33  H    4.641204   5.972263   6.069434   4.548474   7.246466
    34  H    4.755382   6.303050   5.889219   4.331069   7.332208
    35  H    6.021476   7.158726   6.763995   4.528261   6.515448
    36  H    5.929656   6.875696   6.930196   4.756028   6.459150
    37  H    9.915139  11.335662  11.009663   9.075232  11.266826
    38  H    8.430444   9.543741   9.981056   8.421890  10.511335
    39  H   10.440151  11.488041  12.089949  10.725362  12.766881
    40  H   12.464026  13.660496  14.085996  12.637823  14.798013
    41  H   12.775268  14.132977  14.263005  12.635012  14.890295
    42  H   11.198935  12.609748  12.532117  10.756614  13.017042
    43  H    4.733244   4.261279   5.126176   3.758037   3.335852
    44  H    3.900982   3.675528   5.096243   4.673078   5.849858
    45  H    5.374688   4.846886   6.254671   5.482710   5.635205
    46  H    3.418371   2.093196   3.729144   4.090816   4.489188
    47  H    5.002023   3.742612   5.143540   4.939007   4.116922
                   31         32         33         34         35
    31  H    0.000000
    32  H    1.754165   0.000000
    33  H    2.580648   3.062732   0.000000
    34  H    2.374205   2.556990   1.766605   0.000000
    35  H    3.723413   2.512814   3.075305   2.526092   0.000000
    36  H    3.852087   3.042557   2.483034   3.059268   1.775378
    37  H    7.507896   7.005786   5.613739   5.216831   4.776719
    38  H    6.621588   6.849051   4.052123   5.242629   5.614696
    39  H    8.858084   9.260140   6.345574   7.554730   8.079543
    40  H   10.675995  10.970416   8.135186   8.995678   9.444935
    41  H   10.692871  10.748496   8.237719   8.643827   8.880908
    42  H    8.935105   8.765391   6.640569   6.724563   6.726260
    43  H    4.736943   4.385114   5.370587   6.233400   5.677073
    44  H    4.438610   5.189068   4.739064   6.031169   6.624917
    45  H    5.685996   5.957871   5.730800   7.085355   7.071182
    46  H    4.956122   5.537908   6.319928   7.114692   7.574933
    47  H    6.073205   6.227085   7.094778   8.013320   7.945345
                   36         37         38         39         40
    36  H    0.000000
    37  H    5.184415   0.000000
    38  H    4.482201   4.873390   0.000000
    39  H    6.921266   6.490549   2.473984   0.000000
    40  H    8.588450   6.532133   4.302330   2.488758   0.000000
    41  H    8.448320   4.951472   4.961948   4.301907   2.489589
    42  H    6.608817   2.488271   4.304464   4.960919   4.297033
    43  H    4.742808   9.923911   7.935736   9.954905  12.172699
    44  H    5.472535  10.108722   7.036535   8.664841  11.047506
    45  H    5.722623  10.611006   7.474868   9.036674  11.447586
    46  H    6.844382  11.717919   9.304250  11.097620  13.429072
    47  H    7.037875  12.153056   9.668961  11.432244  13.798751
                   41         42         43         44         45
    41  H    0.000000
    42  H    2.465023   0.000000
    43  H   12.672473  11.164205   0.000000
    44  H   11.960009  10.844082   3.091770   0.000000
    45  H   12.419451  11.339882   2.481077   1.825614   0.000000
    46  H   14.155785  12.804638   3.125054   2.510635   3.124260
    47  H   14.572522  13.241297   2.484658   3.130478   2.574257
                   46         47
    46  H    0.000000
    47  H    1.817940   0.000000
 Symmetry turned off by external request.
 Stoichiometry    C19H22N2O4
 Framework group  C1[X(C19H22N2O4)]
 Deg. of freedom   135
 Full point group                 C1      NOp   1
 Rotational constants (GHZ):           0.5361934           0.0702691           0.0650097
 Leave Link  202 at Sat Nov  5 11:08:21 2022, MaxMem=   402653184 cpu:               0.2 elap:               0.1
 (Enter /home/wykgroup/appl/g16/l301.exe)
 Standard basis: 6-31G(d) (6D, 10F)
 Ernie: Thresh=  0.10000D-02 Tol=  0.10000D-05 Strict=F.
 AO basis set in the form of general basis input (Overlap normalization):
      1 0
 S   6 1.00       0.000000000000
      0.3047524880D+04  0.1834737132D-02
      0.4573695180D+03  0.1403732281D-01
      0.1039486850D+03  0.6884262226D-01
      0.2921015530D+02  0.2321844432D+00
      0.9286662960D+01  0.4679413484D+00
      0.3163926960D+01  0.3623119853D+00
 SP   3 1.00       0.000000000000
      0.7868272350D+01 -0.1193324198D+00  0.6899906659D-01
      0.1881288540D+01 -0.1608541517D+00  0.3164239610D+00
      0.5442492580D+00  0.1143456438D+01  0.7443082909D+00
 SP   1 1.00       0.000000000000
      0.1687144782D+00  0.1000000000D+01  0.1000000000D+01
 D   1 1.00       0.000000000000
      0.8000000000D+00  0.1000000000D+01
 ****
      2 0
 S   6 1.00       0.000000000000
      0.3047524880D+04  0.1834737132D-02
      0.4573695180D+03  0.1403732281D-01
      0.1039486850D+03  0.6884262226D-01
      0.2921015530D+02  0.2321844432D+00
      0.9286662960D+01  0.4679413484D+00
      0.3163926960D+01  0.3623119853D+00
 SP   3 1.00       0.000000000000
      0.7868272350D+01 -0.1193324198D+00  0.6899906659D-01
      0.1881288540D+01 -0.1608541517D+00  0.3164239610D+00
      0.5442492580D+00  0.1143456438D+01  0.7443082909D+00
 SP   1 1.00       0.000000000000
      0.1687144782D+00  0.1000000000D+01  0.1000000000D+01
 D   1 1.00       0.000000000000
      0.8000000000D+00  0.1000000000D+01
 ****
      3 0
 S   6 1.00       0.000000000000
      0.3047524880D+04  0.1834737132D-02
      0.4573695180D+03  0.1403732281D-01
      0.1039486850D+03  0.6884262226D-01
      0.2921015530D+02  0.2321844432D+00
      0.9286662960D+01  0.4679413484D+00
      0.3163926960D+01  0.3623119853D+00
 SP   3 1.00       0.000000000000
      0.7868272350D+01 -0.1193324198D+00  0.6899906659D-01
      0.1881288540D+01 -0.1608541517D+00  0.3164239610D+00
      0.5442492580D+00  0.1143456438D+01  0.7443082909D+00
 SP   1 1.00       0.000000000000
      0.1687144782D+00  0.1000000000D+01  0.1000000000D+01
 D   1 1.00       0.000000000000
      0.8000000000D+00  0.1000000000D+01
 ****
      4 0
 S   6 1.00       0.000000000000
      0.5484671660D+04  0.1831074430D-02
      0.8252349460D+03  0.1395017220D-01
      0.1880469580D+03  0.6844507810D-01
      0.5296450000D+02  0.2327143360D+00
      0.1689757040D+02  0.4701928980D+00
      0.5799635340D+01  0.3585208530D+00
 SP   3 1.00       0.000000000000
      0.1553961625D+02 -0.1107775495D+00  0.7087426823D-01
      0.3599933586D+01 -0.1480262627D+00  0.3397528391D+00
      0.1013761750D+01  0.1130767015D+01  0.7271585773D+00
 SP   1 1.00       0.000000000000
      0.2700058226D+00  0.1000000000D+01  0.1000000000D+01
 D   1 1.00       0.000000000000
      0.8000000000D+00  0.1000000000D+01
 ****
      5 0
 S   6 1.00       0.000000000000
      0.5484671660D+04  0.1831074430D-02
      0.8252349460D+03  0.1395017220D-01
      0.1880469580D+03  0.6844507810D-01
      0.5296450000D+02  0.2327143360D+00
      0.1689757040D+02  0.4701928980D+00
      0.5799635340D+01  0.3585208530D+00
 SP   3 1.00       0.000000000000
      0.1553961625D+02 -0.1107775495D+00  0.7087426823D-01
      0.3599933586D+01 -0.1480262627D+00  0.3397528391D+00
      0.1013761750D+01  0.1130767015D+01  0.7271585773D+00
 SP   1 1.00       0.000000000000
      0.2700058226D+00  0.1000000000D+01  0.1000000000D+01
 D   1 1.00       0.000000000000
      0.8000000000D+00  0.1000000000D+01
 ****
      6 0
 S   6 1.00       0.000000000000
      0.4173511460D+04  0.1834772160D-02
      0.6274579110D+03  0.1399462700D-01
      0.1429020930D+03  0.6858655181D-01
      0.4023432930D+02  0.2322408730D+00
      0.1282021290D+02  0.4690699481D+00
      0.4390437010D+01  0.3604551991D+00
 SP   3 1.00       0.000000000000
      0.1162636186D+02 -0.1149611817D+00  0.6757974388D-01
      0.2716279807D+01 -0.1691174786D+00  0.3239072959D+00
      0.7722183966D+00  0.1145851947D+01  0.7408951398D+00
 SP   1 1.00       0.000000000000
      0.2120314975D+00  0.1000000000D+01  0.1000000000D+01
 D   1 1.00       0.000000000000
      0.8000000000D+00  0.1000000000D+01
 ****
      7 0
 S   6 1.00       0.000000000000
      0.3047524880D+04  0.1834737132D-02
      0.4573695180D+03  0.1403732281D-01
      0.1039486850D+03  0.6884262226D-01
      0.2921015530D+02  0.2321844432D+00
      0.9286662960D+01  0.4679413484D+00
      0.3163926960D+01  0.3623119853D+00
 SP   3 1.00       0.000000000000
      0.7868272350D+01 -0.1193324198D+00  0.6899906659D-01
      0.1881288540D+01 -0.1608541517D+00  0.3164239610D+00
      0.5442492580D+00  0.1143456438D+01  0.7443082909D+00
 SP   1 1.00       0.000000000000
      0.1687144782D+00  0.1000000000D+01  0.1000000000D+01
 D   1 1.00       0.000000000000
      0.8000000000D+00  0.1000000000D+01
 ****
      8 0
 S   6 1.00       0.000000000000
      0.5484671660D+04  0.1831074430D-02
      0.8252349460D+03  0.1395017220D-01
      0.1880469580D+03  0.6844507810D-01
      0.5296450000D+02  0.2327143360D+00
      0.1689757040D+02  0.4701928980D+00
      0.5799635340D+01  0.3585208530D+00
 SP   3 1.00       0.000000000000
      0.1553961625D+02 -0.1107775495D+00  0.7087426823D-01
      0.3599933586D+01 -0.1480262627D+00  0.3397528391D+00
      0.1013761750D+01  0.1130767015D+01  0.7271585773D+00
 SP   1 1.00       0.000000000000
      0.2700058226D+00  0.1000000000D+01  0.1000000000D+01
 D   1 1.00       0.000000000000
      0.8000000000D+00  0.1000000000D+01
 ****
      9 0
 S   6 1.00       0.000000000000
      0.3047524880D+04  0.1834737132D-02
      0.4573695180D+03  0.1403732281D-01
      0.1039486850D+03  0.6884262226D-01
      0.2921015530D+02  0.2321844432D+00
      0.9286662960D+01  0.4679413484D+00
      0.3163926960D+01  0.3623119853D+00
 SP   3 1.00       0.000000000000
      0.7868272350D+01 -0.1193324198D+00  0.6899906659D-01
      0.1881288540D+01 -0.1608541517D+00  0.3164239610D+00
      0.5442492580D+00  0.1143456438D+01  0.7443082909D+00
 SP   1 1.00       0.000000000000
      0.1687144782D+00  0.1000000000D+01  0.1000000000D+01
 D   1 1.00       0.000000000000
      0.8000000000D+00  0.1000000000D+01
 ****
     10 0
 S   6 1.00       0.000000000000
      0.3047524880D+04  0.1834737132D-02
      0.4573695180D+03  0.1403732281D-01
      0.1039486850D+03  0.6884262226D-01
      0.2921015530D+02  0.2321844432D+00
      0.9286662960D+01  0.4679413484D+00
      0.3163926960D+01  0.3623119853D+00
 SP   3 1.00       0.000000000000
      0.7868272350D+01 -0.1193324198D+00  0.6899906659D-01
      0.1881288540D+01 -0.1608541517D+00  0.3164239610D+00
      0.5442492580D+00  0.1143456438D+01  0.7443082909D+00
 SP   1 1.00       0.000000000000
      0.1687144782D+00  0.1000000000D+01  0.1000000000D+01
 D   1 1.00       0.000000000000
      0.8000000000D+00  0.1000000000D+01
 ****
     11 0
 S   6 1.00       0.000000000000
      0.3047524880D+04  0.1834737132D-02
      0.4573695180D+03  0.1403732281D-01
      0.1039486850D+03  0.6884262226D-01
      0.2921015530D+02  0.2321844432D+00
      0.9286662960D+01  0.4679413484D+00
      0.3163926960D+01  0.3623119853D+00
 SP   3 1.00       0.000000000000
      0.7868272350D+01 -0.1193324198D+00  0.6899906659D-01
      0.1881288540D+01 -0.1608541517D+00  0.3164239610D+00
      0.5442492580D+00  0.1143456438D+01  0.7443082909D+00
 SP   1 1.00       0.000000000000
      0.1687144782D+00  0.1000000000D+01  0.1000000000D+01
 D   1 1.00       0.000000000000
      0.8000000000D+00  0.1000000000D+01
 ****
     12 0
 S   6 1.00       0.000000000000
      0.3047524880D+04  0.1834737132D-02
      0.4573695180D+03  0.1403732281D-01
      0.1039486850D+03  0.6884262226D-01
      0.2921015530D+02  0.2321844432D+00
      0.9286662960D+01  0.4679413484D+00
      0.3163926960D+01  0.3623119853D+00
 SP   3 1.00       0.000000000000
      0.7868272350D+01 -0.1193324198D+00  0.6899906659D-01
      0.1881288540D+01 -0.1608541517D+00  0.3164239610D+00
      0.5442492580D+00  0.1143456438D+01  0.7443082909D+00
 SP   1 1.00       0.000000000000
      0.1687144782D+00  0.1000000000D+01  0.1000000000D+01
 D   1 1.00       0.000000000000
      0.8000000000D+00  0.1000000000D+01
 ****
     13 0
 S   6 1.00       0.000000000000
      0.4173511460D+04  0.1834772160D-02
      0.6274579110D+03  0.1399462700D-01
      0.1429020930D+03  0.6858655181D-01
      0.4023432930D+02  0.2322408730D+00
      0.1282021290D+02  0.4690699481D+00
      0.4390437010D+01  0.3604551991D+00
 SP   3 1.00       0.000000000000
      0.1162636186D+02 -0.1149611817D+00  0.6757974388D-01
      0.2716279807D+01 -0.1691174786D+00  0.3239072959D+00
      0.7722183966D+00  0.1145851947D+01  0.7408951398D+00
 SP   1 1.00       0.000000000000
      0.2120314975D+00  0.1000000000D+01  0.1000000000D+01
 D   1 1.00       0.000000000000
      0.8000000000D+00  0.1000000000D+01
 ****
     14 0
 S   6 1.00       0.000000000000
      0.3047524880D+04  0.1834737132D-02
      0.4573695180D+03  0.1403732281D-01
      0.1039486850D+03  0.6884262226D-01
      0.2921015530D+02  0.2321844432D+00
      0.9286662960D+01  0.4679413484D+00
      0.3163926960D+01  0.3623119853D+00
 SP   3 1.00       0.000000000000
      0.7868272350D+01 -0.1193324198D+00  0.6899906659D-01
      0.1881288540D+01 -0.1608541517D+00  0.3164239610D+00
      0.5442492580D+00  0.1143456438D+01  0.7443082909D+00
 SP   1 1.00       0.000000000000
      0.1687144782D+00  0.1000000000D+01  0.1000000000D+01
 D   1 1.00       0.000000000000
      0.8000000000D+00  0.1000000000D+01
 ****
     15 0
 S   6 1.00       0.000000000000
      0.3047524880D+04  0.1834737132D-02
      0.4573695180D+03  0.1403732281D-01
      0.1039486850D+03  0.6884262226D-01
      0.2921015530D+02  0.2321844432D+00
      0.9286662960D+01  0.4679413484D+00
      0.3163926960D+01  0.3623119853D+00
 SP   3 1.00       0.000000000000
      0.7868272350D+01 -0.1193324198D+00  0.6899906659D-01
      0.1881288540D+01 -0.1608541517D+00  0.3164239610D+00
      0.5442492580D+00  0.1143456438D+01  0.7443082909D+00
 SP   1 1.00       0.000000000000
      0.1687144782D+00  0.1000000000D+01  0.1000000000D+01
 D   1 1.00       0.000000000000
      0.8000000000D+00  0.1000000000D+01
 ****
     16 0
 S   6 1.00       0.000000000000
      0.3047524880D+04  0.1834737132D-02
      0.4573695180D+03  0.1403732281D-01
      0.1039486850D+03  0.6884262226D-01
      0.2921015530D+02  0.2321844432D+00
      0.9286662960D+01  0.4679413484D+00
      0.3163926960D+01  0.3623119853D+00
 SP   3 1.00       0.000000000000
      0.7868272350D+01 -0.1193324198D+00  0.6899906659D-01
      0.1881288540D+01 -0.1608541517D+00  0.3164239610D+00
      0.5442492580D+00  0.1143456438D+01  0.7443082909D+00
 SP   1 1.00       0.000000000000
      0.1687144782D+00  0.1000000000D+01  0.1000000000D+01
 D   1 1.00       0.000000000000
      0.8000000000D+00  0.1000000000D+01
 ****
     17 0
 S   6 1.00       0.000000000000
      0.3047524880D+04  0.1834737132D-02
      0.4573695180D+03  0.1403732281D-01
      0.1039486850D+03  0.6884262226D-01
      0.2921015530D+02  0.2321844432D+00
      0.9286662960D+01  0.4679413484D+00
      0.3163926960D+01  0.3623119853D+00
 SP   3 1.00       0.000000000000
      0.7868272350D+01 -0.1193324198D+00  0.6899906659D-01
      0.1881288540D+01 -0.1608541517D+00  0.3164239610D+00
      0.5442492580D+00  0.1143456438D+01  0.7443082909D+00
 SP   1 1.00       0.000000000000
      0.1687144782D+00  0.1000000000D+01  0.1000000000D+01
 D   1 1.00       0.000000000000
      0.8000000000D+00  0.1000000000D+01
 ****
     18 0
 S   6 1.00       0.000000000000
      0.3047524880D+04  0.1834737132D-02
      0.4573695180D+03  0.1403732281D-01
      0.1039486850D+03  0.6884262226D-01
      0.2921015530D+02  0.2321844432D+00
      0.9286662960D+01  0.4679413484D+00
      0.3163926960D+01  0.3623119853D+00
 SP   3 1.00       0.000000000000
      0.7868272350D+01 -0.1193324198D+00  0.6899906659D-01
      0.1881288540D+01 -0.1608541517D+00  0.3164239610D+00
      0.5442492580D+00  0.1143456438D+01  0.7443082909D+00
 SP   1 1.00       0.000000000000
      0.1687144782D+00  0.1000000000D+01  0.1000000000D+01
 D   1 1.00       0.000000000000
      0.8000000000D+00  0.1000000000D+01
 ****
     19 0
 S   6 1.00       0.000000000000
      0.3047524880D+04  0.1834737132D-02
      0.4573695180D+03  0.1403732281D-01
      0.1039486850D+03  0.6884262226D-01
      0.2921015530D+02  0.2321844432D+00
      0.9286662960D+01  0.4679413484D+00
      0.3163926960D+01  0.3623119853D+00
 SP   3 1.00       0.000000000000
      0.7868272350D+01 -0.1193324198D+00  0.6899906659D-01
      0.1881288540D+01 -0.1608541517D+00  0.3164239610D+00
      0.5442492580D+00  0.1143456438D+01  0.7443082909D+00
 SP   1 1.00       0.000000000000
      0.1687144782D+00  0.1000000000D+01  0.1000000000D+01
 D   1 1.00       0.000000000000
      0.8000000000D+00  0.1000000000D+01
 ****
     20 0
 S   6 1.00       0.000000000000
      0.3047524880D+04  0.1834737132D-02
      0.4573695180D+03  0.1403732281D-01
      0.1039486850D+03  0.6884262226D-01
      0.2921015530D+02  0.2321844432D+00
      0.9286662960D+01  0.4679413484D+00
      0.3163926960D+01  0.3623119853D+00
 SP   3 1.00       0.000000000000
      0.7868272350D+01 -0.1193324198D+00  0.6899906659D-01
      0.1881288540D+01 -0.1608541517D+00  0.3164239610D+00
      0.5442492580D+00  0.1143456438D+01  0.7443082909D+00
 SP   1 1.00       0.000000000000
      0.1687144782D+00  0.1000000000D+01  0.1000000000D+01
 D   1 1.00       0.000000000000
      0.8000000000D+00  0.1000000000D+01
 ****
     21 0
 S   6 1.00       0.000000000000
      0.3047524880D+04  0.1834737132D-02
      0.4573695180D+03  0.1403732281D-01
      0.1039486850D+03  0.6884262226D-01
      0.2921015530D+02  0.2321844432D+00
      0.9286662960D+01  0.4679413484D+00
      0.3163926960D+01  0.3623119853D+00
 SP   3 1.00       0.000000000000
      0.7868272350D+01 -0.1193324198D+00  0.6899906659D-01
      0.1881288540D+01 -0.1608541517D+00  0.3164239610D+00
      0.5442492580D+00  0.1143456438D+01  0.7443082909D+00
 SP   1 1.00       0.000000000000
      0.1687144782D+00  0.1000000000D+01  0.1000000000D+01
 D   1 1.00       0.000000000000
      0.8000000000D+00  0.1000000000D+01
 ****
     22 0
 S   6 1.00       0.000000000000
      0.5484671660D+04  0.1831074430D-02
      0.8252349460D+03  0.1395017220D-01
      0.1880469580D+03  0.6844507810D-01
      0.5296450000D+02  0.2327143360D+00
      0.1689757040D+02  0.4701928980D+00
      0.5799635340D+01  0.3585208530D+00
 SP   3 1.00       0.000000000000
      0.1553961625D+02 -0.1107775495D+00  0.7087426823D-01
      0.3599933586D+01 -0.1480262627D+00  0.3397528391D+00
      0.1013761750D+01  0.1130767015D+01  0.7271585773D+00
 SP   1 1.00       0.000000000000
      0.2700058226D+00  0.1000000000D+01  0.1000000000D+01
 D   1 1.00       0.000000000000
      0.8000000000D+00  0.1000000000D+01
 ****
     23 0
 S   6 1.00       0.000000000000
      0.3047524880D+04  0.1834737132D-02
      0.4573695180D+03  0.1403732281D-01
      0.1039486850D+03  0.6884262226D-01
      0.2921015530D+02  0.2321844432D+00
      0.9286662960D+01  0.4679413484D+00
      0.3163926960D+01  0.3623119853D+00
 SP   3 1.00       0.000000000000
      0.7868272350D+01 -0.1193324198D+00  0.6899906659D-01
      0.1881288540D+01 -0.1608541517D+00  0.3164239610D+00
      0.5442492580D+00  0.1143456438D+01  0.7443082909D+00
 SP   1 1.00       0.000000000000
      0.1687144782D+00  0.1000000000D+01  0.1000000000D+01
 D   1 1.00       0.000000000000
      0.8000000000D+00  0.1000000000D+01
 ****
     24 0
 S   6 1.00       0.000000000000
      0.3047524880D+04  0.1834737132D-02
      0.4573695180D+03  0.1403732281D-01
      0.1039486850D+03  0.6884262226D-01
      0.2921015530D+02  0.2321844432D+00
      0.9286662960D+01  0.4679413484D+00
      0.3163926960D+01  0.3623119853D+00
 SP   3 1.00       0.000000000000
      0.7868272350D+01 -0.1193324198D+00  0.6899906659D-01
      0.1881288540D+01 -0.1608541517D+00  0.3164239610D+00
      0.5442492580D+00  0.1143456438D+01  0.7443082909D+00
 SP   1 1.00       0.000000000000
      0.1687144782D+00  0.1000000000D+01  0.1000000000D+01
 D   1 1.00       0.000000000000
      0.8000000000D+00  0.1000000000D+01
 ****
     25 0
 S   6 1.00       0.000000000000
      0.3047524880D+04  0.1834737132D-02
      0.4573695180D+03  0.1403732281D-01
      0.1039486850D+03  0.6884262226D-01
      0.2921015530D+02  0.2321844432D+00
      0.9286662960D+01  0.4679413484D+00
      0.3163926960D+01  0.3623119853D+00
 SP   3 1.00       0.000000000000
      0.7868272350D+01 -0.1193324198D+00  0.6899906659D-01
      0.1881288540D+01 -0.1608541517D+00  0.3164239610D+00
      0.5442492580D+00  0.1143456438D+01  0.7443082909D+00
 SP   1 1.00       0.000000000000
      0.1687144782D+00  0.1000000000D+01  0.1000000000D+01
 D   1 1.00       0.000000000000
      0.8000000000D+00  0.1000000000D+01
 ****
     26 0
 S   3 1.00       0.000000000000
      0.1873113696D+02  0.3349460434D-01
      0.2825394365D+01  0.2347269535D+00
      0.6401216923D+00  0.8137573261D+00
 S   1 1.00       0.000000000000
      0.1612777588D+00  0.1000000000D+01
 ****
     27 0
 S   3 1.00       0.000000000000
      0.1873113696D+02  0.3349460434D-01
      0.2825394365D+01  0.2347269535D+00
      0.6401216923D+00  0.8137573261D+00
 S   1 1.00       0.000000000000
      0.1612777588D+00  0.1000000000D+01
 ****
     28 0
 S   3 1.00       0.000000000000
      0.1873113696D+02  0.3349460434D-01
      0.2825394365D+01  0.2347269535D+00
      0.6401216923D+00  0.8137573261D+00
 S   1 1.00       0.000000000000
      0.1612777588D+00  0.1000000000D+01
 ****
     29 0
 S   3 1.00       0.000000000000
      0.1873113696D+02  0.3349460434D-01
      0.2825394365D+01  0.2347269535D+00
      0.6401216923D+00  0.8137573261D+00
 S   1 1.00       0.000000000000
      0.1612777588D+00  0.1000000000D+01
 ****
     30 0
 S   3 1.00       0.000000000000
      0.1873113696D+02  0.3349460434D-01
      0.2825394365D+01  0.2347269535D+00
      0.6401216923D+00  0.8137573261D+00
 S   1 1.00       0.000000000000
      0.1612777588D+00  0.1000000000D+01
 ****
     31 0
 S   3 1.00       0.000000000000
      0.1873113696D+02  0.3349460434D-01
      0.2825394365D+01  0.2347269535D+00
      0.6401216923D+00  0.8137573261D+00
 S   1 1.00       0.000000000000
      0.1612777588D+00  0.1000000000D+01
 ****
     32 0
 S   3 1.00       0.000000000000
      0.1873113696D+02  0.3349460434D-01
      0.2825394365D+01  0.2347269535D+00
      0.6401216923D+00  0.8137573261D+00
 S   1 1.00       0.000000000000
      0.1612777588D+00  0.1000000000D+01
 ****
     33 0
 S   3 1.00       0.000000000000
      0.1873113696D+02  0.3349460434D-01
      0.2825394365D+01  0.2347269535D+00
      0.6401216923D+00  0.8137573261D+00
 S   1 1.00       0.000000000000
      0.1612777588D+00  0.1000000000D+01
 ****
     34 0
 S   3 1.00       0.000000000000
      0.1873113696D+02  0.3349460434D-01
      0.2825394365D+01  0.2347269535D+00
      0.6401216923D+00  0.8137573261D+00
 S   1 1.00       0.000000000000
      0.1612777588D+00  0.1000000000D+01
 ****
     35 0
 S   3 1.00       0.000000000000
      0.1873113696D+02  0.3349460434D-01
      0.2825394365D+01  0.2347269535D+00
      0.6401216923D+00  0.8137573261D+00
 S   1 1.00       0.000000000000
      0.1612777588D+00  0.1000000000D+01
 ****
     36 0
 S   3 1.00       0.000000000000
      0.1873113696D+02  0.3349460434D-01
      0.2825394365D+01  0.2347269535D+00
      0.6401216923D+00  0.8137573261D+00
 S   1 1.00       0.000000000000
      0.1612777588D+00  0.1000000000D+01
 ****
     37 0
 S   3 1.00       0.000000000000
      0.1873113696D+02  0.3349460434D-01
      0.2825394365D+01  0.2347269535D+00
      0.6401216923D+00  0.8137573261D+00
 S   1 1.00       0.000000000000
      0.1612777588D+00  0.1000000000D+01
 ****
     38 0
 S   3 1.00       0.000000000000
      0.1873113696D+02  0.3349460434D-01
      0.2825394365D+01  0.2347269535D+00
      0.6401216923D+00  0.8137573261D+00
 S   1 1.00       0.000000000000
      0.1612777588D+00  0.1000000000D+01
 ****
     39 0
 S   3 1.00       0.000000000000
      0.1873113696D+02  0.3349460434D-01
      0.2825394365D+01  0.2347269535D+00
      0.6401216923D+00  0.8137573261D+00
 S   1 1.00       0.000000000000
      0.1612777588D+00  0.1000000000D+01
 ****
     40 0
 S   3 1.00       0.000000000000
      0.1873113696D+02  0.3349460434D-01
      0.2825394365D+01  0.2347269535D+00
      0.6401216923D+00  0.8137573261D+00
 S   1 1.00       0.000000000000
      0.1612777588D+00  0.1000000000D+01
 ****
     41 0
 S   3 1.00       0.000000000000
      0.1873113696D+02  0.3349460434D-01
      0.2825394365D+01  0.2347269535D+00
      0.6401216923D+00  0.8137573261D+00
 S   1 1.00       0.000000000000
      0.1612777588D+00  0.1000000000D+01
 ****
     42 0
 S   3 1.00       0.000000000000
      0.1873113696D+02  0.3349460434D-01
      0.2825394365D+01  0.2347269535D+00
      0.6401216923D+00  0.8137573261D+00
 S   1 1.00       0.000000000000
      0.1612777588D+00  0.1000000000D+01
 ****
     43 0
 S   3 1.00       0.000000000000
      0.1873113696D+02  0.3349460434D-01
      0.2825394365D+01  0.2347269535D+00
      0.6401216923D+00  0.8137573261D+00
 S   1 1.00       0.000000000000
      0.1612777588D+00  0.1000000000D+01
 ****
     44 0
 S   3 1.00       0.000000000000
      0.1873113696D+02  0.3349460434D-01
      0.2825394365D+01  0.2347269535D+00
      0.6401216923D+00  0.8137573261D+00
 S   1 1.00       0.000000000000
      0.1612777588D+00  0.1000000000D+01
 ****
     45 0
 S   3 1.00       0.000000000000
      0.1873113696D+02  0.3349460434D-01
      0.2825394365D+01  0.2347269535D+00
      0.6401216923D+00  0.8137573261D+00
 S   1 1.00       0.000000000000
      0.1612777588D+00  0.1000000000D+01
 ****
     46 0
 S   3 1.00       0.000000000000
      0.1873113696D+02  0.3349460434D-01
      0.2825394365D+01  0.2347269535D+00
      0.6401216923D+00  0.8137573261D+00
 S   1 1.00       0.000000000000
      0.1612777588D+00  0.1000000000D+01
 ****
     47 0
 S   3 1.00       0.000000000000
      0.1873113696D+02  0.3349460434D-01
      0.2825394365D+01  0.2347269535D+00
      0.6401216923D+00  0.8137573261D+00
 S   1 1.00       0.000000000000
      0.1612777588D+00  0.1000000000D+01
 ****

   419 basis functions,   788 primitive gaussians,   419 cartesian basis functions
    91 alpha electrons       91 beta electrons
       nuclear repulsion energy      2053.4589818013 Hartrees.
 IExCor=  402 DFT=T Ex+Corr=B3LYP ExCW=0 ScaHFX=  0.200000
 ScaDFX=  0.800000  0.720000  1.000000  0.810000 ScalE2=  1.000000  1.000000
 IRadAn=      5 IRanWt=     -1 IRanGd=            0 ICorTp=0 IEmpDi=  4
 NAtoms=   47 NActive=   47 NUniq=   47 SFac= 1.00D+00 NAtFMM=   60 NAOKFM=F Big=F
 Integral buffers will be    131072 words long.
 Regular integral format.
 Two-electron integral symmetry is turned off.
 Leave Link  301 at Sat Nov  5 11:08:21 2022, MaxMem=   402653184 cpu:               0.6 elap:               0.2
 (Enter /home/wykgroup/appl/g16/l302.exe)
 NPDir=0 NMtPBC=     1 NCelOv=     1 NCel=       1 NClECP=     1 NCelD=      1
         NCelK=      1 NCelE2=     1 NClLst=     1 CellRange=     0.0.
 One-electron integrals computed using PRISM.
 NBasis=   419 RedAO= T EigKep=  4.58D-04  NBF=   419
 NBsUse=   419 1.00D-06 EigRej= -1.00D+00 NBFU=   419
 Precomputing XC quadrature grid using
 IXCGrd= 4 IRadAn=           5 IRanWt=          -1 IRanGd=           0 AccXCQ= 0.00D+00.
 Generated NRdTot=       0 NPtTot=           0 NUsed=           0 NTot=          32
 NSgBfM=   410   410   410   410   410 MxSgAt=    47 MxSgA2=    47.
 Leave Link  302 at Sat Nov  5 11:08:25 2022, MaxMem=   402653184 cpu:              28.9 elap:               4.1
 (Enter /home/wykgroup/appl/g16/l303.exe)
 DipDrv:  MaxL=1.
 Leave Link  303 at Sat Nov  5 11:08:26 2022, MaxMem=   402653184 cpu:               2.4 elap:               0.5
 (Enter /home/wykgroup/appl/g16/l308.exe)
 Leave Link  308 at Sat Nov  5 11:08:26 2022, MaxMem=   402653184 cpu:               1.8 elap:               0.4
 (Enter /home/wykgroup/appl/g16/l401.exe)
 ExpMin= 1.61D-01 ExpMax= 5.48D+03 ExpMxC= 8.25D+02 IAcc=3 IRadAn=         5 AccDes= 0.00D+00
 Harris functional with IExCor=  402 and IRadAn=       5 diagonalized for initial guess.
 HarFok:  IExCor=  402 AccDes= 0.00D+00 IRadAn=         5 IDoV= 1 UseB2=F ITyADJ=14
 ICtDFT=  3500011 ScaDFX=  1.000000  1.000000  1.000000  1.000000
 FoFCou: FMM=F IPFlag=           0 FMFlag=      100000 FMFlg1=           0
         NFxFlg=           0 DoJE=T BraDBF=F KetDBF=T FulRan=T
         wScrn=  0.000000 ICntrl=       500 IOpCl=  0 I1Cent=   200000004 NGrid=           0
         NMat0=    1 NMatS0=      1 NMatT0=    0 NMatD0=    1 NMtDS0=    0 NMtDT0=    0
 Symmetry not used in FoFCou.
 Harris En= -1147.67015571507    
 JPrj=0 DoOrth=F DoCkMO=F.
 Leave Link  401 at Sat Nov  5 11:08:33 2022, MaxMem=   402653184 cpu:              43.2 elap:               6.6
 (Enter /home/wykgroup/appl/g16/l502.exe)
 Two-electron integral symmetry not used.
 Closed shell SCF:
 Using DIIS extrapolation, IDIIS=  1040.
 NGot=   402653184 LenX=   402292478 LenY=   402116476
 Requested convergence on RMS density matrix=1.00D-08 within  32 cycles.
 Requested convergence on MAX density matrix=1.00D-06.
 Requested convergence on             energy=1.00D-06.
 No special actions if energy rises.
 Fock matrices will be formed incrementally for  20 cycles.
 Integral accuracy reduced to 1.0D-05 until final iterations.

 Cycle   1  Pass 0  IDiag  1:
 FoFJK:  IHMeth= 1 ICntrl=       0 DoSepK=F KAlg= 0 I1Cent=           0 FoldK=F
 IRaf= 620000000 NMat=       1 IRICut=       1 DoRegI=T DoRafI=F ISym2E= 0 IDoP0=0 IntGTp=1.
 FoFCou: FMM=F IPFlag=           0 FMFlag=      100000 FMFlg1=           0
         NFxFlg=           0 DoJE=F BraDBF=F KetDBF=F FulRan=T
         wScrn=  0.000000 ICntrl=         0 IOpCl=  0 I1Cent=           0 NGrid=           0
         NMat0=    1 NMatS0=      1 NMatT0=    0 NMatD0=    1 NMtDS0=    0 NMtDT0=    0
 Symmetry not used in FoFCou.
 E= -1147.02952856439    
 DIIS: error= 2.97D-02 at cycle   1 NSaved=   1.
 NSaved= 1 IEnMin= 1 EnMin= -1147.02952856439     IErMin= 1 ErrMin= 2.97D-02
 ErrMax= 2.97D-02  0.00D+00 EMaxC= 1.00D-01 BMatC= 6.65D-01 BMatP= 6.65D-01
 IDIUse=3 WtCom= 7.03D-01 WtEn= 2.97D-01
 Coeff-Com:  0.100D+01
 Coeff-En:   0.100D+01
 Coeff:      0.100D+01
 Gap=     0.209 Goal=   None    Shift=    0.000
 GapD=    0.209 DampG=1.000 DampE=0.500 DampFc=0.5000 IDamp=-1.
 Damping current iteration by 5.00D-01
 RMSDP=4.66D-03 MaxDP=2.37D-01              OVMax= 2.76D-01

 Cycle   2  Pass 0  IDiag  1:
 RMSU=  2.30D-03    CP:  9.79D-01
 E= -1147.22622711866     Delta-E=       -0.196698554275 Rises=F Damp=T
 DIIS: error= 1.07D-02 at cycle   2 NSaved=   2.
 NSaved= 2 IEnMin= 2 EnMin= -1147.22622711866     IErMin= 2 ErrMin= 1.07D-02
 ErrMax= 1.07D-02  0.00D+00 EMaxC= 1.00D-01 BMatC= 1.02D-01 BMatP= 6.65D-01
 IDIUse=3 WtCom= 8.93D-01 WtEn= 1.07D-01
 Coeff-Com:  0.199D+00 0.801D+00
 Coeff-En:   0.300D+00 0.700D+00
 Coeff:      0.210D+00 0.790D+00
 Gap=     0.249 Goal=   None    Shift=    0.000
 RMSDP=1.53D-03 MaxDP=1.21D-01 DE=-1.97D-01 OVMax= 2.01D-01

 Cycle   3  Pass 0  IDiag  1:
 RMSU=  1.38D-03    CP:  9.69D-01  7.28D-01
 E= -1147.55832359052     Delta-E=       -0.332096471859 Rises=F Damp=F
 DIIS: error= 1.47D-02 at cycle   3 NSaved=   3.
 NSaved= 3 IEnMin= 3 EnMin= -1147.55832359052     IErMin= 2 ErrMin= 1.07D-02
 ErrMax= 1.47D-02  0.00D+00 EMaxC= 1.00D-01 BMatC= 1.15D-01 BMatP= 1.02D-01
 IDIUse=2 WtCom= 0.00D+00 WtEn= 1.00D+00
 Coeff-En:   0.000D+00 0.000D+00 0.100D+01
 Coeff:      0.000D+00 0.000D+00 0.100D+01
 Gap=     0.176 Goal=   None    Shift=    0.000
 RMSDP=2.66D-03 MaxDP=2.30D-01 DE=-3.32D-01 OVMax= 3.30D-01

 Cycle   4  Pass 0  IDiag  1:
 RMSU=  1.22D-03    CP:  9.79D-01  1.23D+00 -4.84D-01
 E= -1147.08229296146     Delta-E=        0.476030629062 Rises=F Damp=F
 DIIS: error= 3.86D-02 at cycle   4 NSaved=   4.
 NSaved= 4 IEnMin= 3 EnMin= -1147.55832359052     IErMin= 2 ErrMin= 1.07D-02
 ErrMax= 3.86D-02  0.00D+00 EMaxC= 1.00D-01 BMatC= 7.19D-01 BMatP= 1.02D-01
 IDIUse=2 WtCom= 0.00D+00 WtEn= 1.00D+00
 Coeff-En:   0.000D+00 0.000D+00 0.800D+00 0.200D+00
 Coeff:      0.000D+00 0.000D+00 0.800D+00 0.200D+00
 Gap=     0.194 Goal=   None    Shift=    0.000
 RMSDP=1.48D-03 MaxDP=1.50D-01 DE= 4.76D-01 OVMax= 1.55D-01

 Cycle   5  Pass 0  IDiag  1:
 RMSU=  2.62D-04    CP:  9.75D-01  8.80D-01  2.79D-01  4.99D-01
 E= -1147.61404034091     Delta-E=       -0.531747379454 Rises=F Damp=F
 DIIS: error= 9.24D-03 at cycle   5 NSaved=   5.
 NSaved= 5 IEnMin= 5 EnMin= -1147.61404034091     IErMin= 5 ErrMin= 9.24D-03
 ErrMax= 9.24D-03  0.00D+00 EMaxC= 1.00D-01 BMatC= 5.13D-02 BMatP= 1.02D-01
 IDIUse=3 WtCom= 9.08D-01 WtEn= 9.24D-02
 Coeff-Com: -0.273D-02 0.362D-01 0.332D+00-0.666D-01 0.701D+00
 Coeff-En:   0.000D+00 0.000D+00 0.345D+00 0.000D+00 0.655D+00
 Coeff:     -0.248D-02 0.329D-01 0.333D+00-0.605D-01 0.697D+00
 Gap=     0.177 Goal=   None    Shift=    0.000
 RMSDP=5.15D-04 MaxDP=3.75D-02 DE=-5.32D-01 OVMax= 4.96D-02

 Cycle   6  Pass 0  IDiag  1:
 RMSU=  9.70D-05    CP:  9.73D-01  8.09D-01  5.63D-01  2.88D-01  7.06D-01
 E= -1147.65554637330     Delta-E=       -0.041506032383 Rises=F Damp=F
 DIIS: error= 1.01D-03 at cycle   6 NSaved=   6.
 NSaved= 6 IEnMin= 6 EnMin= -1147.65554637330     IErMin= 6 ErrMin= 1.01D-03
 ErrMax= 1.01D-03  0.00D+00 EMaxC= 1.00D-01 BMatC= 6.36D-04 BMatP= 5.13D-02
 IDIUse=3 WtCom= 9.90D-01 WtEn= 1.01D-02
 Coeff-Com: -0.599D-02 0.219D-01 0.165D+00-0.635D-01 0.460D+00 0.422D+00
 Coeff-En:   0.000D+00 0.000D+00 0.000D+00 0.000D+00 0.000D+00 0.100D+01
 Coeff:     -0.593D-02 0.217D-01 0.164D+00-0.628D-01 0.455D+00 0.428D+00
 Gap=     0.176 Goal=   None    Shift=    0.000
 RMSDP=6.34D-05 MaxDP=3.70D-03 DE=-4.15D-02 OVMax= 8.05D-03

 Cycle   7  Pass 0  IDiag  1:
 RMSU=  2.56D-05    CP:  9.73D-01  8.13D-01  5.59D-01  2.96D-01  7.81D-01
                    CP:  4.62D-01
 E= -1147.65607887644     Delta-E=       -0.000532503148 Rises=F Damp=F
 DIIS: error= 2.45D-04 at cycle   7 NSaved=   7.
 NSaved= 7 IEnMin= 7 EnMin= -1147.65607887644     IErMin= 7 ErrMin= 2.45D-04
 ErrMax= 2.45D-04  0.00D+00 EMaxC= 1.00D-01 BMatC= 3.59D-05 BMatP= 6.36D-04
 IDIUse=3 WtCom= 9.98D-01 WtEn= 2.45D-03
 Coeff-Com: -0.238D-02 0.700D-02 0.618D-01-0.268D-01 0.179D+00 0.230D+00
 Coeff-Com:  0.551D+00
 Coeff-En:   0.000D+00 0.000D+00 0.000D+00 0.000D+00 0.000D+00 0.000D+00
 Coeff-En:   0.100D+01
 Coeff:     -0.237D-02 0.698D-02 0.617D-01-0.268D-01 0.179D+00 0.230D+00
 Coeff:      0.552D+00
 Gap=     0.176 Goal=   None    Shift=    0.000
 RMSDP=1.61D-05 MaxDP=7.91D-04 DE=-5.33D-04 OVMax= 2.27D-03

 Cycle   8  Pass 0  IDiag  1:
 RMSU=  1.02D-05    CP:  9.73D-01  8.12D-01  5.60D-01  2.95D-01  7.75D-01
                    CP:  5.15D-01  5.83D-01
 E= -1147.65610487772     Delta-E=       -0.000026001273 Rises=F Damp=F
 DIIS: error= 9.14D-05 at cycle   8 NSaved=   8.
 NSaved= 8 IEnMin= 8 EnMin= -1147.65610487772     IErMin= 8 ErrMin= 9.14D-05
 ErrMax= 9.14D-05  0.00D+00 EMaxC= 1.00D-01 BMatC= 6.58D-06 BMatP= 3.59D-05
 IDIUse=1 WtCom= 1.00D+00 WtEn= 0.00D+00
 Coeff-Com: -0.323D-03 0.437D-03 0.144D-01-0.662D-02 0.399D-01 0.805D-01
 Coeff-Com:  0.358D+00 0.514D+00
 Coeff:     -0.323D-03 0.437D-03 0.144D-01-0.662D-02 0.399D-01 0.805D-01
 Coeff:      0.358D+00 0.514D+00
 Gap=     0.176 Goal=   None    Shift=    0.000
 RMSDP=6.51D-06 MaxDP=4.37D-04 DE=-2.60D-05 OVMax= 7.72D-04

 Initial convergence to 1.0D-05 achieved.  Increase integral accuracy.
 Cycle   9  Pass 1  IDiag  1:
 E= -1147.65606904566     Delta-E=        0.000035832059 Rises=F Damp=F
 DIIS: error= 6.43D-05 at cycle   1 NSaved=   1.
 NSaved= 1 IEnMin= 1 EnMin= -1147.65606904566     IErMin= 1 ErrMin= 6.43D-05
 ErrMax= 6.43D-05  0.00D+00 EMaxC= 1.00D-01 BMatC= 8.00D-07 BMatP= 8.00D-07
 IDIUse=1 WtCom= 1.00D+00 WtEn= 0.00D+00
 Coeff-Com:  0.100D+01
 Coeff:      0.100D+01
 Gap=     0.176 Goal=   None    Shift=    0.000
 RMSDP=6.51D-06 MaxDP=4.37D-04 DE= 3.58D-05 OVMax= 2.87D-04

 Cycle  10  Pass 1  IDiag  1:
 RMSU=  2.84D-05    CP:  1.00D+00
 E= -1147.65606913963     Delta-E=       -0.000000093976 Rises=F Damp=F
 DIIS: error= 2.73D-05 at cycle   2 NSaved=   2.
 NSaved= 2 IEnMin= 2 EnMin= -1147.65606913963     IErMin= 2 ErrMin= 2.73D-05
 ErrMax= 2.73D-05  0.00D+00 EMaxC= 1.00D-01 BMatC= 7.70D-07 BMatP= 8.00D-07
 IDIUse=1 WtCom= 1.00D+00 WtEn= 0.00D+00
 Coeff-Com:  0.494D+00 0.506D+00
 Coeff:      0.494D+00 0.506D+00
 Gap=     0.176 Goal=   None    Shift=    0.000
 RMSDP=2.93D-06 MaxDP=1.57D-04 DE=-9.40D-08 OVMax= 2.74D-04

 Cycle  11  Pass 1  IDiag  1:
 RMSU=  2.92D-06    CP:  1.00D+00  9.95D-01
 E= -1147.65606963875     Delta-E=       -0.000000499121 Rises=F Damp=F
 DIIS: error= 1.76D-05 at cycle   3 NSaved=   3.
 NSaved= 3 IEnMin= 3 EnMin= -1147.65606963875     IErMin= 3 ErrMin= 1.76D-05
 ErrMax= 1.76D-05  0.00D+00 EMaxC= 1.00D-01 BMatC= 2.12D-07 BMatP= 7.70D-07
 IDIUse=1 WtCom= 1.00D+00 WtEn= 0.00D+00
 Coeff-Com:  0.648D-01 0.338D+00 0.597D+00
 Coeff:      0.648D-01 0.338D+00 0.597D+00
 Gap=     0.176 Goal=   None    Shift=    0.000
 RMSDP=1.22D-06 MaxDP=7.10D-05 DE=-4.99D-07 OVMax= 1.31D-04

 Cycle  12  Pass 1  IDiag  1:
 RMSU=  7.56D-07    CP:  1.00D+00  1.00D+00  6.83D-01
 E= -1147.65606979743     Delta-E=       -0.000000158674 Rises=F Damp=F
 DIIS: error= 6.35D-06 at cycle   4 NSaved=   4.
 NSaved= 4 IEnMin= 4 EnMin= -1147.65606979743     IErMin= 4 ErrMin= 6.35D-06
 ErrMax= 6.35D-06  0.00D+00 EMaxC= 1.00D-01 BMatC= 3.08D-08 BMatP= 2.12D-07
 IDIUse=1 WtCom= 1.00D+00 WtEn= 0.00D+00
 Coeff-Com:  0.403D-03 0.176D+00 0.388D+00 0.435D+00
 Coeff:      0.403D-03 0.176D+00 0.388D+00 0.435D+00
 Gap=     0.176 Goal=   None    Shift=    0.000
 RMSDP=4.43D-07 MaxDP=2.33D-05 DE=-1.59D-07 OVMax= 4.33D-05

 Cycle  13  Pass 1  IDiag  1:
 RMSU=  1.44D-07    CP:  1.00D+00  1.00D+00  6.99D-01  4.51D-01
 E= -1147.65606982470     Delta-E=       -0.000000027273 Rises=F Damp=F
 DIIS: error= 7.45D-07 at cycle   5 NSaved=   5.
 NSaved= 5 IEnMin= 5 EnMin= -1147.65606982470     IErMin= 5 ErrMin= 7.45D-07
 ErrMax= 7.45D-07  0.00D+00 EMaxC= 1.00D-01 BMatC= 8.08D-10 BMatP= 3.08D-08
 IDIUse=1 WtCom= 1.00D+00 WtEn= 0.00D+00
 Coeff-Com: -0.213D-02 0.901D-01 0.203D+00 0.254D+00 0.454D+00
 Coeff:     -0.213D-02 0.901D-01 0.203D+00 0.254D+00 0.454D+00
 Gap=     0.176 Goal=   None    Shift=    0.000
 RMSDP=7.13D-08 MaxDP=4.30D-06 DE=-2.73D-08 OVMax= 5.12D-06

 Cycle  14  Pass 1  IDiag  1:
 RMSU=  3.40D-08    CP:  1.00D+00  1.00D+00  6.96D-01  4.58D-01  5.71D-01
 E= -1147.65606982543     Delta-E=       -0.000000000725 Rises=F Damp=F
 DIIS: error= 1.96D-07 at cycle   6 NSaved=   6.
 NSaved= 6 IEnMin= 6 EnMin= -1147.65606982543     IErMin= 6 ErrMin= 1.96D-07
 ErrMax= 1.96D-07  0.00D+00 EMaxC= 1.00D-01 BMatC= 1.67D-11 BMatP= 8.08D-10
 IDIUse=1 WtCom= 1.00D+00 WtEn= 0.00D+00
 Coeff-Com: -0.106D-02 0.383D-01 0.870D-01 0.112D+00 0.219D+00 0.545D+00
 Coeff:     -0.106D-02 0.383D-01 0.870D-01 0.112D+00 0.219D+00 0.545D+00
 Gap=     0.176 Goal=   None    Shift=    0.000
 RMSDP=1.48D-08 MaxDP=5.81D-07 DE=-7.25D-10 OVMax= 1.66D-06

 Cycle  15  Pass 1  IDiag  1:
 RMSU=  1.23D-08    CP:  1.00D+00  1.00D+00  6.96D-01  4.62D-01  5.66D-01
                    CP:  7.74D-01
 E= -1147.65606982543     Delta-E=       -0.000000000002 Rises=F Damp=F
 DIIS: error= 8.94D-08 at cycle   7 NSaved=   7.
 NSaved= 7 IEnMin= 7 EnMin= -1147.65606982543     IErMin= 7 ErrMin= 8.94D-08
 ErrMax= 8.94D-08  0.00D+00 EMaxC= 1.00D-01 BMatC= 2.45D-12 BMatP= 1.67D-11
 IDIUse=1 WtCom= 1.00D+00 WtEn= 0.00D+00
 Coeff-Com: -0.358D-03 0.116D-01 0.264D-01 0.348D-01 0.684D-01 0.305D+00
 Coeff-Com:  0.555D+00
 Coeff:     -0.358D-03 0.116D-01 0.264D-01 0.348D-01 0.684D-01 0.305D+00
 Coeff:      0.555D+00
 Gap=     0.176 Goal=   None    Shift=    0.000
 RMSDP=4.74D-09 MaxDP=2.16D-07 DE=-1.82D-12 OVMax= 5.73D-07

 SCF Done:  E(RB3LYP) =  -1147.65606983     A.U. after   15 cycles
            NFock= 15  Conv=0.47D-08     -V/T= 2.0094
 KE= 1.136966726197D+03 PE=-6.777804137129D+03 EE= 2.439722359305D+03
 Leave Link  502 at Sat Nov  5 11:10:06 2022, MaxMem=   402653184 cpu:             652.6 elap:              92.9
 (Enter /home/wykgroup/appl/g16/l508.exe)
 QCSCF skips out because SCF is already converged.
 Leave Link  508 at Sat Nov  5 11:10:06 2022, MaxMem=   402653184 cpu:               0.3 elap:               0.1
 (Enter /home/wykgroup/appl/g16/l801.exe)
 DoSCS=F DFT=T ScalE2(SS,OS)=  1.000000  1.000000
 ExpMin= 1.61D-01 ExpMax= 5.48D+03 ExpMxC= 8.25D+02 IAcc=3 IRadAn=         5 AccDes= 0.00D+00
 HarFok:  IExCor=  205 AccDes= 0.00D+00 IRadAn=         5 IDoV=-2 UseB2=F ITyADJ=14
 ICtDFT= 12500011 ScaDFX=  1.000000  1.000000  1.000000  1.000000
 GSVD:  LWork=        -825 too small for GESVD, short by        3500 words or        3500 for optimal perf.
 Largest valence mixing into a core orbital is  5.89D-05
 Largest core mixing into a valence orbital is  1.19D-05
 Range of M.O.s used for correlation:    26   419
 NBasis=   419 NAE=    91 NBE=    91 NFC=    25 NFV=     0
 NROrb=    394 NOA=    66 NOB=    66 NVA=   328 NVB=   328
 Leave Link  801 at Sat Nov  5 11:10:08 2022, MaxMem=   402653184 cpu:              17.8 elap:               2.7
 (Enter /home/wykgroup/appl/g16/l914.exe)
 RHF ground state
 Two-electron integral symmetry not used.
 MDV=   402653184 DFT=T DoStab=F Mixed=T DoRPA=T DoScal=F NonHer=T
 Making orbital integer symmetry assigments:
    16 initial guesses have been made.
 Convergence on wavefunction:    0.001000000000000
 Davidson Disk Diagonalization:  ConvIn= 1.00D-03 SkipCon=T Conv= 1.00D-03.
 Max sub-space:  2000 roots to seek:    16 dimension of matrix:        43296
 Iteration     1 Dimension    16 NMult     0 NNew     16
 CISAX will form    16 AO SS matrices at one time.
 NMat=    16 NSing=     8 JSym2X= 0.
 FoFJK:  IHMeth= 1 ICntrl=       0 DoSepK=F KAlg= 0 I1Cent=           0 FoldK=F
 IRaf= 620000000 NMat=      32 IRICut=       1 DoRegI=T DoRafI=F ISym2E= 0 IDoP0=0 IntGTp=1.
 FoFCou: FMM=F IPFlag=           0 FMFlag=      100000 FMFlg1=           0
         NFxFlg=           0 DoJE=F BraDBF=F KetDBF=F FulRan=T
         wScrn=  0.000000 ICntrl=         0 IOpCl=  0 I1Cent=           0 NGrid=           0
         NMat0=   32 NMatS0=      8 NMatT0=    8 NMatD0=   32 NMtDS0=    0 NMtDT0=    0
 Symmetry not used in FoFCou.
 New state      1 was old state      2
 New state      2 was old state      6
 New state      3 was old state     10
 New state      4 was old state      5
 New state      5 was old state      4
 New state      6 was old state      3
 New state      7 was old state      1
 New state      8 was old state     16
 Excitation Energies [eV] at current iteration:
 Root      1 :     3.282963680476893
 Root      2 :     4.391874893422791
 Root      3 :     4.719809732700224
 Root      4 :     4.840916918230024
 Root      5 :     4.994815145306974
 Root      6 :     4.995590510926455
 Root      7 :     5.215727798823536
 Root      8 :     5.343575629823436
 Root      9 :     5.421759763812292
 Root     10 :     5.433324160780540
 Root     11 :     5.502587037708405
 Root     12 :     5.641749198203087
 Root     13 :     5.658472538438219
 Root     14 :     5.672225660427752
 Root     15 :     5.715698919343807
 Root     16 :     6.758739284163369
 Vector   3 SDiff=3.43D+00 TDiff=6.18D+00 assumed to be singlet.
 Vector   7 SDiff=3.53D+00 TDiff=5.92D+00 assumed to be singlet.
 Iteration     2 Dimension    24 NMult    16 NNew      8
 CISAX will form     8 AO SS matrices at one time.
 NMat=     8 NSing=     4 JSym2X= 0.
 Root      1 not converged, maximum delta is    0.146553218737755
 Root      2 not converged, maximum delta is    0.148616582200089
 New state      3 was old state      4
 Root      3 not converged, maximum delta is    0.054778212879709
 New state      4 was old state      6
 Root      4 not converged, maximum delta is    0.004917036907662
 Excitation Energies [eV] at current iteration:
 Root      1 :     2.887285725301053   Change is   -0.395677955175839
 Root      2 :     4.215902549504691   Change is   -0.175972343918100
 Root      3 :     4.782598472283987   Change is   -0.058318445946036
 Root      4 :     4.994553761755696   Change is   -0.001036749170760
 Iteration     3 Dimension    32 NMult    24 NNew      8
 CISAX will form     8 AO SS matrices at one time.
 NMat=     8 NSing=     4 JSym2X= 0.
 Root      1 not converged, maximum delta is    0.054638220563000
 Root      2 not converged, maximum delta is    0.050546730991911
 Root      3 not converged, maximum delta is    0.115402763641553
 Root      4 not converged, maximum delta is    0.621448888520528
 Excitation Energies [eV] at current iteration:
 Root      1 :     2.851836006262185   Change is   -0.035449719038868
 Root      2 :     4.207398156074765   Change is   -0.008504393429927
 Root      3 :     4.758344426546888   Change is   -0.024254045737100
 Root      4 :     4.976498385754902   Change is   -0.018055376000793
 Iteration     4 Dimension    40 NMult    32 NNew      8
 CISAX will form     8 AO SS matrices at one time.
 NMat=     8 NSing=     4 JSym2X= 0.
 Root      1 not converged, maximum delta is    0.012935866043439
 Root      2 not converged, maximum delta is    0.391828003344052
 New state      3 was old state      4
 Root      3 not converged, maximum delta is    0.256922774510450
 New state      4 was old state      3
 Root      4 not converged, maximum delta is    0.277383301339314
 Excitation Energies [eV] at current iteration:
 Root      1 :     2.849473376342674   Change is   -0.002362629919512
 Root      2 :     4.159036399751447   Change is   -0.048361756323318
 Root      3 :     4.614274730913039   Change is   -0.362223654841863
 Root      4 :     4.775385331385394   Change is    0.017040904838506
 Iteration     5 Dimension    48 NMult    40 NNew      8
 CISAX will form     8 AO SS matrices at one time.
 NMat=     8 NSing=     4 JSym2X= 0.
 Root      1 not converged, maximum delta is    0.002057124626305
 Root      2 not converged, maximum delta is    0.157292883661169
 Root      3 not converged, maximum delta is    0.029894254062261
 Root      4 not converged, maximum delta is    0.032106215255735
 Excitation Energies [eV] at current iteration:
 Root      1 :     2.849326920842902   Change is   -0.000146455499771
 Root      2 :     4.110397288819328   Change is   -0.048639110932119
 Root      3 :     4.573419975476756   Change is   -0.040854755436284
 Root      4 :     4.772918880015697   Change is   -0.002466451369696
 Iteration     6 Dimension    56 NMult    48 NNew      8
 CISAX will form     8 AO SS matrices at one time.
 NMat=     8 NSing=     4 JSym2X= 0.
 Root      1 has converged.
 Root      2 not converged, maximum delta is    0.022869057213857
 Root      3 not converged, maximum delta is    0.005601846599477
 Root      4 not converged, maximum delta is    0.002888149394919
 Excitation Energies [eV] at current iteration:
 Root      1 :     2.849317729467243   Change is   -0.000009191375660
 Root      2 :     4.104273131941643   Change is   -0.006124156877686
 Root      3 :     4.568613986106531   Change is   -0.004805989370224
 Root      4 :     4.772659475017740   Change is   -0.000259404997958
 Iteration     7 Dimension    62 NMult    56 NNew      6
 CISAX will form     6 AO SS matrices at one time.
 NMat=     6 NSing=     4 JSym2X= 0.
 Root      1 has converged.
 Root      2 not converged, maximum delta is    0.003494795097195
 Root      3 not converged, maximum delta is    0.001867906670918
 Root      4 has converged.
 Excitation Energies [eV] at current iteration:
 Root      1 :     2.849317437128093   Change is   -0.000000292339149
 Root      2 :     4.103688419461829   Change is   -0.000584712479813
 Root      3 :     4.567967323339440   Change is   -0.000646662767091
 Root      4 :     4.772619221100217   Change is   -0.000040253917523
 Iteration     8 Dimension    66 NMult    62 NNew      4
 CISAX will form     4 AO SS matrices at one time.
 NMat=     4 NSing=     2 JSym2X= 0.
 Root      1 has converged.
 Root      2 has converged.
 Root      3 has converged.
 Root      4 has converged.
 Excitation Energies [eV] at current iteration:
 Root      1 :     2.849317427989535   Change is   -0.000000009138559
 Root      2 :     4.103622066559451   Change is   -0.000066352902378
 Root      3 :     4.567885107713479   Change is   -0.000082215625960
 Root      4 :     4.772614064586537   Change is   -0.000005156513680
 Convergence achieved on expansion vectors.
 ***********************************************************************
 Excited states from <AA,BB:AA,BB> singles matrix:
 ***********************************************************************
 
 1PDM for each excited state written to RWF  633
 Ground to excited state transition densities written to RWF  633
 Ground to excited state transition electric dipole moments (Au):
       state          X           Y           Z        Dip. S.      Osc.
         1        -0.0000     -0.0000      0.0000      0.0000      0.0000
         2        -0.0000      0.0000     -0.0000      0.0000      0.0000
         3        -1.9745     -1.1441      0.8357      5.9062      0.6610
         4        -0.1545     -0.1392      0.1250      0.0589      0.0069
 Ground to excited state transition velocity dipole moments (Au):
       state          X           Y           Z        Dip. S.      Osc.
         1         0.0000      0.0000     -0.0000      0.0000      0.0000
         2         0.0000      0.0000     -0.0000      0.0000      0.0000
         3         0.3270      0.1895     -0.1382      0.1619      0.6430
         4         0.0197      0.0216     -0.0211      0.0013      0.0049
 Ground to excited state transition magnetic dipole moments (Au):
       state          X           Y           Z
         1        -0.0000      0.0000      0.0000
         2        -0.0000      0.0000      0.0000
         3        -0.0869      1.8000      2.2728
         4        -0.0692      0.5631      0.5944
 Ground to excited state transition velocity quadrupole moments (Au):
       state          XX          YY          ZZ          XY          XZ          YZ
         1         0.0000      0.0000      0.0000      0.0000     -0.0000     -0.0000
         2         0.0000      0.0000      0.0000      0.0000     -0.0000     -0.0000
         3         4.6370     -0.0469     -0.1745      1.8090     -1.1963      0.0652
         4        -0.0077      0.0547      0.0308      0.1857     -0.2009     -0.0537
 <0|del|b> * <b|rxdel|0> + <0|del|b> * <b|delr+rdel|0>
 Rotatory Strengths (R) in cgs (10**-40 erg-esu-cm/Gauss)
       state          XX          YY          ZZ    R(velocity)    E-M Angle
         1         0.0000     -0.0000      0.0000      0.0000       90.00
         2         0.0000     -0.0000     -0.0000      0.0000       90.00
[...]
    21  C    0.000000  -0.000000  -0.000000  -0.000000   0.000000   0.000000
    22  O   -0.000000   0.000000   0.000000  -0.000000  -0.000000   0.000000
    23  C    0.275399  -0.000172   0.001400  -0.000090   0.004223  -0.000008
    24  C    0.240298  -0.000004  -0.000374  -0.000001  -0.000252  -0.000003
    25  C    5.189107   0.000109  -0.000426   0.000039   0.000255  -0.000031
    26  H    0.000109   0.563719  -0.027506  -0.026669  -0.002695   0.000003
    27  H   -0.000426  -0.027506   0.526137  -0.024541   0.004674  -0.000008
    28  H    0.000039  -0.026669  -0.024541   0.550906  -0.001652   0.000000
    29  H    0.000255  -0.002695   0.004674  -0.001652   0.570126  -0.000441
    30  H   -0.000031   0.000003  -0.000008   0.000000  -0.000441   0.353747
    31  H   -0.000002   0.004489  -0.000045  -0.000083  -0.002754   0.000000
    32  H   -0.000006   0.000010  -0.000006   0.000006   0.005383   0.000001
    33  H   -0.000000   0.000003  -0.000000  -0.000000   0.000007   0.000000
    34  H   -0.000000  -0.000003  -0.000000  -0.000000   0.000003  -0.000000
    35  H   -0.000000   0.000000  -0.000000   0.000000  -0.000006   0.000000
    36  H   -0.000000   0.000000  -0.000000   0.000000   0.000001   0.000000
    37  H   -0.000000   0.000000   0.000000   0.000000  -0.000000   0.000000
    38  H   -0.000000   0.000000  -0.000000  -0.000000   0.000000   0.000000
    39  H    0.000000  -0.000000   0.000000   0.000000   0.000000   0.000000
    40  H    0.000000   0.000000   0.000000   0.000000  -0.000000   0.000000
    41  H    0.000000   0.000000   0.000000   0.000000   0.000000   0.000000
    42  H    0.000000   0.000000   0.000000   0.000000   0.000000   0.000000
    43  H   -0.033996   0.000004  -0.000010   0.000012   0.000019   0.000104
    44  H   -0.023348   0.000036   0.000006   0.000001   0.000001   0.000000
    45  H   -0.021108   0.000001   0.000009   0.000000   0.000004  -0.000000
    46  H    0.373899  -0.000062   0.007745   0.000057   0.000001  -0.000002
    47  H    0.371220  -0.000001  -0.000019  -0.000002  -0.000002   0.000004
              31         32         33         34         35         36
     1  C    0.000267   0.000119   0.000005   0.000002   0.000000  -0.000000
     2  C    0.000156  -0.004113  -0.000026  -0.000004  -0.000004  -0.000011
     3  C    0.000274   0.000039  -0.000000  -0.000000   0.000000   0.000000
     4  O   -0.000001  -0.000001  -0.000000  -0.000000  -0.000000  -0.000000
     5  O   -0.000002   0.000106   0.000000   0.000000  -0.000000   0.000000
     6  N    0.000349   0.000982   0.000318  -0.000056   0.000010   0.000078
     7  C   -0.023386  -0.025318  -0.004304   0.004376  -0.000195   0.003154
     8  O    0.001662   0.000806   0.006712   0.000425   0.000352   0.013913
     9  C    0.350899   0.350548  -0.037879  -0.034619  -0.005134  -0.005884
    10  C   -0.029304  -0.034068   0.374919   0.366433  -0.035349  -0.036572
    11  C    0.003912  -0.005989  -0.033847  -0.040871   0.354612   0.353442
    12  C   -0.000069   0.000009  -0.005255  -0.001530  -0.027181  -0.022125
    13  N   -0.000000  -0.000000   0.000021   0.001057   0.001229   0.001557
    14  C   -0.000000  -0.000000   0.000013  -0.000047   0.000111  -0.000163
    15  C    0.000000   0.000000   0.000008  -0.000119  -0.000088   0.000261
    16  C    0.000000   0.000000  -0.000008  -0.000004   0.000000  -0.000003
    17  C   -0.000000  -0.000000  -0.000001   0.000001   0.000000  -0.000003
    18  C   -0.000000  -0.000000   0.000000  -0.000000  -0.000000  -0.000000
    19  C    0.000000   0.000000   0.000000  -0.000000  -0.000000   0.000000
    20  C    0.000000  -0.000000  -0.000000   0.000000   0.000000   0.000000
    21  C   -0.000000  -0.000000  -0.000000   0.000000  -0.000000  -0.000000
    22  O    0.000000  -0.000001   0.003974  -0.000147   0.003107  -0.000314
    23  C   -0.000120  -0.000308  -0.000023   0.000001  -0.000001  -0.000004
    24  C    0.000019  -0.000004   0.000001   0.000000  -0.000000  -0.000001
    25  C   -0.000002  -0.000006  -0.000000  -0.000000  -0.000000  -0.000000
    26  H    0.004489   0.000010   0.000003  -0.000003   0.000000   0.000000
    27  H   -0.000045  -0.000006  -0.000000  -0.000000  -0.000000  -0.000000
    28  H   -0.000083   0.000006  -0.000000  -0.000000   0.000000   0.000000
    29  H   -0.002754   0.005383   0.000007   0.000003  -0.000006   0.000001
    30  H    0.000000   0.000001   0.000000  -0.000000   0.000000   0.000000
    31  H    0.568003  -0.033856  -0.001015  -0.004281   0.000081   0.000039
    32  H   -0.033856   0.567526   0.005054  -0.000875   0.005641  -0.000151
    33  H   -0.001015   0.005054   0.555058  -0.033599   0.004970  -0.004282
    34  H   -0.004281  -0.000875  -0.033599   0.599097  -0.003753   0.005363
    35  H    0.000081   0.005641   0.004970  -0.003753   0.566678  -0.027315
    36  H    0.000039  -0.000151  -0.004282   0.005363  -0.027315   0.521553
    37  H    0.000000  -0.000000  -0.000001   0.000000  -0.000014   0.000003
    38  H    0.000000   0.000000   0.000066  -0.000000  -0.000000   0.000011
    39  H   -0.000000  -0.000000  -0.000000   0.000000   0.000000  -0.000000
    40  H    0.000000   0.000000  -0.000000  -0.000000  -0.000000   0.000000
    41  H   -0.000000  -0.000000  -0.000000   0.000000  -0.000000   0.000000
    42  H    0.000000   0.000000   0.000000  -0.000000  -0.000000   0.000000
    43  H   -0.000011   0.000040  -0.000000  -0.000000   0.000000   0.000008
    44  H   -0.000005   0.000002   0.000003  -0.000000   0.000000   0.000000
    45  H   -0.000000   0.000000  -0.000000  -0.000000   0.000000   0.000000
    46  H   -0.000000   0.000000   0.000000   0.000000   0.000000   0.000000
    47  H    0.000000  -0.000000  -0.000000   0.000000   0.000000   0.000000
              37         38         39         40         41         42
     1  C   -0.000000  -0.000000  -0.000000   0.000000   0.000000  -0.000000
     2  C   -0.000000  -0.000000   0.000000   0.000000   0.000000   0.000000
     3  C    0.000000   0.000000  -0.000000   0.000000   0.000000   0.000000
     4  O    0.000000  -0.000000   0.000000   0.000000   0.000000   0.000000
     5  O    0.000000   0.000000   0.000000   0.000000   0.000000   0.000000
     6  N   -0.000000   0.000000  -0.000000  -0.000000   0.000000  -0.000000
     7  C    0.000000  -0.000000   0.000000   0.000000   0.000000  -0.000000
     8  O   -0.000000   0.000000  -0.000000   0.000000  -0.000000  -0.000000
     9  C   -0.000000  -0.000000   0.000000  -0.000000   0.000000  -0.000000
    10  C    0.000002   0.000002  -0.000000   0.000000  -0.000000   0.000000
    11  C   -0.000191  -0.000004   0.000000  -0.000000   0.000000  -0.000000
    12  C    0.005795  -0.000025  -0.000000  -0.000000  -0.000000  -0.000005
    13  N   -0.038511   0.000054  -0.000000   0.000000  -0.000000   0.000012
    14  C    0.367072   0.000275   0.000001  -0.000000  -0.000000   0.005685
    15  C   -0.042110  -0.012733  -0.000178   0.000003  -0.000212  -0.012918
    16  C   -0.000334  -0.039386   0.003286   0.000545   0.003272  -0.037516
    17  C   -0.000118   0.358050  -0.038822   0.004715   0.000897   0.006125
    18  C    0.000002  -0.043825   0.358441  -0.043089   0.004560   0.000247
    19  C    0.000001   0.004555  -0.043064   0.359714  -0.042676   0.004737
    20  C    0.000033   0.000268   0.004584  -0.043276   0.357642  -0.045496
    21  C    0.001034   0.005723   0.000879   0.004936  -0.039130   0.351537
    22  O    0.003298   0.009271  -0.000003   0.000000   0.000000   0.000015
    23  C    0.000000  -0.000000   0.000000  -0.000000  -0.000000  -0.000000
    24  C   -0.000000  -0.000000   0.000000  -0.000000  -0.000000  -0.000000
    25  C   -0.000000  -0.000000   0.000000   0.000000   0.000000   0.000000
    26  H    0.000000   0.000000  -0.000000   0.000000   0.000000   0.000000
    27  H    0.000000  -0.000000   0.000000   0.000000   0.000000   0.000000
    28  H    0.000000  -0.000000   0.000000   0.000000   0.000000   0.000000
    29  H   -0.000000   0.000000   0.000000  -0.000000   0.000000   0.000000
    30  H    0.000000   0.000000   0.000000   0.000000   0.000000   0.000000
    31  H    0.000000   0.000000  -0.000000   0.000000  -0.000000   0.000000
    32  H   -0.000000   0.000000  -0.000000   0.000000  -0.000000   0.000000
    33  H   -0.000001   0.000066  -0.000000  -0.000000  -0.000000   0.000000
    34  H    0.000000  -0.000000   0.000000  -0.000000   0.000000  -0.000000
    35  H   -0.000014  -0.000000   0.000000  -0.000000  -0.000000  -0.000000
    36  H    0.000003   0.000011  -0.000000   0.000000   0.000000   0.000000
    37  H    0.554446  -0.000006   0.000000  -0.000000  -0.000002   0.002138
    38  H   -0.000006   0.569937  -0.005200  -0.000162   0.000016  -0.000156
    39  H    0.000000  -0.005200   0.592962  -0.005513  -0.000185   0.000016
    40  H   -0.000000  -0.000162  -0.005513   0.597500  -0.005486  -0.000174
    41  H   -0.000002   0.000016  -0.000185  -0.005486   0.595065  -0.005465
    42  H    0.002138  -0.000156   0.000016  -0.000174  -0.005465   0.598885
    43  H    0.000000   0.000000  -0.000000  -0.000000   0.000000   0.000000
    44  H    0.000000   0.000000  -0.000000  -0.000000   0.000000  -0.000000
    45  H    0.000000   0.000000   0.000000   0.000000   0.000000   0.000000
    46  H   -0.000000   0.000000  -0.000000   0.000000   0.000000   0.000000
    47  H    0.000000   0.000000  -0.000000   0.000000   0.000000   0.000000
              43         44         45         46         47
     1  C   -0.000293   0.000126  -0.000011  -0.000582   0.000087
     2  C   -0.002487  -0.000111  -0.000100   0.001565   0.000076
     3  C    0.003219   0.000029   0.000017  -0.000489  -0.000104
     4  O    0.000059  -0.000001  -0.000000   0.000155   0.000024
     5  O    0.003065  -0.000003  -0.000000   0.000014   0.000046
     6  N   -0.044719  -0.001819   0.001400  -0.003648   0.001396
     7  C   -0.001785   0.001670   0.000238  -0.000129  -0.000058
     8  O    0.002692  -0.000238  -0.000035  -0.000018  -0.000009
     9  C   -0.000043  -0.000097   0.000000  -0.000012   0.000002
    10  C   -0.000003   0.000001  -0.000000   0.000000  -0.000000
    11  C    0.000000   0.000000  -0.000000  -0.000000   0.000000
    12  C    0.000000   0.000000   0.000000   0.000000  -0.000000
    13  N   -0.000000  -0.000000  -0.000000  -0.000000  -0.000000
    14  C    0.000000   0.000000   0.000000   0.000000   0.000000
    15  C    0.000000   0.000000   0.000000   0.000000   0.000000
    16  C    0.000000   0.000000  -0.000000   0.000000  -0.000000
    17  C   -0.000000  -0.000000  -0.000000  -0.000000  -0.000000
    18  C    0.000000   0.000000   0.000000   0.000000   0.000000
    19  C    0.000000   0.000000   0.000000   0.000000   0.000000
    20  C    0.000000  -0.000000   0.000000   0.000000   0.000000
    21  C   -0.000000   0.000000  -0.000000  -0.000000   0.000000
    22  O   -0.000000  -0.000000   0.000000   0.000000   0.000000
    23  C    0.384161  -0.021860  -0.016505  -0.022148  -0.017474
    24  C   -0.034333   0.382301   0.374996  -0.018380  -0.019006
    25  C   -0.033996  -0.023348  -0.021108   0.373899   0.371220
    26  H    0.000004   0.000036   0.000001  -0.000062  -0.000001
    27  H   -0.000010   0.000006   0.000009   0.007745  -0.000019
    28  H    0.000012   0.000001   0.000000   0.000057  -0.000002
    29  H    0.000019   0.000001   0.000004   0.000001  -0.000002
    30  H    0.000104   0.000000  -0.000000  -0.000002   0.000004
    31  H   -0.000011  -0.000005  -0.000000  -0.000000   0.000000
    32  H    0.000040   0.000002   0.000000   0.000000  -0.000000
    33  H   -0.000000   0.000003  -0.000000   0.000000  -0.000000
    34  H   -0.000000  -0.000000  -0.000000   0.000000   0.000000
    35  H    0.000000   0.000000   0.000000   0.000000   0.000000
    36  H    0.000008   0.000000   0.000000   0.000000   0.000000
    37  H    0.000000   0.000000   0.000000  -0.000000   0.000000
    38  H    0.000000   0.000000   0.000000   0.000000   0.000000
    39  H   -0.000000  -0.000000   0.000000  -0.000000  -0.000000
    40  H   -0.000000  -0.000000   0.000000   0.000000   0.000000
    41  H    0.000000   0.000000   0.000000   0.000000   0.000000
    42  H    0.000000  -0.000000   0.000000   0.000000   0.000000
    43  H    0.560464   0.002469  -0.003209   0.002413  -0.003737
    44  H    0.002469   0.527563  -0.026764  -0.005588   0.002231
    45  H   -0.003209  -0.026764   0.533025   0.002012  -0.005667
    46  H    0.002413  -0.005588   0.002012   0.523602  -0.028197
    47  H   -0.003737   0.002231  -0.005667  -0.028197   0.538240
 Mulliken charges:
               1
     1  C   -0.441424
     2  C   -0.038784
     3  C    0.586833
     4  O   -0.459435
     5  O   -0.564407
     6  N   -0.457240
     7  C    0.608516
     8  O   -0.502902
     9  C   -0.395180
    10  C   -0.256517
    11  C   -0.347451
    12  C    0.508375
    13  N   -0.459894
    14  C   -0.076238
    15  C    0.291672
    16  C    0.083320
    17  C   -0.175950
    18  C   -0.131254
    19  C   -0.126382
    20  C   -0.137747
    21  C   -0.170814
    22  O   -0.474922
    23  C    0.034291
    24  C   -0.292126
    25  C   -0.339195
    26  H    0.152505
    27  H    0.173422
    28  H    0.163543
    29  H    0.177934
    30  H    0.414710
    31  H    0.164785
    32  H    0.168424
    33  H    0.169109
    34  H    0.143151
    35  H    0.162249
    36  H    0.197445
    37  H    0.147461
    38  H    0.153268
    39  H    0.132796
    40  H    0.130289
    41  H    0.131705
    42  H    0.132333
    43  H    0.165897
    44  H    0.163393
    45  H    0.161698
    46  H    0.167792
    47  H    0.160949
 Sum of Mulliken charges =  -0.00000
 Mulliken charges with hydrogens summed into heavy atoms:
               1
     1  C    0.048045
     2  C    0.139149
     3  C    0.586833
     4  O   -0.459435
     5  O   -0.149698
     6  N   -0.457240
     7  C    0.608516
     8  O   -0.502902
     9  C   -0.061971
    10  C    0.055744
    11  C    0.012243
    12  C    0.508375
    13  N   -0.459894
    14  C    0.071223
    15  C    0.291672
    16  C    0.083320
    17  C   -0.022682
    18  C    0.001542
    19  C    0.003907
    20  C   -0.006043
    21  C   -0.038481
    22  O   -0.474922
    23  C    0.200188
    24  C    0.032966
    25  C   -0.010455
 Electronic spatial extent (au):  <R**2>=          15647.1294
 Charge=             -0.0000 electrons
 Dipole moment (field-independent basis, Debye):
    X=             -1.8031    Y=              0.6928    Z=              0.3510  Tot=              1.9633
 Quadrupole moment (field-independent basis, Debye-Ang):
   XX=           -134.2193   YY=           -141.9328   ZZ=           -143.1488
   XY=             11.0131   XZ=              0.2955   YZ=              1.1933
 Traceless Quadrupole moment (field-independent basis, Debye-Ang):
   XX=              5.5477   YY=             -2.1658   ZZ=             -3.3818
   XY=             11.0131   XZ=              0.2955   YZ=              1.1933
 Octapole moment (field-independent basis, Debye-Ang**2):
  XXX=             96.3251  YYY=             60.7746  ZZZ=            -46.9023  XYY=            -86.4089
  XXY=              3.6300  XXZ=            -38.3379  XZZ=            -68.6366  YZZ=             31.2436
  YYZ=            -32.6723  XYZ=            -24.7694
 Hexadecapole moment (field-independent basis, Debye-Ang**3):
 XXXX=         -17604.3304 YYYY=          -1375.0671 ZZZZ=          -1506.9996 XXXY=           -100.4633
 XXXZ=            170.3293 YYYX=           -274.6713 YYYZ=            410.9617 ZZZX=           -188.7208
 ZZZY=            398.8548 XXYY=          -2964.6732 XXZZ=          -3156.3841 YYZZ=           -498.6248
 XXYZ=             53.1539 YYXZ=           -121.8774 ZZXY=            -89.6227
 N-N= 2.053458981801D+03 E-N=-6.777804146851D+03  KE= 1.136966726197D+03
 Leave Link  601 at Sat Nov  5 11:19:56 2022, MaxMem=   402653184 cpu:               1.8 elap:               0.3
 (Enter /home/wykgroup/appl/g16/l9999.exe)
 Electronic transition elements 
                 1             2             3             4 
      1  -0.114755D+04 -0.114751D+04 -0.114749D+04 -0.114748D+04
      2   0.000000D+00  0.000000D+00 -0.197455D+01 -0.154518D+00
      3   0.000000D+00  0.000000D+00 -0.114407D+01 -0.139171D+00
      4   0.000000D+00  0.000000D+00  0.835748D+00  0.125033D+00
      5   0.000000D+00  0.000000D+00  0.326958D+00  0.197227D-01
      6   0.000000D+00  0.000000D+00  0.189498D+00  0.216148D-01
      7   0.000000D+00  0.000000D+00 -0.138210D+00 -0.210812D-01
      8   0.000000D+00  0.000000D+00 -0.869091D-01 -0.692159D-01
      9   0.000000D+00  0.000000D+00  0.180000D+01  0.563142D+00
     10   0.000000D+00  0.000000D+00  0.227284D+01  0.594384D+00
     11   0.000000D+00  0.000000D+00  0.463701D+01 -0.774869D-02
     12   0.000000D+00  0.000000D+00 -0.469451D-01  0.546864D-01
     13   0.000000D+00  0.000000D+00 -0.174500D+00  0.307564D-01
     14   0.000000D+00  0.000000D+00  0.180902D+01  0.185682D+00
     15   0.000000D+00  0.000000D+00 -0.119627D+01 -0.200912D+00
     16   0.000000D+00  0.000000D+00  0.652318D-01 -0.536945D-01
 1\1\GINC-NODE47\SP\RB3LYP TD-FC\6-31G(d)\C19H22N2O4\WYKGROUP\05-Nov-20
 22\0\\#p b3lyp/6-31g(d) 6D 10F nosymm GFInput td=(50-50,nstate=2) SCF=
 XQC\\Gaussian input prepared by ASE\\0,1\C,0,-4.8312368031,1.017656617
 4,1.4677914214\C,0,-4.2995705782,-0.2709942917,0.8302866935\C,0,-5.447
 1220843,-1.177437225,0.3743357247\O,0,-6.6244762382,-0.9217145735,0.47
 54381211\O,0,-4.9858706838,-2.3515033753,-0.1183738953\N,0,-3.33029450
 39,-0.0570131242,-0.2567854635\C,0,-1.9611849944,-0.1818440191,-0.0731
 299818\O,0,-1.1967520834,-0.1543087311,-1.0301105845\C,0,-1.4337994344
 ,-0.3232209142,1.3598714039\C,0,0.0963878072,-0.2379471767,1.443170198
 9\C,0,0.8089409965,-1.498914277,0.9101797317\C,0,2.2885052277,-1.44333
 35826,1.0789849952\N,0,3.045905142,-2.1544186757,1.8623430118\C,0,4.32
 78232847,-1.6799995526,1.6369115696\C,0,4.299483742,-0.6766247433,0.71
 0333955\C,0,5.2935815552,0.1812176221,0.0818076277\C,0,4.9234584142,1.
 1204019115,-0.8965169962\C,0,5.8845562346,1.9350802198,-1.4915867576\C
 ,0,7.2273110581,1.8294647147,-1.1248819141\C,0,7.6036906632,0.89827147
 81,-0.1530379259\C,0,6.6489690006,0.082211514,0.4458985051\O,0,2.97792
 62819,-0.5210219492,0.3474058877\C,0,-3.7806929189,-0.0107318858,-1.63
 43241955\C,0,-3.5323633887,1.2122492776,-2.4688164431\C,0,-4.939238595
 8,0.8673910482,-2.0529856932\H,0,-3.9947290567,1.6459003003,1.78798436
 9\H,0,-5.4510567516,1.5883475115,0.7741138915\H,0,-5.446077149,0.77994
 12049,2.341118413\H,0,-3.793264232,-0.8517957557,1.6071280273\H,0,-5.7
 7379985,-2.8700926609,-0.3689168837\H,0,-1.8793811647,0.4553852694,1.9
 917927054\H,0,-1.7687904925,-1.2825212873,1.7807367676\H,0,0.443688839
 1,0.6353668689,0.8824242872\H,0,0.3768792303,-0.087852371,2.4928230381
 \H,0,0.4639100189,-2.3870294636,1.4500613737\H,0,0.559503649,-1.620571
 8617,-0.1484915437\H,0,5.1793724831,-2.0972087285,2.1553731782\H,0,3.8
 812897437,1.2041567508,-1.1861684232\H,0,5.5812089448,2.6553701578,-2.
 2467573129\H,0,7.9745072934,2.4658143437,-1.5909321968\H,0,8.646122668
 5,0.8078333909,0.1405661793\H,0,6.9535512719,-0.6361598977,1.201897392
 1\H,0,-3.6911830559,-0.9658286483,-2.1477915376\H,0,-3.0586394068,2.05
 57082941,-1.9767806374\H,0,-3.2252795632,1.06206692,-3.4992041395\H,0,
 -5.4172281899,1.5033104714,-1.3170801306\H,0,-5.6245443309,0.456941885
 2,-2.7891668137\\Version=ES64L-G16RevB.01\HF=-1147.6560698\RMSD=4.737e
 -09\PG=C01 [X(C19H22N2O4)]\\@


 SILVERMAN'S PARADOX - IF MURPHY'S LAW CAN GO WRONG, IT WILL.
 Job cpu time:       0 days  1 hours 23 minutes 19.4 seconds.
 Elapsed time:       0 days  0 hours 11 minutes 35.9 seconds.
 File lengths (MBytes):  RWF=   1078 Int=      0 D2E=      0 Chk=     38 Scr=      1
 Normal termination of Gaussian 16 at Sat Nov  5 11:19:56 2022.
