 Entering Gaussian System, Link 0=/home/wykgroup/appl/g16/g16
 Input=calculation/no_transfer_pubchem_sampling_0_b3lyp/123548890_rwf.com
 Output=calculation/no_transfer_pubchem_sampling_0_b3lyp/123548890_rwf.log
 Initial command:
 /home/wykgroup/appl/g16/l1.exe "/userdata/scratch/wykgroup/khs/calculation/no_transfer_pubchem_sampling_0_b3lyp/123548890_rwf/Gau-27727.inp" -scrdir="/userdata/scratch/wykgroup/khs/calculation/no_transfer_pubchem_sampling_0_b3lyp/123548890_rwf/"
 Entering Link 1 = /home/wykgroup/appl/g16/l1.exe PID=     27728.
  
 Copyright (c) 1988-2017, Gaussian, Inc.  All Rights Reserved.
  
 This is part of the Gaussian(R) 16 program.  It is based on
 the Gaussian(R) 09 system (copyright 2009, Gaussian, Inc.),
 the Gaussian(R) 03 system (copyright 2003, Gaussian, Inc.),
 the Gaussian(R) 98 system (copyright 1998, Gaussian, Inc.),
 the Gaussian(R) 94 system (copyright 1995, Gaussian, Inc.),
 the Gaussian 92(TM) system (copyright 1992, Gaussian, Inc.),
 the Gaussian 90(TM) system (copyright 1990, Gaussian, Inc.),
 the Gaussian 88(TM) system (copyright 1988, Gaussian, Inc.),
 the Gaussian 86(TM) system (copyright 1986, Carnegie Mellon
 University), and the Gaussian 82(TM) system (copyright 1983,
 Carnegie Mellon University). Gaussian is a federally registered
 trademark of Gaussian, Inc.
  
 This software contains proprietary and confidential information,
 including trade secrets, belonging to Gaussian, Inc.
  
 This software is provided under written license and may be
 used, copied, transmitted, or stored only in accord with that
 written license.
  
 The following legend is applicable only to US Government
 contracts under FAR:
  
                    RESTRICTED RIGHTS LEGEND
  
 Use, reproduction and disclosure by the US Government is
 subject to restrictions as set forth in subparagraphs (a)
 and (c) of the Commercial Computer Software - Restricted
 Rights clause in FAR 52.227-19.
  
 Gaussian, Inc.
 340 Quinnipiac St., Bldg. 40, Wallingford CT 06492
  
  
 ---------------------------------------------------------------
 Warning -- This program may not be used in any manner that
 competes with the business of Gaussian, Inc. or will provide
 assistance to any competitor of Gaussian, Inc.  The licensee
 of this program is prohibited from giving any competitor of
 Gaussian, Inc. access to this program.  By using this program,
 the user acknowledges that Gaussian, Inc. is engaged in the
 business of creating and licensing software in the field of
 computational chemistry and represents and warrants to the
 licensee that it is not a competitor of Gaussian, Inc. and that
 it will not use this program in any manner prohibited above.
 ---------------------------------------------------------------
  

 Cite this work as:
 Gaussian 16, Revision B.01,
 M. J. Frisch, G. W. Trucks, H. B. Schlegel, G. E. Scuseria, 
 M. A. Robb, J. R. Cheeseman, G. Scalmani, V. Barone, 
 G. A. Petersson, H. Nakatsuji, X. Li, M. Caricato, A. V. Marenich, 
 J. Bloino, B. G. Janesko, R. Gomperts, B. Mennucci, H. P. Hratchian, 
 J. V. Ortiz, A. F. Izmaylov, J. L. Sonnenberg, D. Williams-Young, 
 F. Ding, F. Lipparini, F. Egidi, J. Goings, B. Peng, A. Petrone, 
 T. Henderson, D. Ranasinghe, V. G. Zakrzewski, J. Gao, N. Rega, 
 G. Zheng, W. Liang, M. Hada, M. Ehara, K. Toyota, R. Fukuda, 
 J. Hasegawa, M. Ishida, T. Nakajima, Y. Honda, O. Kitao, H. Nakai, 
 T. Vreven, K. Throssell, J. A. Montgomery, Jr., J. E. Peralta, 
 F. Ogliaro, M. J. Bearpark, J. J. Heyd, E. N. Brothers, K. N. Kudin, 
 V. N. Staroverov, T. A. Keith, R. Kobayashi, J. Normand, 
 K. Raghavachari, A. P. Rendell, J. C. Burant, S. S. Iyengar, 
 J. Tomasi, M. Cossi, J. M. Millam, M. Klene, C. Adamo, R. Cammi, 
 J. W. Ochterski, R. L. Martin, K. Morokuma, O. Farkas, 
 J. B. Foresman, and D. J. Fox, Gaussian, Inc., Wallingford CT, 2016.
 
 ******************************************
 Gaussian 16:  ES64L-G16RevB.01 20-Dec-2017
                 5-Nov-2022 
 ******************************************
 %chk=calculation/no_transfer_pubchem_sampling_0_b3lyp/123548890_rwf.chk
 %rwf=calculation/no_transfer_pubchem_sampling_0_b3lyp/123548890_rwf.rwf
 %nprocshared=14
 Will use up to   14 processors via shared memory.
 %mem=3GB
 -------------------------------------------------------------------
 #p b3lyp/6-31g(d) 6D 10F nosymm GFInput td=(50-50,nstate=2) SCF=XQC
 -------------------------------------------------------------------
 1/38=1,172=1/1;
 2/12=2,15=1,17=6,18=5,40=1/2;
 3/5=1,6=6,7=1,8=22,11=9,24=10,25=1,30=1,74=-5/1,2,3,8;
 4//1;
 5/5=2,8=3,13=1,38=5/2,8;
 8/6=1,10=2,108=2/1;
 9/41=2,42=1,48=2,70=2/14;
 6/7=2,8=2,9=2,10=2/1;
 99/5=1,9=1/99;
 Leave Link    1 at Sat Nov  5 11:15:34 2022, MaxMem=   402653184 cpu:              11.3 elap:               1.1
 (Enter /home/wykgroup/appl/g16/l101.exe)
 ------------------------------
 Gaussian input prepared by ASE
 ------------------------------
 Symbolic Z-matrix:
 Charge =  0 Multiplicity = 1
 C                    -2.49033   1.02845   1.01868 
 C                    -2.29687  -0.08891   0.02712 
 C                    -3.55223  -0.85182  -0.3086 
 C                    -1.11976  -0.4279   -0.55111 
 C                     0.16017   0.20724  -0.31742 
 C                     1.34457  -0.07873  -0.92077 
 C                     2.61248   0.56853  -0.57939 
 C                     3.04055   0.88735   0.65126 
 C                     2.46527   0.60793   1.99817 
 F                     4.22841   1.54032   0.74495 
 C                     1.40081  -1.09955  -2.03858 
 F                     0.52054  -0.82852  -3.03283 
 F                     1.10492  -2.34958  -1.59889 
 F                     2.62342  -1.16364  -2.6079 
 H                    -3.22111   1.7546    0.6367 
 H                    -2.90538   0.63936   1.95874 
 H                    -1.57471   1.57362   1.25626 
 H                    -3.36596  -1.65115  -1.0317 
 H                    -3.99321  -1.3005    0.59292 
 H                    -4.31838  -0.1833   -0.72632 
 H                    -1.13517  -1.2573   -1.25127 
 H                     0.18436   1.00978   0.41359 
 H                     3.29622   0.79499  -1.39254 
 H                     1.65129  -0.11715   1.93842 
 H                     3.25399   0.21145   2.64832 
 H                     2.08608   1.52265   2.47218 
 
 ITRead=  0  0  0  0  0  0  0  0  0  0  0  0  0  0  0  0  0  0  0  0
 ITRead=  0  0  0  0  0  0
 MicOpt= -1 -1 -1 -1 -1 -1 -1 -1 -1 -1 -1 -1 -1 -1 -1 -1 -1 -1 -1 -1
 MicOpt= -1 -1 -1 -1 -1 -1
 NAtoms=     26 NQM=       26 NQMF=       0 NMMI=      0 NMMIF=      0
                NMic=       0 NMicF=      0.
                    Isotopes and Nuclear Properties:
 (Nuclear quadrupole moments (NQMom) in fm**2, nuclear magnetic moments (NMagM)
  in nuclear magnetons)

  Atom         1           2           3           4           5           6           7           8           9          10
 IAtWgt=          12          12          12          12          12          12          12          12          12          19
 AtmWgt=  12.0000000  12.0000000  12.0000000  12.0000000  12.0000000  12.0000000  12.0000000  12.0000000  12.0000000  18.9984032
 NucSpn=           0           0           0           0           0           0           0           0           0           1
 AtZEff=  -0.0000000  -0.0000000  -0.0000000  -0.0000000  -0.0000000  -0.0000000  -0.0000000  -0.0000000  -0.0000000  -0.0000000
 NQMom=    0.0000000   0.0000000   0.0000000   0.0000000   0.0000000   0.0000000   0.0000000   0.0000000   0.0000000   0.0000000
 NMagM=    0.0000000   0.0000000   0.0000000   0.0000000   0.0000000   0.0000000   0.0000000   0.0000000   0.0000000   2.6288670
 AtZNuc=   6.0000000   6.0000000   6.0000000   6.0000000   6.0000000   6.0000000   6.0000000   6.0000000   6.0000000   9.0000000

  Atom        11          12          13          14          15          16          17          18          19          20
 IAtWgt=          12          19          19          19           1           1           1           1           1           1
 AtmWgt=  12.0000000  18.9984032  18.9984032  18.9984032   1.0078250   1.0078250   1.0078250   1.0078250   1.0078250   1.0078250
 NucSpn=           0           1           1           1           1           1           1           1           1           1
 AtZEff=  -0.0000000  -0.0000000  -0.0000000  -0.0000000  -0.0000000  -0.0000000  -0.0000000  -0.0000000  -0.0000000  -0.0000000
 NQMom=    0.0000000   0.0000000   0.0000000   0.0000000   0.0000000   0.0000000   0.0000000   0.0000000   0.0000000   0.0000000
 NMagM=    0.0000000   2.6288670   2.6288670   2.6288670   2.7928460   2.7928460   2.7928460   2.7928460   2.7928460   2.7928460
 AtZNuc=   6.0000000   9.0000000   9.0000000   9.0000000   1.0000000   1.0000000   1.0000000   1.0000000   1.0000000   1.0000000

  Atom        21          22          23          24          25          26
 IAtWgt=           1           1           1           1           1           1
 AtmWgt=   1.0078250   1.0078250   1.0078250   1.0078250   1.0078250   1.0078250
 NucSpn=           1           1           1           1           1           1
 AtZEff=  -0.0000000  -0.0000000  -0.0000000  -0.0000000  -0.0000000  -0.0000000
 NQMom=    0.0000000   0.0000000   0.0000000   0.0000000   0.0000000   0.0000000
 NMagM=    2.7928460   2.7928460   2.7928460   2.7928460   2.7928460   2.7928460
 AtZNuc=   1.0000000   1.0000000   1.0000000   1.0000000   1.0000000   1.0000000
 Leave Link  101 at Sat Nov  5 11:15:35 2022, MaxMem=   402653184 cpu:               1.9 elap:               0.2
 (Enter /home/wykgroup/appl/g16/l202.exe)
                          Input orientation:                          
 ---------------------------------------------------------------------
 Center     Atomic      Atomic             Coordinates (Angstroms)
 Number     Number       Type             X           Y           Z
 ---------------------------------------------------------------------
      1          6           0       -2.490334    1.028450    1.018683
      2          6           0       -2.296869   -0.088913    0.027119
      3          6           0       -3.552231   -0.851822   -0.308604
      4          6           0       -1.119758   -0.427898   -0.551107
      5          6           0        0.160168    0.207242   -0.317415
      6          6           0        1.344575   -0.078726   -0.920768
      7          6           0        2.612479    0.568535   -0.579392
      8          6           0        3.040555    0.887347    0.651264
      9          6           0        2.465275    0.607931    1.998173
     10          9           0        4.228415    1.540322    0.744948
     11          6           0        1.400814   -1.099555   -2.038582
     12          9           0        0.520539   -0.828518   -3.032830
     13          9           0        1.104916   -2.349577   -1.598894
     14          9           0        2.623421   -1.163643   -2.607901
     15          1           0       -3.221110    1.754604    0.636704
     16          1           0       -2.905381    0.639357    1.958737
     17          1           0       -1.574708    1.573623    1.256259
     18          1           0       -3.365960   -1.651146   -1.031705
     19          1           0       -3.993210   -1.300502    0.592922
     20          1           0       -4.318376   -0.183299   -0.726318
     21          1           0       -1.135165   -1.257298   -1.251266
     22          1           0        0.184361    1.009776    0.413595
     23          1           0        3.296224    0.794985   -1.392539
     24          1           0        1.651291   -0.117154    1.938417
     25          1           0        3.253992    0.211455    2.648321
     26          1           0        2.086082    1.522646    2.472179
 ---------------------------------------------------------------------
                    Distance matrix (angstroms):
                    1          2          3          4          5
     1  C    0.000000
     2  C    1.506363   0.000000
     3  C    2.534707   1.506875   0.000000
     4  C    2.542375   1.354565   2.481017   0.000000
     5  C    3.079724   2.498689   3.860518   1.447835   0.000000
     6  C    4.437774   3.762806   4.995110   2.516249   1.359644
     7  C    5.366941   4.990169   6.332012   3.863064   2.492587
     8  C    5.544875   5.461752   6.885555   4.525900   3.114082
     9  C    5.068954   5.200833   6.607758   4.519317   3.291810
    10  F    6.743777   6.763802   8.207970   5.844365   4.410935
    11  C    5.386679   4.354467   5.252318   3.002830   2.491854
    12  F    5.378517   4.224700   4.899939   3.001669   2.928505
    13  F    5.584675   4.396210   5.059360   3.120878   3.011986
    14  F    6.641375   5.683980   6.597171   4.333948   3.632253
    15  H    1.098745   2.150435   2.792258   3.254211   3.838973
    16  H    1.098799   2.152164   2.789779   3.259877   3.842549
    17  H    1.091800   2.190052   3.498882   2.734893   2.711686
    18  H    3.485835   2.169017   1.093842   2.602447   4.049369
    19  H    2.804270   2.160013   1.099330   3.213560   4.511381
    20  H    2.802696   2.159413   1.099267   3.212738   4.514098
    21  H    3.494824   2.085413   2.625876   1.085525   2.166758
    22  H    2.742348   2.740982   4.236654   2.167552   1.085828
    23  H    6.273177   5.837756   7.126585   4.658792   3.366924
    24  H    4.394471   4.386551   5.715372   3.738048   2.723501
    25  H    6.026647   6.145973   7.496574   5.456629   4.285715
    26  H    4.827055   5.271215   6.720225   4.818952   3.636107
                    6          7          8          9         10
     6  C    0.000000
     7  C    1.463920   0.000000
     8  C    2.506178   1.341419   0.000000
     9  C    3.201200   2.582065   1.491035   0.000000
    10  F    3.703033   2.304234   1.358736   2.355544   0.000000
    11  C    1.514848   2.525845   3.724487   4.510430   4.765744
    12  F    2.387892   3.513876   4.781968   5.581789   5.799254
    13  F    2.382028   3.439114   4.391763   4.851424   5.511910
    14  F    2.378846   2.667472   3.873334   4.937549   4.596632
    15  H    5.160649   6.075887   6.321455   5.958475   7.453392
    16  H    5.183562   6.074033   6.093040   5.370892   7.292192
    17  H    3.998989   4.681063   4.705066   4.219533   5.825700
    18  H    4.967288   6.393222   7.093642   6.948876   8.427128
    19  H    5.681192   6.964391   7.366406   6.879598   8.699914
    20  H    5.667254   6.973062   7.562928   7.353014   8.842123
    21  H    2.765388   4.222548   5.065151   5.196258   6.370207
    22  H    2.076405   2.660164   2.868679   2.806232   4.092145
    23  H    2.189720   1.086276   2.061802   3.496054   2.448133
    24  H    2.875846   2.780902   2.143791   1.091737   3.288338
    25  H    4.058137   3.310163   2.119109   1.096340   2.517582
    26  H    3.824437   3.240294   2.151826   1.097804   2.751950
                   11         12         13         14         15
    11  C    0.000000
    12  F    1.355313   0.000000
    13  F    1.357732   2.170550   0.000000
    14  F    1.350184   2.171402   2.174947   0.000000
    15  H    6.055210   5.842768   6.368414   7.293981   0.000000
    16  H    6.127454   6.229552   6.137828   7.394094   1.758190
    17  H    5.182238   5.343840   5.542903   6.328399   1.768401
    18  H    4.903079   4.448156   4.560508   6.212466   3.795221
    19  H    6.005055   5.808853   5.647610   7.351449   3.151465
    20  H    5.938914   5.399204   5.904764   7.258786   2.610995
    21  H    2.660064   2.469652   2.516323   3.997024   4.121547
    22  H    3.455750   3.920482   4.022783   4.449966   3.493104
    23  H    2.756671   3.609812   3.838318   2.401248   6.893064
    24  H    4.104190   5.147614   4.218389   4.765415   5.379426
    25  H    5.207695   6.389741   5.405206   5.469587   6.953766
    26  H    5.262367   6.187408   5.703546   5.771663   5.620415
                   16         17         18         19         20
    16  H    0.000000
    17  H    1.771163   0.000000
    18  H    3.794902   4.340794   0.000000
    19  H    2.609957   3.814415   1.776459   0.000000
    20  H    3.143699   3.813805   1.776213   1.759054   0.000000
    21  H    4.127357   3.807229   2.275910   3.401663   3.400276
    22  H    3.474360   2.030352   4.666280   4.777200   4.795568
    23  H    7.050898   5.598963   7.106226   7.840215   7.706038
    24  H    4.619088   3.705555   6.028893   5.922082   6.537745
    25  H    6.212608   5.206696   7.799720   7.683268   8.299686
    26  H    5.094951   3.857777   7.216295   6.961291   7.359193
                   21         22         23         24         25
    21  H    0.000000
    22  H    3.106853   0.000000
    23  H    4.885594   3.604434   0.000000
    24  H    4.386153   2.397278   3.825320   0.000000
    25  H    6.052166   3.879943   4.082994   1.783423   0.000000
    26  H    5.654075   2.849097   4.114606   1.778452   1.764727
                   26
    26  H    0.000000
 Symmetry turned off by external request.
 Stoichiometry    C10H12F4
 Framework group  C1[X(C10H12F4)]
 Deg. of freedom    72
 Full point group                 C1      NOp   1
 Rotational constants (GHZ):           0.7371633           0.4340035           0.2971720
 Leave Link  202 at Sat Nov  5 11:15:35 2022, MaxMem=   402653184 cpu:               0.4 elap:               0.1
 (Enter /home/wykgroup/appl/g16/l301.exe)
 Standard basis: 6-31G(d) (6D, 10F)
 Ernie: Thresh=  0.10000D-02 Tol=  0.10000D-05 Strict=F.
 AO basis set in the form of general basis input (Overlap normalization):
      1 0
 S   6 1.00       0.000000000000
      0.3047524880D+04  0.1834737132D-02
      0.4573695180D+03  0.1403732281D-01
      0.1039486850D+03  0.6884262226D-01
      0.2921015530D+02  0.2321844432D+00
      0.9286662960D+01  0.4679413484D+00
      0.3163926960D+01  0.3623119853D+00
 SP   3 1.00       0.000000000000
      0.7868272350D+01 -0.1193324198D+00  0.6899906659D-01
      0.1881288540D+01 -0.1608541517D+00  0.3164239610D+00
      0.5442492580D+00  0.1143456438D+01  0.7443082909D+00
 SP   1 1.00       0.000000000000
      0.1687144782D+00  0.1000000000D+01  0.1000000000D+01
 D   1 1.00       0.000000000000
      0.8000000000D+00  0.1000000000D+01
 ****
      2 0
 S   6 1.00       0.000000000000
      0.3047524880D+04  0.1834737132D-02
      0.4573695180D+03  0.1403732281D-01
      0.1039486850D+03  0.6884262226D-01
      0.2921015530D+02  0.2321844432D+00
      0.9286662960D+01  0.4679413484D+00
      0.3163926960D+01  0.3623119853D+00
 SP   3 1.00       0.000000000000
      0.7868272350D+01 -0.1193324198D+00  0.6899906659D-01
      0.1881288540D+01 -0.1608541517D+00  0.3164239610D+00
      0.5442492580D+00  0.1143456438D+01  0.7443082909D+00
 SP   1 1.00       0.000000000000
      0.1687144782D+00  0.1000000000D+01  0.1000000000D+01
 D   1 1.00       0.000000000000
      0.8000000000D+00  0.1000000000D+01
 ****
      3 0
 S   6 1.00       0.000000000000
      0.3047524880D+04  0.1834737132D-02
      0.4573695180D+03  0.1403732281D-01
      0.1039486850D+03  0.6884262226D-01
      0.2921015530D+02  0.2321844432D+00
      0.9286662960D+01  0.4679413484D+00
      0.3163926960D+01  0.3623119853D+00
 SP   3 1.00       0.000000000000
      0.7868272350D+01 -0.1193324198D+00  0.6899906659D-01
      0.1881288540D+01 -0.1608541517D+00  0.3164239610D+00
      0.5442492580D+00  0.1143456438D+01  0.7443082909D+00
 SP   1 1.00       0.000000000000
      0.1687144782D+00  0.1000000000D+01  0.1000000000D+01
 D   1 1.00       0.000000000000
      0.8000000000D+00  0.1000000000D+01
 ****
      4 0
 S   6 1.00       0.000000000000
      0.3047524880D+04  0.1834737132D-02
      0.4573695180D+03  0.1403732281D-01
      0.1039486850D+03  0.6884262226D-01
      0.2921015530D+02  0.2321844432D+00
      0.9286662960D+01  0.4679413484D+00
      0.3163926960D+01  0.3623119853D+00
 SP   3 1.00       0.000000000000
      0.7868272350D+01 -0.1193324198D+00  0.6899906659D-01
      0.1881288540D+01 -0.1608541517D+00  0.3164239610D+00
      0.5442492580D+00  0.1143456438D+01  0.7443082909D+00
 SP   1 1.00       0.000000000000
      0.1687144782D+00  0.1000000000D+01  0.1000000000D+01
 D   1 1.00       0.000000000000
      0.8000000000D+00  0.1000000000D+01
 ****
      5 0
 S   6 1.00       0.000000000000
      0.3047524880D+04  0.1834737132D-02
      0.4573695180D+03  0.1403732281D-01
      0.1039486850D+03  0.6884262226D-01
      0.2921015530D+02  0.2321844432D+00
      0.9286662960D+01  0.4679413484D+00
      0.3163926960D+01  0.3623119853D+00
 SP   3 1.00       0.000000000000
      0.7868272350D+01 -0.1193324198D+00  0.6899906659D-01
      0.1881288540D+01 -0.1608541517D+00  0.3164239610D+00
      0.5442492580D+00  0.1143456438D+01  0.7443082909D+00
 SP   1 1.00       0.000000000000
      0.1687144782D+00  0.1000000000D+01  0.1000000000D+01
 D   1 1.00       0.000000000000
      0.8000000000D+00  0.1000000000D+01
 ****
      6 0
 S   6 1.00       0.000000000000
      0.3047524880D+04  0.1834737132D-02
      0.4573695180D+03  0.1403732281D-01
      0.1039486850D+03  0.6884262226D-01
      0.2921015530D+02  0.2321844432D+00
      0.9286662960D+01  0.4679413484D+00
      0.3163926960D+01  0.3623119853D+00
 SP   3 1.00       0.000000000000
      0.7868272350D+01 -0.1193324198D+00  0.6899906659D-01
      0.1881288540D+01 -0.1608541517D+00  0.3164239610D+00
      0.5442492580D+00  0.1143456438D+01  0.7443082909D+00
 SP   1 1.00       0.000000000000
      0.1687144782D+00  0.1000000000D+01  0.1000000000D+01
 D   1 1.00       0.000000000000
      0.8000000000D+00  0.1000000000D+01
 ****
      7 0
 S   6 1.00       0.000000000000
      0.3047524880D+04  0.1834737132D-02
      0.4573695180D+03  0.1403732281D-01
      0.1039486850D+03  0.6884262226D-01
      0.2921015530D+02  0.2321844432D+00
      0.9286662960D+01  0.4679413484D+00
      0.3163926960D+01  0.3623119853D+00
 SP   3 1.00       0.000000000000
      0.7868272350D+01 -0.1193324198D+00  0.6899906659D-01
      0.1881288540D+01 -0.1608541517D+00  0.3164239610D+00
      0.5442492580D+00  0.1143456438D+01  0.7443082909D+00
 SP   1 1.00       0.000000000000
      0.1687144782D+00  0.1000000000D+01  0.1000000000D+01
 D   1 1.00       0.000000000000
      0.8000000000D+00  0.1000000000D+01
 ****
      8 0
 S   6 1.00       0.000000000000
      0.3047524880D+04  0.1834737132D-02
      0.4573695180D+03  0.1403732281D-01
      0.1039486850D+03  0.6884262226D-01
      0.2921015530D+02  0.2321844432D+00
      0.9286662960D+01  0.4679413484D+00
      0.3163926960D+01  0.3623119853D+00
 SP   3 1.00       0.000000000000
      0.7868272350D+01 -0.1193324198D+00  0.6899906659D-01
      0.1881288540D+01 -0.1608541517D+00  0.3164239610D+00
      0.5442492580D+00  0.1143456438D+01  0.7443082909D+00
 SP   1 1.00       0.000000000000
      0.1687144782D+00  0.1000000000D+01  0.1000000000D+01
 D   1 1.00       0.000000000000
      0.8000000000D+00  0.1000000000D+01
 ****
      9 0
 S   6 1.00       0.000000000000
      0.3047524880D+04  0.1834737132D-02
      0.4573695180D+03  0.1403732281D-01
      0.1039486850D+03  0.6884262226D-01
      0.2921015530D+02  0.2321844432D+00
      0.9286662960D+01  0.4679413484D+00
      0.3163926960D+01  0.3623119853D+00
 SP   3 1.00       0.000000000000
      0.7868272350D+01 -0.1193324198D+00  0.6899906659D-01
      0.1881288540D+01 -0.1608541517D+00  0.3164239610D+00
      0.5442492580D+00  0.1143456438D+01  0.7443082909D+00
 SP   1 1.00       0.000000000000
      0.1687144782D+00  0.1000000000D+01  0.1000000000D+01
 D   1 1.00       0.000000000000
      0.8000000000D+00  0.1000000000D+01
 ****
     10 0
 S   6 1.00       0.000000000000
      0.7001713090D+04  0.1819616901D-02
      0.1051366090D+04  0.1391607961D-01
      0.2392856900D+03  0.6840532453D-01
      0.6739744530D+02  0.2331857601D+00
      0.2151995730D+02  0.4712674392D+00
      0.7403101300D+01  0.3566185462D+00
 SP   3 1.00       0.000000000000
      0.2084795280D+02 -0.1085069751D+00  0.7162872424D-01
      0.4808308340D+01 -0.1464516581D+00  0.3459121027D+00
      0.1344069860D+01  0.1128688581D+01  0.7224699564D+00
 SP   1 1.00       0.000000000000
      0.3581513930D+00  0.1000000000D+01  0.1000000000D+01
 D   1 1.00       0.000000000000
      0.8000000000D+00  0.1000000000D+01
 ****
     11 0
 S   6 1.00       0.000000000000
      0.3047524880D+04  0.1834737132D-02
      0.4573695180D+03  0.1403732281D-01
      0.1039486850D+03  0.6884262226D-01
      0.2921015530D+02  0.2321844432D+00
      0.9286662960D+01  0.4679413484D+00
      0.3163926960D+01  0.3623119853D+00
 SP   3 1.00       0.000000000000
      0.7868272350D+01 -0.1193324198D+00  0.6899906659D-01
      0.1881288540D+01 -0.1608541517D+00  0.3164239610D+00
      0.5442492580D+00  0.1143456438D+01  0.7443082909D+00
 SP   1 1.00       0.000000000000
      0.1687144782D+00  0.1000000000D+01  0.1000000000D+01
 D   1 1.00       0.000000000000
      0.8000000000D+00  0.1000000000D+01
 ****
     12 0
 S   6 1.00       0.000000000000
      0.7001713090D+04  0.1819616901D-02
      0.1051366090D+04  0.1391607961D-01
      0.2392856900D+03  0.6840532453D-01
      0.6739744530D+02  0.2331857601D+00
      0.2151995730D+02  0.4712674392D+00
      0.7403101300D+01  0.3566185462D+00
 SP   3 1.00       0.000000000000
      0.2084795280D+02 -0.1085069751D+00  0.7162872424D-01
      0.4808308340D+01 -0.1464516581D+00  0.3459121027D+00
      0.1344069860D+01  0.1128688581D+01  0.7224699564D+00
 SP   1 1.00       0.000000000000
      0.3581513930D+00  0.1000000000D+01  0.1000000000D+01
 D   1 1.00       0.000000000000
      0.8000000000D+00  0.1000000000D+01
 ****
     13 0
 S   6 1.00       0.000000000000
      0.7001713090D+04  0.1819616901D-02
      0.1051366090D+04  0.1391607961D-01
      0.2392856900D+03  0.6840532453D-01
      0.6739744530D+02  0.2331857601D+00
      0.2151995730D+02  0.4712674392D+00
      0.7403101300D+01  0.3566185462D+00
 SP   3 1.00       0.000000000000
      0.2084795280D+02 -0.1085069751D+00  0.7162872424D-01
      0.4808308340D+01 -0.1464516581D+00  0.3459121027D+00
      0.1344069860D+01  0.1128688581D+01  0.7224699564D+00
 SP   1 1.00       0.000000000000
      0.3581513930D+00  0.1000000000D+01  0.1000000000D+01
 D   1 1.00       0.000000000000
      0.8000000000D+00  0.1000000000D+01
 ****
     14 0
 S   6 1.00       0.000000000000
      0.7001713090D+04  0.1819616901D-02
      0.1051366090D+04  0.1391607961D-01
      0.2392856900D+03  0.6840532453D-01
      0.6739744530D+02  0.2331857601D+00
      0.2151995730D+02  0.4712674392D+00
      0.7403101300D+01  0.3566185462D+00
 SP   3 1.00       0.000000000000
      0.2084795280D+02 -0.1085069751D+00  0.7162872424D-01
      0.4808308340D+01 -0.1464516581D+00  0.3459121027D+00
      0.1344069860D+01  0.1128688581D+01  0.7224699564D+00
 SP   1 1.00       0.000000000000
      0.3581513930D+00  0.1000000000D+01  0.1000000000D+01
 D   1 1.00       0.000000000000
      0.8000000000D+00  0.1000000000D+01
 ****
     15 0
 S   3 1.00       0.000000000000
      0.1873113696D+02  0.3349460434D-01
      0.2825394365D+01  0.2347269535D+00
      0.6401216923D+00  0.8137573261D+00
 S   1 1.00       0.000000000000
      0.1612777588D+00  0.1000000000D+01
 ****
     16 0
 S   3 1.00       0.000000000000
      0.1873113696D+02  0.3349460434D-01
      0.2825394365D+01  0.2347269535D+00
      0.6401216923D+00  0.8137573261D+00
 S   1 1.00       0.000000000000
      0.1612777588D+00  0.1000000000D+01
 ****
     17 0
 S   3 1.00       0.000000000000
      0.1873113696D+02  0.3349460434D-01
      0.2825394365D+01  0.2347269535D+00
      0.6401216923D+00  0.8137573261D+00
 S   1 1.00       0.000000000000
      0.1612777588D+00  0.1000000000D+01
 ****
     18 0
 S   3 1.00       0.000000000000
      0.1873113696D+02  0.3349460434D-01
      0.2825394365D+01  0.2347269535D+00
      0.6401216923D+00  0.8137573261D+00
 S   1 1.00       0.000000000000
      0.1612777588D+00  0.1000000000D+01
 ****
     19 0
 S   3 1.00       0.000000000000
      0.1873113696D+02  0.3349460434D-01
      0.2825394365D+01  0.2347269535D+00
      0.6401216923D+00  0.8137573261D+00
 S   1 1.00       0.000000000000
      0.1612777588D+00  0.1000000000D+01
 ****
     20 0
 S   3 1.00       0.000000000000
      0.1873113696D+02  0.3349460434D-01
      0.2825394365D+01  0.2347269535D+00
      0.6401216923D+00  0.8137573261D+00
 S   1 1.00       0.000000000000
      0.1612777588D+00  0.1000000000D+01
 ****
     21 0
 S   3 1.00       0.000000000000
      0.1873113696D+02  0.3349460434D-01
      0.2825394365D+01  0.2347269535D+00
      0.6401216923D+00  0.8137573261D+00
 S   1 1.00       0.000000000000
      0.1612777588D+00  0.1000000000D+01
 ****
     22 0
 S   3 1.00       0.000000000000
      0.1873113696D+02  0.3349460434D-01
      0.2825394365D+01  0.2347269535D+00
      0.6401216923D+00  0.8137573261D+00
 S   1 1.00       0.000000000000
      0.1612777588D+00  0.1000000000D+01
 ****
     23 0
 S   3 1.00       0.000000000000
      0.1873113696D+02  0.3349460434D-01
      0.2825394365D+01  0.2347269535D+00
      0.6401216923D+00  0.8137573261D+00
 S   1 1.00       0.000000000000
      0.1612777588D+00  0.1000000000D+01
 ****
     24 0
 S   3 1.00       0.000000000000
      0.1873113696D+02  0.3349460434D-01
      0.2825394365D+01  0.2347269535D+00
      0.6401216923D+00  0.8137573261D+00
 S   1 1.00       0.000000000000
      0.1612777588D+00  0.1000000000D+01
 ****
     25 0
 S   3 1.00       0.000000000000
      0.1873113696D+02  0.3349460434D-01
      0.2825394365D+01  0.2347269535D+00
      0.6401216923D+00  0.8137573261D+00
 S   1 1.00       0.000000000000
      0.1612777588D+00  0.1000000000D+01
 ****
     26 0
 S   3 1.00       0.000000000000
      0.1873113696D+02  0.3349460434D-01
      0.2825394365D+01  0.2347269535D+00
      0.6401216923D+00  0.8137573261D+00
 S   1 1.00       0.000000000000
      0.1612777588D+00  0.1000000000D+01
 ****

   234 basis functions,   440 primitive gaussians,   234 cartesian basis functions
    54 alpha electrons       54 beta electrons
       nuclear repulsion energy       924.4380039620 Hartrees.
 IExCor=  402 DFT=T Ex+Corr=B3LYP ExCW=0 ScaHFX=  0.200000
 ScaDFX=  0.800000  0.720000  1.000000  0.810000 ScalE2=  1.000000  1.000000
 IRadAn=      5 IRanWt=     -1 IRanGd=            0 ICorTp=0 IEmpDi=  4
 NAtoms=   26 NActive=   26 NUniq=   26 SFac= 1.00D+00 NAtFMM=   60 NAOKFM=F Big=F
 Integral buffers will be    131072 words long.
 Regular integral format.
 Two-electron integral symmetry is turned off.
 Leave Link  301 at Sat Nov  5 11:15:35 2022, MaxMem=   402653184 cpu:               1.6 elap:               0.2
 (Enter /home/wykgroup/appl/g16/l302.exe)
 NPDir=0 NMtPBC=     1 NCelOv=     1 NCel=       1 NClECP=     1 NCelD=      1
         NCelK=      1 NCelE2=     1 NClLst=     1 CellRange=     0.0.
 One-electron integrals computed using PRISM.
 NBasis=   234 RedAO= T EigKep=  1.12D-03  NBF=   234
 NBsUse=   234 1.00D-06 EigRej= -1.00D+00 NBFU=   234
 Precomputing XC quadrature grid using
 IXCGrd= 4 IRadAn=           5 IRanWt=          -1 IRanGd=           0 AccXCQ= 0.00D+00.
 Generated NRdTot=       0 NPtTot=           0 NUsed=           0 NTot=          32
 NSgBfM=   233   233   233   233   233 MxSgAt=    26 MxSgA2=    26.
 Leave Link  302 at Sat Nov  5 11:15:36 2022, MaxMem=   402653184 cpu:               6.7 elap:               0.7
 (Enter /home/wykgroup/appl/g16/l303.exe)
 DipDrv:  MaxL=1.
 Leave Link  303 at Sat Nov  5 11:15:36 2022, MaxMem=   402653184 cpu:               1.9 elap:               0.2
 (Enter /home/wykgroup/appl/g16/l308.exe)
 Leave Link  308 at Sat Nov  5 11:15:36 2022, MaxMem=   402653184 cpu:               2.1 elap:               0.3
 (Enter /home/wykgroup/appl/g16/l401.exe)
 ExpMin= 1.61D-01 ExpMax= 7.00D+03 ExpMxC= 1.05D+03 IAcc=3 IRadAn=         5 AccDes= 0.00D+00
 Harris functional with IExCor=  402 and IRadAn=       5 diagonalized for initial guess.
 HarFok:  IExCor=  402 AccDes= 0.00D+00 IRadAn=         5 IDoV= 1 UseB2=F ITyADJ=14
 ICtDFT=  3500011 ScaDFX=  1.000000  1.000000  1.000000  1.000000
 FoFCou: FMM=F IPFlag=           0 FMFlag=      100000 FMFlg1=           0
         NFxFlg=           0 DoJE=T BraDBF=F KetDBF=T FulRan=T
         wScrn=  0.000000 ICntrl=       500 IOpCl=  0 I1Cent=   200000004 NGrid=           0
         NMat0=    1 NMatS0=      1 NMatT0=    0 NMatD0=    1 NMtDS0=    0 NMtDT0=    0
 Symmetry not used in FoFCou.
 Harris En= -787.649215283691    
 JPrj=0 DoOrth=F DoCkMO=F.
 Leave Link  401 at Sat Nov  5 11:15:39 2022, MaxMem=   402653184 cpu:              21.9 elap:               2.4
 (Enter /home/wykgroup/appl/g16/l502.exe)
 Two-electron integral symmetry not used.
 Closed shell SCF:
 Using DIIS extrapolation, IDIIS=  1040.
 NGot=   402653184 LenX=   402538254 LenY=   402483057
 Requested convergence on RMS density matrix=1.00D-08 within  32 cycles.
 Requested convergence on MAX density matrix=1.00D-06.
 Requested convergence on             energy=1.00D-06.
 No special actions if energy rises.
 Fock matrices will be formed incrementally for  20 cycles.
 Integral accuracy reduced to 1.0D-05 until final iterations.

 Cycle   1  Pass 0  IDiag  1:
 FoFJK:  IHMeth= 1 ICntrl=       0 DoSepK=F KAlg= 0 I1Cent=           0 FoldK=F
 IRaf= 840000000 NMat=       1 IRICut=       1 DoRegI=T DoRafI=F ISym2E= 0 IDoP0=0 IntGTp=1.
 FoFCou: FMM=F IPFlag=           0 FMFlag=      100000 FMFlg1=           0
         NFxFlg=           0 DoJE=F BraDBF=F KetDBF=F FulRan=T
         wScrn=  0.000000 ICntrl=         0 IOpCl=  0 I1Cent=           0 NGrid=           0
         NMat0=    1 NMatS0=      1 NMatT0=    0 NMatD0=    1 NMtDS0=    0 NMtDT0=    0
 Symmetry not used in FoFCou.
 E= -787.260845034307    
 DIIS: error= 4.82D-02 at cycle   1 NSaved=   1.
 NSaved= 1 IEnMin= 1 EnMin= -787.260845034307     IErMin= 1 ErrMin= 4.82D-02
 ErrMax= 4.82D-02  0.00D+00 EMaxC= 1.00D-01 BMatC= 3.74D-01 BMatP= 3.74D-01
 IDIUse=3 WtCom= 5.18D-01 WtEn= 4.82D-01
 Coeff-Com:  0.100D+01
 Coeff-En:   0.100D+01
 Coeff:      0.100D+01
 Gap=     0.155 Goal=   None    Shift=    0.000
 GapD=    0.155 DampG=1.000 DampE=0.500 DampFc=0.5000 IDamp=-1.
 Damping current iteration by 5.00D-01
 RMSDP=5.33D-03 MaxDP=1.39D-01              OVMax= 2.62D-01

 Cycle   2  Pass 0  IDiag  1:
 RMSU=  2.64D-03    CP:  9.85D-01
 E= -787.410113922072     Delta-E=       -0.149268887764 Rises=F Damp=T
 DIIS: error= 9.09D-03 at cycle   2 NSaved=   2.
 NSaved= 2 IEnMin= 2 EnMin= -787.410113922072     IErMin= 2 ErrMin= 9.09D-03
 ErrMax= 9.09D-03  0.00D+00 EMaxC= 1.00D-01 BMatC= 2.32D-02 BMatP= 3.74D-01
 IDIUse=3 WtCom= 9.09D-01 WtEn= 9.09D-02
 Coeff-Com:  0.970D-01 0.903D+00
 Coeff-En:   0.170D+00 0.830D+00
 Coeff:      0.104D+00 0.896D+00
 Gap=     0.166 Goal=   None    Shift=    0.000
 RMSDP=1.55D-03 MaxDP=4.45D-02 DE=-1.49D-01 OVMax= 2.83D-01

 Cycle   3  Pass 0  IDiag  1:
 RMSU=  1.42D-03    CP:  9.81D-01  7.76D-01
 E= -787.599339290830     Delta-E=       -0.189225368758 Rises=F Damp=F
 DIIS: error= 4.40D-03 at cycle   3 NSaved=   3.
 NSaved= 3 IEnMin= 3 EnMin= -787.599339290830     IErMin= 3 ErrMin= 4.40D-03
 ErrMax= 4.40D-03  0.00D+00 EMaxC= 1.00D-01 BMatC= 1.85D-02 BMatP= 2.32D-02
 IDIUse=3 WtCom= 9.56D-01 WtEn= 4.40D-02
 Coeff-Com:  0.128D-01 0.466D+00 0.521D+00
 Coeff-En:   0.000D+00 0.000D+00 0.100D+01
 Coeff:      0.122D-01 0.445D+00 0.543D+00
 Gap=     0.159 Goal=   None    Shift=    0.000
 RMSDP=8.98D-04 MaxDP=2.78D-02 DE=-1.89D-01 OVMax= 1.21D-01

 Cycle   4  Pass 0  IDiag  1:
 RMSU=  5.89D-04    CP:  9.82D-01  8.63D-01  5.53D-01
 E= -787.614102657338     Delta-E=       -0.014763366509 Rises=F Damp=F
 DIIS: error= 2.66D-03 at cycle   4 NSaved=   4.
 NSaved= 4 IEnMin= 4 EnMin= -787.614102657338     IErMin= 4 ErrMin= 2.66D-03
 ErrMax= 2.66D-03  0.00D+00 EMaxC= 1.00D-01 BMatC= 4.06D-03 BMatP= 1.85D-02
 IDIUse=3 WtCom= 9.73D-01 WtEn= 2.66D-02
 Coeff-Com: -0.718D-02 0.966D-01 0.328D+00 0.582D+00
 Coeff-En:   0.000D+00 0.000D+00 0.212D+00 0.788D+00
 Coeff:     -0.699D-02 0.941D-01 0.325D+00 0.588D+00
 Gap=     0.157 Goal=   None    Shift=    0.000
 RMSDP=3.57D-04 MaxDP=1.29D-02 DE=-1.48D-02 OVMax= 4.81D-02

 Cycle   5  Pass 0  IDiag  1:
 RMSU=  1.72D-04    CP:  9.82D-01  8.35D-01  6.84D-01  5.92D-01
 E= -787.617924032570     Delta-E=       -0.003821375231 Rises=F Damp=F
 DIIS: error= 8.79D-04 at cycle   5 NSaved=   5.
 NSaved= 5 IEnMin= 5 EnMin= -787.617924032570     IErMin= 5 ErrMin= 8.79D-04
 ErrMax= 8.79D-04  0.00D+00 EMaxC= 1.00D-01 BMatC= 5.25D-04 BMatP= 4.06D-03
 IDIUse=3 WtCom= 9.91D-01 WtEn= 8.79D-03
 Coeff-Com: -0.496D-02 0.238D-01 0.162D+00 0.364D+00 0.456D+00
 Coeff-En:   0.000D+00 0.000D+00 0.000D+00 0.623D-01 0.938D+00
 Coeff:     -0.492D-02 0.236D-01 0.160D+00 0.361D+00 0.460D+00
 Gap=     0.158 Goal=   None    Shift=    0.000
 RMSDP=1.20D-04 MaxDP=3.59D-03 DE=-3.82D-03 OVMax= 1.26D-02

 Cycle   6  Pass 0  IDiag  1:
 RMSU=  5.93D-05    CP:  9.82D-01  8.44D-01  6.73D-01  6.47D-01  4.48D-01
 E= -787.618407504709     Delta-E=       -0.000483472139 Rises=F Damp=F
 DIIS: error= 2.52D-04 at cycle   6 NSaved=   6.
 NSaved= 6 IEnMin= 6 EnMin= -787.618407504709     IErMin= 6 ErrMin= 2.52D-04
 ErrMax= 2.52D-04  0.00D+00 EMaxC= 1.00D-01 BMatC= 3.79D-05 BMatP= 5.25D-04
 IDIUse=3 WtCom= 9.97D-01 WtEn= 2.52D-03
 Coeff-Com: -0.181D-02 0.393D-02 0.588D-01 0.143D+00 0.264D+00 0.532D+00
 Coeff-En:   0.000D+00 0.000D+00 0.000D+00 0.000D+00 0.324D-01 0.968D+00
 Coeff:     -0.180D-02 0.392D-02 0.586D-01 0.142D+00 0.264D+00 0.533D+00
 Gap=     0.158 Goal=   None    Shift=    0.000
 RMSDP=3.36D-05 MaxDP=1.35D-03 DE=-4.83D-04 OVMax= 3.35D-03

 Cycle   7  Pass 0  IDiag  1:
 RMSU=  1.82D-05    CP:  9.82D-01  8.44D-01  6.76D-01  6.44D-01  5.47D-01
                    CP:  6.30D-01
 E= -787.618443561009     Delta-E=       -0.000036056300 Rises=F Damp=F
 DIIS: error= 9.84D-05 at cycle   7 NSaved=   7.
 NSaved= 7 IEnMin= 7 EnMin= -787.618443561009     IErMin= 7 ErrMin= 9.84D-05
 ErrMax= 9.84D-05  0.00D+00 EMaxC= 1.00D-01 BMatC= 4.22D-06 BMatP= 3.79D-05
 IDIUse=1 WtCom= 1.00D+00 WtEn= 0.00D+00
 Coeff-Com: -0.608D-03-0.205D-03 0.203D-01 0.511D-01 0.118D+00 0.325D+00
 Coeff-Com:  0.487D+00
 Coeff:     -0.608D-03-0.205D-03 0.203D-01 0.511D-01 0.118D+00 0.325D+00
 Coeff:      0.487D+00
 Gap=     0.158 Goal=   None    Shift=    0.000
 RMSDP=9.90D-06 MaxDP=3.85D-04 DE=-3.61D-05 OVMax= 8.66D-04

 Initial convergence to 1.0D-05 achieved.  Increase integral accuracy.
 Cycle   8  Pass 1  IDiag  1:
 E= -787.618467025842     Delta-E=       -0.000023464833 Rises=F Damp=F
 DIIS: error= 3.66D-05 at cycle   1 NSaved=   1.
 NSaved= 1 IEnMin= 1 EnMin= -787.618467025842     IErMin= 1 ErrMin= 3.66D-05
 ErrMax= 3.66D-05  0.00D+00 EMaxC= 1.00D-01 BMatC= 2.04D-07 BMatP= 2.04D-07
 IDIUse=1 WtCom= 1.00D+00 WtEn= 0.00D+00
 Coeff-Com:  0.100D+01
 Coeff:      0.100D+01
 Gap=     0.158 Goal=   None    Shift=    0.000
 RMSDP=9.90D-06 MaxDP=3.85D-04 DE=-2.35D-05 OVMax= 2.55D-04

 Cycle   9  Pass 1  IDiag  1:
 RMSU=  6.50D-06    CP:  1.00D+00
 E= -787.618466999792     Delta-E=        0.000000026050 Rises=F Damp=F
 DIIS: error= 4.59D-05 at cycle   2 NSaved=   2.
 NSaved= 2 IEnMin= 1 EnMin= -787.618467025842     IErMin= 1 ErrMin= 3.66D-05
 ErrMax= 4.59D-05  0.00D+00 EMaxC= 1.00D-01 BMatC= 2.41D-07 BMatP= 2.04D-07
 IDIUse=1 WtCom= 1.00D+00 WtEn= 0.00D+00
 Coeff-Com:  0.524D+00 0.476D+00
 Coeff:      0.524D+00 0.476D+00
 Gap=     0.158 Goal=   None    Shift=    0.000
 RMSDP=2.27D-06 MaxDP=8.32D-05 DE= 2.60D-08 OVMax= 1.70D-04

 Cycle  10  Pass 1  IDiag  1:
 RMSU=  2.06D-06    CP:  1.00D+00  8.53D-01
 E= -787.618467170500     Delta-E=       -0.000000170708 Rises=F Damp=F
 DIIS: error= 5.66D-06 at cycle   3 NSaved=   3.
 NSaved= 3 IEnMin= 3 EnMin= -787.618467170500     IErMin= 3 ErrMin= 5.66D-06
 ErrMax= 5.66D-06  0.00D+00 EMaxC= 1.00D-01 BMatC= 1.74D-08 BMatP= 2.04D-07
 IDIUse=1 WtCom= 1.00D+00 WtEn= 0.00D+00
 Coeff-Com:  0.120D+00 0.230D+00 0.649D+00
 Coeff:      0.120D+00 0.230D+00 0.649D+00
 Gap=     0.158 Goal=   None    Shift=    0.000
 RMSDP=8.44D-07 MaxDP=2.95D-05 DE=-1.71D-07 OVMax= 8.45D-05

 Cycle  11  Pass 1  IDiag  1:
 RMSU=  6.42D-07    CP:  1.00D+00  8.84D-01  7.51D-01
 E= -787.618467182786     Delta-E=       -0.000000012286 Rises=F Damp=F
 DIIS: error= 3.49D-06 at cycle   4 NSaved=   4.
 NSaved= 4 IEnMin= 4 EnMin= -787.618467182786     IErMin= 4 ErrMin= 3.49D-06
 ErrMax= 3.49D-06  0.00D+00 EMaxC= 1.00D-01 BMatC= 4.82D-09 BMatP= 1.74D-08
 IDIUse=1 WtCom= 1.00D+00 WtEn= 0.00D+00
 Coeff-Com:  0.632D-02 0.774D-01 0.411D+00 0.505D+00
 Coeff:      0.632D-02 0.774D-01 0.411D+00 0.505D+00
 Gap=     0.158 Goal=   None    Shift=    0.000
 RMSDP=3.72D-07 MaxDP=1.05D-05 DE=-1.23D-08 OVMax= 3.73D-05

 Cycle  12  Pass 1  IDiag  1:
 RMSU=  1.66D-07    CP:  1.00D+00  8.84D-01  8.16D-01  5.25D-01
 E= -787.618467187625     Delta-E=       -0.000000004839 Rises=F Damp=F
 DIIS: error= 7.54D-07 at cycle   5 NSaved=   5.
 NSaved= 5 IEnMin= 5 EnMin= -787.618467187625     IErMin= 5 ErrMin= 7.54D-07
 ErrMax= 7.54D-07  0.00D+00 EMaxC= 1.00D-01 BMatC= 3.79D-10 BMatP= 4.82D-09
 IDIUse=1 WtCom= 1.00D+00 WtEn= 0.00D+00
 Coeff-Com: -0.388D-02 0.336D-01 0.219D+00 0.314D+00 0.438D+00
 Coeff:     -0.388D-02 0.336D-01 0.219D+00 0.314D+00 0.438D+00
 Gap=     0.158 Goal=   None    Shift=    0.000
 RMSDP=9.31D-08 MaxDP=3.22D-06 DE=-4.84D-09 OVMax= 9.82D-06

 Cycle  13  Pass 1  IDiag  1:
 RMSU=  5.21D-08    CP:  1.00D+00  8.85D-01  8.18D-01  5.68D-01  5.67D-01
 E= -787.618467187982     Delta-E=       -0.000000000356 Rises=F Damp=F
 DIIS: error= 1.45D-07 at cycle   6 NSaved=   6.
 NSaved= 6 IEnMin= 6 EnMin= -787.618467187982     IErMin= 6 ErrMin= 1.45D-07
 ErrMax= 1.45D-07  0.00D+00 EMaxC= 1.00D-01 BMatC= 1.51D-11 BMatP= 3.79D-10
 IDIUse=1 WtCom= 1.00D+00 WtEn= 0.00D+00
 Coeff-Com: -0.216D-02 0.124D-01 0.885D-01 0.131D+00 0.226D+00 0.544D+00
 Coeff:     -0.216D-02 0.124D-01 0.885D-01 0.131D+00 0.226D+00 0.544D+00
 Gap=     0.158 Goal=   None    Shift=    0.000
 RMSDP=2.51D-08 MaxDP=9.04D-07 DE=-3.56D-10 OVMax= 3.37D-06

 Cycle  14  Pass 1  IDiag  1:
 RMSU=  1.95D-08    CP:  1.00D+00  8.85D-01  8.17D-01  5.58D-01  6.19D-01
                    CP:  8.05D-01
 E= -787.618467187994     Delta-E=       -0.000000000013 Rises=F Damp=F
 DIIS: error= 6.82D-08 at cycle   7 NSaved=   7.
 NSaved= 7 IEnMin= 7 EnMin= -787.618467187994     IErMin= 7 ErrMin= 6.82D-08
 ErrMax= 6.82D-08  0.00D+00 EMaxC= 1.00D-01 BMatC= 3.43D-12 BMatP= 1.51D-11
 IDIUse=1 WtCom= 1.00D+00 WtEn= 0.00D+00
 Coeff-Com: -0.486D-03-0.386D-03 0.271D-02 0.470D-02 0.284D-01 0.337D+00
 Coeff-Com:  0.628D+00
 Coeff:     -0.486D-03-0.386D-03 0.271D-02 0.470D-02 0.284D-01 0.337D+00
 Coeff:      0.628D+00
 Gap=     0.158 Goal=   None    Shift=    0.000
 RMSDP=1.00D-08 MaxDP=2.55D-07 DE=-1.25D-11 OVMax= 9.56D-07

 Cycle  15  Pass 1  IDiag  1:
 RMSU=  4.89D-09    CP:  1.00D+00  8.85D-01  8.19D-01  5.63D-01  6.20D-01
                    CP:  9.30D-01  8.02D-01
 E= -787.618467188000     Delta-E=       -0.000000000006 Rises=F Damp=F
 DIIS: error= 3.12D-08 at cycle   8 NSaved=   8.
 NSaved= 8 IEnMin= 8 EnMin= -787.618467188000     IErMin= 8 ErrMin= 3.12D-08
 ErrMax= 3.12D-08  0.00D+00 EMaxC= 1.00D-01 BMatC= 2.36D-13 BMatP= 3.43D-12
 IDIUse=1 WtCom= 1.00D+00 WtEn= 0.00D+00
 Coeff-Com:  0.174D-04-0.168D-02-0.877D-02-0.129D-01-0.119D-01 0.121D+00
 Coeff-Com:  0.313D+00 0.602D+00
 Coeff:      0.174D-04-0.168D-02-0.877D-02-0.129D-01-0.119D-01 0.121D+00
 Coeff:      0.313D+00 0.602D+00
 Gap=     0.158 Goal=   None    Shift=    0.000
 RMSDP=2.36D-09 MaxDP=6.72D-08 DE=-5.91D-12 OVMax= 1.67D-07

 SCF Done:  E(RB3LYP) =  -787.618467188     A.U. after   15 cycles
            NFock= 15  Conv=0.24D-08     -V/T= 2.0082
 KE= 7.812109235937D+02 PE=-3.699141084517D+03 EE= 1.205873689773D+03
 Leave Link  502 at Sat Nov  5 11:15:59 2022, MaxMem=   402653184 cpu:             212.5 elap:              20.1
 (Enter /home/wykgroup/appl/g16/l508.exe)
 QCSCF skips out because SCF is already converged.
 Leave Link  508 at Sat Nov  5 11:15:59 2022, MaxMem=   402653184 cpu:               0.4 elap:               0.1
 (Enter /home/wykgroup/appl/g16/l801.exe)
 DoSCS=F DFT=T ScalE2(SS,OS)=  1.000000  1.000000
 ExpMin= 1.61D-01 ExpMax= 7.00D+03 ExpMxC= 1.05D+03 IAcc=3 IRadAn=         5 AccDes= 0.00D+00
 HarFok:  IExCor=  205 AccDes= 0.00D+00 IRadAn=         5 IDoV=-2 UseB2=F ITyADJ=14
 ICtDFT= 12500011 ScaDFX=  1.000000  1.000000  1.000000  1.000000
 Largest valence mixing into a core orbital is  6.88D-05
 Largest core mixing into a valence orbital is  1.32D-05
 Range of M.O.s used for correlation:    15   234
 NBasis=   234 NAE=    54 NBE=    54 NFC=    14 NFV=     0
 NROrb=    220 NOA=    40 NOB=    40 NVA=   180 NVB=   180

 **** Warning!!: The largest alpha MO coefficient is  0.11327797D+02

 Leave Link  801 at Sat Nov  5 11:15:59 2022, MaxMem=   402653184 cpu:               2.5 elap:               0.3
 (Enter /home/wykgroup/appl/g16/l914.exe)
 RHF ground state
 Two-electron integral symmetry not used.
 MDV=   402653184 DFT=T DoStab=F Mixed=T DoRPA=T DoScal=F NonHer=T
 Making orbital integer symmetry assigments:
    16 initial guesses have been made.
 Convergence on wavefunction:    0.001000000000000
 Davidson Disk Diagonalization:  ConvIn= 1.00D-03 SkipCon=T Conv= 1.00D-03.
 Max sub-space:  2000 roots to seek:    16 dimension of matrix:        14400
 Iteration     1 Dimension    16 NMult     0 NNew     16
 CISAX will form    16 AO SS matrices at one time.
 NMat=    16 NSing=     8 JSym2X= 0.
 FoFJK:  IHMeth= 1 ICntrl=       0 DoSepK=F KAlg= 0 I1Cent=           0 FoldK=F
 IRaf= 840000000 NMat=      32 IRICut=      40 DoRegI=T DoRafI=T ISym2E= 0 IDoP0=0 IntGTp=1.
 FoFCou: FMM=F IPFlag=           0 FMFlag=      100000 FMFlg1=           0
         NFxFlg=           0 DoJE=F BraDBF=F KetDBF=F FulRan=T
         wScrn=  0.000000 ICntrl=         0 IOpCl=  0 I1Cent=           0 NGrid=           0
         NMat0=   32 NMatS0=      8 NMatT0=    8 NMatD0=   32 NMtDS0=    0 NMtDT0=    0
 Symmetry not used in FoFCou.
 Raff kept on since  81.57% of shell-pairs survive, threshold=   0.20 IRatSp=82.
 New state      1 was old state      2
 New state      2 was old state      4
 New state      3 was old state      1
 New state      4 was old state      8
 New state      5 was old state      6
 New state      6 was old state      3
 New state      7 was old state     10
 New state      8 was old state     12
 Excitation Energies [eV] at current iteration:
 Root      1 :     2.493391863725794
 Root      2 :     4.119440146919969
 Root      3 :     4.848981513775581
 Root      4 :     5.094980366924101
 Root      5 :     5.419564108759175
 Root      6 :     5.453242098573023
 Root      7 :     6.316435847790741
 Root      8 :     6.491226289148472
 Root      9 :     6.607193006332714
 Root     10 :     6.710461919913250
 Root     11 :     6.864781577755988
 Root     12 :     7.020011023405842
 Root     13 :     7.078171377778934
 Root     14 :     7.425801623975170
 Root     15 :     8.245282767346024
 Root     16 :     9.481031736854346
 Vector   4 SDiff=3.12D+00 TDiff=7.49D+00 assumed to be singlet.
 Vector   8 SDiff=3.13D+00 TDiff=6.43D+00 assumed to be singlet.
 Iteration     2 Dimension    24 NMult    16 NNew      8
 CISAX will form     8 AO SS matrices at one time.
 NMat=     8 NSing=     4 JSym2X= 0.
 Root      1 not converged, maximum delta is    0.129904676516607
 Root      2 not converged, maximum delta is    0.111355875037926
 Root      3 not converged, maximum delta is    0.133283781992571
 New state      4 was old state      6
 Root      4 not converged, maximum delta is    0.110868226767216
 Excitation Energies [eV] at current iteration:
 Root      1 :     2.151974099012895   Change is   -0.341417764712899
 Root      2 :     3.807079594318217   Change is   -0.312360552601752
 Root      3 :     4.307258681946716   Change is   -0.541722831828865
 Root      4 :     5.295009953615899   Change is   -0.158232144957123
 Iteration     3 Dimension    32 NMult    24 NNew      8
 CISAX will form     8 AO SS matrices at one time.
 NMat=     8 NSing=     4 JSym2X= 0.
 Root      1 not converged, maximum delta is    0.006932411699918
 Root      2 not converged, maximum delta is    0.012254577114198
 Root      3 not converged, maximum delta is    0.011975492936766
 Root      4 not converged, maximum delta is    0.024723641665852
 Excitation Energies [eV] at current iteration:
 Root      1 :     2.143354487213545   Change is   -0.008619611799350
 Root      2 :     3.788649145618848   Change is   -0.018430448699369
 Root      3 :     4.278577884541365   Change is   -0.028680797405351
 Root      4 :     5.272764294759066   Change is   -0.022245658856832
 Iteration     4 Dimension    40 NMult    32 NNew      8
 CISAX will form     8 AO SS matrices at one time.
 NMat=     8 NSing=     4 JSym2X= 0.
 Root      1 has converged.
 Root      2 not converged, maximum delta is    0.001586086277047
 Root      3 not converged, maximum delta is    0.004312351853240
 Root      4 not converged, maximum delta is    0.002898734082700
 Excitation Energies [eV] at current iteration:
 Root      1 :     2.143162641083016   Change is   -0.000191846130529
 Root      2 :     3.788022341647304   Change is   -0.000626803971543
 Root      3 :     4.275903832936843   Change is   -0.002674051604522
 Root      4 :     5.271154587439121   Change is   -0.001609707319945
 Iteration     5 Dimension    46 NMult    40 NNew      6
 CISAX will form     6 AO SS matrices at one time.
 NMat=     6 NSing=     4 JSym2X= 0.
 Root      1 has converged.
 Root      2 has converged.
 Root      3 has converged.
 Root      4 has converged.
 Excitation Energies [eV] at current iteration:
 Root      1 :     2.143162346839669   Change is   -0.000000294243347
 Root      2 :     3.787998092061256   Change is   -0.000024249586048
 Root      3 :     4.275697840386393   Change is   -0.000205992550450
 Root      4 :     5.270960135578087   Change is   -0.000194451861035
 Convergence achieved on expansion vectors.
 ***********************************************************************
 Excited states from <AA,BB:AA,BB> singles matrix:
 ***********************************************************************
 
 1PDM for each excited state written to RWF  633
 Ground to excited state transition densities written to RWF  633
 Ground to excited state transition electric dipole moments (Au):
       state          X           Y           Z        Dip. S.      Osc.
         1         0.0000      0.0000      0.0000      0.0000      0.0000
         2         0.0000     -0.0000      0.0000      0.0000      0.0000
         3         2.4915      0.1906      0.0761      6.2498      0.6547
         4        -0.7233      0.0906      0.2824      0.6112      0.0789
 Ground to excited state transition velocity dipole moments (Au):
       state          X           Y           Z        Dip. S.      Osc.
         1        -0.0000     -0.0000      0.0000      0.0000      0.0000
         2        -0.0000      0.0000     -0.0000      0.0000      0.0000
         3        -0.3817     -0.0280     -0.0104      0.1466      0.6219
         4         0.1361     -0.0173     -0.0546      0.0218      0.0751
 Ground to excited state transition magnetic dipole moments (Au):
       state          X           Y           Z
         1        -0.0000     -0.0000     -0.0000
         2         0.0000      0.0000      0.0000
         3        -0.0710      1.0528     -0.2213
         4        -0.0235     -0.0769     -0.0831
 Ground to excited state transition velocity quadrupole moments (Au):
       state          XX          YY          ZZ          XY          XZ          YZ
         1         0.0000      0.0000      0.0000     -0.0000     -0.0000      0.0000
         2        -0.0000     -0.0000     -0.0000     -0.0000     -0.0000     -0.0000
         3        -0.0663     -0.0601     -0.2618     -0.2800     -0.3079     -0.1248
         4        -0.5850     -0.0465      0.1622     -0.1157     -0.0685      0.0323
 <0|del|b> * <b|rxdel|0> + <0|del|b> * <b|delr+rdel|0>
 Rotatory Strengths (R) in cgs (10**-40 erg-esu-cm/Gauss)
       state          XX          YY          ZZ    R(velocity)    E-M Angle
         1        -0.0000      0.0000      0.0000      0.0000       90.00
         2         0.0000      0.0000     -0.0000     -0.0000       90.00
         3       -74.1359    166.8256    -93.1558     -0.1554       90.01
         4        20.0653     -1.0648     -9.3038      3.2322       81.05
 1/2[<0|r|b>*<b|rxdel|0> + (<0|rxdel|b>*<b|r|0>)*]
 Rotatory Strengths (R) in cgs (10**-40 erg-esu-cm/Gauss)
       state          XX          YY          ZZ     R(length)
         1         0.0000      0.0000      0.0000      0.0000
         2        -0.0000      0.0000     -0.0000     -0.0000
         3       125.1597   -141.9274     11.9015     -1.6221
         4       -12.0445      4.9232     16.5900      3.1563
  1/2[<0|del|b>*<b|r|0> + (<0|r|b>*<b|del|0>)*] (Au)
       state          X           Y           Z        Dip. S.   Osc.(frdel)
         1        -0.0000     -0.0000      0.0000      0.0000      0.0000
         2        -0.0000     -0.0000     -0.0000      0.0000      0.0000
         3        -0.9510     -0.0053     -0.0008      0.9571      0.6381
         4        -0.0985     -0.0016     -0.0154      0.1155      0.0770

 Excitation energies and oscillator strengths:
 
 Excited state symmetry could not be determined.
 Excited State   1:      Triplet-?Sym    2.1432 eV  578.51 nm  f=0.0000  <S**2>=2.000
      53 -> 56         0.12200
      54 -> 55         0.70124
      54 <- 55         0.14185
 This state for optimization and/or second-order correction.
 Total Energy, E(TD-HF/TD-DFT) =  -787.539707421    
 Copying the excited state density for this state as the 1-particle RhoCI density.
 
 Excited state symmetry could not be determined.
 Excited State   2:      Triplet-?Sym    3.7880 eV  327.31 nm  f=0.0000  <S**2>=2.000
      53 -> 55         0.54276
      53 -> 56         0.13097
      54 -> 56         0.41352
 
 Excited state symmetry could not be determined.
 Excited State   3:      Singlet-?Sym    4.2757 eV  289.97 nm  f=0.6547  <S**2>=0.000
      54 -> 55         0.70092
 
 Excited state symmetry could not be determined.
 Excited State   4:      Singlet-?Sym    5.2710 eV  235.22 nm  f=0.0789  <S**2>=0.000
      53 -> 55         0.62362
      54 -> 56        -0.31467
 SavETr:  write IOETrn=   770 NScale= 10 NData=  16 NLR=1 NState=    4 LETran=      82.
 Leave Link  914 at Sat Nov  5 11:17:07 2022, MaxMem=   402653184 cpu:             777.7 elap:              68.0
 (Enter /home/wykgroup/appl/g16/l601.exe)
 Copying SCF densities to generalized density rwf, IOpCl= 0 IROHF=0.

 **********************************************************************

            Population analysis using the SCF Density.

 **********************************************************************

 Alpha  occ. eigenvalues --  -24.72023 -24.71441 -24.71414 -24.69996 -10.42585
 Alpha  occ. eigenvalues --  -10.27771 -10.21594 -10.21292 -10.20877 -10.20020
 Alpha  occ. eigenvalues --  -10.19460 -10.19418 -10.19121 -10.18987  -1.29352
 Alpha  occ. eigenvalues --   -1.21077  -1.20809  -1.20285  -0.84622  -0.81868
 Alpha  occ. eigenvalues --   -0.77860  -0.73161  -0.70669  -0.70460  -0.66667
 Alpha  occ. eigenvalues --   -0.61618  -0.58440  -0.57140  -0.56755  -0.54109
 Alpha  occ. eigenvalues --   -0.50898  -0.49880  -0.48653  -0.46878  -0.46286
 Alpha  occ. eigenvalues --   -0.44980  -0.44929  -0.44314  -0.43047  -0.41954
 Alpha  occ. eigenvalues --   -0.41179  -0.40906  -0.40748  -0.39643  -0.39590
 Alpha  occ. eigenvalues --   -0.39059  -0.38779  -0.37338  -0.37174  -0.36321
 Alpha  occ. eigenvalues --   -0.34001  -0.32569  -0.27036  -0.21140
 Alpha virt. eigenvalues --   -0.05357   0.03180   0.06733   0.08069   0.09616
 Alpha virt. eigenvalues --    0.11488   0.12647   0.13126   0.14470   0.15139
 Alpha virt. eigenvalues --    0.16179   0.16549   0.17090   0.17625   0.19975
 Alpha virt. eigenvalues --    0.20984   0.21386   0.21715   0.23042   0.23294
 Alpha virt. eigenvalues --    0.23489   0.24965   0.29227   0.33771   0.37389
 Alpha virt. eigenvalues --    0.40801   0.41791   0.43729   0.48133   0.49462
 Alpha virt. eigenvalues --    0.50635   0.51813   0.53364   0.54215   0.54622
 Alpha virt. eigenvalues --    0.55593   0.56415   0.56829   0.57911   0.59247
 Alpha virt. eigenvalues --    0.60986   0.62075   0.63972   0.65017   0.66602
 Alpha virt. eigenvalues --    0.67705   0.71438   0.71824   0.72465   0.74572
 Alpha virt. eigenvalues --    0.76517   0.77639   0.78866   0.81256   0.84130
 Alpha virt. eigenvalues --    0.84801   0.86175   0.86839   0.87524   0.88145
 Alpha virt. eigenvalues --    0.88698   0.89592   0.91382   0.93429   0.94361
 Alpha virt. eigenvalues --    0.95145   0.96554   1.00779   1.00935   1.01768
 Alpha virt. eigenvalues --    1.04294   1.07872   1.09227   1.11310   1.12595
 Alpha virt. eigenvalues --    1.13446   1.17155   1.17510   1.21202   1.22881
 Alpha virt. eigenvalues --    1.25685   1.26810   1.30435   1.32665   1.34262
 Alpha virt. eigenvalues --    1.35093   1.36411   1.39129   1.39973   1.40937
 Alpha virt. eigenvalues --    1.41658   1.42492   1.43360   1.43575   1.46634
 Alpha virt. eigenvalues --    1.47157   1.51240   1.53210   1.55816   1.62973
 Alpha virt. eigenvalues --    1.66180   1.69914   1.72115   1.73055   1.75624
 Alpha virt. eigenvalues --    1.77428   1.81054   1.81244   1.82703   1.83514
 Alpha virt. eigenvalues --    1.83953   1.84761   1.85679   1.86634   1.88805
 Alpha virt. eigenvalues --    1.89960   1.91459   1.93573   1.95710   1.96757
 Alpha virt. eigenvalues --    1.98565   1.98876   2.00419   2.02701   2.04452
 Alpha virt. eigenvalues --    2.05165   2.06324   2.07687   2.08646   2.11036
 Alpha virt. eigenvalues --    2.12359   2.13920   2.17176   2.19883   2.21088
 Alpha virt. eigenvalues --    2.22001   2.22951   2.26812   2.28393   2.31529
 Alpha virt. eigenvalues --    2.35512   2.36166   2.40215   2.40643   2.42518
 Alpha virt. eigenvalues --    2.44878   2.48963   2.49895   2.50616   2.53689
 Alpha virt. eigenvalues --    2.58231   2.60318   2.67218   2.68227   2.75290
 Alpha virt. eigenvalues --    2.78513   2.85136   2.87084   2.98351   3.00007
 Alpha virt. eigenvalues --    3.03560   3.05126   3.07319   3.13114   3.18590
 Alpha virt. eigenvalues --    3.24700   4.06552   4.09933   4.12541   4.18266
 Alpha virt. eigenvalues --    4.21068   4.27439   4.31727   4.34825   4.40794
 Alpha virt. eigenvalues --    4.51009   4.63411   4.85164   4.86965   5.56858
          Condensed to atoms (all electrons):
               1          2          3          4          5          6
     1  C    5.189189   0.380257  -0.087918  -0.050834  -0.017766   0.000826
     2  C    0.380257   4.682979   0.359998   0.640303  -0.020091   0.003677
     3  C   -0.087918   0.359998   5.175226  -0.018445   0.006521  -0.000259
     4  C   -0.050834   0.640303  -0.018445   4.950389   0.394740  -0.030411
     5  C   -0.017766  -0.020091   0.006521   0.394740   5.056322   0.539161
     6  C    0.000826   0.003677  -0.000259  -0.030411   0.539161   5.133992
     7  C    0.000013  -0.000160   0.000001   0.006297  -0.045730   0.303439
     8  C    0.000003  -0.000005   0.000000   0.000333  -0.009881  -0.015705
     9  C   -0.000017   0.000000  -0.000000  -0.000078  -0.001054  -0.008020
    10  F   -0.000000   0.000000   0.000000  -0.000000  -0.000000   0.003015
    11  C   -0.000004   0.000152   0.000012  -0.007862  -0.017934   0.315909
    12  F   -0.000000   0.000262  -0.000000   0.002651  -0.008143  -0.039063
    13  F    0.000000   0.000265  -0.000002   0.002467  -0.010623  -0.039323
    14  F    0.000000  -0.000000  -0.000000   0.000022   0.003260  -0.050034
    15  H    0.364877  -0.031414  -0.002139   0.000227   0.000425   0.000004
    16  H    0.363756  -0.031816  -0.002062   0.000518   0.000255  -0.000015
    17  H    0.360384  -0.022366   0.005074  -0.008978   0.002800   0.000179
    18  H    0.005036  -0.029287   0.365334  -0.004211   0.000063   0.000015
    19  H   -0.000965  -0.032357   0.363052  -0.001311  -0.000163   0.000003
    20  H   -0.000900  -0.031720   0.362751  -0.001445  -0.000125   0.000007
    21  H    0.007081  -0.036681  -0.014288   0.345778  -0.052026  -0.013837
    22  H    0.002968  -0.008983   0.000093  -0.048441   0.355878  -0.047070
    23  H    0.000000   0.000002  -0.000000  -0.000093   0.003301  -0.045636
    24  H    0.000027  -0.000057  -0.000000   0.000244   0.007046   0.002022
    25  H    0.000000  -0.000001   0.000000   0.000001   0.000419   0.000258
    26  H   -0.000011   0.000011   0.000000  -0.000047  -0.001230   0.000744
               7          8          9         10         11         12
     1  C    0.000013   0.000003  -0.000017  -0.000000  -0.000004  -0.000000
     2  C   -0.000160  -0.000005   0.000000   0.000000   0.000152   0.000262
     3  C    0.000001   0.000000  -0.000000   0.000000   0.000012  -0.000000
     4  C    0.006297   0.000333  -0.000078  -0.000000  -0.007862   0.002651
     5  C   -0.045730  -0.009881  -0.001054  -0.000000  -0.017934  -0.008143
     6  C    0.303439  -0.015705  -0.008020   0.003015   0.315909  -0.039063
     7  C    5.261739   0.575568  -0.092222  -0.029703  -0.037615   0.001070
     8  C    0.575568   4.469031   0.377980   0.274419   0.002000  -0.000023
     9  C   -0.092222   0.377980   5.248820  -0.055756  -0.000130  -0.000000
    10  F   -0.029703   0.274419  -0.055756   9.099868  -0.000012   0.000000
    11  C   -0.037615   0.002000  -0.000130  -0.000012   4.118304   0.260575
    12  F    0.001070  -0.000023  -0.000000   0.000000   0.260575   9.128505
    13  F    0.002510   0.000043   0.000002  -0.000000   0.259591  -0.038707
    14  F    0.006288   0.000675  -0.000001   0.000000   0.297815  -0.037433
    15  H   -0.000000  -0.000000   0.000000   0.000000   0.000000  -0.000000
    16  H    0.000000   0.000000  -0.000000  -0.000000   0.000000   0.000000
    17  H   -0.000025  -0.000010  -0.000005   0.000000   0.000003   0.000000
    18  H    0.000000  -0.000000  -0.000000   0.000000  -0.000009  -0.000008
    19  H   -0.000000   0.000000  -0.000000  -0.000000   0.000000  -0.000000
    20  H   -0.000000  -0.000000   0.000000   0.000000  -0.000000  -0.000000
    21  H    0.000001   0.000001  -0.000002  -0.000000   0.008694   0.005098
    22  H   -0.006965   0.001402   0.000953  -0.000053   0.004207  -0.000084
    23  H    0.335037  -0.024499   0.006833  -0.001655  -0.004397   0.000211
    24  H    0.000342  -0.021790   0.349298   0.002198  -0.000050   0.000001
    25  H    0.001785  -0.027527   0.354417   0.001831   0.000011   0.000000
    26  H    0.000304  -0.025326   0.360048   0.001048  -0.000002   0.000000
              13         14         15         16         17         18
     1  C    0.000000   0.000000   0.364877   0.363756   0.360384   0.005036
     2  C    0.000265  -0.000000  -0.031414  -0.031816  -0.022366  -0.029287
     3  C   -0.000002  -0.000000  -0.002139  -0.002062   0.005074   0.365334
     4  C    0.002467   0.000022   0.000227   0.000518  -0.008978  -0.004211
     5  C   -0.010623   0.003260   0.000425   0.000255   0.002800   0.000063
     6  C   -0.039323  -0.050034   0.000004  -0.000015   0.000179   0.000015
     7  C    0.002510   0.006288  -0.000000   0.000000  -0.000025   0.000000
     8  C    0.000043   0.000675  -0.000000   0.000000  -0.000010  -0.000000
     9  C    0.000002  -0.000001   0.000000  -0.000000  -0.000005  -0.000000
    10  F   -0.000000   0.000000   0.000000  -0.000000   0.000000   0.000000
    11  C    0.259591   0.297815   0.000000   0.000000   0.000003  -0.000009
    12  F   -0.038707  -0.037433  -0.000000   0.000000   0.000000  -0.000008
    13  F    9.129540  -0.036553   0.000000  -0.000000   0.000000  -0.000005
    14  F   -0.036553   9.078993  -0.000000  -0.000000  -0.000000  -0.000000
    15  H    0.000000  -0.000000   0.563416  -0.035319  -0.027552  -0.000038
    16  H   -0.000000  -0.000000  -0.035319   0.567944  -0.028010  -0.000038
    17  H    0.000000  -0.000000  -0.027552  -0.028010   0.551970  -0.000180
    18  H   -0.000005  -0.000000  -0.000038  -0.000038  -0.000180   0.544506
    19  H   -0.000000  -0.000000  -0.000766   0.004562  -0.000040  -0.026355
    20  H    0.000000  -0.000000   0.004484  -0.000802  -0.000035  -0.026120
    21  H    0.006860   0.000086  -0.000144  -0.000148  -0.000055   0.007712
    22  H   -0.000082  -0.000029  -0.000216  -0.000051   0.007229   0.000009
    23  H    0.000077   0.006274  -0.000000   0.000000  -0.000000   0.000000
    24  H   -0.000008  -0.000001  -0.000001   0.000005   0.000042  -0.000000
    25  H   -0.000000   0.000000  -0.000000   0.000000  -0.000001  -0.000000
    26  H    0.000000  -0.000000   0.000001  -0.000004   0.000083  -0.000000
              19         20         21         22         23         24
     1  C   -0.000965  -0.000900   0.007081   0.002968   0.000000   0.000027
     2  C   -0.032357  -0.031720  -0.036681  -0.008983   0.000002  -0.000057
     3  C    0.363052   0.362751  -0.014288   0.000093  -0.000000  -0.000000
     4  C   -0.001311  -0.001445   0.345778  -0.048441  -0.000093   0.000244
     5  C   -0.000163  -0.000125  -0.052026   0.355878   0.003301   0.007046
     6  C    0.000003   0.000007  -0.013837  -0.047070  -0.045636   0.002022
     7  C   -0.000000  -0.000000   0.000001  -0.006965   0.335037   0.000342
     8  C    0.000000  -0.000000   0.000001   0.001402  -0.024499  -0.021790
     9  C   -0.000000   0.000000  -0.000002   0.000953   0.006833   0.349298
    10  F   -0.000000   0.000000  -0.000000  -0.000053  -0.001655   0.002198
    11  C    0.000000  -0.000000   0.008694   0.004207  -0.004397  -0.000050
    12  F   -0.000000  -0.000000   0.005098  -0.000084   0.000211   0.000001
    13  F   -0.000000   0.000000   0.006860  -0.000082   0.000077  -0.000008
    14  F   -0.000000  -0.000000   0.000086  -0.000029   0.006274  -0.000001
    15  H   -0.000766   0.004484  -0.000144  -0.000216  -0.000000  -0.000001
    16  H    0.004562  -0.000802  -0.000148  -0.000051   0.000000   0.000005
    17  H   -0.000040  -0.000035  -0.000055   0.007229  -0.000000   0.000042
    18  H   -0.026355  -0.026120   0.007712   0.000009   0.000000  -0.000000
    19  H    0.573220  -0.036990   0.000196   0.000003   0.000000   0.000000
    20  H   -0.036990   0.571536   0.000208  -0.000005  -0.000000  -0.000000
    21  H    0.000196   0.000208   0.589020   0.005137  -0.000003  -0.000003
    22  H    0.000003  -0.000005   0.005137   0.592522   0.000092  -0.000839
    23  H    0.000000  -0.000000  -0.000003   0.000092   0.563734   0.000086
    24  H    0.000000  -0.000000  -0.000003  -0.000839   0.000086   0.532931
    25  H    0.000000  -0.000000   0.000000   0.000175  -0.000106  -0.019925
    26  H   -0.000000   0.000000  -0.000000   0.000285  -0.000177  -0.029513
              25         26
     1  C    0.000000  -0.000011
     2  C   -0.000001   0.000011
     3  C    0.000000   0.000000
     4  C    0.000001  -0.000047
     5  C    0.000419  -0.001230
     6  C    0.000258   0.000744
     7  C    0.001785   0.000304
     8  C   -0.027527  -0.025326
     9  C    0.354417   0.360048
    10  F    0.001831   0.001048
    11  C    0.000011  -0.000002
    12  F    0.000000   0.000000
    13  F   -0.000000   0.000000
    14  F    0.000000  -0.000000
    15  H   -0.000000   0.000001
    16  H    0.000000  -0.000004
    17  H   -0.000001   0.000083
    18  H   -0.000000  -0.000000
    19  H    0.000000  -0.000000
    20  H   -0.000000   0.000000
    21  H    0.000000  -0.000000
    22  H    0.000175   0.000285
    23  H   -0.000106  -0.000177
    24  H   -0.019925  -0.029513
    25  H    0.545299  -0.033695
    26  H   -0.033695   0.554546
 Mulliken charges:
               1
     1  C   -0.516000
     2  C    0.177031
     3  C   -0.512949
     4  C   -0.171814
     5  C   -0.185426
     6  C   -0.013879
     7  C   -0.281974
     8  C    0.423311
     9  C   -0.541067
    10  F   -0.295199
    11  C    0.800742
    12  F   -0.274910
    13  F   -0.276051
    14  F   -0.269365
    15  H    0.164157
    16  H    0.161224
    17  H    0.159493
    18  H    0.163575
    19  H    0.157910
    20  H    0.159156
    21  H    0.141315
    22  H    0.141865
    23  H    0.160920
    24  H    0.177944
    25  H    0.177056
    26  H    0.172935
 Sum of Mulliken charges =  -0.00000
 Mulliken charges with hydrogens summed into heavy atoms:
               1
     1  C   -0.031126
     2  C    0.177031
     3  C   -0.032307
     4  C   -0.030499
     5  C   -0.043561
     6  C   -0.013879
     7  C   -0.121055
     8  C    0.423311
     9  C   -0.013132
    10  F   -0.295199
    11  C    0.800742
    12  F   -0.274910
    13  F   -0.276051
    14  F   -0.269365
 Electronic spatial extent (au):  <R**2>=           3906.3520
 Charge=             -0.0000 electrons
 Dipole moment (field-independent basis, Debye):
    X=             -2.5877    Y=              0.8926    Z=              2.4799  Tot=              3.6936
 Quadrupole moment (field-independent basis, Debye-Ang):
   XX=            -80.9145   YY=            -82.6522   ZZ=            -81.3388
   XY=             -0.6149   XZ=              1.8427   YZ=             -0.9889
 Traceless Quadrupole moment (field-independent basis, Debye-Ang):
   XX=              0.7207   YY=             -1.0170   ZZ=              0.2963
   XY=             -0.6149   XZ=              1.8427   YZ=             -0.9889
 Octapole moment (field-independent basis, Debye-Ang**2):
  XXX=           -176.7134  YYY=             26.4732  ZZZ=            114.0462  XYY=            -52.8973
  XXY=             -2.3490  XXZ=             34.8715  XZZ=            -40.1669  YZZ=             13.9894
  YYZ=             35.2850  XYZ=             -7.0064
 Hexadecapole moment (field-independent basis, Debye-Ang**3):
 XXXX=          -2928.7210 YYYY=           -585.8737 ZZZZ=          -1127.5210 XXXY=           -163.9245
 XXXZ=             69.0320 YYYX=           -108.4593 YYYZ=           -259.2914 ZZZX=            105.2209
 ZZZY=           -266.0562 XXYY=           -592.0834 XXZZ=           -637.0813 YYZZ=           -280.8106
 XXYZ=           -107.9130 YYXZ=             32.0936 ZZXY=            -19.0595
 N-N= 9.244380039620D+02 E-N=-3.699141079423D+03  KE= 7.812109235937D+02
 Leave Link  601 at Sat Nov  5 11:17:08 2022, MaxMem=   402653184 cpu:               1.7 elap:               0.2
 (Enter /home/wykgroup/appl/g16/l9999.exe)
 Electronic transition elements 
                 1             2             3             4 
      1  -0.787540D+03 -0.787479D+03 -0.787461D+03 -0.787425D+03
      2   0.000000D+00  0.000000D+00  0.249152D+01 -0.723346D+00
      3   0.000000D+00  0.000000D+00  0.190631D+00  0.905862D-01
      4   0.000000D+00  0.000000D+00  0.760534D-01  0.282375D+00
      5   0.000000D+00  0.000000D+00 -0.381678D+00  0.136146D+00
      6   0.000000D+00  0.000000D+00 -0.280294D-01 -0.172668D-01
      7   0.000000D+00  0.000000D+00 -0.103634D-01 -0.545830D-01
      8   0.000000D+00  0.000000D+00 -0.710360D-01 -0.235462D-01
      9   0.000000D+00  0.000000D+00  0.105282D+01 -0.768537D-01
     10   0.000000D+00  0.000000D+00 -0.221291D+00 -0.830805D-01
     11   0.000000D+00  0.000000D+00 -0.662543D-01 -0.584984D+00
     12   0.000000D+00  0.000000D+00 -0.601275D-01 -0.464510D-01
     13   0.000000D+00  0.000000D+00 -0.261764D+00  0.162237D+00
     14   0.000000D+00  0.000000D+00 -0.279980D+00 -0.115672D+00
     15   0.000000D+00  0.000000D+00 -0.307906D+00 -0.685195D-01
     16   0.000000D+00  0.000000D+00 -0.124794D+00  0.323284D-01
 1\1\GINC-NODE05\SP\RB3LYP TD-FC\6-31G(d)\C10H12F4\WYKGROUP\05-Nov-2022
 \0\\#p b3lyp/6-31g(d) 6D 10F nosymm GFInput td=(50-50,nstate=2) SCF=XQ
 C\\Gaussian input prepared by ASE\\0,1\C,0,-2.4903338723,1.028450355,1
 .0186831091\C,0,-2.2968694831,-0.0889126428,0.0271186134\C,0,-3.552230
 6397,-0.8518220891,-0.3086039211\C,0,-1.1197579933,-0.4278975757,-0.55
 1107295\C,0,0.1601680535,0.2072421782,-0.3174152315\C,0,1.3445749526,-
 0.0787256729,-0.9207678612\C,0,2.6124785084,0.5685348074,-0.5793917465
 \C,0,3.0405546112,0.8873473885,0.6512639123\C,0,2.4652745328,0.6079306
 345,1.998172763\F,0,4.2284149247,1.5403217904,0.7449478959\C,0,1.40081
 38563,-1.0995549612,-2.0385824778\F,0,0.5205390592,-0.8285176098,-3.03
 28297595\F,0,1.1049155392,-2.3495767967,-1.598893805\F,0,2.6234207873,
 -1.1636425251,-2.6079006684\H,0,-3.2211101346,1.7546040753,0.636704012
 8\H,0,-2.9053806575,0.639357184,1.9587368792\H,0,-1.5747081212,1.57362
 32761,1.2562587312\H,0,-3.365959603,-1.6511457358,-1.0317048467\H,0,-3
 .993210052,-1.3005022419,0.5929219673\H,0,-4.3183763577,-0.1832994516,
 -0.7263184783\H,0,-1.135165376,-1.2572977136,-1.251265617\H,0,0.184360
 6384,1.0097761526,0.4135946376\H,0,3.2962236825,0.7949853561,-1.392538
 8067\H,0,1.651290598,-0.1171544416,1.9384171654\H,0,3.253991552,0.2114
 548335,2.6483214833\H,0,2.0860819939,1.5226464262,2.472179344\\Version
 =ES64L-G16RevB.01\HF=-787.6184672\RMSD=2.360e-09\PG=C01 [X(C10H12F4)]\
 \@


 IT IS IMPOSSIBLE TO MEDITATE ON TIME AND THE MYSTERY 
 OF NATURE WITHOUT AN OVERWHELMING EMOTION AT THE
 LIMITATIONS OF HUMAN INTELLIGENCE.

                                         -- ALFRED NORTH WHITEHEAD
 Job cpu time:       0 days  0 hours 17 minutes 23.8 seconds.
 Elapsed time:       0 days  0 hours  1 minutes 34.0 seconds.
 File lengths (MBytes):  RWF=    437 Int=      0 D2E=      0 Chk=     13 Scr=      1
 Normal termination of Gaussian 16 at Sat Nov  5 11:17:08 2022.
