 Entering Gaussian System, Link 0=/home/wykgroup/appl/g16/g16
 Input=calculation/no_transfer_pubchem_sampling_0_b3lyp/123763878_rwf.com
 Output=calculation/no_transfer_pubchem_sampling_0_b3lyp/123763878_rwf.log
 Initial command:
 /home/wykgroup/appl/g16/l1.exe "/userdata/scratch/wykgroup/khs/calculation/no_transfer_pubchem_sampling_0_b3lyp/123763878_rwf/Gau-28081.inp" -scrdir="/userdata/scratch/wykgroup/khs/calculation/no_transfer_pubchem_sampling_0_b3lyp/123763878_rwf/"
 Entering Link 1 = /home/wykgroup/appl/g16/l1.exe PID=     28082.
  
 Copyright (c) 1988-2017, Gaussian, Inc.  All Rights Reserved.
  
 This is part of the Gaussian(R) 16 program.  It is based on
 the Gaussian(R) 09 system (copyright 2009, Gaussian, Inc.),
 the Gaussian(R) 03 system (copyright 2003, Gaussian, Inc.),
 the Gaussian(R) 98 system (copyright 1998, Gaussian, Inc.),
 the Gaussian(R) 94 system (copyright 1995, Gaussian, Inc.),
 the Gaussian 92(TM) system (copyright 1992, Gaussian, Inc.),
 the Gaussian 90(TM) system (copyright 1990, Gaussian, Inc.),
 the Gaussian 88(TM) system (copyright 1988, Gaussian, Inc.),
 the Gaussian 86(TM) system (copyright 1986, Carnegie Mellon
 University), and the Gaussian 82(TM) system (copyright 1983,
 Carnegie Mellon University). Gaussian is a federally registered
 trademark of Gaussian, Inc.
  
 This software contains proprietary and confidential information,
 including trade secrets, belonging to Gaussian, Inc.
  
 This software is provided under written license and may be
 used, copied, transmitted, or stored only in accord with that
 written license.
  
 The following legend is applicable only to US Government
 contracts under FAR:
  
                    RESTRICTED RIGHTS LEGEND
  
 Use, reproduction and disclosure by the US Government is
 subject to restrictions as set forth in subparagraphs (a)
 and (c) of the Commercial Computer Software - Restricted
 Rights clause in FAR 52.227-19.
  
 Gaussian, Inc.
 340 Quinnipiac St., Bldg. 40, Wallingford CT 06492
  
  
 ---------------------------------------------------------------
 Warning -- This program may not be used in any manner that
 competes with the business of Gaussian, Inc. or will provide
 assistance to any competitor of Gaussian, Inc.  The licensee
 of this program is prohibited from giving any competitor of
 Gaussian, Inc. access to this program.  By using this program,
 the user acknowledges that Gaussian, Inc. is engaged in the
 business of creating and licensing software in the field of
 computational chemistry and represents and warrants to the
 licensee that it is not a competitor of Gaussian, Inc. and that
 it will not use this program in any manner prohibited above.
 ---------------------------------------------------------------
  

 Cite this work as:
 Gaussian 16, Revision B.01,
 M. J. Frisch, G. W. Trucks, H. B. Schlegel, G. E. Scuseria, 
 M. A. Robb, J. R. Cheeseman, G. Scalmani, V. Barone, 
 G. A. Petersson, H. Nakatsuji, X. Li, M. Caricato, A. V. Marenich, 
 J. Bloino, B. G. Janesko, R. Gomperts, B. Mennucci, H. P. Hratchian, 
 J. V. Ortiz, A. F. Izmaylov, J. L. Sonnenberg, D. Williams-Young, 
 F. Ding, F. Lipparini, F. Egidi, J. Goings, B. Peng, A. Petrone, 
 T. Henderson, D. Ranasinghe, V. G. Zakrzewski, J. Gao, N. Rega, 
 G. Zheng, W. Liang, M. Hada, M. Ehara, K. Toyota, R. Fukuda, 
 J. Hasegawa, M. Ishida, T. Nakajima, Y. Honda, O. Kitao, H. Nakai, 
 T. Vreven, K. Throssell, J. A. Montgomery, Jr., J. E. Peralta, 
 F. Ogliaro, M. J. Bearpark, J. J. Heyd, E. N. Brothers, K. N. Kudin, 
 V. N. Staroverov, T. A. Keith, R. Kobayashi, J. Normand, 
 K. Raghavachari, A. P. Rendell, J. C. Burant, S. S. Iyengar, 
 J. Tomasi, M. Cossi, J. M. Millam, M. Klene, C. Adamo, R. Cammi, 
 J. W. Ochterski, R. L. Martin, K. Morokuma, O. Farkas, 
 J. B. Foresman, and D. J. Fox, Gaussian, Inc., Wallingford CT, 2016.
 
 ******************************************
 Gaussian 16:  ES64L-G16RevB.01 20-Dec-2017
                 5-Nov-2022 
 ******************************************
 %chk=calculation/no_transfer_pubchem_sampling_0_b3lyp/123763878_rwf.chk
 %rwf=calculation/no_transfer_pubchem_sampling_0_b3lyp/123763878_rwf.rwf
 %nprocshared=14
 Will use up to   14 processors via shared memory.
 %mem=3GB
 -------------------------------------------------------------------
 #p b3lyp/6-31g(d) 6D 10F nosymm GFInput td=(50-50,nstate=2) SCF=XQC
 -------------------------------------------------------------------
 1/38=1,172=1/1;
 2/12=2,15=1,17=6,18=5,40=1/2;
 3/5=1,6=6,7=1,8=22,11=9,24=10,25=1,30=1,74=-5/1,2,3,8;
 4//1;
 5/5=2,8=3,13=1,38=5/2,8;
 8/6=1,10=2,108=2/1;
 9/41=2,42=1,48=2,70=2/14;
 6/7=2,8=2,9=2,10=2/1;
 99/5=1,9=1/99;
 Leave Link    1 at Sat Nov  5 11:17:18 2022, MaxMem=   402653184 cpu:               3.5 elap:               0.3
 (Enter /home/wykgroup/appl/g16/l101.exe)
 ------------------------------
 Gaussian input prepared by ASE
 ------------------------------
 Symbolic Z-matrix:
 Charge =  0 Multiplicity = 1
 O                    -2.33753  -0.9626    1.83692 
 C                    -2.18379   0.00375   1.09449 
 C                    -0.84206   0.49378   0.71792 
 C                     0.429    -0.0051    0.94694 
 C                     1.29119   0.94878   0.36696 
 C                     2.78528   0.94594   0.30885 
 O                     3.20686  -0.26042  -0.33422 
 C                     4.54515  -0.49447  -0.45526 
 C                     5.55195   0.39039  -0.04579 
 C                     6.8921    0.03392  -0.22747 
 C                     7.25008  -1.18005  -0.80757 
 C                     6.22375  -2.03434  -1.20472 
 F                     6.54503  -3.2178   -1.77052 
 C                     4.88489  -1.72231  -1.0427 
 N                     0.60757   1.96779  -0.17904 
 N                    -0.67913   1.66569   0.0368 
 C                    -1.78186   2.55239  -0.28646 
 C                    -3.01984   1.68916  -0.52285 
 N                    -3.23225   0.7469    0.58394 
 C                    -4.59393   0.29636   0.86941 
 C                    -5.17715  -0.6132   -0.18388 
 F                    -5.36634   0.07213  -1.38053 
 C                    -4.80083  -2.05394  -0.3107 
 C                    -6.20116  -1.65601   0.13808 
 H                     0.68152  -0.92965   1.44328 
 H                     3.12472   1.82654  -0.24995 
 H                     3.21725   0.98772   1.31901 
 H                     5.30931   1.34547   0.40386 
 H                     7.66899   0.72328   0.09131 
 H                     8.28447  -1.46958  -0.95525 
 H                     4.10941  -2.40918  -1.36136 
 H                    -1.52157   3.11783  -1.18399 
 H                    -1.94407   3.25679   0.53954 
 H                    -2.92824   1.15334  -1.47667 
 H                    -3.90228   2.3298   -0.59634 
 H                    -5.23408   1.18098   0.9747 
 H                    -4.56292  -0.22879   1.82537 
 H                    -4.10807  -2.46031   0.41952 
 H                    -4.69909  -2.44298  -1.31949 
 H                    -7.00665  -1.77858  -0.57985 
 H                    -6.48567  -1.80942   1.17573 
 
 ITRead=  0  0  0  0  0  0  0  0  0  0  0  0  0  0  0  0  0  0  0  0
 ITRead=  0  0  0  0  0  0  0  0  0  0  0  0  0  0  0  0  0  0  0  0
 ITRead=  0
 MicOpt= -1 -1 -1 -1 -1 -1 -1 -1 -1 -1 -1 -1 -1 -1 -1 -1 -1 -1 -1 -1
 MicOpt= -1 -1 -1 -1 -1 -1 -1 -1 -1 -1 -1 -1 -1 -1 -1 -1 -1 -1 -1 -1
 MicOpt= -1
 NAtoms=     41 NQM=       41 NQMF=       0 NMMI=      0 NMMIF=      0
                NMic=       0 NMicF=      0.
                    Isotopes and Nuclear Properties:
 (Nuclear quadrupole moments (NQMom) in fm**2, nuclear magnetic moments (NMagM)
  in nuclear magnetons)

  Atom         1           2           3           4           5           6           7           8           9          10
 IAtWgt=          16          12          12          12          12          12          16          12          12          12
 AtmWgt=  15.9949146  12.0000000  12.0000000  12.0000000  12.0000000  12.0000000  15.9949146  12.0000000  12.0000000  12.0000000
 NucSpn=           0           0           0           0           0           0           0           0           0           0
 AtZEff=  -0.0000000  -0.0000000  -0.0000000  -0.0000000  -0.0000000  -0.0000000  -0.0000000  -0.0000000  -0.0000000  -0.0000000
 NQMom=    0.0000000   0.0000000   0.0000000   0.0000000   0.0000000   0.0000000   0.0000000   0.0000000   0.0000000   0.0000000
 NMagM=    0.0000000   0.0000000   0.0000000   0.0000000   0.0000000   0.0000000   0.0000000   0.0000000   0.0000000   0.0000000
 AtZNuc=   8.0000000   6.0000000   6.0000000   6.0000000   6.0000000   6.0000000   8.0000000   6.0000000   6.0000000   6.0000000

  Atom        11          12          13          14          15          16          17          18          19          20
 IAtWgt=          12          12          19          12          14          14          12          12          14          12
 AtmWgt=  12.0000000  12.0000000  18.9984032  12.0000000  14.0030740  14.0030740  12.0000000  12.0000000  14.0030740  12.0000000
 NucSpn=           0           0           1           0           2           2           0           0           2           0
 AtZEff=  -0.0000000  -0.0000000  -0.0000000  -0.0000000  -0.0000000  -0.0000000  -0.0000000  -0.0000000  -0.0000000  -0.0000000
 NQMom=    0.0000000   0.0000000   0.0000000   0.0000000   2.0440000   2.0440000   0.0000000   0.0000000   2.0440000   0.0000000
 NMagM=    0.0000000   0.0000000   2.6288670   0.0000000   0.4037610   0.4037610   0.0000000   0.0000000   0.4037610   0.0000000
 AtZNuc=   6.0000000   6.0000000   9.0000000   6.0000000   7.0000000   7.0000000   6.0000000   6.0000000   7.0000000   6.0000000

  Atom        21          22          23          24          25          26          27          28          29          30
 IAtWgt=          12          19          12          12           1           1           1           1           1           1
 AtmWgt=  12.0000000  18.9984032  12.0000000  12.0000000   1.0078250   1.0078250   1.0078250   1.0078250   1.0078250   1.0078250
 NucSpn=           0           1           0           0           1           1           1           1           1           1
 AtZEff=  -0.0000000  -0.0000000  -0.0000000  -0.0000000  -0.0000000  -0.0000000  -0.0000000  -0.0000000  -0.0000000  -0.0000000
 NQMom=    0.0000000   0.0000000   0.0000000   0.0000000   0.0000000   0.0000000   0.0000000   0.0000000   0.0000000   0.0000000
 NMagM=    0.0000000   2.6288670   0.0000000   0.0000000   2.7928460   2.7928460   2.7928460   2.7928460   2.7928460   2.7928460
 AtZNuc=   6.0000000   9.0000000   6.0000000   6.0000000   1.0000000   1.0000000   1.0000000   1.0000000   1.0000000   1.0000000

  Atom        31          32          33          34          35          36          37          38          39          40
 IAtWgt=           1           1           1           1           1           1           1           1           1           1
 AtmWgt=   1.0078250   1.0078250   1.0078250   1.0078250   1.0078250   1.0078250   1.0078250   1.0078250   1.0078250   1.0078250
 NucSpn=           1           1           1           1           1           1           1           1           1           1
 AtZEff=  -0.0000000  -0.0000000  -0.0000000  -0.0000000  -0.0000000  -0.0000000  -0.0000000  -0.0000000  -0.0000000  -0.0000000
 NQMom=    0.0000000   0.0000000   0.0000000   0.0000000   0.0000000   0.0000000   0.0000000   0.0000000   0.0000000   0.0000000
 NMagM=    2.7928460   2.7928460   2.7928460   2.7928460   2.7928460   2.7928460   2.7928460   2.7928460   2.7928460   2.7928460
 AtZNuc=   1.0000000   1.0000000   1.0000000   1.0000000   1.0000000   1.0000000   1.0000000   1.0000000   1.0000000   1.0000000

  Atom        41
 IAtWgt=           1
 AtmWgt=   1.0078250
 NucSpn=           1
 AtZEff=  -0.0000000
 NQMom=    0.0000000
 NMagM=    2.7928460
 AtZNuc=   1.0000000
 Leave Link  101 at Sat Nov  5 11:17:18 2022, MaxMem=   402653184 cpu:               2.1 elap:               0.2
 (Enter /home/wykgroup/appl/g16/l202.exe)
                          Input orientation:                          
 ---------------------------------------------------------------------
 Center     Atomic      Atomic             Coordinates (Angstroms)
 Number     Number       Type             X           Y           Z
 ---------------------------------------------------------------------
      1          8           0       -2.337532   -0.962601    1.836921
      2          6           0       -2.183795    0.003752    1.094491
      3          6           0       -0.842055    0.493783    0.717918
      4          6           0        0.429003   -0.005098    0.946940
      5          6           0        1.291191    0.948780    0.366957
      6          6           0        2.785278    0.945942    0.308851
      7          8           0        3.206856   -0.260420   -0.334224
      8          6           0        4.545147   -0.494469   -0.455264
      9          6           0        5.551953    0.390386   -0.045789
     10          6           0        6.892096    0.033921   -0.227473
     11          6           0        7.250079   -1.180054   -0.807568
     12          6           0        6.223751   -2.034342   -1.204722
     13          9           0        6.545028   -3.217804   -1.770521
     14          6           0        4.884890   -1.722308   -1.042698
     15          7           0        0.607573    1.967793   -0.179040
     16          7           0       -0.679127    1.665691    0.036803
     17          6           0       -1.781863    2.552387   -0.286458
     18          6           0       -3.019837    1.689161   -0.522849
     19          7           0       -3.232253    0.746898    0.583944
     20          6           0       -4.593927    0.296358    0.869407
     21          6           0       -5.177147   -0.613197   -0.183876
     22          9           0       -5.366339    0.072130   -1.380531
     23          6           0       -4.800833   -2.053938   -0.310698
     24          6           0       -6.201163   -1.656013    0.138081
     25          1           0        0.681517   -0.929647    1.443280
     26          1           0        3.124717    1.826538   -0.249948
     27          1           0        3.217248    0.987724    1.319009
     28          1           0        5.309310    1.345465    0.403855
     29          1           0        7.668995    0.723285    0.091312
     30          1           0        8.284467   -1.469581   -0.955246
     31          1           0        4.109408   -2.409178   -1.361355
     32          1           0       -1.521566    3.117834   -1.183990
     33          1           0       -1.944073    3.256792    0.539541
     34          1           0       -2.928238    1.153338   -1.476674
     35          1           0       -3.902276    2.329804   -0.596336
     36          1           0       -5.234079    1.180975    0.974699
     37          1           0       -4.562920   -0.228793    1.825370
     38          1           0       -4.108070   -2.460305    0.419517
     39          1           0       -4.699090   -2.442985   -1.319494
     40          1           0       -7.006653   -1.778580   -0.579855
     41          1           0       -6.485673   -1.809422    1.175726
 ---------------------------------------------------------------------
                    Distance matrix (angstroms):
                    1          2          3          4          5
     1  O    0.000000
     2  C    1.228282   0.000000
     3  C    2.368475   1.477228   0.000000
     4  C    3.059836   2.616976   1.384530   0.000000
     5  C    4.356810   3.673949   2.209283   1.410542   0.000000
     6  C    5.676330   5.118265   3.678224   2.619860   1.495220
     7  O    5.995596   5.583022   4.250825   3.069697   2.371412
     8  C    7.269424   6.923050   5.601334   4.375877   3.653388
     9  C    8.223086   7.828890   6.440286   5.233215   4.316974
    10  C    9.510037   9.171711   7.805276   6.569043   5.706177
    11  C    9.948009   9.696246   8.403063   7.140440   6.435821
    12  C    9.148540   8.951371   7.746843   6.505888   5.974893
    13  F    9.848829   9.735453   8.633493   7.423734   7.037900
    14  C    7.812345   7.583743   6.388171   5.173238   4.694306
    15  N    4.617895   3.642948   2.253589   2.278600   1.343069
    16  N    3.591469   2.478864   1.365222   2.201780   2.122525
    17  C    4.143989   2.926449   2.475855   3.598601   3.527345
    18  C    3.614678   2.481000   2.776899   4.114036   4.463729
    19  N    2.300622   1.382819   2.407293   3.755271   4.533142
    20  C    2.759054   2.438241   3.760115   5.032566   5.942451
    21  C    3.502730   3.312855   4.564171   5.751300   6.677018
    22  F    4.538319   4.032245   5.005040   6.245725   6.938655
    23  C    3.445451   3.613522   4.818802   5.755918   6.825561
    24  C    4.277210   4.450707   5.803264   6.880326   7.935534
    25  H    3.044782   3.033628   2.207618   1.079309   2.249147
    26  H    6.478463   5.771512   4.295146   3.471930   2.124347
    27  H    5.909956   5.494531   4.133186   2.983025   2.148864
    28  H    8.115112   7.643545   6.217981   5.092775   4.037822
    29  H   10.296598   9.929831   8.537170   7.326671   6.387739
    30  H   10.994548  10.768316   9.484075   8.214093   7.516822
    31  H    7.340612   7.173410   6.104715   4.965199   4.712249
    32  H    5.142144   3.915038   3.311289   4.254208   3.875801
    33  H    4.431849   3.308731   2.980014   4.054305   3.977893
    34  H    3.975681   2.913182   3.098936   4.299644   4.609164
    35  H    4.382818   3.350014   3.803050   5.156883   5.459602
    36  H    3.705176   3.271763   4.452869   5.786021   6.557622
    37  H    2.343280   2.499700   3.948848   5.073557   6.146890
    38  H    2.717895   3.198438   4.413902   5.185677   6.385658
    39  H    4.210872   4.259174   5.258552   6.113703   7.087429
    40  H    5.320462   5.407413   6.697023   7.795212   8.785736
    41  H    4.285015   4.669086   6.112672   7.149873   8.291043
                    6          7          8          9         10
     6  C    0.000000
     7  O    1.430589   0.000000
     8  C    2.399124   1.363984   0.000000
     9  C    2.844100   2.450760   1.401534   0.000000
    10  C    4.240917   3.698516   2.416455   1.398591   0.000000
    11  C    5.069586   4.173419   2.812615   2.435204   1.392263
    12  C    4.795425   3.606414   2.398042   2.770152   2.383151
    13  F    5.983000   4.685344   3.625738   4.120671   3.615960
    14  C    3.654397   2.335561   1.402887   2.429460   2.788872
    15  N    2.454510   3.427141   4.652260   5.191616   6.575518
    16  N    3.548824   4.352980   5.674633   6.360785   7.749576
    17  C    4.877892   5.727258   7.024449   7.649643   9.032370
    18  C    5.911299   6.527492   7.874121   8.682741  10.053531
    19  N    6.027103   6.581781   7.944110   8.813963  10.181806
    20  C    7.428920   7.912708   9.268378  10.187508  11.541262
    21  C    8.128586   8.392768   9.726805  10.776819  12.086657
    22  F    8.370569   8.643207   9.970692  11.004178  12.312604
    23  C    8.181211   8.206116   9.476296  10.640728  11.878159
    24  C    9.357108   9.522688  10.825175  11.931358  13.206928
    25  H    3.038186   3.159861   4.326833   5.261270   6.503166
    26  H    1.096779   2.090273   2.728892   2.827666   4.172185
    27  H    1.099437   2.071510   2.666132   2.769537   4.099494
    28  H    2.557221   2.746624   2.169652   1.083159   2.150334
    29  H    4.893627   4.589056   3.397072   2.147436   1.086471
    30  H    6.137897   5.256412   3.896581   3.428297   2.174596
    31  H    3.974889   2.546911   2.162633   3.413094   3.872696
    32  H    5.049217   5.873047   7.098224   7.666104   9.011945
    33  H    5.268776   6.298120   7.561189   8.046696   9.436794
    34  H    5.989606   6.398694   7.720753   8.633839   9.962557
    35  H    6.888963   7.570847   8.908163   9.666794  11.041993
    36  H    8.050383   8.662579  10.024228  10.863007  12.239487
    37  H    7.594462   8.064383   9.393017  10.305110  11.640472
    38  H    7.689799   7.675660   8.916721  10.082608  11.297938
    39  H    8.375686   8.260650   9.486808  10.711406  11.903074
    40  H   10.202683  10.328646  11.623620  12.755714  14.020862
    41  H    9.710512   9.930986  11.228010  12.297793  13.576877
                   11         12         13         14         15
    11  C    0.000000
    12  C    1.393157   0.000000
    13  F    2.361525   1.350529   0.000000
    14  C    2.437918   1.384257   2.349956   0.000000
    15  N    7.377457   6.972128   8.042176   5.714735   0.000000
    16  N    8.466613   7.929777   8.905243   6.603192   1.339198
    17  C    9.786656   9.272063  10.238879   7.955533   2.462253
    18  C   10.666988   9.988661  10.822274   8.625142   3.654304
    19  N   10.748429  10.017516  10.810068   8.638921   4.100852
    20  C   12.052905  11.258612  11.974759   9.878215   5.563141
    21  C   12.455772  11.534394  12.112423  10.159345   6.334391
    22  F   12.691345  11.781270  12.363511  10.412581   6.381594
    23  C   12.092768  11.060792  11.498444   9.719004   6.741106
    24  C   13.492839  12.502990  12.982578  11.148956   7.719548
    25  H    6.948023   6.240883   7.067173   4.947397   3.321529
    26  H    5.135090   5.042023   6.281405   4.039922   2.522101
    27  H    5.048298   4.953904   6.189166   3.962696   3.164663
    28  H    3.407694   3.853157   5.203685   3.418169   4.778430
    29  H    2.146200   3.372379   4.501322   3.875324   7.175345
    30  H    1.084248   2.151219   2.597423   3.410079   8.447055
    31  H    3.417783   2.153018   2.598757   1.083839   5.728752
    32  H    9.775239   9.302435  10.273960   8.030543   2.620257
    33  H   10.297220   9.886956  10.923443   8.598235   2.947672
    34  H   10.463773   9.695059  10.437240   8.336824   3.853459
    35  H   11.693534  11.043203  11.887002   9.686751   4.543558
    36  H   12.829853  12.098347  12.869842  10.718790   6.006254
    37  H   12.140190  11.348733  12.052018   9.985866   5.964616
    38  H   11.495752  10.467384  10.902227   9.140899   6.496430
    39  H   12.026625  10.931086  11.279803   9.615023   6.994017
    40  H   14.271107  13.247622  13.679806  11.900680   8.495434
    41  H   13.892460  12.932385  13.433654  11.585279   8.149655
                   16         17         18         19         20
    16  N    0.000000
    17  C    1.451466   0.000000
    18  C    2.406800   1.527619   0.000000
    19  N    2.768031   2.474069   1.469004   0.000000
    20  C    4.230125   3.785947   2.521118   1.462406   0.000000
    21  C    5.047198   4.643209   3.173285   2.494398   1.508921
    22  F    5.149585   4.494123   2.975984   2.978053   2.389377
    23  C    5.562810   5.507540   4.150632   3.332494   2.638058
    24  C    6.444909   6.117277   4.663460   3.845414   2.632451
    25  H    3.250432   4.602694   4.942048   4.343599   5.446350
    26  H    3.818026   4.960112   6.152145   6.501696   7.948073
    27  H    4.157575   5.478759   6.541077   6.495720   7.854590
    28  H    6.008215   7.226197   8.387586   8.564403   9.969527
    29  H    8.401323   9.633641  10.749941  10.912398  12.294997
    30  H    9.547780  10.860686  11.745293  11.828640  13.126345
    31  H    6.441232   7.776863   8.265930   8.224657   9.383190
    32  H    2.075755   1.092268   2.173253   3.416632   4.649362
    33  H    2.093905   1.097622   2.177937   2.821515   3.986817
    34  H    2.758916   2.165208   1.097852   2.122208   3.002171
    35  H    3.351209   2.154465   1.092942   2.085086   2.600324
    36  H    4.675701   3.922891   2.720987   2.085286   1.097009
    37  H    4.676739   4.464197   3.402027   2.064894   1.091150
    38  H    5.378472   5.571061   4.392081   3.328700   2.835075
    39  H    5.906003   5.876318   4.530912   3.993751   3.508040
    40  H    7.230550   6.792775   5.284239   4.688131   3.496709
    41  H    6.862181   6.579452   5.209344   4.179680   2.847252
                   21         22         23         24         25
    21  C    0.000000
    22  F    1.391923   0.000000
    23  C    1.494467   2.446325   0.000000
    24  C    1.496573   2.447365   1.523375   0.000000
    25  H    6.088655   6.749373   5.864864   7.042900   0.000000
    26  H    8.653185   8.743808   8.824745   9.962468   4.053739
    27  H    8.676835   9.044545   8.729105   9.853446   3.181460
    28  H   10.683986  10.898390  10.690254  11.898340   5.260514
    29  H   12.918408  13.134316  12.781674  14.072829   7.306493
    30  H   13.510864  13.744171  13.114190  14.528028   7.990576
    31  H    9.531637   9.795255   8.979001  10.446216   4.669628
    32  H    5.318278   4.908892   6.185746   6.814405   5.304548
    33  H    5.094400   5.053776   6.089979   6.513036   5.023618
    34  H    3.138401   2.668818   3.892651   4.605641   5.088741
    35  H    3.233678   2.802773   4.483993   4.659505   5.982910
    36  H    2.136490   2.606557   3.507793   3.111862   6.298299
    37  H    2.135910   3.318710   2.819671   2.750953   5.304839
    38  H    2.217841   3.352110   1.085481   2.259897   5.131388
    39  H    2.205967   2.602835   1.085992   2.236084   6.234906
    40  H    2.204997   2.599392   2.239176   1.085941   7.995107
    41  H    2.234215   3.365650   2.260073   1.086825   7.225940
                   26         27         28         29         30
    26  H    0.000000
    27  H    1.781516   0.000000
    28  H    2.330523   2.311322   0.000000
    29  H    4.688719   4.625496   2.460265   0.000000
    30  H    6.163186   6.073491   4.315461   2.506542   0.000000
    31  H    4.488444   4.418059   4.318921   4.959156   4.298708
    32  H    4.912008   5.767038   7.233492   9.582623  10.828434
    33  H    5.325556   5.691702   7.502209   9.951414  11.366443
    34  H    6.212593   6.753537   8.451656  10.721234  11.527200
    35  H    7.053502   7.493820   9.317865  11.702481  12.770311
    36  H    8.472660   8.460545  10.560112  12.941373  13.910471
    37  H    8.223812   7.890965  10.097521  12.390850  13.203286
    38  H    8.434358   8.146058  10.157321  12.204188  12.507857
    39  H    8.976898   9.022188  10.839297  12.844655  13.025089
    40  H   10.758734  10.760403  12.744030  14.902498  15.298848
    41  H   10.373637  10.099071  12.233999  14.420304  14.926941
                   31         32         33         34         35
    31  H    0.000000
    32  H    7.892223   0.000000
    33  H    8.506542   1.779995   0.000000
    34  H    7.888806   2.433851   3.075423   0.000000
    35  H    9.339715   2.575676   2.446239   1.762900   0.000000
    36  H   10.278477   4.711062   3.914398   3.365545   2.358316
    37  H    9.493080   5.431942   4.545439   3.935221   3.584345
    38  H    8.408392   6.354280   6.114122   4.248054   4.900965
    39  H    8.808662   6.406069   6.597999   4.011753   4.892585
    40  H   11.161326   7.377400   7.227568   5.102342   5.149393
    41  H   10.911105   7.381630   6.833549   5.335590   5.191083
                   36         37         38         39         40
    36  H    0.000000
    37  H    1.778072   0.000000
    38  H    3.851629   2.676371   0.000000
    39  H    4.322340   3.848553   1.836781   0.000000
    40  H    3.783864   3.762815   3.140905   2.512638   0.000000
    41  H    3.247981   2.572432   2.578468   3.133593   1.831512
                   41
    41  H    0.000000
 Symmetry turned off by external request.
 Stoichiometry    C17H17F2N3O2
 Framework group  C1[X(C17H17F2N3O2)]
 Deg. of freedom   117
 Full point group                 C1      NOp   1
 Rotational constants (GHZ):           0.5786249           0.0760974           0.0710755
 Leave Link  202 at Sat Nov  5 11:17:19 2022, MaxMem=   402653184 cpu:               1.0 elap:               0.1
 (Enter /home/wykgroup/appl/g16/l301.exe)
 Standard basis: 6-31G(d) (6D, 10F)
 Ernie: Thresh=  0.10000D-02 Tol=  0.10000D-05 Strict=F.
 AO basis set in the form of general basis input (Overlap normalization):
      1 0
 S   6 1.00       0.000000000000
      0.5484671660D+04  0.1831074430D-02
      0.8252349460D+03  0.1395017220D-01
      0.1880469580D+03  0.6844507810D-01
      0.5296450000D+02  0.2327143360D+00
      0.1689757040D+02  0.4701928980D+00
      0.5799635340D+01  0.3585208530D+00
 SP   3 1.00       0.000000000000
      0.1553961625D+02 -0.1107775495D+00  0.7087426823D-01
      0.3599933586D+01 -0.1480262627D+00  0.3397528391D+00
      0.1013761750D+01  0.1130767015D+01  0.7271585773D+00
 SP   1 1.00       0.000000000000
      0.2700058226D+00  0.1000000000D+01  0.1000000000D+01
 D   1 1.00       0.000000000000
      0.8000000000D+00  0.1000000000D+01
 ****
      2 0
 S   6 1.00       0.000000000000
      0.3047524880D+04  0.1834737132D-02
      0.4573695180D+03  0.1403732281D-01
      0.1039486850D+03  0.6884262226D-01
      0.2921015530D+02  0.2321844432D+00
      0.9286662960D+01  0.4679413484D+00
      0.3163926960D+01  0.3623119853D+00
 SP   3 1.00       0.000000000000
      0.7868272350D+01 -0.1193324198D+00  0.6899906659D-01
      0.1881288540D+01 -0.1608541517D+00  0.3164239610D+00
      0.5442492580D+00  0.1143456438D+01  0.7443082909D+00
 SP   1 1.00       0.000000000000
      0.1687144782D+00  0.1000000000D+01  0.1000000000D+01
 D   1 1.00       0.000000000000
      0.8000000000D+00  0.1000000000D+01
 ****
      3 0
 S   6 1.00       0.000000000000
      0.3047524880D+04  0.1834737132D-02
      0.4573695180D+03  0.1403732281D-01
      0.1039486850D+03  0.6884262226D-01
      0.2921015530D+02  0.2321844432D+00
      0.9286662960D+01  0.4679413484D+00
      0.3163926960D+01  0.3623119853D+00
 SP   3 1.00       0.000000000000
      0.7868272350D+01 -0.1193324198D+00  0.6899906659D-01
      0.1881288540D+01 -0.1608541517D+00  0.3164239610D+00
      0.5442492580D+00  0.1143456438D+01  0.7443082909D+00
 SP   1 1.00       0.000000000000
      0.1687144782D+00  0.1000000000D+01  0.1000000000D+01
 D   1 1.00       0.000000000000
      0.8000000000D+00  0.1000000000D+01
 ****
      4 0
 S   6 1.00       0.000000000000
      0.3047524880D+04  0.1834737132D-02
      0.4573695180D+03  0.1403732281D-01
      0.1039486850D+03  0.6884262226D-01
      0.2921015530D+02  0.2321844432D+00
      0.9286662960D+01  0.4679413484D+00
      0.3163926960D+01  0.3623119853D+00
 SP   3 1.00       0.000000000000
      0.7868272350D+01 -0.1193324198D+00  0.6899906659D-01
      0.1881288540D+01 -0.1608541517D+00  0.3164239610D+00
      0.5442492580D+00  0.1143456438D+01  0.7443082909D+00
 SP   1 1.00       0.000000000000
      0.1687144782D+00  0.1000000000D+01  0.1000000000D+01
 D   1 1.00       0.000000000000
      0.8000000000D+00  0.1000000000D+01
 ****
      5 0
 S   6 1.00       0.000000000000
      0.3047524880D+04  0.1834737132D-02
      0.4573695180D+03  0.1403732281D-01
      0.1039486850D+03  0.6884262226D-01
      0.2921015530D+02  0.2321844432D+00
      0.9286662960D+01  0.4679413484D+00
      0.3163926960D+01  0.3623119853D+00
 SP   3 1.00       0.000000000000
      0.7868272350D+01 -0.1193324198D+00  0.6899906659D-01
      0.1881288540D+01 -0.1608541517D+00  0.3164239610D+00
      0.5442492580D+00  0.1143456438D+01  0.7443082909D+00
 SP   1 1.00       0.000000000000
      0.1687144782D+00  0.1000000000D+01  0.1000000000D+01
 D   1 1.00       0.000000000000
      0.8000000000D+00  0.1000000000D+01
 ****
      6 0
 S   6 1.00       0.000000000000
      0.3047524880D+04  0.1834737132D-02
      0.4573695180D+03  0.1403732281D-01
      0.1039486850D+03  0.6884262226D-01
      0.2921015530D+02  0.2321844432D+00
      0.9286662960D+01  0.4679413484D+00
      0.3163926960D+01  0.3623119853D+00
 SP   3 1.00       0.000000000000
      0.7868272350D+01 -0.1193324198D+00  0.6899906659D-01
      0.1881288540D+01 -0.1608541517D+00  0.3164239610D+00
      0.5442492580D+00  0.1143456438D+01  0.7443082909D+00
 SP   1 1.00       0.000000000000
      0.1687144782D+00  0.1000000000D+01  0.1000000000D+01
 D   1 1.00       0.000000000000
      0.8000000000D+00  0.1000000000D+01
 ****
      7 0
 S   6 1.00       0.000000000000
      0.5484671660D+04  0.1831074430D-02
      0.8252349460D+03  0.1395017220D-01
      0.1880469580D+03  0.6844507810D-01
      0.5296450000D+02  0.2327143360D+00
      0.1689757040D+02  0.4701928980D+00
      0.5799635340D+01  0.3585208530D+00
 SP   3 1.00       0.000000000000
      0.1553961625D+02 -0.1107775495D+00  0.7087426823D-01
      0.3599933586D+01 -0.1480262627D+00  0.3397528391D+00
      0.1013761750D+01  0.1130767015D+01  0.7271585773D+00
 SP   1 1.00       0.000000000000
      0.2700058226D+00  0.1000000000D+01  0.1000000000D+01
 D   1 1.00       0.000000000000
      0.8000000000D+00  0.1000000000D+01
 ****
      8 0
 S   6 1.00       0.000000000000
      0.3047524880D+04  0.1834737132D-02
      0.4573695180D+03  0.1403732281D-01
      0.1039486850D+03  0.6884262226D-01
      0.2921015530D+02  0.2321844432D+00
      0.9286662960D+01  0.4679413484D+00
      0.3163926960D+01  0.3623119853D+00
 SP   3 1.00       0.000000000000
      0.7868272350D+01 -0.1193324198D+00  0.6899906659D-01
      0.1881288540D+01 -0.1608541517D+00  0.3164239610D+00
      0.5442492580D+00  0.1143456438D+01  0.7443082909D+00
 SP   1 1.00       0.000000000000
      0.1687144782D+00  0.1000000000D+01  0.1000000000D+01
 D   1 1.00       0.000000000000
      0.8000000000D+00  0.1000000000D+01
 ****
      9 0
 S   6 1.00       0.000000000000
      0.3047524880D+04  0.1834737132D-02
      0.4573695180D+03  0.1403732281D-01
      0.1039486850D+03  0.6884262226D-01
      0.2921015530D+02  0.2321844432D+00
      0.9286662960D+01  0.4679413484D+00
      0.3163926960D+01  0.3623119853D+00
 SP   3 1.00       0.000000000000
      0.7868272350D+01 -0.1193324198D+00  0.6899906659D-01
      0.1881288540D+01 -0.1608541517D+00  0.3164239610D+00
      0.5442492580D+00  0.1143456438D+01  0.7443082909D+00
 SP   1 1.00       0.000000000000
      0.1687144782D+00  0.1000000000D+01  0.1000000000D+01
 D   1 1.00       0.000000000000
      0.8000000000D+00  0.1000000000D+01
 ****
     10 0
 S   6 1.00       0.000000000000
      0.3047524880D+04  0.1834737132D-02
      0.4573695180D+03  0.1403732281D-01
      0.1039486850D+03  0.6884262226D-01
      0.2921015530D+02  0.2321844432D+00
      0.9286662960D+01  0.4679413484D+00
      0.3163926960D+01  0.3623119853D+00
 SP   3 1.00       0.000000000000
      0.7868272350D+01 -0.1193324198D+00  0.6899906659D-01
      0.1881288540D+01 -0.1608541517D+00  0.3164239610D+00
      0.5442492580D+00  0.1143456438D+01  0.7443082909D+00
 SP   1 1.00       0.000000000000
      0.1687144782D+00  0.1000000000D+01  0.1000000000D+01
 D   1 1.00       0.000000000000
      0.8000000000D+00  0.1000000000D+01
 ****
     11 0
 S   6 1.00       0.000000000000
      0.3047524880D+04  0.1834737132D-02
      0.4573695180D+03  0.1403732281D-01
      0.1039486850D+03  0.6884262226D-01
      0.2921015530D+02  0.2321844432D+00
      0.9286662960D+01  0.4679413484D+00
      0.3163926960D+01  0.3623119853D+00
 SP   3 1.00       0.000000000000
      0.7868272350D+01 -0.1193324198D+00  0.6899906659D-01
      0.1881288540D+01 -0.1608541517D+00  0.3164239610D+00
      0.5442492580D+00  0.1143456438D+01  0.7443082909D+00
 SP   1 1.00       0.000000000000
      0.1687144782D+00  0.1000000000D+01  0.1000000000D+01
 D   1 1.00       0.000000000000
      0.8000000000D+00  0.1000000000D+01
 ****
     12 0
 S   6 1.00       0.000000000000
      0.3047524880D+04  0.1834737132D-02
      0.4573695180D+03  0.1403732281D-01
      0.1039486850D+03  0.6884262226D-01
      0.2921015530D+02  0.2321844432D+00
      0.9286662960D+01  0.4679413484D+00
      0.3163926960D+01  0.3623119853D+00
 SP   3 1.00       0.000000000000
      0.7868272350D+01 -0.1193324198D+00  0.6899906659D-01
      0.1881288540D+01 -0.1608541517D+00  0.3164239610D+00
      0.5442492580D+00  0.1143456438D+01  0.7443082909D+00
 SP   1 1.00       0.000000000000
      0.1687144782D+00  0.1000000000D+01  0.1000000000D+01
 D   1 1.00       0.000000000000
      0.8000000000D+00  0.1000000000D+01
 ****
     13 0
 S   6 1.00       0.000000000000
      0.7001713090D+04  0.1819616901D-02
      0.1051366090D+04  0.1391607961D-01
      0.2392856900D+03  0.6840532453D-01
      0.6739744530D+02  0.2331857601D+00
      0.2151995730D+02  0.4712674392D+00
      0.7403101300D+01  0.3566185462D+00
 SP   3 1.00       0.000000000000
      0.2084795280D+02 -0.1085069751D+00  0.7162872424D-01
      0.4808308340D+01 -0.1464516581D+00  0.3459121027D+00
      0.1344069860D+01  0.1128688581D+01  0.7224699564D+00
 SP   1 1.00       0.000000000000
      0.3581513930D+00  0.1000000000D+01  0.1000000000D+01
 D   1 1.00       0.000000000000
      0.8000000000D+00  0.1000000000D+01
 ****
     14 0
 S   6 1.00       0.000000000000
      0.3047524880D+04  0.1834737132D-02
      0.4573695180D+03  0.1403732281D-01
      0.1039486850D+03  0.6884262226D-01
      0.2921015530D+02  0.2321844432D+00
      0.9286662960D+01  0.4679413484D+00
      0.3163926960D+01  0.3623119853D+00
 SP   3 1.00       0.000000000000
      0.7868272350D+01 -0.1193324198D+00  0.6899906659D-01
      0.1881288540D+01 -0.1608541517D+00  0.3164239610D+00
      0.5442492580D+00  0.1143456438D+01  0.7443082909D+00
 SP   1 1.00       0.000000000000
      0.1687144782D+00  0.1000000000D+01  0.1000000000D+01
 D   1 1.00       0.000000000000
      0.8000000000D+00  0.1000000000D+01
 ****
     15 0
 S   6 1.00       0.000000000000
      0.4173511460D+04  0.1834772160D-02
      0.6274579110D+03  0.1399462700D-01
      0.1429020930D+03  0.6858655181D-01
      0.4023432930D+02  0.2322408730D+00
      0.1282021290D+02  0.4690699481D+00
      0.4390437010D+01  0.3604551991D+00
 SP   3 1.00       0.000000000000
      0.1162636186D+02 -0.1149611817D+00  0.6757974388D-01
      0.2716279807D+01 -0.1691174786D+00  0.3239072959D+00
      0.7722183966D+00  0.1145851947D+01  0.7408951398D+00
 SP   1 1.00       0.000000000000
      0.2120314975D+00  0.1000000000D+01  0.1000000000D+01
 D   1 1.00       0.000000000000
      0.8000000000D+00  0.1000000000D+01
 ****
     16 0
 S   6 1.00       0.000000000000
      0.4173511460D+04  0.1834772160D-02
      0.6274579110D+03  0.1399462700D-01
      0.1429020930D+03  0.6858655181D-01
      0.4023432930D+02  0.2322408730D+00
      0.1282021290D+02  0.4690699481D+00
      0.4390437010D+01  0.3604551991D+00
 SP   3 1.00       0.000000000000
      0.1162636186D+02 -0.1149611817D+00  0.6757974388D-01
      0.2716279807D+01 -0.1691174786D+00  0.3239072959D+00
      0.7722183966D+00  0.1145851947D+01  0.7408951398D+00
 SP   1 1.00       0.000000000000
      0.2120314975D+00  0.1000000000D+01  0.1000000000D+01
 D   1 1.00       0.000000000000
      0.8000000000D+00  0.1000000000D+01
 ****
     17 0
 S   6 1.00       0.000000000000
      0.3047524880D+04  0.1834737132D-02
      0.4573695180D+03  0.1403732281D-01
      0.1039486850D+03  0.6884262226D-01
      0.2921015530D+02  0.2321844432D+00
      0.9286662960D+01  0.4679413484D+00
      0.3163926960D+01  0.3623119853D+00
 SP   3 1.00       0.000000000000
      0.7868272350D+01 -0.1193324198D+00  0.6899906659D-01
      0.1881288540D+01 -0.1608541517D+00  0.3164239610D+00
      0.5442492580D+00  0.1143456438D+01  0.7443082909D+00
 SP   1 1.00       0.000000000000
      0.1687144782D+00  0.1000000000D+01  0.1000000000D+01
 D   1 1.00       0.000000000000
      0.8000000000D+00  0.1000000000D+01
 ****
     18 0
 S   6 1.00       0.000000000000
      0.3047524880D+04  0.1834737132D-02
      0.4573695180D+03  0.1403732281D-01
      0.1039486850D+03  0.6884262226D-01
      0.2921015530D+02  0.2321844432D+00
      0.9286662960D+01  0.4679413484D+00
      0.3163926960D+01  0.3623119853D+00
 SP   3 1.00       0.000000000000
      0.7868272350D+01 -0.1193324198D+00  0.6899906659D-01
      0.1881288540D+01 -0.1608541517D+00  0.3164239610D+00
      0.5442492580D+00  0.1143456438D+01  0.7443082909D+00
 SP   1 1.00       0.000000000000
      0.1687144782D+00  0.1000000000D+01  0.1000000000D+01
 D   1 1.00       0.000000000000
      0.8000000000D+00  0.1000000000D+01
 ****
     19 0
 S   6 1.00       0.000000000000
      0.4173511460D+04  0.1834772160D-02
      0.6274579110D+03  0.1399462700D-01
      0.1429020930D+03  0.6858655181D-01
      0.4023432930D+02  0.2322408730D+00
      0.1282021290D+02  0.4690699481D+00
      0.4390437010D+01  0.3604551991D+00
 SP   3 1.00       0.000000000000
      0.1162636186D+02 -0.1149611817D+00  0.6757974388D-01
      0.2716279807D+01 -0.1691174786D+00  0.3239072959D+00
      0.7722183966D+00  0.1145851947D+01  0.7408951398D+00
 SP   1 1.00       0.000000000000
      0.2120314975D+00  0.1000000000D+01  0.1000000000D+01
 D   1 1.00       0.000000000000
      0.8000000000D+00  0.1000000000D+01
 ****
     20 0
 S   6 1.00       0.000000000000
      0.3047524880D+04  0.1834737132D-02
      0.4573695180D+03  0.1403732281D-01
      0.1039486850D+03  0.6884262226D-01
      0.2921015530D+02  0.2321844432D+00
      0.9286662960D+01  0.4679413484D+00
      0.3163926960D+01  0.3623119853D+00
 SP   3 1.00       0.000000000000
      0.7868272350D+01 -0.1193324198D+00  0.6899906659D-01
      0.1881288540D+01 -0.1608541517D+00  0.3164239610D+00
      0.5442492580D+00  0.1143456438D+01  0.7443082909D+00
 SP   1 1.00       0.000000000000
      0.1687144782D+00  0.1000000000D+01  0.1000000000D+01
 D   1 1.00       0.000000000000
      0.8000000000D+00  0.1000000000D+01
 ****
     21 0
 S   6 1.00       0.000000000000
      0.3047524880D+04  0.1834737132D-02
      0.4573695180D+03  0.1403732281D-01
      0.1039486850D+03  0.6884262226D-01
      0.2921015530D+02  0.2321844432D+00
      0.9286662960D+01  0.4679413484D+00
      0.3163926960D+01  0.3623119853D+00
 SP   3 1.00       0.000000000000
      0.7868272350D+01 -0.1193324198D+00  0.6899906659D-01
      0.1881288540D+01 -0.1608541517D+00  0.3164239610D+00
      0.5442492580D+00  0.1143456438D+01  0.7443082909D+00
 SP   1 1.00       0.000000000000
      0.1687144782D+00  0.1000000000D+01  0.1000000000D+01
 D   1 1.00       0.000000000000
      0.8000000000D+00  0.1000000000D+01
 ****
     22 0
 S   6 1.00       0.000000000000
      0.7001713090D+04  0.1819616901D-02
      0.1051366090D+04  0.1391607961D-01
      0.2392856900D+03  0.6840532453D-01
      0.6739744530D+02  0.2331857601D+00
      0.2151995730D+02  0.4712674392D+00
      0.7403101300D+01  0.3566185462D+00
 SP   3 1.00       0.000000000000
      0.2084795280D+02 -0.1085069751D+00  0.7162872424D-01
      0.4808308340D+01 -0.1464516581D+00  0.3459121027D+00
      0.1344069860D+01  0.1128688581D+01  0.7224699564D+00
 SP   1 1.00       0.000000000000
      0.3581513930D+00  0.1000000000D+01  0.1000000000D+01
 D   1 1.00       0.000000000000
      0.8000000000D+00  0.1000000000D+01
 ****
     23 0
 S   6 1.00       0.000000000000
      0.3047524880D+04  0.1834737132D-02
      0.4573695180D+03  0.1403732281D-01
      0.1039486850D+03  0.6884262226D-01
      0.2921015530D+02  0.2321844432D+00
      0.9286662960D+01  0.4679413484D+00
      0.3163926960D+01  0.3623119853D+00
 SP   3 1.00       0.000000000000
      0.7868272350D+01 -0.1193324198D+00  0.6899906659D-01
      0.1881288540D+01 -0.1608541517D+00  0.3164239610D+00
      0.5442492580D+00  0.1143456438D+01  0.7443082909D+00
 SP   1 1.00       0.000000000000
      0.1687144782D+00  0.1000000000D+01  0.1000000000D+01
 D   1 1.00       0.000000000000
      0.8000000000D+00  0.1000000000D+01
 ****
     24 0
 S   6 1.00       0.000000000000
      0.3047524880D+04  0.1834737132D-02
      0.4573695180D+03  0.1403732281D-01
      0.1039486850D+03  0.6884262226D-01
      0.2921015530D+02  0.2321844432D+00
      0.9286662960D+01  0.4679413484D+00
      0.3163926960D+01  0.3623119853D+00
 SP   3 1.00       0.000000000000
      0.7868272350D+01 -0.1193324198D+00  0.6899906659D-01
      0.1881288540D+01 -0.1608541517D+00  0.3164239610D+00
      0.5442492580D+00  0.1143456438D+01  0.7443082909D+00
 SP   1 1.00       0.000000000000
      0.1687144782D+00  0.1000000000D+01  0.1000000000D+01
 D   1 1.00       0.000000000000
      0.8000000000D+00  0.1000000000D+01
 ****
     25 0
 S   3 1.00       0.000000000000
      0.1873113696D+02  0.3349460434D-01
      0.2825394365D+01  0.2347269535D+00
      0.6401216923D+00  0.8137573261D+00
 S   1 1.00       0.000000000000
      0.1612777588D+00  0.1000000000D+01
 ****
     26 0
 S   3 1.00       0.000000000000
      0.1873113696D+02  0.3349460434D-01
      0.2825394365D+01  0.2347269535D+00
      0.6401216923D+00  0.8137573261D+00
 S   1 1.00       0.000000000000
      0.1612777588D+00  0.1000000000D+01
 ****
     27 0
 S   3 1.00       0.000000000000
      0.1873113696D+02  0.3349460434D-01
      0.2825394365D+01  0.2347269535D+00
      0.6401216923D+00  0.8137573261D+00
 S   1 1.00       0.000000000000
      0.1612777588D+00  0.1000000000D+01
 ****
     28 0
 S   3 1.00       0.000000000000
      0.1873113696D+02  0.3349460434D-01
      0.2825394365D+01  0.2347269535D+00
      0.6401216923D+00  0.8137573261D+00
 S   1 1.00       0.000000000000
      0.1612777588D+00  0.1000000000D+01
 ****
     29 0
 S   3 1.00       0.000000000000
      0.1873113696D+02  0.3349460434D-01
      0.2825394365D+01  0.2347269535D+00
      0.6401216923D+00  0.8137573261D+00
 S   1 1.00       0.000000000000
      0.1612777588D+00  0.1000000000D+01
 ****
     30 0
 S   3 1.00       0.000000000000
      0.1873113696D+02  0.3349460434D-01
      0.2825394365D+01  0.2347269535D+00
      0.6401216923D+00  0.8137573261D+00
 S   1 1.00       0.000000000000
      0.1612777588D+00  0.1000000000D+01
 ****
     31 0
 S   3 1.00       0.000000000000
      0.1873113696D+02  0.3349460434D-01
      0.2825394365D+01  0.2347269535D+00
      0.6401216923D+00  0.8137573261D+00
 S   1 1.00       0.000000000000
      0.1612777588D+00  0.1000000000D+01
 ****
     32 0
 S   3 1.00       0.000000000000
      0.1873113696D+02  0.3349460434D-01
      0.2825394365D+01  0.2347269535D+00
      0.6401216923D+00  0.8137573261D+00
 S   1 1.00       0.000000000000
      0.1612777588D+00  0.1000000000D+01
 ****
     33 0
 S   3 1.00       0.000000000000
      0.1873113696D+02  0.3349460434D-01
      0.2825394365D+01  0.2347269535D+00
      0.6401216923D+00  0.8137573261D+00
 S   1 1.00       0.000000000000
      0.1612777588D+00  0.1000000000D+01
 ****
     34 0
 S   3 1.00       0.000000000000
      0.1873113696D+02  0.3349460434D-01
      0.2825394365D+01  0.2347269535D+00
      0.6401216923D+00  0.8137573261D+00
 S   1 1.00       0.000000000000
      0.1612777588D+00  0.1000000000D+01
 ****
     35 0
 S   3 1.00       0.000000000000
      0.1873113696D+02  0.3349460434D-01
      0.2825394365D+01  0.2347269535D+00
      0.6401216923D+00  0.8137573261D+00
 S   1 1.00       0.000000000000
      0.1612777588D+00  0.1000000000D+01
 ****
     36 0
 S   3 1.00       0.000000000000
      0.1873113696D+02  0.3349460434D-01
      0.2825394365D+01  0.2347269535D+00
      0.6401216923D+00  0.8137573261D+00
 S   1 1.00       0.000000000000
      0.1612777588D+00  0.1000000000D+01
 ****
     37 0
 S   3 1.00       0.000000000000
      0.1873113696D+02  0.3349460434D-01
      0.2825394365D+01  0.2347269535D+00
      0.6401216923D+00  0.8137573261D+00
 S   1 1.00       0.000000000000
      0.1612777588D+00  0.1000000000D+01
 ****
     38 0
 S   3 1.00       0.000000000000
      0.1873113696D+02  0.3349460434D-01
      0.2825394365D+01  0.2347269535D+00
      0.6401216923D+00  0.8137573261D+00
 S   1 1.00       0.000000000000
      0.1612777588D+00  0.1000000000D+01
 ****
     39 0
 S   3 1.00       0.000000000000
      0.1873113696D+02  0.3349460434D-01
      0.2825394365D+01  0.2347269535D+00
      0.6401216923D+00  0.8137573261D+00
 S   1 1.00       0.000000000000
      0.1612777588D+00  0.1000000000D+01
 ****
     40 0
 S   3 1.00       0.000000000000
      0.1873113696D+02  0.3349460434D-01
      0.2825394365D+01  0.2347269535D+00
      0.6401216923D+00  0.8137573261D+00
 S   1 1.00       0.000000000000
      0.1612777588D+00  0.1000000000D+01
 ****
     41 0
 S   3 1.00       0.000000000000
      0.1873113696D+02  0.3349460434D-01
      0.2825394365D+01  0.2347269535D+00
      0.6401216923D+00  0.8137573261D+00
 S   1 1.00       0.000000000000
      0.1612777588D+00  0.1000000000D+01
 ****

   394 basis functions,   740 primitive gaussians,   394 cartesian basis functions
    87 alpha electrons       87 beta electrons
       nuclear repulsion energy      1936.6352824621 Hartrees.
 IExCor=  402 DFT=T Ex+Corr=B3LYP ExCW=0 ScaHFX=  0.200000
 ScaDFX=  0.800000  0.720000  1.000000  0.810000 ScalE2=  1.000000  1.000000
 IRadAn=      5 IRanWt=     -1 IRanGd=            0 ICorTp=0 IEmpDi=  4
 NAtoms=   41 NActive=   41 NUniq=   41 SFac= 1.00D+00 NAtFMM=   60 NAOKFM=F Big=F
 Integral buffers will be    131072 words long.
 Regular integral format.
 Two-electron integral symmetry is turned off.
 Leave Link  301 at Sat Nov  5 11:17:19 2022, MaxMem=   402653184 cpu:               1.1 elap:               0.1
 (Enter /home/wykgroup/appl/g16/l302.exe)
 NPDir=0 NMtPBC=     1 NCelOv=     1 NCel=       1 NClECP=     1 NCelD=      1
         NCelK=      1 NCelE2=     1 NClLst=     1 CellRange=     0.0.
 One-electron integrals computed using PRISM.
 NBasis=   394 RedAO= T EigKep=  4.75D-04  NBF=   394
 NBsUse=   394 1.00D-06 EigRej= -1.00D+00 NBFU=   394
 Precomputing XC quadrature grid using
 IXCGrd= 4 IRadAn=           5 IRanWt=          -1 IRanGd=           0 AccXCQ= 0.00D+00.
 Generated NRdTot=       0 NPtTot=           0 NUsed=           0 NTot=          32
 NSgBfM=   385   385   385   385   385 MxSgAt=    41 MxSgA2=    41.
 Leave Link  302 at Sat Nov  5 11:17:21 2022, MaxMem=   402653184 cpu:              21.1 elap:               2.1
 (Enter /home/wykgroup/appl/g16/l303.exe)
 DipDrv:  MaxL=1.
 Leave Link  303 at Sat Nov  5 11:17:21 2022, MaxMem=   402653184 cpu:               2.4 elap:               0.3
 (Enter /home/wykgroup/appl/g16/l308.exe)
 Leave Link  308 at Sat Nov  5 11:17:21 2022, MaxMem=   402653184 cpu:               1.7 elap:               0.2
 (Enter /home/wykgroup/appl/g16/l401.exe)
 ExpMin= 1.61D-01 ExpMax= 7.00D+03 ExpMxC= 1.05D+03 IAcc=3 IRadAn=         5 AccDes= 0.00D+00
 Harris functional with IExCor=  402 and IRadAn=       5 diagonalized for initial guess.
 HarFok:  IExCor=  402 AccDes= 0.00D+00 IRadAn=         5 IDoV= 1 UseB2=F ITyADJ=14
 ICtDFT=  3500011 ScaDFX=  1.000000  1.000000  1.000000  1.000000
 FoFCou: FMM=F IPFlag=           0 FMFlag=      100000 FMFlg1=           0
         NFxFlg=           0 DoJE=T BraDBF=F KetDBF=T FulRan=T
         wScrn=  0.000000 ICntrl=       500 IOpCl=  0 I1Cent=   200000004 NGrid=           0
         NMat0=    1 NMatS0=      1 NMatT0=    0 NMatD0=    1 NMtDS0=    0 NMtDT0=    0
 Symmetry not used in FoFCou.
 Harris En= -1172.30617681227    
 JPrj=0 DoOrth=F DoCkMO=F.
 Leave Link  401 at Sat Nov  5 11:17:25 2022, MaxMem=   402653184 cpu:              32.8 elap:               3.4
 (Enter /home/wykgroup/appl/g16/l502.exe)
 Two-electron integral symmetry not used.
 Closed shell SCF:
 Using DIIS extrapolation, IDIIS=  1040.
 NGot=   402653184 LenX=   402333789 LenY=   402178112
 Requested convergence on RMS density matrix=1.00D-08 within  32 cycles.
 Requested convergence on MAX density matrix=1.00D-06.
 Requested convergence on             energy=1.00D-06.
 No special actions if energy rises.
 Fock matrices will be formed incrementally for  20 cycles.
 Integral accuracy reduced to 1.0D-05 until final iterations.

 Cycle   1  Pass 0  IDiag  1:
 FoFJK:  IHMeth= 1 ICntrl=       0 DoSepK=F KAlg= 0 I1Cent=           0 FoldK=F
 IRaf= 630000000 NMat=       1 IRICut=       1 DoRegI=T DoRafI=F ISym2E= 0 IDoP0=0 IntGTp=1.
 FoFCou: FMM=F IPFlag=           0 FMFlag=      100000 FMFlg1=           0
         NFxFlg=           0 DoJE=F BraDBF=F KetDBF=F FulRan=T
         wScrn=  0.000000 ICntrl=         0 IOpCl=  0 I1Cent=           0 NGrid=           0
         NMat0=    1 NMatS0=      1 NMatT0=    0 NMatD0=    1 NMtDS0=    0 NMtDT0=    0
 Symmetry not used in FoFCou.
 E= -1171.90186523337    
 DIIS: error= 1.82D-02 at cycle   1 NSaved=   1.
 NSaved= 1 IEnMin= 1 EnMin= -1171.90186523337     IErMin= 1 ErrMin= 1.82D-02
 ErrMax= 1.82D-02  0.00D+00 EMaxC= 1.00D-01 BMatC= 5.08D-01 BMatP= 5.08D-01
 IDIUse=3 WtCom= 8.18D-01 WtEn= 1.82D-01
 Coeff-Com:  0.100D+01
 Coeff-En:   0.100D+01
 Coeff:      0.100D+01
 Gap=     0.327 Goal=   None    Shift=    0.000
 GapD=    0.327 DampG=1.000 DampE=0.500 DampFc=0.5000 IDamp=-1.
 Damping current iteration by 5.00D-01
 RMSDP=4.62D-03 MaxDP=2.43D-01              OVMax= 3.17D-01

 Cycle   2  Pass 0  IDiag  1:
 RMSU=  2.29D-03    CP:  9.84D-01
 E= -1172.04182315430     Delta-E=       -0.139957920928 Rises=F Damp=T
 DIIS: error= 1.14D-02 at cycle   2 NSaved=   2.
 NSaved= 2 IEnMin= 2 EnMin= -1172.04182315430     IErMin= 2 ErrMin= 1.14D-02
 ErrMax= 1.14D-02  0.00D+00 EMaxC= 1.00D-01 BMatC= 9.11D-02 BMatP= 5.08D-01
 IDIUse=3 WtCom= 8.86D-01 WtEn= 1.14D-01
 Coeff-Com:  0.203D+00 0.797D+00
 Coeff-En:   0.317D+00 0.683D+00
 Coeff:      0.216D+00 0.784D+00
 Gap=     0.257 Goal=   None    Shift=    0.000
 RMSDP=1.72D-03 MaxDP=1.31D-01 DE=-1.40D-01 OVMax= 2.53D-01

 Cycle   3  Pass 0  IDiag  1:
 RMSU=  1.51D-03    CP:  9.74D-01  6.53D-01
 E= -1172.28223926329     Delta-E=       -0.240416108986 Rises=F Damp=F
 DIIS: error= 1.43D-02 at cycle   3 NSaved=   3.
 NSaved= 3 IEnMin= 3 EnMin= -1172.28223926329     IErMin= 2 ErrMin= 1.14D-02
 ErrMax= 1.43D-02  0.00D+00 EMaxC= 1.00D-01 BMatC= 1.11D-01 BMatP= 9.11D-02
 IDIUse=2 WtCom= 0.00D+00 WtEn= 1.00D+00
 Coeff-En:   0.000D+00 0.000D+00 0.100D+01
 Coeff:      0.000D+00 0.000D+00 0.100D+01
 Gap=     0.158 Goal=   None    Shift=    0.000
 RMSDP=3.19D-03 MaxDP=2.71D-01 DE=-2.40D-01 OVMax= 3.82D-01

 Cycle   4  Pass 0  IDiag  1:
 RMSU=  1.25D-03    CP:  9.83D-01  1.42D+00 -5.42D-01
 E= -1171.75406495798     Delta-E=        0.528174305312 Rises=F Damp=F
 DIIS: error= 4.56D-02 at cycle   4 NSaved=   4.
 NSaved= 4 IEnMin= 3 EnMin= -1172.28223926329     IErMin= 2 ErrMin= 1.14D-02
 ErrMax= 4.56D-02  0.00D+00 EMaxC= 1.00D-01 BMatC= 7.43D-01 BMatP= 9.11D-02
 IDIUse=2 WtCom= 0.00D+00 WtEn= 1.00D+00
 Coeff-En:   0.000D+00 0.000D+00 0.811D+00 0.189D+00
 Coeff:      0.000D+00 0.000D+00 0.811D+00 0.189D+00
 Gap=     0.185 Goal=   None    Shift=    0.000
 RMSDP=1.84D-03 MaxDP=1.82D-01 DE= 5.28D-01 OVMax= 1.76D-01

 Cycle   5  Pass 0  IDiag  1:
 RMSU=  3.80D-04    CP:  9.80D-01  9.17D-01  2.60D-01  4.80D-01
 E= -1172.32986476900     Delta-E=       -0.575799811025 Rises=F Damp=F
 DIIS: error= 1.08D-02 at cycle   5 NSaved=   5.
 NSaved= 5 IEnMin= 5 EnMin= -1172.32986476900     IErMin= 5 ErrMin= 1.08D-02
 ErrMax= 1.08D-02  0.00D+00 EMaxC= 1.00D-01 BMatC= 5.74D-02 BMatP= 9.11D-02
 IDIUse=3 WtCom= 8.92D-01 WtEn= 1.08D-01
 Coeff-Com:  0.125D-02 0.354D-01 0.351D+00-0.648D-01 0.677D+00
 Coeff-En:   0.000D+00 0.000D+00 0.376D+00 0.000D+00 0.624D+00
 Coeff:      0.112D-02 0.315D-01 0.354D+00-0.578D-01 0.672D+00
 Gap=     0.183 Goal=   None    Shift=    0.000
 RMSDP=6.32D-04 MaxDP=4.38D-02 DE=-5.76D-01 OVMax= 6.00D-02

 Cycle   6  Pass 0  IDiag  1:
 RMSU=  1.29D-04    CP:  9.78D-01  7.90D-01  5.66D-01  2.80D-01  6.49D-01
 E= -1172.37797315546     Delta-E=       -0.048108386457 Rises=F Damp=F
 DIIS: error= 1.06D-03 at cycle   6 NSaved=   6.
 NSaved= 6 IEnMin= 6 EnMin= -1172.37797315546     IErMin= 6 ErrMin= 1.06D-03
 ErrMax= 1.06D-03  0.00D+00 EMaxC= 1.00D-01 BMatC= 8.88D-04 BMatP= 5.74D-02
 IDIUse=3 WtCom= 9.89D-01 WtEn= 1.06D-02
 Coeff-Com: -0.398D-02 0.219D-01 0.179D+00-0.603D-01 0.438D+00 0.426D+00
 Coeff-En:   0.000D+00 0.000D+00 0.000D+00 0.000D+00 0.000D+00 0.100D+01
 Coeff:     -0.394D-02 0.217D-01 0.177D+00-0.596D-01 0.433D+00 0.432D+00
 Gap=     0.183 Goal=   None    Shift=    0.000
 RMSDP=8.11D-05 MaxDP=5.60D-03 DE=-4.81D-02 OVMax= 9.49D-03

 Cycle   7  Pass 0  IDiag  1:
 RMSU=  3.10D-05    CP:  9.78D-01  7.98D-01  5.60D-01  2.81D-01  7.36D-01
                    CP:  5.03D-01
 E= -1172.37874285803     Delta-E=       -0.000769702577 Rises=F Damp=F
 DIIS: error= 2.22D-04 at cycle   7 NSaved=   7.
 NSaved= 7 IEnMin= 7 EnMin= -1172.37874285803     IErMin= 7 ErrMin= 2.22D-04
 ErrMax= 2.22D-04  0.00D+00 EMaxC= 1.00D-01 BMatC= 4.43D-05 BMatP= 8.88D-04
 IDIUse=3 WtCom= 9.98D-01 WtEn= 2.22D-03
 Coeff-Com: -0.289D-03 0.240D-02 0.483D-01-0.183D-01 0.117D+00 0.175D+00
 Coeff-Com:  0.676D+00
 Coeff-En:   0.000D+00 0.000D+00 0.000D+00 0.000D+00 0.000D+00 0.000D+00
 Coeff-En:   0.100D+01
 Coeff:     -0.288D-03 0.239D-02 0.482D-01-0.183D-01 0.117D+00 0.174D+00
 Coeff:      0.677D+00
 Gap=     0.184 Goal=   None    Shift=    0.000
 RMSDP=2.04D-05 MaxDP=1.45D-03 DE=-7.70D-04 OVMax= 2.41D-03

 Cycle   8  Pass 0  IDiag  1:
 RMSU=  1.40D-05    CP:  9.78D-01  7.95D-01  5.64D-01  2.79D-01  7.26D-01
                    CP:  5.37D-01  6.67D-01
 E= -1172.37877403229     Delta-E=       -0.000031174252 Rises=F Damp=F
 DIIS: error= 1.21D-04 at cycle   8 NSaved=   8.
 NSaved= 8 IEnMin= 8 EnMin= -1172.37877403229     IErMin= 8 ErrMin= 1.21D-04
 ErrMax= 1.21D-04  0.00D+00 EMaxC= 1.00D-01 BMatC= 1.07D-05 BMatP= 4.43D-05
 IDIUse=3 WtCom= 9.99D-01 WtEn= 1.21D-03
 Coeff-Com:  0.631D-03-0.191D-02 0.112D-01-0.402D-02 0.216D-01 0.588D-01
 Coeff-Com:  0.446D+00 0.468D+00
 Coeff-En:   0.000D+00 0.000D+00 0.000D+00 0.000D+00 0.000D+00 0.000D+00
 Coeff-En:   0.969D-01 0.903D+00
 Coeff:      0.630D-03-0.191D-02 0.112D-01-0.402D-02 0.216D-01 0.587D-01
 Coeff:      0.446D+00 0.468D+00
 Gap=     0.184 Goal=   None    Shift=    0.000
 RMSDP=9.22D-06 MaxDP=4.93D-04 DE=-3.12D-05 OVMax= 9.90D-04

 Initial convergence to 1.0D-05 achieved.  Increase integral accuracy.
 Cycle   9  Pass 1  IDiag  1:
 E= -1172.37875778795     Delta-E=        0.000016244339 Rises=F Damp=F
 DIIS: error= 5.28D-05 at cycle   1 NSaved=   1.
 NSaved= 1 IEnMin= 1 EnMin= -1172.37875778795     IErMin= 1 ErrMin= 5.28D-05
 ErrMax= 5.28D-05  0.00D+00 EMaxC= 1.00D-01 BMatC= 8.47D-07 BMatP= 8.47D-07
 IDIUse=1 WtCom= 1.00D+00 WtEn= 0.00D+00
 Coeff-Com:  0.100D+01
 Coeff:      0.100D+01
 Gap=     0.184 Goal=   None    Shift=    0.000
 RMSDP=9.22D-06 MaxDP=4.93D-04 DE= 1.62D-05 OVMax= 4.13D-04

 Cycle  10  Pass 1  IDiag  1:
 RMSU=  2.30D-05    CP:  1.00D+00
 E= -1172.37875732765     Delta-E=        0.000000460301 Rises=F Damp=F
 DIIS: error= 3.81D-05 at cycle   2 NSaved=   2.
 NSaved= 2 IEnMin= 1 EnMin= -1172.37875778795     IErMin= 2 ErrMin= 3.81D-05
 ErrMax= 3.81D-05  0.00D+00 EMaxC= 1.00D-01 BMatC= 1.32D-06 BMatP= 8.47D-07
 IDIUse=1 WtCom= 1.00D+00 WtEn= 0.00D+00
 Coeff-Com:  0.567D+00 0.433D+00
 Coeff:      0.567D+00 0.433D+00
 Gap=     0.184 Goal=   None    Shift=    0.000
 RMSDP=3.96D-06 MaxDP=2.04D-04 DE= 4.60D-07 OVMax= 3.92D-04

 Cycle  11  Pass 1  IDiag  1:
 RMSU=  3.90D-06    CP:  1.00D+00  9.70D-01
 E= -1172.37875840486     Delta-E=       -0.000001077217 Rises=F Damp=F
 DIIS: error= 1.39D-05 at cycle   3 NSaved=   3.
 NSaved= 3 IEnMin= 3 EnMin= -1172.37875840486     IErMin= 3 ErrMin= 1.39D-05
 ErrMax= 1.39D-05  0.00D+00 EMaxC= 1.00D-01 BMatC= 1.57D-07 BMatP= 8.47D-07
 IDIUse=1 WtCom= 1.00D+00 WtEn= 0.00D+00
 Coeff-Com:  0.799D-01 0.256D+00 0.664D+00
 Coeff:      0.799D-01 0.256D+00 0.664D+00
 Gap=     0.184 Goal=   None    Shift=    0.000
 RMSDP=1.36D-06 MaxDP=7.55D-05 DE=-1.08D-06 OVMax= 1.67D-04

 Cycle  12  Pass 1  IDiag  1:
 RMSU=  7.59D-07    CP:  1.00D+00  9.85D-01  7.24D-01
 E= -1172.37875852664     Delta-E=       -0.000000121780 Rises=F Damp=F
 DIIS: error= 5.66D-06 at cycle   4 NSaved=   4.
 NSaved= 4 IEnMin= 4 EnMin= -1172.37875852664     IErMin= 4 ErrMin= 5.66D-06
 ErrMax= 5.66D-06  0.00D+00 EMaxC= 1.00D-01 BMatC= 3.45D-08 BMatP= 1.57D-07
 IDIUse=1 WtCom= 1.00D+00 WtEn= 0.00D+00
 Coeff-Com:  0.203D-02 0.129D+00 0.439D+00 0.430D+00
 Coeff:      0.203D-02 0.129D+00 0.439D+00 0.430D+00
 Gap=     0.184 Goal=   None    Shift=    0.000
 RMSDP=4.77D-07 MaxDP=3.08D-05 DE=-1.22D-07 OVMax= 4.93D-05

 Cycle  13  Pass 1  IDiag  1:
 RMSU=  1.84D-07    CP:  1.00D+00  9.86D-01  7.56D-01  4.47D-01
 E= -1172.37875855544     Delta-E=       -0.000000028794 Rises=F Damp=F
 DIIS: error= 1.15D-06 at cycle   5 NSaved=   5.
 NSaved= 5 IEnMin= 5 EnMin= -1172.37875855544     IErMin= 5 ErrMin= 1.15D-06
 ErrMax= 1.15D-06  0.00D+00 EMaxC= 1.00D-01 BMatC= 1.25D-09 BMatP= 3.45D-08
 IDIUse=1 WtCom= 1.00D+00 WtEn= 0.00D+00
 Coeff-Com: -0.168D-02 0.697D-01 0.247D+00 0.265D+00 0.419D+00
 Coeff:     -0.168D-02 0.697D-01 0.247D+00 0.265D+00 0.419D+00
 Gap=     0.184 Goal=   None    Shift=    0.000
 RMSDP=1.10D-07 MaxDP=7.61D-06 DE=-2.88D-08 OVMax= 1.06D-05

 Cycle  14  Pass 1  IDiag  1:
 RMSU=  5.20D-08    CP:  1.00D+00  9.86D-01  7.57D-01  4.62D-01  4.78D-01
 E= -1172.37875855647     Delta-E=       -0.000000001035 Rises=F Damp=F
 DIIS: error= 4.15D-07 at cycle   6 NSaved=   6.
 NSaved= 6 IEnMin= 6 EnMin= -1172.37875855647     IErMin= 6 ErrMin= 4.15D-07
 ErrMax= 4.15D-07  0.00D+00 EMaxC= 1.00D-01 BMatC= 8.58D-11 BMatP= 1.25D-09
 IDIUse=1 WtCom= 1.00D+00 WtEn= 0.00D+00
 Coeff-Com: -0.123D-02 0.318D-01 0.116D+00 0.127D+00 0.260D+00 0.467D+00
 Coeff:     -0.123D-02 0.318D-01 0.116D+00 0.127D+00 0.260D+00 0.467D+00
 Gap=     0.184 Goal=   None    Shift=    0.000
 RMSDP=2.81D-08 MaxDP=1.78D-06 DE=-1.04D-09 OVMax= 2.30D-06

 Cycle  15  Pass 1  IDiag  1:
 RMSU=  1.82D-08    CP:  1.00D+00  9.86D-01  7.58D-01  4.60D-01  5.26D-01
                    CP:  6.31D-01
 E= -1172.37875855657     Delta-E=       -0.000000000101 Rises=F Damp=F
 DIIS: error= 8.21D-08 at cycle   7 NSaved=   7.
 NSaved= 7 IEnMin= 7 EnMin= -1172.37875855657     IErMin= 7 ErrMin= 8.21D-08
 ErrMax= 8.21D-08  0.00D+00 EMaxC= 1.00D-01 BMatC= 6.73D-12 BMatP= 8.58D-11
 IDIUse=1 WtCom= 1.00D+00 WtEn= 0.00D+00
 Coeff-Com: -0.515D-03 0.114D-01 0.426D-01 0.459D-01 0.107D+00 0.268D+00
 Coeff-Com:  0.527D+00
 Coeff:     -0.515D-03 0.114D-01 0.426D-01 0.459D-01 0.107D+00 0.268D+00
 Coeff:      0.527D+00
 Gap=     0.184 Goal=   None    Shift=    0.000
 RMSDP=7.52D-09 MaxDP=3.93D-07 DE=-1.01D-10 OVMax= 5.58D-07

 SCF Done:  E(RB3LYP) =  -1172.37875856     A.U. after   15 cycles
            NFock= 15  Conv=0.75D-08     -V/T= 2.0089
 KE= 1.162033922252D+03 PE=-6.610161823014D+03 EE= 2.339113859743D+03
 Leave Link  502 at Sat Nov  5 11:18:07 2022, MaxMem=   402653184 cpu:             460.0 elap:              42.4
 (Enter /home/wykgroup/appl/g16/l508.exe)
 QCSCF skips out because SCF is already converged.
 Leave Link  508 at Sat Nov  5 11:18:07 2022, MaxMem=   402653184 cpu:               0.5 elap:               0.1
 (Enter /home/wykgroup/appl/g16/l801.exe)
 DoSCS=F DFT=T ScalE2(SS,OS)=  1.000000  1.000000
 ExpMin= 1.61D-01 ExpMax= 7.00D+03 ExpMxC= 1.05D+03 IAcc=3 IRadAn=         5 AccDes= 0.00D+00
 HarFok:  IExCor=  205 AccDes= 0.00D+00 IRadAn=         5 IDoV=-2 UseB2=F ITyADJ=14
 ICtDFT= 12500011 ScaDFX=  1.000000  1.000000  1.000000  1.000000
 GSVD:  LWork=        -768 too small for GESVD, short by        3240 words or        3240 for optimal perf.
 Largest valence mixing into a core orbital is  5.91D-05
 Largest core mixing into a valence orbital is  1.32D-05
 Range of M.O.s used for correlation:    25   394
 NBasis=   394 NAE=    87 NBE=    87 NFC=    24 NFV=     0
 NROrb=    370 NOA=    63 NOB=    63 NVA=   307 NVB=   307

 **** Warning!!: The largest alpha MO coefficient is  0.12562342D+02

 Leave Link  801 at Sat Nov  5 11:18:08 2022, MaxMem=   402653184 cpu:               9.0 elap:               0.9
 (Enter /home/wykgroup/appl/g16/l914.exe)
 RHF ground state
 Two-electron integral symmetry not used.
 MDV=   402653184 DFT=T DoStab=F Mixed=T DoRPA=T DoScal=F NonHer=T
 Making orbital integer symmetry assigments:
    16 initial guesses have been made.
 Convergence on wavefunction:    0.001000000000000
 Davidson Disk Diagonalization:  ConvIn= 1.00D-03 SkipCon=T Conv= 1.00D-03.
 Max sub-space:  2000 roots to seek:    16 dimension of matrix:        38682
 Iteration     1 Dimension    16 NMult     0 NNew     16
 CISAX will form    16 AO SS matrices at one time.
 NMat=    16 NSing=     8 JSym2X= 0.
 FoFJK:  IHMeth= 1 ICntrl=       0 DoSepK=F KAlg= 0 I1Cent=           0 FoldK=F
 IRaf= 630000000 NMat=      32 IRICut=       1 DoRegI=T DoRafI=F ISym2E= 0 IDoP0=0 IntGTp=1.
 FoFCou: FMM=F IPFlag=           0 FMFlag=      100000 FMFlg1=           0
         NFxFlg=           0 DoJE=F BraDBF=F KetDBF=F FulRan=T
         wScrn=  0.000000 ICntrl=         0 IOpCl=  0 I1Cent=           0 NGrid=           0
         NMat0=   32 NMatS0=      8 NMatT0=    8 NMatD0=   32 NMtDS0=    0 NMtDT0=    0
 Symmetry not used in FoFCou.
 New state      1 was old state      8
 New state      2 was old state      6
 New state      3 was old state     10
 New state      4 was old state     12
 New state      5 was old state      2
 New state      6 was old state      1
 New state      7 was old state     14
 New state      8 was old state     16
 Excitation Energies [eV] at current iteration:
 Root      1 :     4.155101110325124
 Root      2 :     4.279079600605582
 Root      3 :     4.330769213593625
 Root      4 :     4.454720390875692
 Root      5 :     4.545081994229021
 Root      6 :     4.545742951951833
 Root      7 :     4.653076435611762
 Root      8 :     4.666831894796149
 Root      9 :     4.805787999982318
 Root     10 :     5.176114063918375
 Root     11 :     5.180475411467698
 Root     12 :     5.859353578250716
 Root     13 :     6.380148767423745
 Root     14 :     6.458474331266472
 Root     15 :     6.963937537935101
 Root     16 :     7.416671954238325
 Vector   3 SDiff=2.84D-01 TDiff=9.57D+00 assumed to be singlet.
 Vector   4 SDiff=3.46D+00 TDiff=2.50D+00 assumed to be triplet.
 Vector   7 SDiff=2.91D-01 TDiff=9.11D+00 assumed to be singlet.
 Vector   8 SDiff=3.72D+00 TDiff=2.20D+00 assumed to be triplet.
 Iteration     2 Dimension    24 NMult    16 NNew      8
 CISAX will form     8 AO SS matrices at one time.
 NMat=     8 NSing=     2 JSym2X= 0.
 Root      1 not converged, maximum delta is    0.120700035093438
 Root      2 not converged, maximum delta is    0.124986300286217
 New state      3 was old state      6
 Root      3 not converged, maximum delta is    0.016482133133341
 New state      4 was old state      9
 Root      4 not converged, maximum delta is    0.014931790322268
 Excitation Energies [eV] at current iteration:
 Root      1 :     3.829609298651709   Change is   -0.325491811673415
 Root      2 :     4.020886928143306   Change is   -0.258192672462277
 Root      3 :     4.540245381529693   Change is   -0.005497570422140
 Root      4 :     4.803060632917225   Change is   -0.002727367065093
 Iteration     3 Dimension    32 NMult    24 NNew      8
 CISAX will form     8 AO SS matrices at one time.
 NMat=     8 NSing=     4 JSym2X= 0.
 Root      1 not converged, maximum delta is    0.032877223400173
 Root      2 not converged, maximum delta is    0.047068015053725
 Root      3 not converged, maximum delta is    0.013238320669444
 Root      4 not converged, maximum delta is    0.065615526987354
 Excitation Energies [eV] at current iteration:
 Root      1 :     3.797819674716981   Change is   -0.031789623934728
 Root      2 :     4.000071518833750   Change is   -0.020815409309556
 Root      3 :     4.536890927893412   Change is   -0.003354453636280
 Root      4 :     4.674155977237722   Change is   -0.128904655679503
 Iteration     4 Dimension    40 NMult    32 NNew      8
 CISAX will form     8 AO SS matrices at one time.
 NMat=     8 NSing=     4 JSym2X= 0.
 Root      1 not converged, maximum delta is    0.004224135349328
 Root      2 not converged, maximum delta is    0.009835622584798
 Root      3 not converged, maximum delta is    0.001340970243986
 Root      4 not converged, maximum delta is    0.005643548439619
 Excitation Energies [eV] at current iteration:
 Root      1 :     3.795989732183380   Change is   -0.001829942533601
 Root      2 :     3.998050324681492   Change is   -0.002021194152258
 Root      3 :     4.536767135612180   Change is   -0.000123792281232
 Root      4 :     4.668204193069970   Change is   -0.005951784167752
 Iteration     5 Dimension    48 NMult    40 NNew      8
 CISAX will form     8 AO SS matrices at one time.
 NMat=     8 NSing=     4 JSym2X= 0.
 Root      1 not converged, maximum delta is    0.001754838322522
 Root      2 not converged, maximum delta is    0.012766488085726
 Root      3 has converged.
 Root      4 not converged, maximum delta is    0.003879930387271
 Excitation Energies [eV] at current iteration:
 Root      1 :     3.795821107610862   Change is   -0.000168624572518
 Root      2 :     3.997720739618960   Change is   -0.000329585062532
 Root      3 :     4.536742631385501   Change is   -0.000024504226679
 Root      4 :     4.666963822590766   Change is   -0.001240370479204
 Iteration     6 Dimension    54 NMult    48 NNew      6
 CISAX will form     6 AO SS matrices at one time.
 NMat=     6 NSing=     2 JSym2X= 0.
 Root      1 not converged, maximum delta is    0.041414161688615
 No map to state      2
 Root      3 has converged.
 Root      4 not converged, maximum delta is    0.001158040812615
 Excitation Energies [eV] at current iteration:
 Root      1 :     3.795622961878817   Change is   -0.000198145732045
 Root      2 :     3.818961141532077
 Root      3 :     4.536742404666811   Change is   -0.000000226718691
 Root      4 :     4.666820779532202   Change is   -0.000143043058564
 Iteration     7 Dimension    60 NMult    54 NNew      6
 CISAX will form     6 AO SS matrices at one time.
 NMat=     6 NSing=     2 JSym2X= 0.
 New state      1 was old state      2
 Root      1 not converged, maximum delta is    0.125950141800275
 New state      2 was old state      1
 Root      2 not converged, maximum delta is    0.087768013327675
 Root      3 has converged.
 Root      4 has converged.
 Excitation Energies [eV] at current iteration:
 Root      1 :     3.773987115950308   Change is   -0.044974025581769
 Root      2 :     3.796007673900319   Change is    0.000384712021503
 Root      3 :     4.536742246523147   Change is   -0.000000158143663
 Root      4 :     4.666794220490358   Change is   -0.000026559041844
 Iteration     8 Dimension    64 NMult    60 NNew      4
 CISAX will form     4 AO SS matrices at one time.
 NMat=     4 NSing=     0 JSym2X= 0.
 Root      1 not converged, maximum delta is    0.010541735510782
 Root      2 not converged, maximum delta is    0.006996202861791
 Root      3 has converged.
 Root      4 has converged.
 Excitation Energies [eV] at current iteration:
 Root      1 :     3.769838770185399   Change is   -0.004148345764909
 Root      2 :     3.795975898251466   Change is   -0.000031775648854
 Root      3 :     4.536742246523220   Change is    0.000000000000073
 Root      4 :     4.666794220490358   Change is    0.000000000000000
 Iteration     9 Dimension    68 NMult    64 NNew      4
 CISAX will form     4 AO SS matrices at one time.
 NMat=     4 NSing=     0 JSym2X= 0.
 Root      1 not converged, maximum delta is    0.002221489687647
 Root      2 has converged.
 Root      3 has converged.
 Root      4 has converged.
 Excitation Energies [eV] at current iteration:
 Root      1 :     3.769545230092763   Change is   -0.000293540092636
 Root      2 :     3.795974005309766   Change is   -0.000001892941700
 Root      3 :     4.536742246523129   Change is   -0.000000000000091
 Root      4 :     4.666794220490358   Change is    0.000000000000000
 Iteration    10 Dimension    70 NMult    68 NNew      2
 CISAX will form     2 AO SS matrices at one time.
 NMat=     2 NSing=     0 JSym2X= 0.
 Root      1 has converged.
 Root      2 has converged.
 Root      3 has converged.
 Root      4 has converged.
 Excitation Energies [eV] at current iteration:
 Root      1 :     3.769529832988018   Change is   -0.000015397104745
 Root      2 :     3.795973898124225   Change is   -0.000000107185541
 Root      3 :     4.536742246523147   Change is    0.000000000000018
 Root      4 :     4.666794220490358   Change is    0.000000000000000
 Convergence achieved on expansion vectors.
 ***********************************************************************
 Excited states from <AA,BB:AA,BB> singles matrix:
 ***********************************************************************
 
 1PDM for each excited state written to RWF  633
 Ground to excited state transition densities written to RWF  633
 Ground to excited state transition electric dipole moments (Au):
       state          X           Y           Z        Dip. S.      Osc.
         1        -0.0000      0.0000     -0.0000      0.0000      0.0000
         2         0.0000      0.0000     -0.0000      0.0000      0.0000
         3        -0.1193      0.0306      0.0134      0.0154      0.0017
         4        -0.1349      0.0344     -0.0622      0.0232      0.0027
 Ground to excited state transition velocity dipole moments (Au):
       state          X           Y           Z        Dip. S.      Osc.
         1         0.0000     -0.0000     -0.0000      0.0000      0.0000
         2        -0.0000     -0.0000      0.0000      0.0000      0.0000
         3         0.0173     -0.0045     -0.0026      0.0003      0.0013
         4         0.0207     -0.0024      0.0129      0.0006      0.0023
 Ground to excited state transition magnetic dipole moments (Au):
       state          X           Y           Z
         1        -0.0000     -0.0000      0.0000
         2         0.0000      0.0000     -0.0000
         3         0.0317      0.0559     -0.0480
         4        -0.2122     -0.3553      0.2987
 Ground to excited state transition velocity quadrupole moments (Au):
       state          XX          YY          ZZ          XY          XZ          YZ
         1        -0.0000     -0.0000     -0.0000      0.0000      0.0000      0.0000
         2        -0.0000      0.0000      0.0000      0.0000     -0.0000      0.0000
         3         0.1384     -0.0078     -0.0146     -0.0072     -0.0108      0.0122
         4        -0.1838     -0.0139      0.0720      0.0412     -0.0608     -0.0336
 <0|del|b> * <b|rxdel|0> + <0|del|b> * <b|delr+rdel|0>
 Rotatory Strengths (R) in cgs (10**-40 erg-esu-cm/Gauss)
       state          XX          YY          ZZ    R(velocity)    E-M Angle
         1         0.0000      0.0000     -0.0000      0.0000       90.00
         2        -0.0000     -0.0000     -0.0000     -0.0000       90.00
         3        -0.3292      1.8365      0.2889      0.5987       73.03
         4        10.5257     -3.6105     -5.5237      0.4638       88.45
 1/2[<0|r|b>*<b|rxdel|0> + (<0|rxdel|b>*<b|r|0>)*]
 Rotatory Strengths (R) in cgs (10**-40 erg-esu-cm/Gauss)
       state          XX          YY          ZZ     R(length)
         1        -0.0000      0.0000      0.0000      0.0000
         2        -0.0000     -0.0000     -0.0000     -0.0000
         3         2.6740     -1.2082      0.4553      0.6404
         4       -20.2334      8.6371     13.1483      0.5173
  1/2[<0|del|b>*<b|r|0> + (<0|r|b>*<b|del|0>)*] (Au)
       state          X           Y           Z        Dip. S.   Osc.(frdel)
         1        -0.0000     -0.0000      0.0000      0.0000      0.0000
         2        -0.0000     -0.0000     -0.0000      0.0000      0.0000
         3        -0.0021     -0.0001     -0.0000      0.0022      0.0015
         4        -0.0028     -0.0001     -0.0008      0.0037      0.0024

 Excitation energies and oscillator strengths:
 
 Excited state symmetry could not be determined.
 Excited State   1:      Triplet-?Sym    3.7695 eV  328.91 nm  f=0.0000  <S**2>=2.000
      86 -> 89         0.41165
      86 -> 90         0.16337
      87 -> 89        -0.35378
      87 -> 90         0.39820
 This state for optimization and/or second-order correction.
 Total Energy, E(TD-HF/TD-DFT) =  -1172.24023088    
 Copying the excited state density for this state as the 1-particle RhoCI density.
 
 Excited state symmetry could not be determined.
 Excited State   2:      Triplet-?Sym    3.7960 eV  326.62 nm  f=0.0000  <S**2>=2.000
      82 -> 88         0.14958
      83 -> 88        -0.22678
      84 -> 88         0.61627
 
 Excited state symmetry could not be determined.
 Excited State   3:      Singlet-?Sym    4.5367 eV  273.29 nm  f=0.0017  <S**2>=0.000
      87 -> 88         0.70303
 
 Excited state symmetry could not be determined.
 Excited State   4:      Singlet-?Sym    4.6668 eV  265.67 nm  f=0.0027  <S**2>=0.000
      82 -> 88         0.47154
      83 -> 88         0.38846
      85 -> 88        -0.32032
 SavETr:  write IOETrn=   770 NScale= 10 NData=  16 NLR=1 NState=    4 LETran=      82.
 Leave Link  914 at Sat Nov  5 11:23:07 2022, MaxMem=   402653184 cpu:            3316.7 elap:             298.8
 (Enter /home/wykgroup/appl/g16/l601.exe)
 Copying SCF densities to generalized density rwf, IOpCl= 0 IROHF=0.

 **********************************************************************

            Population analysis using the SCF Density.

 **********************************************************************

 Alpha  occ. eigenvalues --  -24.69675 -24.68802 -19.18014 -19.12391 -14.42643
 Alpha  occ. eigenvalues --  -14.37817 -14.36366 -10.30267 -10.27638 -10.26747
 Alpha  occ. eigenvalues --  -10.25389 -10.25340 -10.25146 -10.24936 -10.23682
 Alpha  occ. eigenvalues --  -10.23373 -10.22119 -10.20058 -10.19789 -10.19571
 Alpha  occ. eigenvalues --  -10.19383 -10.18812 -10.18577 -10.18565  -1.20823
 Alpha  occ. eigenvalues --   -1.19353  -1.07128  -1.06536  -1.04099  -0.95312
 Alpha  occ. eigenvalues --   -0.87514  -0.86348  -0.85273  -0.80752  -0.78297
 Alpha  occ. eigenvalues --   -0.75392  -0.74289  -0.73458  -0.71153  -0.66154
 Alpha  occ. eigenvalues --   -0.63624  -0.61866  -0.61820  -0.60761  -0.58786
 Alpha  occ. eigenvalues --   -0.58252  -0.55243  -0.54942  -0.54492  -0.51705
 Alpha  occ. eigenvalues --   -0.50807  -0.50388  -0.49787  -0.49410  -0.48575
 Alpha  occ. eigenvalues --   -0.48210  -0.47594  -0.45971  -0.45239  -0.44903
 Alpha  occ. eigenvalues --   -0.43924  -0.43694  -0.43578  -0.43238  -0.42462
 Alpha  occ. eigenvalues --   -0.41430  -0.41144  -0.40768  -0.39275  -0.38968
 Alpha  occ. eigenvalues --   -0.38521  -0.38067  -0.37653  -0.37412  -0.36834
 Alpha  occ. eigenvalues --   -0.35569  -0.33392  -0.31676  -0.31129  -0.30782
 Alpha  occ. eigenvalues --   -0.28735  -0.26651  -0.26045  -0.25789  -0.24925
 Alpha  occ. eigenvalues --   -0.24324  -0.22247
 Alpha virt. eigenvalues --   -0.03864  -0.00096   0.01558   0.02620   0.07384
 Alpha virt. eigenvalues --    0.07999   0.08845   0.09330   0.10195   0.11522
 Alpha virt. eigenvalues --    0.11970   0.12376   0.12796   0.13328   0.13714
 Alpha virt. eigenvalues --    0.14749   0.14844   0.15422   0.15744   0.16010
 Alpha virt. eigenvalues --    0.16549   0.16973   0.17424   0.17910   0.18536
 Alpha virt. eigenvalues --    0.18829   0.20009   0.20151   0.20731   0.21783
 Alpha virt. eigenvalues --    0.22387   0.22834   0.23542   0.24890   0.25714
 Alpha virt. eigenvalues --    0.26085   0.26845   0.27972   0.28615   0.30351
 Alpha virt. eigenvalues --    0.31993   0.33465   0.35386   0.38160   0.38887
 Alpha virt. eigenvalues --    0.40312   0.43812   0.45379   0.46188   0.46865
 Alpha virt. eigenvalues --    0.48565   0.48758   0.49085   0.49634   0.50536
 Alpha virt. eigenvalues --    0.51689   0.52056   0.52387   0.53639   0.54303
 Alpha virt. eigenvalues --    0.54892   0.55761   0.56299   0.57292   0.58059
 Alpha virt. eigenvalues --    0.58415   0.58899   0.59274   0.59642   0.59801
 Alpha virt. eigenvalues --    0.60468   0.60742   0.61405   0.62713   0.63075
 Alpha virt. eigenvalues --    0.63638   0.64897   0.65413   0.65692   0.66445
 Alpha virt. eigenvalues --    0.67081   0.67236   0.68739   0.69640   0.70174
[...]
    34  H    0.000000   0.000000  -0.000105  -0.002304  -0.038207   0.367411
    35  H    0.000000   0.000000  -0.000078   0.004175  -0.027816   0.374622
    36  H    0.000000  -0.000000  -0.000000   0.000008   0.000061  -0.004315
    37  H    0.000000  -0.000000   0.000000  -0.000019  -0.000161   0.005542
    38  H   -0.000000  -0.000000   0.000000  -0.000003   0.000001  -0.000028
    39  H    0.000000  -0.000000   0.000000  -0.000000   0.000000  -0.000005
    40  H    0.000000   0.000000  -0.000000   0.000000  -0.000000  -0.000003
    41  H    0.000000   0.000000  -0.000000   0.000000  -0.000000  -0.000010
              19         20         21         22         23         24
     1  O   -0.106049  -0.001613  -0.001180   0.000001  -0.003548  -0.000105
     2  C    0.202441  -0.018814  -0.004718  -0.000340   0.003442  -0.000312
     3  C   -0.085865   0.005788  -0.000304   0.000013  -0.000211   0.000006
     4  C    0.007435  -0.000152   0.000009   0.000000  -0.000001  -0.000000
     5  C   -0.000134  -0.000001  -0.000000  -0.000000   0.000000   0.000000
     6  C    0.000001  -0.000000   0.000000  -0.000000  -0.000000   0.000000
     7  O   -0.000000   0.000000  -0.000000  -0.000000  -0.000000  -0.000000
     8  C   -0.000000   0.000000  -0.000000  -0.000000  -0.000000   0.000000
     9  C   -0.000000   0.000000  -0.000000   0.000000  -0.000000   0.000000
    10  C    0.000000  -0.000000  -0.000000   0.000000  -0.000000   0.000000
    11  C   -0.000000   0.000000   0.000000   0.000000   0.000000   0.000000
    12  C    0.000000  -0.000000   0.000000   0.000000   0.000000  -0.000000
    13  F    0.000000   0.000000   0.000000   0.000000   0.000000   0.000000
    14  C    0.000000  -0.000000   0.000000  -0.000000   0.000000  -0.000000
    15  N   -0.000180   0.000008  -0.000000   0.000000   0.000000   0.000000
    16  N   -0.016521  -0.000156  -0.000020  -0.000001  -0.000001   0.000000
    17  C   -0.029765   0.002792   0.000175   0.000244  -0.000001   0.000005
    18  C    0.260279  -0.047224  -0.002887   0.009948  -0.000093   0.000310
    19  N    7.189875   0.273391  -0.054966  -0.002563  -0.005701   0.005527
    20  C    0.273391   5.053633   0.361781  -0.044351  -0.047057  -0.035326
    21  C   -0.054966   0.361781   4.598115   0.267149   0.292789   0.279970
    22  F   -0.002563  -0.044351   0.267149   9.147494  -0.032477  -0.027664
    23  C   -0.005701  -0.047057   0.292789  -0.032477   5.269440   0.186988
    24  C    0.005527  -0.035326   0.279970  -0.027664   0.186988   5.259706
    25  H    0.000092  -0.000001   0.000000   0.000000  -0.000000   0.000000
    26  H   -0.000000   0.000000  -0.000000   0.000000  -0.000000   0.000000
    27  H    0.000000   0.000000  -0.000000  -0.000000   0.000000   0.000000
    28  H   -0.000000   0.000000  -0.000000  -0.000000  -0.000000   0.000000
    29  H   -0.000000  -0.000000   0.000000   0.000000   0.000000   0.000000
    30  H    0.000000   0.000000   0.000000   0.000000   0.000000   0.000000
    31  H   -0.000000   0.000000  -0.000000  -0.000000  -0.000000  -0.000000
    32  H    0.003645  -0.000061   0.000002  -0.000001   0.000000  -0.000000
    33  H    0.000093   0.000062   0.000018  -0.000001   0.000000  -0.000000
    34  H   -0.046616   0.000285   0.002950   0.002650  -0.000033  -0.000029
    35  H   -0.039091  -0.003472  -0.001880   0.001116   0.000134  -0.000017
    36  H   -0.048989   0.359267  -0.042072  -0.000150   0.006549  -0.003591
    37  H   -0.038131   0.350993  -0.027369   0.001963  -0.000340   0.001534
    38  H   -0.000802  -0.002924  -0.017056   0.001201   0.354755  -0.012651
    39  H    0.000053   0.002340  -0.018260   0.000204   0.367108  -0.018873
    40  H   -0.000090   0.001832  -0.014661   0.000254  -0.017626   0.365416
    41  H    0.000032  -0.004350  -0.019738   0.001185  -0.015111   0.360348
              25         26         27         28         29         30
     1  O    0.002326   0.000000   0.000000  -0.000000   0.000000   0.000000
     2  C   -0.001326   0.000002   0.000001   0.000000  -0.000000  -0.000000
     3  C   -0.033194   0.000136  -0.000002   0.000000   0.000000  -0.000000
     4  C    0.363098   0.006261  -0.004538   0.000003   0.000000   0.000000
     5  C   -0.034787  -0.030495  -0.028175   0.000325  -0.000000  -0.000000
     6  C   -0.002234   0.343308   0.348684   0.005704  -0.000010  -0.000000
     7  O    0.000999  -0.032389  -0.041371  -0.007585  -0.000052   0.000002
     8  C    0.000032  -0.004219  -0.003702  -0.045920   0.003177   0.000083
     9  C    0.000002   0.004092   0.005212   0.357383  -0.037225   0.004893
    10  C   -0.000000  -0.000118  -0.000171  -0.039936   0.359014  -0.041264
    11  C    0.000000  -0.000007  -0.000011   0.004191  -0.037672   0.350944
    12  C   -0.000000   0.000006   0.000003   0.000637   0.003297  -0.036118
    13  F    0.000000  -0.000000  -0.000000   0.000001  -0.000025  -0.001077
    14  C   -0.000006  -0.000013   0.000185   0.004392   0.000565   0.006651
    15  N    0.005178   0.003127   0.001555  -0.000002   0.000000   0.000000
    16  N    0.004892  -0.000300  -0.000171  -0.000000  -0.000000  -0.000000
    17  C   -0.000111  -0.000010   0.000007   0.000000   0.000000   0.000000
    18  C   -0.000019   0.000000  -0.000000  -0.000000   0.000000  -0.000000
    19  N    0.000092  -0.000000   0.000000  -0.000000  -0.000000   0.000000
    20  C   -0.000001   0.000000   0.000000   0.000000  -0.000000   0.000000
    21  C    0.000000  -0.000000  -0.000000  -0.000000   0.000000   0.000000
    22  F    0.000000   0.000000  -0.000000  -0.000000   0.000000   0.000000
    23  C   -0.000000  -0.000000   0.000000  -0.000000   0.000000   0.000000
    24  C    0.000000   0.000000   0.000000   0.000000   0.000000   0.000000
    25  H    0.528873  -0.000030   0.000360   0.000001   0.000000  -0.000000
    26  H   -0.000030   0.594783  -0.051502   0.001969   0.000002   0.000000
    27  H    0.000360  -0.051502   0.617173   0.001442   0.000002   0.000000
    28  H    0.000001   0.001969   0.001442   0.584404  -0.005515  -0.000138
    29  H    0.000000   0.000002   0.000002  -0.005515   0.582246  -0.005688
    30  H   -0.000000   0.000000   0.000000  -0.000138  -0.005688   0.580492
    31  H    0.000006   0.000024   0.000027  -0.000136   0.000012  -0.000129
    32  H    0.000002   0.000003   0.000001  -0.000000  -0.000000   0.000000
    33  H   -0.000004   0.000002  -0.000001  -0.000000   0.000000  -0.000000
    34  H   -0.000001   0.000000  -0.000000  -0.000000   0.000000  -0.000000
    35  H    0.000000   0.000000  -0.000000   0.000000   0.000000  -0.000000
    36  H   -0.000000  -0.000000   0.000000   0.000000   0.000000   0.000000
    37  H   -0.000001   0.000000  -0.000000   0.000000   0.000000   0.000000
    38  H   -0.000000   0.000000   0.000000   0.000000  -0.000000   0.000000
    39  H   -0.000000   0.000000  -0.000000   0.000000   0.000000   0.000000
    40  H    0.000000  -0.000000  -0.000000  -0.000000   0.000000   0.000000
    41  H   -0.000000  -0.000000   0.000000  -0.000000   0.000000   0.000000
              31         32         33         34         35         36
     1  O    0.000000   0.000002  -0.000008   0.000122  -0.000080   0.000493
     2  C   -0.000000   0.000161   0.002026  -0.001160   0.002256   0.004686
     3  C    0.000000   0.002901  -0.000120   0.002191  -0.000382  -0.000179
     4  C    0.000016  -0.000186  -0.000412  -0.000087   0.000006   0.000001
     5  C   -0.000025   0.000157   0.000500  -0.000022   0.000005  -0.000000
     6  C   -0.000231  -0.000016   0.000016   0.000000  -0.000000   0.000000
     7  O   -0.000332  -0.000000   0.000000   0.000000   0.000000  -0.000000
     8  C   -0.036165   0.000000  -0.000000  -0.000000  -0.000000  -0.000000
     9  C    0.007137  -0.000000   0.000000  -0.000000   0.000000   0.000000
    10  C   -0.000399   0.000000   0.000000  -0.000000  -0.000000   0.000000
    11  C    0.006567   0.000000  -0.000000   0.000000  -0.000000   0.000000
    12  C   -0.035898  -0.000000   0.000000   0.000000  -0.000000   0.000000
    13  F   -0.001647  -0.000000   0.000000   0.000000   0.000000   0.000000
    14  C    0.339434  -0.000000   0.000000   0.000000   0.000000  -0.000000
    15  N   -0.000000   0.005098   0.000206  -0.000105  -0.000078  -0.000000
    16  N    0.000000  -0.037913  -0.044810  -0.002304   0.004175   0.000008
    17  C    0.000000   0.367981   0.361182  -0.038207  -0.027816   0.000061
    18  C    0.000000  -0.024470  -0.034315   0.367411   0.374622  -0.004315
    19  N   -0.000000   0.003645   0.000093  -0.046616  -0.039091  -0.048989
    20  C    0.000000  -0.000061   0.000062   0.000285  -0.003472   0.359267
    21  C   -0.000000   0.000002   0.000018   0.002950  -0.001880  -0.042072
    22  F   -0.000000  -0.000001  -0.000001   0.002650   0.001116  -0.000150
    23  C   -0.000000   0.000000   0.000000  -0.000033   0.000134   0.006549
    24  C   -0.000000  -0.000000  -0.000000  -0.000029  -0.000017  -0.003591
    25  H    0.000006   0.000002  -0.000004  -0.000001   0.000000  -0.000000
    26  H    0.000024   0.000003   0.000002   0.000000   0.000000  -0.000000
    27  H    0.000027   0.000001  -0.000001  -0.000000  -0.000000   0.000000
    28  H   -0.000136  -0.000000  -0.000000  -0.000000   0.000000   0.000000
    29  H    0.000012  -0.000000   0.000000   0.000000   0.000000   0.000000
    30  H   -0.000129   0.000000  -0.000000  -0.000000  -0.000000   0.000000
    31  H    0.568357  -0.000000   0.000000  -0.000000   0.000000  -0.000000
    32  H   -0.000000   0.532045  -0.032564  -0.002326  -0.001795  -0.000014
    33  H    0.000000  -0.032564   0.569714   0.005437  -0.003147  -0.000056
    34  H   -0.000000  -0.002326   0.005437   0.566150  -0.036763  -0.000616
    35  H    0.000000  -0.001795  -0.003147  -0.036763   0.554709   0.006805
    36  H   -0.000000  -0.000014  -0.000056  -0.000616   0.006805   0.587585
    37  H    0.000000   0.000001  -0.000018  -0.000320   0.000229  -0.023606
    38  H   -0.000000   0.000000   0.000000   0.000050  -0.000009  -0.000032
    39  H    0.000000   0.000000   0.000000   0.000059  -0.000005  -0.000135
    40  H    0.000000   0.000000   0.000000   0.000004   0.000000   0.000055
    41  H   -0.000000   0.000000   0.000000  -0.000001   0.000002   0.001119
              37         38         39         40         41
     1  O    0.019125   0.009531   0.000062  -0.000001  -0.000009
     2  C   -0.005326   0.001245  -0.000010   0.000000   0.000018
     3  C    0.000998   0.000148   0.000010  -0.000000  -0.000001
     4  C   -0.000012  -0.000004  -0.000000   0.000000  -0.000000
     5  C   -0.000000  -0.000000  -0.000000  -0.000000   0.000000
     6  C   -0.000000  -0.000000   0.000000  -0.000000   0.000000
     7  O    0.000000   0.000000   0.000000   0.000000  -0.000000
     8  C    0.000000  -0.000000  -0.000000  -0.000000  -0.000000
     9  C    0.000000   0.000000   0.000000   0.000000   0.000000
    10  C   -0.000000  -0.000000   0.000000   0.000000   0.000000
    11  C    0.000000   0.000000  -0.000000   0.000000   0.000000
    12  C   -0.000000   0.000000  -0.000000   0.000000   0.000000
    13  F    0.000000  -0.000000   0.000000   0.000000   0.000000
    14  C   -0.000000  -0.000000  -0.000000   0.000000   0.000000
    15  N    0.000000   0.000000   0.000000  -0.000000  -0.000000
    16  N   -0.000019  -0.000003  -0.000000   0.000000   0.000000
    17  C   -0.000161   0.000001   0.000000  -0.000000  -0.000000
    18  C    0.005542  -0.000028  -0.000005  -0.000003  -0.000010
    19  N   -0.038131  -0.000802   0.000053  -0.000090   0.000032
    20  C    0.350993  -0.002924   0.002340   0.001832  -0.004350
    21  C   -0.027369  -0.017056  -0.018260  -0.014661  -0.019738
    22  F    0.001963   0.001201   0.000204   0.000254   0.001185
    23  C   -0.000340   0.354755   0.367108  -0.017626  -0.015111
    24  C    0.001534  -0.012651  -0.018873   0.365416   0.360348
    25  H   -0.000001  -0.000000  -0.000000   0.000000  -0.000000
    26  H    0.000000   0.000000   0.000000  -0.000000  -0.000000
    27  H   -0.000000   0.000000  -0.000000  -0.000000   0.000000
    28  H    0.000000   0.000000   0.000000  -0.000000  -0.000000
    29  H    0.000000  -0.000000   0.000000   0.000000   0.000000
    30  H    0.000000   0.000000   0.000000   0.000000   0.000000
    31  H    0.000000  -0.000000   0.000000   0.000000  -0.000000
    32  H    0.000001   0.000000   0.000000   0.000000   0.000000
    33  H   -0.000018   0.000000   0.000000   0.000000   0.000000
    34  H   -0.000320   0.000050   0.000059   0.000004  -0.000001
    35  H    0.000229  -0.000009  -0.000005   0.000000   0.000002
    36  H   -0.023606  -0.000032  -0.000135   0.000055   0.001119
    37  H    0.523243   0.000364  -0.000022  -0.000112   0.001760
    38  H    0.000364   0.498712  -0.022260   0.001740  -0.006498
    39  H   -0.000022  -0.022260   0.523832  -0.006042   0.001924
    40  H   -0.000112   0.001740  -0.006042   0.523321  -0.026184
    41  H    0.001760  -0.006498   0.001924  -0.026184   0.541945
 Mulliken charges:
               1
     1  O   -0.536109
     2  C    0.595435
     3  C    0.350240
     4  C   -0.289134
     5  C    0.297120
     6  C   -0.114513
     7  O   -0.519236
     8  C    0.390944
     9  C   -0.194651
    10  C   -0.139336
    11  C   -0.200808
    12  C    0.384789
    13  F   -0.300855
    14  C   -0.257936
    15  N   -0.334720
    16  N   -0.334172
    17  C   -0.138990
    18  C   -0.159943
    19  N   -0.467401
    20  C   -0.206672
    21  C    0.402154
    22  F   -0.325874
    23  C   -0.359003
    24  C   -0.361242
    25  H    0.165853
    26  H    0.165366
    27  H    0.154992
    28  H    0.138779
    29  H    0.137871
    30  H    0.141348
    31  H    0.153382
    32  H    0.187346
    33  H    0.176202
    34  H    0.181282
    35  H    0.170477
    36  H    0.157126
    37  H    0.189684
    38  H    0.194518
    39  H    0.170018
    40  H    0.172097
    41  H    0.163571
 Sum of Mulliken charges =  -0.00000
 Mulliken charges with hydrogens summed into heavy atoms:
               1
     1  O   -0.536109
     2  C    0.595435
     3  C    0.350240
     4  C   -0.123282
     5  C    0.297120
     6  C    0.205846
     7  O   -0.519236
     8  C    0.390944
     9  C   -0.055873
    10  C   -0.001465
    11  C   -0.059460
    12  C    0.384789
    13  F   -0.300855
    14  C   -0.104554
    15  N   -0.334720
    16  N   -0.334172
    17  C    0.224558
    18  C    0.191816
    19  N   -0.467401
    20  C    0.140138
    21  C    0.402154
    22  F   -0.325874
    23  C    0.005533
    24  C   -0.025573
 Electronic spatial extent (au):  <R**2>=          14143.1522
 Charge=              0.0000 electrons
 Dipole moment (field-independent basis, Debye):
    X=             -2.9708    Y=              3.3933    Z=              0.4767  Tot=              4.5352
 Quadrupole moment (field-independent basis, Debye-Ang):
   XX=           -123.4229   YY=           -134.6921   ZZ=           -141.9580
   XY=              4.9620   XZ=              5.8476   YZ=              1.9291
 Traceless Quadrupole moment (field-independent basis, Debye-Ang):
   XX=              9.9348   YY=             -1.3344   ZZ=             -8.6004
   XY=              4.9620   XZ=              5.8476   YZ=              1.9291
 Octapole moment (field-independent basis, Debye-Ang**2):
  XXX=           -165.2541  YYY=             53.5603  ZZZ=             19.3601  XYY=            -91.9688
  XXY=             72.8995  XXZ=             65.1133  XZZ=            -55.0447  YZZ=             16.9140
  YYZ=              8.6739  XYZ=            -12.7142
 Hexadecapole moment (field-independent basis, Debye-Ang**3):
 XXXX=         -14589.2049 YYYY=          -1832.2723 ZZZZ=           -734.8963 XXXY=            992.6506
 XXXZ=            567.5384 YYYX=            535.1159 YYYZ=           -168.2777 ZZZX=            614.0620
 ZZZY=           -143.8883 XXYY=          -2985.1338 XXZZ=          -2844.2497 YYZZ=           -426.6300
 XXYZ=            -69.6047 YYXZ=            269.7229 ZZXY=            193.7302
 N-N= 1.936635282462D+03 E-N=-6.610161839440D+03  KE= 1.162033922252D+03
 Leave Link  601 at Sat Nov  5 11:23:08 2022, MaxMem=   402653184 cpu:               2.3 elap:               0.3
 (Enter /home/wykgroup/appl/g16/l9999.exe)
 Electronic transition elements 
                 1             2             3             4 
      1  -0.117224D+04 -0.117224D+04 -0.117221D+04 -0.117221D+04
      2   0.000000D+00  0.000000D+00 -0.119319D+00 -0.134853D+00
      3   0.000000D+00  0.000000D+00  0.305688D-01  0.343796D-01
      4   0.000000D+00  0.000000D+00  0.134079D-01 -0.622448D-01
      5   0.000000D+00  0.000000D+00  0.173230D-01  0.206601D-01
      6   0.000000D+00  0.000000D+00 -0.448627D-02 -0.242982D-02
      7   0.000000D+00  0.000000D+00 -0.260801D-02  0.129148D-01
      8   0.000000D+00  0.000000D+00  0.316903D-01 -0.212171D+00
      9   0.000000D+00  0.000000D+00  0.558909D-01 -0.355259D+00
     10   0.000000D+00  0.000000D+00 -0.480213D-01  0.298708D+00
     11   0.000000D+00  0.000000D+00  0.138399D+00 -0.183786D+00
     12   0.000000D+00  0.000000D+00 -0.783119D-02 -0.139286D-01
     13   0.000000D+00  0.000000D+00 -0.145895D-01  0.719902D-01
     14   0.000000D+00  0.000000D+00 -0.724264D-02  0.412028D-01
     15   0.000000D+00  0.000000D+00 -0.108357D-01 -0.607929D-01
     16   0.000000D+00  0.000000D+00  0.121591D-01 -0.335608D-01
 1\1\GINC-NODE05\SP\RB3LYP TD-FC\6-31G(d)\C17H17F2N3O2\WYKGROUP\05-Nov-
 2022\0\\#p b3lyp/6-31g(d) 6D 10F nosymm GFInput td=(50-50,nstate=2) SC
 F=XQC\\Gaussian input prepared by ASE\\0,1\O,0,-2.3375319943,-0.962601
 2014,1.8369205402\C,0,-2.1837945042,0.0037524612,1.0944914881\C,0,-0.8
 420552445,0.4937827399,0.7179179739\C,0,0.4290033441,-0.005098145,0.94
 69395623\C,0,1.2911905336,0.948779702,0.3669568198\C,0,2.7852781323,0.
 9459424759,0.3088512854\O,0,3.2068562825,-0.2604202974,-0.3342242652\C
 ,0,4.5451468056,-0.4944692545,-0.4552643297\C,0,5.5519534246,0.3903855
 413,-0.0457887742\C,0,6.892095782,0.0339209383,-0.2274730399\C,0,7.250
 0788341,-1.1800538836,-0.8075680934\C,0,6.2237512794,-2.0343420848,-1.
 2047215554\F,0,6.5450275244,-3.2178038509,-1.7705205668\C,0,4.88489011
 28,-1.7223078412,-1.0426975219\N,0,0.6075725537,1.9677931504,-0.179040
 4451\N,0,-0.6791270288,1.6656909347,0.0368034596\C,0,-1.7818630895,2.5
 523866815,-0.2864575337\C,0,-3.019837003,1.689161047,-0.5228492062\N,0
 ,-3.2322525999,0.7468981117,0.5839444391\C,0,-4.5939269408,0.296357967
 4,0.8694071682\C,0,-5.1771467437,-0.6131969606,-0.1838763745\F,0,-5.36
 63389122,0.0721300139,-1.3805312215\C,0,-4.800832952,-2.0539383774,-0.
 3106981575\C,0,-6.2011632155,-1.6560130539,0.1380810259\H,0,0.68151716
 19,-0.9296470313,1.4432802145\H,0,3.1247165791,1.8265375654,-0.2499483
 94\H,0,3.2172479198,0.987723891,1.3190091129\H,0,5.3093098955,1.345465
 4163,0.403855134\H,0,7.668994557,0.723284827,0.0913123631\H,0,8.284467
 0712,-1.4695810253,-0.955246061\H,0,4.1094075188,-2.409178218,-1.36135
 54078\H,0,-1.5215662456,3.117833624,-1.1839899127\H,0,-1.9440729277,3.
 2567920601,0.5395414242\H,0,-2.9282376753,1.1533377103,-1.4766736548\H
 ,0,-3.9022758817,2.329804048,-0.5963359224\H,0,-5.2340785358,1.1809751
 847,0.9746986297\H,0,-4.5629204985,-0.2287925203,1.8253699793\H,0,-4.1
 080696532,-2.4603052286,0.4195173637\H,0,-4.6990903475,-2.442984996,-1
 .3194940474\H,0,-7.0066533697,-1.7785798098,-0.579854835\H,0,-6.485672
 949,-1.8094223124,1.1757263364\\Version=ES64L-G16RevB.01\HF=-1172.3787
 586\RMSD=7.518e-09\PG=C01 [X(C17H17F2N3O2)]\\@


 NEVER LOSE YOUR IGNORANCE, IT CAN'T BE REPLACED.
   -- ANDY CAPP
 Job cpu time:       0 days  1 hours  4 minutes 15.7 seconds.
 Elapsed time:       0 days  0 hours  5 minutes 49.5 seconds.
 File lengths (MBytes):  RWF=    978 Int=      0 D2E=      0 Chk=     34 Scr=      1
 Normal termination of Gaussian 16 at Sat Nov  5 11:23:08 2022.
