 Entering Gaussian System, Link 0=/home/wykgroup/appl/g16/g16
 Input=./calculation/no_transfer_pubchem_sampling_0_b3lyp/142583504.com
 Output=./calculation/no_transfer_pubchem_sampling_0_b3lyp/142583504.log
 Initial command:
 /home/wykgroup/appl/g16/l1.exe "/userdata/scratch/wykgroup/khs/./calculation/no_transfer_pubchem_sampling_0_b3lyp/142583504/Gau-8919.inp" -scrdir="/userdata/scratch/wykgroup/khs/./calculation/no_transfer_pubchem_sampling_0_b3lyp/142583504/"
 Entering Link 1 = /home/wykgroup/appl/g16/l1.exe PID=      8930.
  
 Copyright (c) 1988-2017, Gaussian, Inc.  All Rights Reserved.
  
 This is part of the Gaussian(R) 16 program.  It is based on
 the Gaussian(R) 09 system (copyright 2009, Gaussian, Inc.),
 the Gaussian(R) 03 system (copyright 2003, Gaussian, Inc.),
 the Gaussian(R) 98 system (copyright 1998, Gaussian, Inc.),
 the Gaussian(R) 94 system (copyright 1995, Gaussian, Inc.),
 the Gaussian 92(TM) system (copyright 1992, Gaussian, Inc.),
 the Gaussian 90(TM) system (copyright 1990, Gaussian, Inc.),
 the Gaussian 88(TM) system (copyright 1988, Gaussian, Inc.),
 the Gaussian 86(TM) system (copyright 1986, Carnegie Mellon
 University), and the Gaussian 82(TM) system (copyright 1983,
 Carnegie Mellon University). Gaussian is a federally registered
 trademark of Gaussian, Inc.
  
 This software contains proprietary and confidential information,
 including trade secrets, belonging to Gaussian, Inc.
  
 This software is provided under written license and may be
 used, copied, transmitted, or stored only in accord with that
 written license.
  
 The following legend is applicable only to US Government
 contracts under FAR:
  
                    RESTRICTED RIGHTS LEGEND
  
 Use, reproduction and disclosure by the US Government is
 subject to restrictions as set forth in subparagraphs (a)
 and (c) of the Commercial Computer Software - Restricted
 Rights clause in FAR 52.227-19.
  
 Gaussian, Inc.
 340 Quinnipiac St., Bldg. 40, Wallingford CT 06492
  
  
 ---------------------------------------------------------------
 Warning -- This program may not be used in any manner that
 competes with the business of Gaussian, Inc. or will provide
 assistance to any competitor of Gaussian, Inc.  The licensee
 of this program is prohibited from giving any competitor of
 Gaussian, Inc. access to this program.  By using this program,
 the user acknowledges that Gaussian, Inc. is engaged in the
 business of creating and licensing software in the field of
 computational chemistry and represents and warrants to the
 licensee that it is not a competitor of Gaussian, Inc. and that
 it will not use this program in any manner prohibited above.
 ---------------------------------------------------------------
  

 Cite this work as:
 Gaussian 16, Revision B.01,
 M. J. Frisch, G. W. Trucks, H. B. Schlegel, G. E. Scuseria, 
 M. A. Robb, J. R. Cheeseman, G. Scalmani, V. Barone, 
 G. A. Petersson, H. Nakatsuji, X. Li, M. Caricato, A. V. Marenich, 
 J. Bloino, B. G. Janesko, R. Gomperts, B. Mennucci, H. P. Hratchian, 
 J. V. Ortiz, A. F. Izmaylov, J. L. Sonnenberg, D. Williams-Young, 
 F. Ding, F. Lipparini, F. Egidi, J. Goings, B. Peng, A. Petrone, 
 T. Henderson, D. Ranasinghe, V. G. Zakrzewski, J. Gao, N. Rega, 
 G. Zheng, W. Liang, M. Hada, M. Ehara, K. Toyota, R. Fukuda, 
 J. Hasegawa, M. Ishida, T. Nakajima, Y. Honda, O. Kitao, H. Nakai, 
 T. Vreven, K. Throssell, J. A. Montgomery, Jr., J. E. Peralta, 
 F. Ogliaro, M. J. Bearpark, J. J. Heyd, E. N. Brothers, K. N. Kudin, 
 V. N. Staroverov, T. A. Keith, R. Kobayashi, J. Normand, 
 K. Raghavachari, A. P. Rendell, J. C. Burant, S. S. Iyengar, 
 J. Tomasi, M. Cossi, J. M. Millam, M. Klene, C. Adamo, R. Cammi, 
 J. W. Ochterski, R. L. Martin, K. Morokuma, O. Farkas, 
 J. B. Foresman, and D. J. Fox, Gaussian, Inc., Wallingford CT, 2016.
 
 ******************************************
 Gaussian 16:  ES64L-G16RevB.01 20-Dec-2017
                 4-Nov-2022 
 ******************************************
 %chk=./calculation/no_transfer_pubchem_sampling_0_b3lyp/142583504.chk
 %nprocshared=7
 Will use up to    7 processors via shared memory.
 %mem=6GB
 -----------------------------
 #p b3lyp/6-31g(d) opt SCF=XQC
 -----------------------------
 1/18=20,19=15,26=3,38=1/1,3;
 2/9=110,12=2,17=6,18=5,40=1/2;
 3/5=1,6=6,7=1,11=2,25=1,30=1,71=1,74=-5/1,2,3;
 4//1;
 5/5=2,8=3,13=1,38=5/2,8;
 6/7=2,8=2,9=2,10=2,28=1/1;
 7//1,2,3,16;
 1/18=20,19=15,26=3/3(2);
 2/9=110/2;
 99//99;
 2/9=110/2;
 3/5=1,6=6,7=1,11=2,25=1,30=1,71=1,74=-5/1,2,3;
 4/5=5,16=3,69=1/1;
 5/5=2,8=3,13=1,38=5/2,8;
 7//1,2,3,16;
 1/18=20,19=15,26=3/3(-5);
 2/9=110/2;
 6/7=2,8=2,9=2,10=2,19=2,28=1/1;
 99/9=1/99;
 Leave Link    1 at Fri Nov  4 18:15:56 2022, MaxMem=   805306368 cpu:               0.8 elap:               0.2
 (Enter /home/wykgroup/appl/g16/l101.exe)
 ------------------------------
 Gaussian input prepared by ASE
 ------------------------------
 Symbolic Z-matrix:
 Charge =  0 Multiplicity = 1
 C                     4.80253   0.7333   -0.15821 
 C                     4.11332  -0.27376   0.7642 
 C                     2.66728  -0.45091   0.38995 
 C                     2.2514   -1.54323  -0.24063 
 C                     0.84481  -1.79986  -0.69926 
 C                     0.33162  -0.69811  -1.64167 
 N                    -0.05216   0.49796  -0.9342 
 C                    -1.27837   0.64426  -0.36508 
 C                    -2.34278  -0.25252  -0.58193 
 C                    -3.57691   0.00826  -0.01798 
 C                    -4.67261  -0.97284  -0.27945 
 N                    -5.6566   -1.007     0.65219 
 O                    -4.68535  -1.69642  -1.25374 
 C                    -3.74552   1.16553   0.7484 
 C                    -2.64002   1.97744   0.91469 
 N                    -1.45133   1.7318    0.39967 
 C                     1.03694   1.31738  -0.45283 
 C                     1.74977   0.68748   0.75322 
 H                     4.76308   0.38587  -1.18828 
 H                     5.84535   0.85477   0.12546 
 H                     4.3163    1.70449  -0.10378 
 H                     4.63284  -1.23142   0.69903 
 H                     4.18192   0.07927   1.7963 
 H                     2.96792  -2.3217   -0.46549 
 H                     0.80161  -2.75853  -1.21669 
 H                     0.17176  -1.85274   0.16254 
 H                     1.12505  -0.42757  -2.34544 
 H                    -0.51607  -1.06294  -2.22305 
 H                    -2.23897  -1.14922  -1.16922 
 H                    -5.60525  -0.48107   1.50514 
 H                    -6.40183  -1.67315   0.53599 
 H                    -4.69579   1.44051   1.17762 
 H                    -2.70016   2.88396   1.50473 
 H                     0.61111   2.2774   -0.1591 
 H                     1.74537   1.46668  -1.27223 
 H                     2.31968   1.46355   1.26458 
 H                     0.98006   0.33306   1.44532 
 
 ITRead=  0  0  0  0  0  0  0  0  0  0  0  0  0  0  0  0  0  0  0  0
 ITRead=  0  0  0  0  0  0  0  0  0  0  0  0  0  0  0  0  0
 MicOpt= -1 -1 -1 -1 -1 -1 -1 -1 -1 -1 -1 -1 -1 -1 -1 -1 -1 -1 -1 -1
 MicOpt= -1 -1 -1 -1 -1 -1 -1 -1 -1 -1 -1 -1 -1 -1 -1 -1 -1
 NAtoms=     37 NQM=       37 NQMF=       0 NMMI=      0 NMMIF=      0
                NMic=       0 NMicF=      0.
                    Isotopes and Nuclear Properties:
 (Nuclear quadrupole moments (NQMom) in fm**2, nuclear magnetic moments (NMagM)
  in nuclear magnetons)

  Atom         1           2           3           4           5           6           7           8           9          10
 IAtWgt=          12          12          12          12          12          12          14          12          12          12
 AtmWgt=  12.0000000  12.0000000  12.0000000  12.0000000  12.0000000  12.0000000  14.0030740  12.0000000  12.0000000  12.0000000
 NucSpn=           0           0           0           0           0           0           2           0           0           0
 AtZEff=  -0.0000000  -0.0000000  -0.0000000  -0.0000000  -0.0000000  -0.0000000  -0.0000000  -0.0000000  -0.0000000  -0.0000000
 NQMom=    0.0000000   0.0000000   0.0000000   0.0000000   0.0000000   0.0000000   2.0440000   0.0000000   0.0000000   0.0000000
 NMagM=    0.0000000   0.0000000   0.0000000   0.0000000   0.0000000   0.0000000   0.4037610   0.0000000   0.0000000   0.0000000
 AtZNuc=   6.0000000   6.0000000   6.0000000   6.0000000   6.0000000   6.0000000   7.0000000   6.0000000   6.0000000   6.0000000

  Atom        11          12          13          14          15          16          17          18          19          20
 IAtWgt=          12          14          16          12          12          14          12          12           1           1
 AtmWgt=  12.0000000  14.0030740  15.9949146  12.0000000  12.0000000  14.0030740  12.0000000  12.0000000   1.0078250   1.0078250
 NucSpn=           0           2           0           0           0           2           0           0           1           1
 AtZEff=  -0.0000000  -0.0000000  -0.0000000  -0.0000000  -0.0000000  -0.0000000  -0.0000000  -0.0000000  -0.0000000  -0.0000000
 NQMom=    0.0000000   2.0440000   0.0000000   0.0000000   0.0000000   2.0440000   0.0000000   0.0000000   0.0000000   0.0000000
 NMagM=    0.0000000   0.4037610   0.0000000   0.0000000   0.0000000   0.4037610   0.0000000   0.0000000   2.7928460   2.7928460
 AtZNuc=   6.0000000   7.0000000   8.0000000   6.0000000   6.0000000   7.0000000   6.0000000   6.0000000   1.0000000   1.0000000

  Atom        21          22          23          24          25          26          27          28          29          30
 IAtWgt=           1           1           1           1           1           1           1           1           1           1
 AtmWgt=   1.0078250   1.0078250   1.0078250   1.0078250   1.0078250   1.0078250   1.0078250   1.0078250   1.0078250   1.0078250
 NucSpn=           1           1           1           1           1           1           1           1           1           1
 AtZEff=  -0.0000000  -0.0000000  -0.0000000  -0.0000000  -0.0000000  -0.0000000  -0.0000000  -0.0000000  -0.0000000  -0.0000000
 NQMom=    0.0000000   0.0000000   0.0000000   0.0000000   0.0000000   0.0000000   0.0000000   0.0000000   0.0000000   0.0000000
 NMagM=    2.7928460   2.7928460   2.7928460   2.7928460   2.7928460   2.7928460   2.7928460   2.7928460   2.7928460   2.7928460
 AtZNuc=   1.0000000   1.0000000   1.0000000   1.0000000   1.0000000   1.0000000   1.0000000   1.0000000   1.0000000   1.0000000

  Atom        31          32          33          34          35          36          37
 IAtWgt=           1           1           1           1           1           1           1
 AtmWgt=   1.0078250   1.0078250   1.0078250   1.0078250   1.0078250   1.0078250   1.0078250
 NucSpn=           1           1           1           1           1           1           1
 AtZEff=  -0.0000000  -0.0000000  -0.0000000  -0.0000000  -0.0000000  -0.0000000  -0.0000000
 NQMom=    0.0000000   0.0000000   0.0000000   0.0000000   0.0000000   0.0000000   0.0000000
 NMagM=    2.7928460   2.7928460   2.7928460   2.7928460   2.7928460   2.7928460   2.7928460
 AtZNuc=   1.0000000   1.0000000   1.0000000   1.0000000   1.0000000   1.0000000   1.0000000
 Leave Link  101 at Fri Nov  4 18:15:56 2022, MaxMem=   805306368 cpu:               1.2 elap:               0.2
 (Enter /home/wykgroup/appl/g16/l103.exe)

 GradGradGradGradGradGradGradGradGradGradGradGradGradGradGradGradGradGrad
 Berny optimization.
 Initialization pass.
                           ----------------------------
                           !    Initial Parameters    !
                           ! (Angstroms and Degrees)  !
 --------------------------                            --------------------------
 ! Name  Definition              Value          Derivative Info.                !
 --------------------------------------------------------------------------------
 ! R1    R(1,2)                  1.5297         estimate D2E/DX2                !
 ! R2    R(1,19)                 1.0878         estimate D2E/DX2                !
 ! R3    R(1,20)                 1.0875         estimate D2E/DX2                !
 ! R4    R(1,21)                 1.0875         estimate D2E/DX2                !
 ! R5    R(2,3)                  1.5042         estimate D2E/DX2                !
 ! R6    R(2,22)                 1.0914         estimate D2E/DX2                !
 ! R7    R(2,23)                 1.093          estimate D2E/DX2                !
 ! R8    R(3,4)                  1.3281         estimate D2E/DX2                !
 ! R9    R(3,18)                 1.5066         estimate D2E/DX2                !
 ! R10   R(4,5)                  1.5016         estimate D2E/DX2                !
 ! R11   R(4,24)                 1.0817         estimate D2E/DX2                !
 ! R12   R(5,6)                  1.538          estimate D2E/DX2                !
 ! R13   R(5,25)                 1.0903         estimate D2E/DX2                !
 ! R14   R(5,26)                 1.0948         estimate D2E/DX2                !
 ! R15   R(6,7)                  1.4417         estimate D2E/DX2                !
 ! R16   R(6,27)                 1.0945         estimate D2E/DX2                !
 ! R17   R(6,28)                 1.0907         estimate D2E/DX2                !
 ! R18   R(7,8)                  1.3597         estimate D2E/DX2                !
 ! R19   R(7,17)                 1.4454         estimate D2E/DX2                !
 ! R20   R(8,9)                  1.4086         estimate D2E/DX2                !
 ! R21   R(8,16)                 1.3407         estimate D2E/DX2                !
 ! R22   R(9,10)                 1.3817         estimate D2E/DX2                !
 ! R23   R(9,29)                 1.0769         estimate D2E/DX2                !
 ! R24   R(10,11)                1.4938         estimate D2E/DX2                !
 ! R25   R(10,14)                1.3982         estimate D2E/DX2                !
 ! R26   R(11,12)                1.3555         estimate D2E/DX2                !
 ! R27   R(11,13)                1.2137         estimate D2E/DX2                !
 ! R28   R(12,30)                1.0034         estimate D2E/DX2                !
 ! R29   R(12,31)                1.0063         estimate D2E/DX2                !
 ! R30   R(14,15)                1.3817         estimate D2E/DX2                !
 ! R31   R(14,32)                1.0784         estimate D2E/DX2                !
 ! R32   R(15,16)                1.3185         estimate D2E/DX2                !
 ! R33   R(15,33)                1.0833         estimate D2E/DX2                !
 ! R34   R(17,18)                1.5361         estimate D2E/DX2                !
 ! R35   R(17,34)                1.0905         estimate D2E/DX2                !
 ! R36   R(17,35)                1.0934         estimate D2E/DX2                !
 ! R37   R(18,36)                1.0902         estimate D2E/DX2                !
 ! R38   R(18,37)                1.0941         estimate D2E/DX2                !
 ! A1    A(2,1,19)             110.1451         estimate D2E/DX2                !
 ! A2    A(2,1,20)             110.3815         estimate D2E/DX2                !
 ! A3    A(2,1,21)             110.8737         estimate D2E/DX2                !
 ! A4    A(19,1,20)            108.5085         estimate D2E/DX2                !
 ! A5    A(19,1,21)            108.4467         estimate D2E/DX2                !
 ! A6    A(20,1,21)            108.417          estimate D2E/DX2                !
 ! A7    A(1,2,3)              111.1397         estimate D2E/DX2                !
 ! A8    A(1,2,22)             109.097          estimate D2E/DX2                !
 ! A9    A(1,2,23)             109.1777         estimate D2E/DX2                !
 ! A10   A(3,2,22)             109.8409         estimate D2E/DX2                !
 ! A11   A(3,2,23)             109.4717         estimate D2E/DX2                !
 ! A12   A(22,2,23)            108.0541         estimate D2E/DX2                !
 ! A13   A(2,3,4)              121.0681         estimate D2E/DX2                !
 ! A14   A(2,3,18)             115.8799         estimate D2E/DX2                !
 ! A15   A(4,3,18)             123.0436         estimate D2E/DX2                !
 ! A16   A(3,4,5)              125.3755         estimate D2E/DX2                !
 ! A17   A(3,4,24)             118.8956         estimate D2E/DX2                !
 ! A18   A(5,4,24)             115.7241         estimate D2E/DX2                !
 ! A19   A(4,5,6)              112.1669         estimate D2E/DX2                !
 ! A20   A(4,5,25)             109.4116         estimate D2E/DX2                !
 ! A21   A(4,5,26)             110.1036         estimate D2E/DX2                !
 ! A22   A(6,5,25)             109.0182         estimate D2E/DX2                !
 ! A23   A(6,5,26)             108.1699         estimate D2E/DX2                !
 ! A24   A(25,5,26)            107.8648         estimate D2E/DX2                !
 ! A25   A(5,6,7)              112.4857         estimate D2E/DX2                !
 ! A26   A(5,6,27)             109.2189         estimate D2E/DX2                !
 ! A27   A(5,6,28)             110.2632         estimate D2E/DX2                !
 ! A28   A(7,6,27)             107.6639         estimate D2E/DX2                !
 ! A29   A(7,6,28)             109.4016         estimate D2E/DX2                !
 ! A30   A(27,6,28)            107.6579         estimate D2E/DX2                !
 ! A31   A(6,7,8)              122.3251         estimate D2E/DX2                !
 ! A32   A(6,7,17)             115.6692         estimate D2E/DX2                !
 ! A33   A(8,7,17)             118.6266         estimate D2E/DX2                !
 ! A34   A(7,8,9)              123.2643         estimate D2E/DX2                !
 ! A35   A(7,8,16)             116.2544         estimate D2E/DX2                !
 ! A36   A(9,8,16)             120.4477         estimate D2E/DX2                !
 ! A37   A(8,9,10)             119.4681         estimate D2E/DX2                !
 ! A38   A(8,9,29)             122.7663         estimate D2E/DX2                !
 ! A39   A(10,9,29)            117.7642         estimate D2E/DX2                !
 ! A40   A(9,10,11)            117.3708         estimate D2E/DX2                !
 ! A41   A(9,10,14)            119.1851         estimate D2E/DX2                !
 ! A42   A(11,10,14)           123.4412         estimate D2E/DX2                !
 ! A43   A(10,11,12)           115.3858         estimate D2E/DX2                !
 ! A44   A(10,11,13)           122.6685         estimate D2E/DX2                !
 ! A45   A(12,11,13)           121.9451         estimate D2E/DX2                !
 ! A46   A(11,12,30)           122.2695         estimate D2E/DX2                !
 ! A47   A(11,12,31)           118.3542         estimate D2E/DX2                !
 ! A48   A(30,12,31)           118.8847         estimate D2E/DX2                !
 ! A49   A(10,14,15)           117.1198         estimate D2E/DX2                !
 ! A50   A(10,14,32)           122.3768         estimate D2E/DX2                !
 ! A51   A(15,14,32)           120.4861         estimate D2E/DX2                !
 ! A52   A(14,15,16)           124.3907         estimate D2E/DX2                !
 ! A53   A(14,15,33)           120.8558         estimate D2E/DX2                !
 ! A54   A(16,15,33)           114.7519         estimate D2E/DX2                !
 ! A55   A(8,16,15)            119.355          estimate D2E/DX2                !
 ! A56   A(7,17,18)            112.2513         estimate D2E/DX2                !
 ! A57   A(7,17,34)            107.1295         estimate D2E/DX2                !
 ! A58   A(7,17,35)            108.4221         estimate D2E/DX2                !
 ! A59   A(18,17,34)           109.3136         estimate D2E/DX2                !
 ! A60   A(18,17,35)           110.1034         estimate D2E/DX2                !
 ! A61   A(34,17,35)           109.5501         estimate D2E/DX2                !
 ! A62   A(3,18,17)            113.776          estimate D2E/DX2                !
 ! A63   A(3,18,36)            109.4288         estimate D2E/DX2                !
 ! A64   A(3,18,37)            109.6454         estimate D2E/DX2                !
 ! A65   A(17,18,36)           108.5997         estimate D2E/DX2                !
 ! A66   A(17,18,37)           107.6395         estimate D2E/DX2                !
 ! A67   A(36,18,37)           107.5565         estimate D2E/DX2                !
 ! D1    D(19,1,2,3)           -60.4172         estimate D2E/DX2                !
 ! D2    D(19,1,2,22)           60.8455         estimate D2E/DX2                !
 ! D3    D(19,1,2,23)          178.7274         estimate D2E/DX2                !
 ! D4    D(20,1,2,3)           179.7806         estimate D2E/DX2                !
 ! D5    D(20,1,2,22)          -58.9567         estimate D2E/DX2                !
 ! D6    D(20,1,2,23)           58.9252         estimate D2E/DX2                !
 ! D7    D(21,1,2,3)            59.6229         estimate D2E/DX2                !
 ! D8    D(21,1,2,22)         -179.1144         estimate D2E/DX2                !
 ! D9    D(21,1,2,23)          -61.2325         estimate D2E/DX2                !
 ! D10   D(1,2,3,4)            105.2498         estimate D2E/DX2                !
 ! D11   D(1,2,3,18)           -73.7315         estimate D2E/DX2                !
 ! D12   D(22,2,3,4)           -15.576          estimate D2E/DX2                !
 ! D13   D(22,2,3,18)          165.4427         estimate D2E/DX2                !
 ! D14   D(23,2,3,4)          -134.068          estimate D2E/DX2                !
 ! D15   D(23,2,3,18)           46.9507         estimate D2E/DX2                !
 ! D16   D(2,3,4,5)           -177.8475         estimate D2E/DX2                !
 ! D17   D(2,3,4,24)             1.3156         estimate D2E/DX2                !
 ! D18   D(18,3,4,5)             1.0591         estimate D2E/DX2                !
 ! D19   D(18,3,4,24)         -179.7778         estimate D2E/DX2                !
 ! D20   D(2,3,18,17)          120.4468         estimate D2E/DX2                !
 ! D21   D(2,3,18,36)           -1.2196         estimate D2E/DX2                !
 ! D22   D(2,3,18,37)         -118.965          estimate D2E/DX2                !
 ! D23   D(4,3,18,17)          -58.5123         estimate D2E/DX2                !
 ! D24   D(4,3,18,36)          179.8214         estimate D2E/DX2                !
 ! D25   D(4,3,18,37)           62.076          estimate D2E/DX2                !
 ! D26   D(3,4,5,6)             56.9154         estimate D2E/DX2                !
 ! D27   D(3,4,5,25)           178.0233         estimate D2E/DX2                !
 ! D28   D(3,4,5,26)           -63.5949         estimate D2E/DX2                !
 ! D29   D(24,4,5,6)          -122.2713         estimate D2E/DX2                !
 ! D30   D(24,4,5,25)           -1.1634         estimate D2E/DX2                !
 ! D31   D(24,4,5,26)          117.2184         estimate D2E/DX2                !
 ! D32   D(4,5,6,7)            -77.4033         estimate D2E/DX2                !
 ! D33   D(4,5,6,27)            42.074          estimate D2E/DX2                !
 ! D34   D(4,5,6,28)           160.1815         estimate D2E/DX2                !
 ! D35   D(25,5,6,7)           161.2625         estimate D2E/DX2                !
 ! D36   D(25,5,6,27)          -79.2602         estimate D2E/DX2                !
 ! D37   D(25,5,6,28)           38.8473         estimate D2E/DX2                !
 ! D38   D(26,5,6,7)            44.2208         estimate D2E/DX2                !
 ! D39   D(26,5,6,27)          163.6981         estimate D2E/DX2                !
 ! D40   D(26,5,6,28)          -78.1944         estimate D2E/DX2                !
 ! D41   D(5,6,7,8)            -83.8986         estimate D2E/DX2                !
 ! D42   D(5,6,7,17)            75.0348         estimate D2E/DX2                !
 ! D43   D(27,6,7,8)           155.7233         estimate D2E/DX2                !
 ! D44   D(27,6,7,17)          -45.3433         estimate D2E/DX2                !
 ! D45   D(28,6,7,8)            39.0014         estimate D2E/DX2                !
 ! D46   D(28,6,7,17)         -162.0651         estimate D2E/DX2                !
 ! D47   D(6,7,8,9)             -9.9808         estimate D2E/DX2                !
 ! D48   D(6,7,8,16)           172.1242         estimate D2E/DX2                !
 ! D49   D(17,7,8,9)          -168.3209         estimate D2E/DX2                !
 ! D50   D(17,7,8,16)           13.7841         estimate D2E/DX2                !
 ! D51   D(6,7,17,18)          -73.1013         estimate D2E/DX2                !
 ! D52   D(6,7,17,34)          166.8964         estimate D2E/DX2                !
 ! D53   D(6,7,17,35)           48.7494         estimate D2E/DX2                !
 ! D54   D(8,7,17,18)           86.6529         estimate D2E/DX2                !
 ! D55   D(8,7,17,34)          -33.3494         estimate D2E/DX2                !
 ! D56   D(8,7,17,35)         -151.4964         estimate D2E/DX2                !
 ! D57   D(7,8,9,10)          -176.7251         estimate D2E/DX2                !
 ! D58   D(7,8,9,29)             3.7189         estimate D2E/DX2                !
 ! D59   D(16,8,9,10)            1.085          estimate D2E/DX2                !
 ! D60   D(16,8,9,29)         -178.471          estimate D2E/DX2                !
 ! D61   D(7,8,16,15)          175.8762         estimate D2E/DX2                !
 ! D62   D(9,8,16,15)           -2.0822         estimate D2E/DX2                !
 ! D63   D(8,9,10,11)          179.9325         estimate D2E/DX2                !
 ! D64   D(8,9,10,14)            0.5325         estimate D2E/DX2                !
 ! D65   D(29,9,10,11)          -0.4894         estimate D2E/DX2                !
 ! D66   D(29,9,10,14)        -179.8894         estimate D2E/DX2                !
 ! D67   D(9,10,11,12)         154.9889         estimate D2E/DX2                !
 ! D68   D(9,10,11,13)         -24.7369         estimate D2E/DX2                !
 ! D69   D(14,10,11,12)        -25.6389         estimate D2E/DX2                !
 ! D70   D(14,10,11,13)        154.6353         estimate D2E/DX2                !
 ! D71   D(9,10,14,15)          -1.1061         estimate D2E/DX2                !
 ! D72   D(9,10,14,32)         177.3859         estimate D2E/DX2                !
 ! D73   D(11,10,14,15)        179.5324         estimate D2E/DX2                !
 ! D74   D(11,10,14,32)         -1.9756         estimate D2E/DX2                !
 ! D75   D(10,11,12,30)         -6.1664         estimate D2E/DX2                !
 ! D76   D(10,11,12,31)       -178.028          estimate D2E/DX2                !
 ! D77   D(13,11,12,30)        173.5616         estimate D2E/DX2                !
 ! D78   D(13,11,12,31)          1.7            estimate D2E/DX2                !
 ! D79   D(10,14,15,16)          0.1078         estimate D2E/DX2                !
 ! D80   D(10,14,15,33)       -179.4144         estimate D2E/DX2                !
 ! D81   D(32,14,15,16)       -178.4144         estimate D2E/DX2                !
 ! D82   D(32,14,15,33)          2.0634         estimate D2E/DX2                !
 ! D83   D(14,15,16,8)           1.5106         estimate D2E/DX2                !
 ! D84   D(33,15,16,8)        -178.9411         estimate D2E/DX2                !
 ! D85   D(7,17,18,3)           76.1704         estimate D2E/DX2                !
 ! D86   D(7,17,18,36)        -161.7041         estimate D2E/DX2                !
 ! D87   D(7,17,18,37)         -45.5376         estimate D2E/DX2                !
 ! D88   D(34,17,18,3)        -165.1054         estimate D2E/DX2                !
 ! D89   D(34,17,18,36)        -42.9799         estimate D2E/DX2                !
 ! D90   D(34,17,18,37)         73.1866         estimate D2E/DX2                !
 ! D91   D(35,17,18,3)         -44.7165         estimate D2E/DX2                !
 ! D92   D(35,17,18,36)         77.409          estimate D2E/DX2                !
 ! D93   D(35,17,18,37)       -166.4245         estimate D2E/DX2                !
 --------------------------------------------------------------------------------
 Trust Radius=3.00D-01 FncErr=1.00D-07 GrdErr=1.00D-06 EigMax=2.50D+02 EigMin=1.00D-04
 Number of steps in this run=    208 maximum allowed number of steps=    222.
 GradGradGradGradGradGradGradGradGradGradGradGradGradGradGradGradGradGrad

 Leave Link  103 at Fri Nov  4 18:15:56 2022, MaxMem=   805306368 cpu:               0.1 elap:               0.0
 (Enter /home/wykgroup/appl/g16/l202.exe)
                          Input orientation:                          
 ---------------------------------------------------------------------
 Center     Atomic      Atomic             Coordinates (Angstroms)
 Number     Number       Type             X           Y           Z
 ---------------------------------------------------------------------
      1          6           0        4.802527    0.733298   -0.158210
      2          6           0        4.113320   -0.273761    0.764202
      3          6           0        2.667278   -0.450914    0.389949
      4          6           0        2.251403   -1.543230   -0.240631
      5          6           0        0.844809   -1.799856   -0.699261
      6          6           0        0.331617   -0.698113   -1.641673
      7          7           0       -0.052160    0.497962   -0.934200
      8          6           0       -1.278374    0.644261   -0.365082
      9          6           0       -2.342777   -0.252516   -0.581934
     10          6           0       -3.576912    0.008261   -0.017976
     11          6           0       -4.672614   -0.972840   -0.279452
     12          7           0       -5.656605   -1.007005    0.652186
     13          8           0       -4.685348   -1.696420   -1.253741
     14          6           0       -3.745523    1.165527    0.748400
     15          6           0       -2.640024    1.977444    0.914694
     16          7           0       -1.451335    1.731802    0.399669
     17          6           0        1.036944    1.317381   -0.452827
     18          6           0        1.749775    0.687479    0.753220
     19          1           0        4.763083    0.385871   -1.188284
     20          1           0        5.845347    0.854766    0.125465
     21          1           0        4.316303    1.704492   -0.103775
     22          1           0        4.632843   -1.231415    0.699030
     23          1           0        4.181922    0.079266    1.796304
     24          1           0        2.967924   -2.321695   -0.465486
     25          1           0        0.801612   -2.758527   -1.216692
     26          1           0        0.171763   -1.852741    0.162544
     27          1           0        1.125047   -0.427567   -2.345439
     28          1           0       -0.516065   -1.062942   -2.223048
     29          1           0       -2.238966   -1.149216   -1.169218
     30          1           0       -5.605254   -0.481071    1.505139
     31          1           0       -6.401825   -1.673145    0.535988
     32          1           0       -4.695789    1.440506    1.177620
     33          1           0       -2.700165    2.883964    1.504728
     34          1           0        0.611109    2.277403   -0.159102
     35          1           0        1.745372    1.466683   -1.272225
     36          1           0        2.319680    1.463547    1.264584
     37          1           0        0.980058    0.333060    1.445315
 ---------------------------------------------------------------------
                    Distance matrix (angstroms):
                    1          2          3          4          5
     1  C    0.000000
     2  C    1.529712   0.000000
     3  C    2.502424   1.504156   0.000000
     4  C    3.420177   2.467382   1.328057   0.000000
     5  C    4.730026   3.892795   2.515436   1.501568   0.000000
     6  C    4.923275   4.502175   3.105464   2.522443   1.537968
     7  N    4.921944   4.564137   3.170029   3.154981   2.477846
     8  C    6.085071   5.584658   4.163851   4.154508   3.254734
     9  C    7.225423   6.594976   5.107305   4.784236   3.545240
    10  C    8.411917   7.735051   6.274326   6.035392   4.825459
    11  C    9.628287   8.875278   7.388811   6.947580   5.594833
    12  N   10.633853   9.798041   8.346558   7.976293   6.687556
    13  O    9.855125   9.138523   7.636368   7.012016   5.558847
    14  C    8.606854   7.989569   6.623095   6.654222   5.653350
    15  C    7.621719   7.120268   5.860012   6.136447   5.386735
    16  N    6.357596   5.926259   4.661257   4.984584   4.353451
    17  C    3.821985   3.671100   2.548554   3.114969   3.132860
    18  C    3.186236   2.551558   1.506558   2.493077   3.019189
    19  H    1.087802   2.160904   2.753802   3.305754   4.513249
    20  H    1.087520   2.163672   3.445994   4.335994   5.721238
    21  H    1.087472   2.169809   2.758409   3.851005   4.968534
    22  H    2.150292   1.091446   2.137325   2.579040   4.077689
    23  H    2.152449   1.092964   2.133793   3.241682   4.571135
    24  H    3.576755   2.649169   2.078936   1.081651   2.198768
    25  H    5.414845   4.589707   3.374475   2.128741   1.090252
    26  H    5.313610   4.288477   2.871311   2.140852   1.094758
    27  H    4.433446   4.315472   3.140282   2.635071   2.161391
    28  H    5.981426   5.565759   4.163653   3.437955   2.171853
    29  H    7.358575   6.697467   5.195176   4.602275   3.186512
    30  H   10.609587   9.748981   8.347416   8.118063   6.942758
    31  H   11.480871  10.610307   9.152257   8.688980   7.352251
    32  H    9.617827   8.983876   7.642817   7.692697   6.687366
    33  H    7.980045   7.546070   6.416665   6.867630   6.273960
    34  H    4.466793   4.430170   3.460203   4.158659   4.119518
    35  H    3.335428   3.575382   2.699984   3.221774   3.436507
    36  H    2.953326   2.546716   2.133302   3.363189   4.084328
    37  H    4.164464   3.263354   2.138955   2.824747   3.027678
                    6          7          8          9         10
     6  C    0.000000
     7  N    1.441665   0.000000
     8  C    2.454328   1.359742   0.000000
     9  C    2.911011   2.436028   1.408611   0.000000
    10  C    4.290916   3.674663   2.410032   1.381718   0.000000
    11  C    5.193597   4.892908   3.760746   2.457337   1.493817
    12  N    6.419969   6.015924   4.788571   3.615766   2.409357
    13  O    5.130014   5.136521   4.227998   2.832635   2.379429
    14  C    5.080224   4.113115   2.756517   2.397568   1.398223
    15  C    4.745974   3.507751   2.295494   2.702031   2.371775
    16  N    3.640121   2.293306   1.340710   2.386573   2.768231
    17  C    2.443983   1.445446   2.412776   3.728774   4.815658
    18  C    3.109107   2.475939   3.228336   4.406269   5.424913
    19  H    4.584590   4.823245   6.102756   7.160198   8.430168
    20  H    5.994616   6.002565   7.143693   8.292880   9.461296
    21  H    4.900546   4.607471   5.700244   6.957144   8.073872
    22  H    4.925835   5.254279   6.292296   7.159496   8.333726
    23  H    5.220043   5.055533   5.899631   6.952538   7.968448
    24  H    3.312031   4.158253   5.180543   5.700754   6.961597
    25  H    2.155646   3.378380   4.078057   4.070649   5.316344
    26  H    2.148003   2.603612   2.935355   3.072113   4.189091
    27  H    1.094537   2.057673   3.293488   3.894405   5.264547
    28  H    1.090717   2.076718   2.635848   2.585908   3.921556
    29  H    2.652283   2.747826   2.187677   1.076917   2.110737
    30  H    6.722795   6.143755   4.846234   3.879674   2.583311
    31  H    7.143678   6.869745   5.694914   4.443401   3.333787
    32  H    6.147920   5.187625   3.833100   3.391020   2.175468
    33  H    5.650028   4.318947   3.245604   3.784097   3.370012
    34  H    3.336139   2.051124   2.505938   3.912124   4.765338
    35  H    2.611806   2.069734   3.262258   4.488329   5.659226
    36  H    4.131767   3.375297   4.033986   5.300284   6.207466
    37  H    3.318627   2.598992   2.911168   3.936225   4.797155
                   11         12         13         14         15
    11  C    0.000000
    12  N    1.355490   0.000000
    13  O    1.213660   2.247486   0.000000
    14  C    2.547271   2.895062   3.616985   0.000000
    15  C    3.776451   4.251541   4.731040   1.381662   0.000000
    16  N    4.260626   5.024850   4.994528   2.388636   1.318550
    17  C    6.154204   7.171291   6.516831   4.933356   3.978177
    18  C    6.713431   7.598417   7.149942   5.516054   4.578255
    19  H    9.576244  10.672269   9.675384   8.760992   7.858856
    20  H   10.683239  11.663555  10.922742   9.616102   8.595628
    21  H    9.380810  10.362556   9.691147   8.124637   7.035785
    22  H    9.360333  10.292002   9.531958   8.714631   7.952226
    23  H    9.155245   9.964216   9.543810   8.069848   7.135774
    24  H    7.760917   8.795458   7.719124   7.661893   7.199762
    25  H    5.833888   6.947596   5.588933   6.319511   6.230336
    26  H    4.943438   5.909729   5.061801   4.979789   4.810633
    27  H    6.178875   7.437224   6.046691   5.986004   5.530670
    28  H    4.589399   5.890267   4.327097   4.921887   4.858042
    29  H    2.597198   3.875305   2.508258   3.362292   3.778828
    30  H    2.072780   1.003380   3.151939   2.596639   3.896858
    31  H    2.036060   1.006280   2.479913   3.893471   5.255603
    32  H    2.819190   2.681335   3.968870   1.078354   2.140935
    33  H    4.684954   4.960544   5.703509   2.148914   1.083299
    34  H    6.204538   7.122483   6.711330   4.586946   3.436988
    35  H    6.937392   8.038143   7.166569   5.858630   4.926986
    36  H    7.563876   8.372561   8.086889   6.094420   4.998518
    37  H    6.052511   6.816899   6.595492   4.848691   4.011302
                   16         17         18         19         20
    16  N    0.000000
    17  C    2.662710   0.000000
    18  C    3.385662   1.536051   0.000000
    19  H    6.553786   3.910591   3.597281   0.000000
    20  H    7.354314   4.865097   4.146779   1.765529   0.000000
    21  H    5.789632   3.320525   2.890644   1.764804   1.764246
    22  H    6.774031   4.555615   3.463694   2.488882   2.480180
    23  H    6.034488   4.059853   2.715380   3.056063   2.481952
    24  H    6.058809   4.119674   3.467601   3.328055   4.326510
    25  H    5.277446   4.153540   4.080995   5.057796   6.347955
    26  H    3.942032   3.343185   3.048235   5.283591   6.286614
    27  H    4.340073   2.575769   3.351910   3.903331   5.480053
    28  H    3.945119   3.348351   4.129912   5.571284   7.047033
    29  H    3.373727   4.162800   4.793670   7.168371   8.429013
    30  H    4.834658   7.154499   7.485141  10.747489  11.610522
    31  H    6.009958   8.078136   8.489306  11.483372  12.512077
    32  H    3.349111   5.961354   6.503265   9.807141  10.609697
    33  H    2.026872   4.500243   5.019091   8.318224   8.890770
    34  H    2.205353   1.090528   2.157950   4.677178   5.431585
    35  H    3.617243   1.093423   2.170163   3.206522   4.374675
    36  H    3.878220   2.148552   1.090214   3.626040   3.754801
    37  H    2.993580   2.138940   1.094108   4.609763   5.068059
                   21         22         23         24         25
    21  H    0.000000
    22  H    3.060106   0.000000
    23  H    2.503941   1.767831   0.000000
    24  H    4.261355   2.305811   3.514840   0.000000
    25  H    5.788797   4.547570   5.343942   2.334103   0.000000
    26  H    5.468276   4.535978   4.741645   2.903937   1.766196
    27  H    4.444643   4.713767   5.172562   3.243168   2.609991
    28  H    5.958338   5.922684   6.287361   4.100203   2.371504
    29  H    7.228441   7.121718   7.178530   5.383460   3.440530
    30  H   10.286038  10.297158   9.807526   8.987248   7.324145
    31  H   11.255931  11.044710  10.801622   9.445409   7.492626
    32  H    9.106561   9.715534   9.002750   8.694047   7.320247
    33  H    7.294467   8.447396   7.437370   7.944045   7.176787
    34  H    3.749633   5.405788   4.626675   5.176886   5.149308
    35  H    2.833993   4.416229   4.156630   4.061683   4.329684
    36  H    2.432481   3.596304   2.380526   4.212057   5.127102
    37  H    3.925689   4.043188   3.231028   3.827597   4.083630
                   26         27         28         29         30
    26  H    0.000000
    27  H    3.038066   0.000000
    28  H    2.605367   1.764066   0.000000
    29  H    2.842561   3.636049   2.021481   0.000000
    30  H    6.087526   7.754145   6.335439   4.350919   0.000000
    31  H    6.586636   8.155237   6.528920   4.528976   1.730555
    32  H    5.963969   7.055762   5.941538   4.272036   2.151012
    33  H    5.699632   6.357851   5.851894   4.860991   4.445560
    34  H    4.165881   3.515830   4.085131   4.570008   7.001575
    35  H    3.943777   2.263796   3.523799   4.767440   8.095628
    36  H    4.101927   4.246850   5.156372   5.790611   8.163577
    37  H    2.660182   3.869030   4.200487   4.403980   6.635715
                   31         32         33         34         35
    31  H    0.000000
    32  H    3.607918   0.000000
    33  H    5.950461   2.484570   0.000000
    34  H    8.079061   5.536280   3.755101   0.000000
    35  H    8.916556   6.891370   5.429820   1.784057   0.000000
    36  H    9.297008   7.016046   5.222461   2.368219   2.601008
    37  H    7.703501   5.789070   4.478245   2.547694   3.042340
                   36         37
    36  H    0.000000
    37  H    1.762173   0.000000
 Stoichiometry    C14H19N3O
 Framework group  C1[X(C14H19N3O)]
 Deg. of freedom   105
 Full point group                 C1      NOp   1
 Largest Abelian subgroup         C1      NOp   1
 Largest concise Abelian subgroup C1      NOp   1
                         Standard orientation:                         
 ---------------------------------------------------------------------
 Center     Atomic      Atomic             Coordinates (Angstroms)
 Number     Number       Type             X           Y           Z
 ---------------------------------------------------------------------
      1          6           0       -5.422584    0.434061    0.247285
      2          6           0       -4.687435   -0.079112   -0.992162
      3          6           0       -3.234818   -0.332468   -0.695180
      4          6           0       -2.769038   -1.568428   -0.556664
      5          6           0       -1.352169   -1.930349   -0.215778
      6          6           0       -0.890579   -1.288351    1.103358
      7          7           0       -0.562341    0.107279    0.952111
      8          6           0        0.655904    0.524502    0.515415
      9          6           0        1.760557   -0.337038    0.368195
     10          6           0        2.981426    0.182822   -0.016990
     11          6           0        4.121234   -0.772511   -0.157234
     12          7           0        5.105911   -0.382191   -1.003056
     13          8           0        4.167211   -1.829356    0.437690
     14          6           0        3.096530    1.558026   -0.241919
     15          6           0        1.954735    2.319816   -0.083900
     16          7           0        0.778573    1.835634    0.263641
     17          6           0       -1.688052    1.005133    0.825828
     18          6           0       -2.370818    0.892614   -0.545530
     19          1           0       -5.367310   -0.301350    1.046928
     20          1           0       -6.469853    0.616658    0.017970
     21          1           0       -4.981732    1.362507    0.602578
     22          1           0       -5.162179   -1.000991   -1.332769
     23          1           0       -4.772095    0.661006   -1.791930
     24          1           0       -3.448872   -2.400315   -0.682202
     25          1           0       -1.264823   -3.013954   -0.133189
     26          1           0       -0.677252   -1.598682   -1.011377
     27          1           0       -1.695780   -1.362102    1.841074
     28          1           0       -0.027048   -1.822562    1.501599
     29          1           0        1.698178   -1.398809    0.537020
     30          1           0        5.030467    0.443270   -1.568472
     31          1           0        5.881087   -1.005761   -1.154254
     32          1           0        4.033153    2.023923   -0.503693
     33          1           0        1.973037    3.389826   -0.252064
     34          1           0       -1.306968    2.018461    0.956948
     35          1           0       -2.402760    0.777211    1.621327
     36          1           0       -2.975877    1.785027   -0.706996
     37          1           0       -1.585432    0.884110   -1.307219
 ---------------------------------------------------------------------
 Rotational constants (GHZ):           1.0270367           0.2013722           0.1816186
 Leave Link  202 at Fri Nov  4 18:15:56 2022, MaxMem=   805306368 cpu:               0.1 elap:               0.0
 (Enter /home/wykgroup/appl/g16/l301.exe)
 Standard basis: 6-31G(d) (6D, 7F)
 Ernie: Thresh=  0.10000D-02 Tol=  0.10000D-05 Strict=F.
 There are   308 symmetry adapted cartesian basis functions of A   symmetry.
 There are   308 symmetry adapted basis functions of A   symmetry.
   308 basis functions,   580 primitive gaussians,   308 cartesian basis functions
    66 alpha electrons       66 beta electrons
       nuclear repulsion energy      1308.6853591803 Hartrees.
 IExCor=  402 DFT=T Ex+Corr=B3LYP ExCW=0 ScaHFX=  0.200000
 ScaDFX=  0.800000  0.720000  1.000000  0.810000 ScalE2=  1.000000  1.000000
 IRadAn=      5 IRanWt=     -1 IRanGd=            0 ICorTp=0 IEmpDi=  4
 NAtoms=   37 NActive=   37 NUniq=   37 SFac= 1.00D+00 NAtFMM=   60 NAOKFM=F Big=F
 Integral buffers will be    131072 words long.
 Raffenetti 2 integral format.
 Two-electron integral symmetry is turned on.
 Leave Link  301 at Fri Nov  4 18:15:56 2022, MaxMem=   805306368 cpu:               0.3 elap:               0.1
 (Enter /home/wykgroup/appl/g16/l302.exe)
 NPDir=0 NMtPBC=     1 NCelOv=     1 NCel=       1 NClECP=     1 NCelD=      1
         NCelK=      1 NCelE2=     1 NClLst=     1 CellRange=     0.0.
 One-electron integrals computed using PRISM.
 One-electron integral symmetry used in STVInt
 NBasis=   308 RedAO= T EigKep=  6.74D-04  NBF=   308
 NBsUse=   308 1.00D-06 EigRej= -1.00D+00 NBFU=   308
 Precomputing XC quadrature grid using
 IXCGrd= 4 IRadAn=           5 IRanWt=          -1 IRanGd=           0 AccXCQ= 0.00D+00.
 Generated NRdTot=       0 NPtTot=           0 NUsed=           0 NTot=          32
 NSgBfM=   305   305   305   305   305 MxSgAt=    37 MxSgA2=    37.
 Leave Link  302 at Fri Nov  4 18:15:56 2022, MaxMem=   805306368 cpu:               3.2 elap:               0.5
 (Enter /home/wykgroup/appl/g16/l303.exe)
 DipDrv:  MaxL=1.
 Leave Link  303 at Fri Nov  4 18:15:56 2022, MaxMem=   805306368 cpu:               0.2 elap:               0.1
 (Enter /home/wykgroup/appl/g16/l401.exe)
 ExpMin= 1.61D-01 ExpMax= 5.48D+03 ExpMxC= 8.25D+02 IAcc=3 IRadAn=         5 AccDes= 0.00D+00
 Harris functional with IExCor=  402 and IRadAn=       5 diagonalized for initial guess.
 HarFok:  IExCor=  402 AccDes= 0.00D+00 IRadAn=         5 IDoV= 1 UseB2=F ITyADJ=14
 ICtDFT=  3500011 ScaDFX=  1.000000  1.000000  1.000000  1.000000
 FoFCou: FMM=F IPFlag=           0 FMFlag=      100000 FMFlg1=           0
         NFxFlg=           0 DoJE=T BraDBF=F KetDBF=T FulRan=T
         wScrn=  0.000000 ICntrl=       500 IOpCl=  0 I1Cent=   200000004 NGrid=           0
         NMat0=    1 NMatS0=      1 NMatT0=    0 NMatD0=    1 NMtDS0=    0 NMtDT0=    0
 Petite list used in FoFCou.
 Harris En= -784.437051922927    
 JPrj=0 DoOrth=F DoCkMO=F.
 Leave Link  401 at Fri Nov  4 18:15:58 2022, MaxMem=   805306368 cpu:              12.6 elap:               1.8
 (Enter /home/wykgroup/appl/g16/l502.exe)
 Integral symmetry usage will be decided dynamically.
 Closed shell SCF:
 Using DIIS extrapolation, IDIIS=  1040.
 NGot=   805306368 LenX=   805110905 LenY=   805015600
 Requested convergence on RMS density matrix=1.00D-08 within  32 cycles.
 Requested convergence on MAX density matrix=1.00D-06.
 Requested convergence on             energy=1.00D-06.
 No special actions if energy rises.
 Fock matrices will be formed incrementally for  20 cycles.
 Integral accuracy reduced to 1.0D-05 until final iterations.

 Cycle   1  Pass 0  IDiag  1:
 FoFJK:  IHMeth= 1 ICntrl=       0 DoSepK=F KAlg= 0 I1Cent=           0 FoldK=F
 IRaf= 800000000 NMat=       1 IRICut=       1 DoRegI=T DoRafI=F ISym2E= 0 IDoP0=0 IntGTp=1.
 FoFCou: FMM=F IPFlag=           0 FMFlag=      100000 FMFlg1=           0
         NFxFlg=           0 DoJE=F BraDBF=F KetDBF=F FulRan=T
         wScrn=  0.000000 ICntrl=         0 IOpCl=  0 I1Cent=           0 NGrid=           0
         NMat0=    1 NMatS0=      1 NMatT0=    0 NMatD0=    1 NMtDS0=    0 NMtDT0=    0
 Symmetry not used in FoFCou.
 E= -783.927011070671    
 DIIS: error= 3.28D-02 at cycle   1 NSaved=   1.
 NSaved= 1 IEnMin= 1 EnMin= -783.927011070671     IErMin= 1 ErrMin= 3.28D-02
 ErrMax= 3.28D-02  0.00D+00 EMaxC= 1.00D-01 BMatC= 4.85D-01 BMatP= 4.85D-01
 IDIUse=3 WtCom= 6.72D-01 WtEn= 3.28D-01
 Coeff-Com:  0.100D+01
 Coeff-En:   0.100D+01
 Coeff:      0.100D+01
 Gap=     0.157 Goal=   None    Shift=    0.000
 GapD=    0.157 DampG=1.000 DampE=0.500 DampFc=0.5000 IDamp=-1.
 Damping current iteration by 5.00D-01
 RMSDP=5.91D-03 MaxDP=2.14D-01              OVMax= 2.41D-01

 Cycle   2  Pass 0  IDiag  1:
 RMSU=  2.93D-03    CP:  9.79D-01
 E= -784.120879387254     Delta-E=       -0.193868316584 Rises=F Damp=T
 DIIS: error= 9.11D-03 at cycle   2 NSaved=   2.
 NSaved= 2 IEnMin= 2 EnMin= -784.120879387254     IErMin= 2 ErrMin= 9.11D-03
 ErrMax= 9.11D-03  0.00D+00 EMaxC= 1.00D-01 BMatC= 4.59D-02 BMatP= 4.85D-01
 IDIUse=3 WtCom= 9.09D-01 WtEn= 9.11D-02
 Coeff-Com:  0.119D+00 0.881D+00
 Coeff-En:   0.177D+00 0.823D+00
 Coeff:      0.125D+00 0.875D+00
 Gap=     0.243 Goal=   None    Shift=    0.000
 RMSDP=1.71D-03 MaxDP=1.04D-01 DE=-1.94D-01 OVMax= 1.69D-01

 Cycle   3  Pass 0  IDiag  1:
 RMSU=  1.52D-03    CP:  9.68D-01  7.43D-01
 E= -784.360434453035     Delta-E=       -0.239555065781 Rises=F Damp=F
 DIIS: error= 1.39D-02 at cycle   3 NSaved=   3.
 NSaved= 3 IEnMin= 3 EnMin= -784.360434453035     IErMin= 2 ErrMin= 9.11D-03
 ErrMax= 1.39D-02  0.00D+00 EMaxC= 1.00D-01 BMatC= 5.84D-02 BMatP= 4.59D-02
 IDIUse=2 WtCom= 0.00D+00 WtEn= 1.00D+00
 Coeff-En:   0.000D+00 0.000D+00 0.100D+01
 Coeff:      0.000D+00 0.000D+00 0.100D+01
 Gap=     0.156 Goal=   None    Shift=    0.000
 RMSDP=2.75D-03 MaxDP=1.48D-01 DE=-2.40D-01 OVMax= 2.78D-01

 Cycle   4  Pass 0  IDiag  1:
 RMSU=  1.60D-03    CP:  9.76D-01  1.16D+00 -2.34D-01
 E= -784.130715998381     Delta-E=        0.229718454655 Rises=F Damp=F
 DIIS: error= 3.83D-02 at cycle   4 NSaved=   4.
 NSaved= 4 IEnMin= 3 EnMin= -784.360434453035     IErMin= 2 ErrMin= 9.11D-03
 ErrMax= 3.83D-02  0.00D+00 EMaxC= 1.00D-01 BMatC= 3.46D-01 BMatP= 4.59D-02
 IDIUse=2 WtCom= 0.00D+00 WtEn= 1.00D+00
 Coeff-En:   0.000D+00 0.000D+00 0.801D+00 0.199D+00
 Coeff:      0.000D+00 0.000D+00 0.801D+00 0.199D+00
 Gap=     0.183 Goal=   None    Shift=    0.000
 RMSDP=1.56D-03 MaxDP=9.66D-02 DE= 2.30D-01 OVMax= 1.59D-01

 Cycle   5  Pass 0  IDiag  1:
 RMSU=  2.69D-04    CP:  9.73D-01  8.85D-01  4.14D-01  4.55D-01
 E= -784.387030707164     Delta-E=       -0.256314708783 Rises=F Damp=F
 DIIS: error= 9.76D-03 at cycle   5 NSaved=   5.
 NSaved= 5 IEnMin= 5 EnMin= -784.387030707164     IErMin= 2 ErrMin= 9.11D-03
 ErrMax= 9.76D-03  0.00D+00 EMaxC= 1.00D-01 BMatC= 2.62D-02 BMatP= 4.59D-02
 IDIUse=3 WtCom= 9.02D-01 WtEn= 9.76D-02
 Coeff-Com:  0.534D-03 0.166D-01 0.317D+00-0.810D-01 0.747D+00
 Coeff-En:   0.000D+00 0.000D+00 0.347D+00 0.000D+00 0.653D+00
 Coeff:      0.482D-03 0.149D-01 0.320D+00-0.731D-01 0.738D+00
 Gap=     0.157 Goal=   None    Shift=    0.000
 RMSDP=5.17D-04 MaxDP=2.91D-02 DE=-2.56D-01 OVMax= 5.49D-02

 Cycle   6  Pass 0  IDiag  1:
 RMSU=  8.52D-05    CP:  9.71D-01  8.18D-01  6.46D-01  2.67D-01  7.53D-01
 E= -784.407421407248     Delta-E=       -0.020390700085 Rises=F Damp=F
 DIIS: error= 6.30D-04 at cycle   6 NSaved=   6.
 NSaved= 6 IEnMin= 6 EnMin= -784.407421407248     IErMin= 6 ErrMin= 6.30D-04
 ErrMax= 6.30D-04  0.00D+00 EMaxC= 1.00D-01 BMatC= 1.89D-04 BMatP= 2.62D-02
 IDIUse=3 WtCom= 9.94D-01 WtEn= 6.30D-03
 Coeff-Com: -0.892D-03 0.704D-02 0.165D+00-0.629D-01 0.468D+00 0.424D+00
 Coeff-En:   0.000D+00 0.000D+00 0.000D+00 0.000D+00 0.000D+00 0.100D+01
 Coeff:     -0.886D-03 0.699D-02 0.164D+00-0.625D-01 0.465D+00 0.428D+00
 Gap=     0.158 Goal=   None    Shift=    0.000
 RMSDP=5.89D-05 MaxDP=2.29D-03 DE=-2.04D-02 OVMax= 7.09D-03

 Cycle   7  Pass 0  IDiag  1:
 RMSU=  2.63D-05    CP:  9.71D-01  8.22D-01  6.42D-01  2.72D-01  7.98D-01
                    CP:  4.23D-01
 E= -784.407599200016     Delta-E=       -0.000177792768 Rises=F Damp=F
 DIIS: error= 1.33D-04 at cycle   7 NSaved=   7.
 NSaved= 7 IEnMin= 7 EnMin= -784.407599200016     IErMin= 7 ErrMin= 1.33D-04
 ErrMax= 1.33D-04  0.00D+00 EMaxC= 1.00D-01 BMatC= 1.39D-05 BMatP= 1.89D-04
 IDIUse=3 WtCom= 9.99D-01 WtEn= 1.33D-03
 Coeff-Com: -0.328D-05 0.777D-03 0.489D-01-0.206D-01 0.139D+00 0.211D+00
 Coeff-Com:  0.621D+00
 Coeff-En:   0.000D+00 0.000D+00 0.000D+00 0.000D+00 0.000D+00 0.923D-02
 Coeff-En:   0.991D+00
 Coeff:     -0.328D-05 0.776D-03 0.488D-01-0.206D-01 0.139D+00 0.211D+00
 Coeff:      0.621D+00
 Gap=     0.158 Goal=   None    Shift=    0.000
 RMSDP=1.49D-05 MaxDP=4.71D-04 DE=-1.78D-04 OVMax= 1.45D-03

 Cycle   8  Pass 0  IDiag  1:
 RMSU=  7.11D-06    CP:  9.71D-01  8.20D-01  6.44D-01  2.70D-01  7.96D-01
                    CP:  4.97D-01  6.53D-01
 E= -784.407611046296     Delta-E=       -0.000011846280 Rises=F Damp=F
 DIIS: error= 5.06D-05 at cycle   8 NSaved=   8.
 NSaved= 8 IEnMin= 8 EnMin= -784.407611046296     IErMin= 8 ErrMin= 5.06D-05
 ErrMax= 5.06D-05  0.00D+00 EMaxC= 1.00D-01 BMatC= 1.50D-06 BMatP= 1.39D-05
 IDIUse=1 WtCom= 1.00D+00 WtEn= 0.00D+00
 Coeff-Com:  0.221D-03-0.644D-03 0.998D-02-0.441D-02 0.248D-01 0.715D-01
 Coeff-Com:  0.340D+00 0.559D+00
 Coeff:      0.221D-03-0.644D-03 0.998D-02-0.441D-02 0.248D-01 0.715D-01
 Coeff:      0.340D+00 0.559D+00
 Gap=     0.158 Goal=   None    Shift=    0.000
 RMSDP=4.56D-06 MaxDP=1.55D-04 DE=-1.18D-05 OVMax= 3.33D-04

 Initial convergence to 1.0D-05 achieved.  Increase integral accuracy.
 Cycle   9  Pass 1  IDiag  1:
 E= -784.407606562573     Delta-E=        0.000004483723 Rises=F Damp=F
 DIIS: error= 4.42D-05 at cycle   1 NSaved=   1.
 NSaved= 1 IEnMin= 1 EnMin= -784.407606562573     IErMin= 1 ErrMin= 4.42D-05
 ErrMax= 4.42D-05  0.00D+00 EMaxC= 1.00D-01 BMatC= 3.99D-07 BMatP= 3.99D-07
 IDIUse=1 WtCom= 1.00D+00 WtEn= 0.00D+00
 Coeff-Com:  0.100D+01
 Coeff:      0.100D+01
 Gap=     0.158 Goal=   None    Shift=    0.000
 RMSDP=4.56D-06 MaxDP=1.55D-04 DE= 4.48D-06 OVMax= 2.37D-04

 Cycle  10  Pass 1  IDiag  1:
 RMSU=  2.33D-05    CP:  1.00D+00
 E= -784.407606768229     Delta-E=       -0.000000205656 Rises=F Damp=F
 DIIS: error= 1.91D-05 at cycle   2 NSaved=   2.
 NSaved= 2 IEnMin= 2 EnMin= -784.407606768229     IErMin= 2 ErrMin= 1.91D-05
 ErrMax= 1.91D-05  0.00D+00 EMaxC= 1.00D-01 BMatC= 1.83D-07 BMatP= 3.99D-07
 IDIUse=1 WtCom= 1.00D+00 WtEn= 0.00D+00
 Coeff-Com:  0.359D+00 0.641D+00
 Coeff:      0.359D+00 0.641D+00
 Gap=     0.158 Goal=   None    Shift=    0.000
 RMSDP=2.93D-06 MaxDP=1.10D-04 DE=-2.06D-07 OVMax= 3.20D-04

 Cycle  11  Pass 1  IDiag  1:
 RMSU=  2.93D-06    CP:  1.00D+00  9.98D-01
 E= -784.407606800974     Delta-E=       -0.000000032745 Rises=F Damp=F
 DIIS: error= 1.86D-05 at cycle   3 NSaved=   3.
 NSaved= 3 IEnMin= 3 EnMin= -784.407606800974     IErMin= 3 ErrMin= 1.86D-05
 ErrMax= 1.86D-05  0.00D+00 EMaxC= 1.00D-01 BMatC= 1.49D-07 BMatP= 1.83D-07
 IDIUse=1 WtCom= 1.00D+00 WtEn= 0.00D+00
 Coeff-Com:  0.878D-02 0.472D+00 0.519D+00
 Coeff:      0.878D-02 0.472D+00 0.519D+00
 Gap=     0.158 Goal=   None    Shift=    0.000
 RMSDP=1.47D-06 MaxDP=5.52D-05 DE=-3.27D-08 OVMax= 1.75D-04

 Cycle  12  Pass 1  IDiag  1:
 RMSU=  3.83D-07    CP:  1.00D+00  1.01D+00  5.22D-01
 E= -784.407606950619     Delta-E=       -0.000000149645 Rises=F Damp=F
 DIIS: error= 1.79D-06 at cycle   4 NSaved=   4.
 NSaved= 4 IEnMin= 4 EnMin= -784.407606950619     IErMin= 4 ErrMin= 1.79D-06
 ErrMax= 1.79D-06  0.00D+00 EMaxC= 1.00D-01 BMatC= 3.83D-09 BMatP= 1.49D-07
 IDIUse=1 WtCom= 1.00D+00 WtEn= 0.00D+00
 Coeff-Com: -0.294D-02 0.268D+00 0.310D+00 0.425D+00
 Coeff:     -0.294D-02 0.268D+00 0.310D+00 0.425D+00
 Gap=     0.158 Goal=   None    Shift=    0.000
 RMSDP=2.15D-07 MaxDP=1.15D-05 DE=-1.50D-07 OVMax= 2.00D-05

 Cycle  13  Pass 1  IDiag  1:
 RMSU=  8.62D-08    CP:  1.00D+00  1.01D+00  5.42D-01  5.08D-01
 E= -784.407606954020     Delta-E=       -0.000000003402 Rises=F Damp=F
 DIIS: error= 3.33D-07 at cycle   5 NSaved=   5.
 NSaved= 5 IEnMin= 5 EnMin= -784.407606954020     IErMin= 5 ErrMin= 3.33D-07
 ErrMax= 3.33D-07  0.00D+00 EMaxC= 1.00D-01 BMatC= 9.07D-11 BMatP= 3.83D-09
 IDIUse=1 WtCom= 1.00D+00 WtEn= 0.00D+00
 Coeff-Com: -0.194D-02 0.120D+00 0.139D+00 0.224D+00 0.519D+00
 Coeff:     -0.194D-02 0.120D+00 0.139D+00 0.224D+00 0.519D+00
 Gap=     0.158 Goal=   None    Shift=    0.000
 RMSDP=3.78D-08 MaxDP=1.42D-06 DE=-3.40D-09 OVMax= 2.73D-06

 Cycle  14  Pass 1  IDiag  1:
 RMSU=  2.61D-08    CP:  1.00D+00  1.01D+00  5.39D-01  5.14D-01  6.99D-01
 E= -784.407606954109     Delta-E=       -0.000000000089 Rises=F Damp=F
 DIIS: error= 1.07D-07 at cycle   6 NSaved=   6.
 NSaved= 6 IEnMin= 6 EnMin= -784.407606954109     IErMin= 6 ErrMin= 1.07D-07
 ErrMax= 1.07D-07  0.00D+00 EMaxC= 1.00D-01 BMatC= 6.13D-12 BMatP= 9.07D-11
 IDIUse=1 WtCom= 1.00D+00 WtEn= 0.00D+00
 Coeff-Com: -0.873D-03 0.493D-01 0.572D-01 0.986D-01 0.280D+00 0.516D+00
 Coeff:     -0.873D-03 0.493D-01 0.572D-01 0.986D-01 0.280D+00 0.516D+00
 Gap=     0.158 Goal=   None    Shift=    0.000
 RMSDP=1.04D-08 MaxDP=5.49D-07 DE=-8.91D-11 OVMax= 1.12D-06

 Cycle  15  Pass 1  IDiag  1:
 RMSU=  8.65D-09    CP:  1.00D+00  1.01D+00  5.39D-01  5.12D-01  7.25D-01
                    CP:  8.04D-01
 E= -784.407606954101     Delta-E=        0.000000000008 Rises=F Damp=F
 DIIS: error= 3.60D-08 at cycle   7 NSaved=   7.
 NSaved= 7 IEnMin= 6 EnMin= -784.407606954109     IErMin= 7 ErrMin= 3.60D-08
 ErrMax= 3.60D-08  0.00D+00 EMaxC= 1.00D-01 BMatC= 6.76D-13 BMatP= 6.13D-12
 IDIUse=1 WtCom= 1.00D+00 WtEn= 0.00D+00
 Coeff-Com: -0.140D-03 0.610D-02 0.712D-02 0.156D-01 0.589D-01 0.270D+00
 Coeff-Com:  0.642D+00
 Coeff:     -0.140D-03 0.610D-02 0.712D-02 0.156D-01 0.589D-01 0.270D+00
 Coeff:      0.642D+00
 Gap=     0.158 Goal=   None    Shift=    0.000
 RMSDP=3.52D-09 MaxDP=1.86D-07 DE= 8.19D-12 OVMax= 3.82D-07

 SCF Done:  E(RB3LYP) =  -784.407606954     A.U. after   15 cycles
            NFock= 15  Conv=0.35D-08     -V/T= 2.0087
 KE= 7.776155219507D+02 PE=-4.439409067425D+03 EE= 1.568700579340D+03
 Leave Link  502 at Fri Nov  4 18:16:34 2022, MaxMem=   805306368 cpu:             249.2 elap:              35.7
 (Enter /home/wykgroup/appl/g16/l508.exe)
 QCSCF skips out because SCF is already converged.
 Leave Link  508 at Fri Nov  4 18:16:34 2022, MaxMem=   805306368 cpu:               0.2 elap:               0.1
 (Enter /home/wykgroup/appl/g16/l601.exe)
 Copying SCF densities to generalized density rwf, IOpCl= 0 IROHF=0.

 **********************************************************************

            Population analysis using the SCF Density.

 **********************************************************************

 Orbital symmetries:
       Occupied  (A) (A) (A) (A) (A) (A) (A) (A) (A) (A) (A) (A)
                 (A) (A) (A) (A) (A) (A) (A) (A) (A) (A) (A) (A)
                 (A) (A) (A) (A) (A) (A) (A) (A) (A) (A) (A) (A)
                 (A) (A) (A) (A) (A) (A) (A) (A) (A) (A) (A) (A)
                 (A) (A) (A) (A) (A) (A) (A) (A) (A) (A) (A) (A)
                 (A) (A) (A) (A) (A) (A)
       Virtual   (A) (A) (A) (A) (A) (A) (A) (A) (A) (A) (A) (A)
                 (A) (A) (A) (A) (A) (A) (A) (A) (A) (A) (A) (A)
                 (A) (A) (A) (A) (A) (A) (A) (A) (A) (A) (A) (A)
                 (A) (A) (A) (A) (A) (A) (A) (A) (A) (A) (A) (A)
                 (A) (A) (A) (A) (A) (A) (A) (A) (A) (A) (A) (A)
                 (A) (A) (A) (A) (A) (A) (A) (A) (A) (A) (A) (A)
                 (A) (A) (A) (A) (A) (A) (A) (A) (A) (A) (A) (A)
                 (A) (A) (A) (A) (A) (A) (A) (A) (A) (A) (A) (A)
                 (A) (A) (A) (A) (A) (A) (A) (A) (A) (A) (A) (A)
                 (A) (A) (A) (A) (A) (A) (A) (A) (A) (A) (A) (A)
                 (A) (A) (A) (A) (A) (A) (A) (A) (A) (A) (A) (A)
                 (A) (A) (A) (A) (A) (A) (A) (A) (A) (A) (A) (A)
                 (A) (A) (A) (A) (A) (A) (A) (A) (A) (A) (A) (A)
                 (A) (A) (A) (A) (A) (A) (A) (A) (A) (A) (A) (A)
                 (A) (A) (A) (A) (A) (A) (A) (A) (A) (A) (A) (A)
                 (A) (A) (A) (A) (A) (A) (A) (A) (A) (A) (A) (A)
                 (A) (A) (A) (A) (A) (A) (A) (A) (A) (A) (A) (A)
                 (A) (A) (A) (A) (A) (A) (A) (A) (A) (A) (A) (A)
                 (A) (A) (A) (A) (A) (A) (A) (A) (A) (A) (A) (A)
                 (A) (A) (A) (A) (A) (A) (A) (A) (A) (A) (A) (A)
                 (A) (A)
 The electronic state is 1-A.
 Alpha  occ. eigenvalues --  -19.10875 -14.35713 -14.34892 -14.31451 -10.28718
 Alpha  occ. eigenvalues --  -10.25382 -10.21683 -10.21650 -10.20564 -10.20543
 Alpha  occ. eigenvalues --  -10.18495 -10.18475 -10.18377 -10.18098 -10.18047
 Alpha  occ. eigenvalues --  -10.17987 -10.17353 -10.17087  -1.03559  -0.98002
 Alpha  occ. eigenvalues --   -0.91809  -0.90762  -0.82406  -0.80788  -0.77941
 Alpha  occ. eigenvalues --   -0.76415  -0.74169  -0.68958  -0.67236  -0.65385
 Alpha  occ. eigenvalues --   -0.63588  -0.60995  -0.59831  -0.57215  -0.54963
 Alpha  occ. eigenvalues --   -0.52396  -0.51179  -0.49806  -0.48415  -0.47719
 Alpha  occ. eigenvalues --   -0.46273  -0.45588  -0.44623  -0.43645  -0.42899
 Alpha  occ. eigenvalues --   -0.42572  -0.41604  -0.41147  -0.40105  -0.39245
 Alpha  occ. eigenvalues --   -0.38692  -0.37368  -0.37128  -0.36873  -0.35904
 Alpha  occ. eigenvalues --   -0.35866  -0.35132  -0.33477  -0.30985  -0.29606
 Alpha  occ. eigenvalues --   -0.27816  -0.26844  -0.25378  -0.24652  -0.23542
 Alpha  occ. eigenvalues --   -0.19432
 Alpha virt. eigenvalues --   -0.03620   0.00783   0.02378   0.06734   0.07865
 Alpha virt. eigenvalues --    0.09021   0.10549   0.10951   0.11970   0.12243
 Alpha virt. eigenvalues --    0.13679   0.14046   0.14423   0.15267   0.16609
 Alpha virt. eigenvalues --    0.16683   0.17183   0.17861   0.18664   0.18918
 Alpha virt. eigenvalues --    0.19632   0.20237   0.21027   0.21841   0.22519
 Alpha virt. eigenvalues --    0.23598   0.23666   0.25596   0.26460   0.27046
 Alpha virt. eigenvalues --    0.27645   0.28107   0.29284   0.29937   0.33780
 Alpha virt. eigenvalues --    0.34133   0.35997   0.38047   0.39608   0.42644
 Alpha virt. eigenvalues --    0.43472   0.46934   0.49397   0.50640   0.51148
 Alpha virt. eigenvalues --    0.51555   0.52480   0.52544   0.53743   0.54862
 Alpha virt. eigenvalues --    0.55047   0.56364   0.56903   0.58120   0.58750
 Alpha virt. eigenvalues --    0.59585   0.60295   0.61013   0.62165   0.62936
 Alpha virt. eigenvalues --    0.63737   0.64256   0.64441   0.65166   0.65806
 Alpha virt. eigenvalues --    0.66731   0.67933   0.68393   0.69115   0.71301
 Alpha virt. eigenvalues --    0.71561   0.72932   0.74189   0.75415   0.76603
 Alpha virt. eigenvalues --    0.77940   0.78876   0.80437   0.81909   0.82209
 Alpha virt. eigenvalues --    0.83423   0.83698   0.84794   0.85542   0.86054
 Alpha virt. eigenvalues --    0.86671   0.87321   0.88214   0.88660   0.89745
 Alpha virt. eigenvalues --    0.90056   0.90422   0.90779   0.91467   0.92425
 Alpha virt. eigenvalues --    0.92692   0.94686   0.96213   0.96667   0.97233
 Alpha virt. eigenvalues --    0.98360   0.98643   1.00305   1.00865   1.01784
 Alpha virt. eigenvalues --    1.02761   1.03649   1.04281   1.06077   1.07498
 Alpha virt. eigenvalues --    1.08398   1.11410   1.13257   1.16319   1.17415
 Alpha virt. eigenvalues --    1.18783   1.19631   1.21712   1.23782   1.24612
 Alpha virt. eigenvalues --    1.29385   1.30698   1.32737   1.36002   1.37051
 Alpha virt. eigenvalues --    1.37391   1.40136   1.41210   1.41954   1.43676
 Alpha virt. eigenvalues --    1.47423   1.48204   1.48556   1.50431   1.51941
 Alpha virt. eigenvalues --    1.55205   1.55876   1.58518   1.61248   1.63318
 Alpha virt. eigenvalues --    1.64382   1.65314   1.67863   1.71176   1.73050
 Alpha virt. eigenvalues --    1.73357   1.75579   1.77056   1.78417   1.80689
 Alpha virt. eigenvalues --    1.81578   1.83886   1.84577   1.85678   1.87296
 Alpha virt. eigenvalues --    1.89804   1.90351   1.91510   1.92432   1.93995
 Alpha virt. eigenvalues --    1.95274   1.95759   1.97300   1.98167   1.98639
 Alpha virt. eigenvalues --    1.99246   2.02411   2.04780   2.05580   2.08405
 Alpha virt. eigenvalues --    2.08634   2.09646   2.13024   2.15266   2.16332
 Alpha virt. eigenvalues --    2.17463   2.18598   2.20375   2.21287   2.23437
 Alpha virt. eigenvalues --    2.23475   2.26634   2.28757   2.29298   2.30989
 Alpha virt. eigenvalues --    2.31917   2.32414   2.32793   2.36423   2.38231
 Alpha virt. eigenvalues --    2.38703   2.39781   2.41290   2.43041   2.43592
 Alpha virt. eigenvalues --    2.46129   2.47915   2.51270   2.53431   2.54433
 Alpha virt. eigenvalues --    2.57525   2.61014   2.62469   2.63244   2.63632
 Alpha virt. eigenvalues --    2.65442   2.68616   2.69197   2.70803   2.72363
 Alpha virt. eigenvalues --    2.73016   2.73615   2.76041   2.79355   2.85869
 Alpha virt. eigenvalues --    2.90986   2.91654   2.93728   2.97738   3.06756
 Alpha virt. eigenvalues --    3.09259   3.13942   3.29290   3.47314   3.82476
 Alpha virt. eigenvalues --    4.03247   4.07538   4.10800   4.14481   4.16621
 Alpha virt. eigenvalues --    4.22785   4.24477   4.28844   4.30472   4.41614
 Alpha virt. eigenvalues --    4.42960   4.47230   4.48523   4.52038   4.56851
 Alpha virt. eigenvalues --    4.65114   4.71493
          Condensed to atoms (all electrons):
               1          2          3          4          5          6
     1  C    5.108508   0.358880  -0.053250  -0.006242  -0.000082   0.000032
     2  C    0.358880   5.060467   0.392877  -0.035257   0.007191  -0.000146
     3  C   -0.053250   0.392877   4.644291   0.692077  -0.038974  -0.005044
     4  C   -0.006242  -0.035257   0.692077   5.023872   0.351080  -0.040655
     5  C   -0.000082   0.007191  -0.038974   0.351080   5.144092   0.356552
     6  C    0.000032  -0.000146  -0.005044  -0.040655   0.356552   4.938202
     7  N    0.000013   0.000016  -0.002285  -0.003192  -0.068399   0.333993
     8  C    0.000000  -0.000000  -0.000247  -0.000358  -0.003131  -0.041939
     9  C   -0.000000  -0.000000  -0.000006   0.000115  -0.000093  -0.003007
    10  C   -0.000000   0.000000  -0.000000   0.000002  -0.000063   0.000749
    11  C    0.000000   0.000000   0.000000  -0.000000   0.000001  -0.000001
    12  N   -0.000000  -0.000000   0.000000  -0.000000   0.000000  -0.000000
    13  O    0.000000  -0.000000  -0.000000  -0.000000  -0.000000   0.000005
    14  C   -0.000000  -0.000000   0.000000  -0.000000  -0.000003  -0.000014
    15  C    0.000000  -0.000000   0.000002   0.000000   0.000010  -0.000125
    16  N    0.000000  -0.000000   0.000188   0.000000  -0.000074   0.003771
    17  C   -0.000230   0.002367  -0.030326  -0.003895   0.001904  -0.058428
    18  C   -0.001563  -0.061294   0.367660  -0.074926  -0.008337   0.001345
    19  H    0.374338  -0.036636  -0.000625   0.003525  -0.000154  -0.000015
    20  H    0.365076  -0.028121   0.005094   0.000097   0.000003  -0.000000
    21  H    0.378371  -0.036726  -0.005865   0.000081   0.000003   0.000003
    22  H   -0.037239   0.366727  -0.036500  -0.008051   0.000062   0.000006
    23  H   -0.044978   0.361609  -0.031857   0.002637  -0.000265  -0.000004
    24  H    0.000471  -0.015835  -0.031041   0.354516  -0.057948   0.003172
    25  H    0.000003  -0.000194   0.004826  -0.024573   0.349795  -0.030513
    26  H   -0.000014  -0.000170  -0.009138  -0.035614   0.366799  -0.037484
    27  H   -0.000034  -0.000146   0.001523  -0.001432  -0.057062   0.375682
    28  H   -0.000001   0.000002   0.000167   0.005172  -0.045446   0.363140
    29  H   -0.000000  -0.000000  -0.000008   0.000022  -0.000164   0.001862
    30  H   -0.000000  -0.000000  -0.000000  -0.000000  -0.000000  -0.000000
    31  H   -0.000000  -0.000000  -0.000000   0.000000  -0.000000   0.000000
    32  H   -0.000000  -0.000000  -0.000000   0.000000   0.000000  -0.000000
    33  H   -0.000000   0.000000  -0.000000  -0.000000   0.000000   0.000004
    34  H   -0.000044  -0.000196   0.004450   0.000164  -0.000400   0.004949
    35  H    0.000780   0.000096  -0.004043   0.001195  -0.001402  -0.007446
    36  H   -0.000412  -0.008803  -0.036257   0.006424  -0.000119  -0.000110
    37  H    0.000114   0.002710  -0.030775  -0.007907   0.002028  -0.001500
               7          8          9         10         11         12
     1  C    0.000013   0.000000  -0.000000  -0.000000   0.000000  -0.000000
     2  C    0.000016  -0.000000  -0.000000   0.000000   0.000000  -0.000000
     3  C   -0.002285  -0.000247  -0.000006  -0.000000   0.000000   0.000000
     4  C   -0.003192  -0.000358   0.000115   0.000002  -0.000000  -0.000000
     5  C   -0.068399  -0.003131  -0.000093  -0.000063   0.000001   0.000000
     6  C    0.333993  -0.041939  -0.003007   0.000749  -0.000001  -0.000000
     7  N    6.972417   0.303647  -0.086412   0.002610  -0.000140   0.000000
     8  C    0.303647   4.523499   0.411103  -0.011406   0.007267  -0.000151
     9  C   -0.086412   0.411103   5.238913   0.507393  -0.026850   0.006385
    10  C    0.002610  -0.011406   0.507393   4.972391   0.269838  -0.115543
    11  C   -0.000140   0.007267  -0.026850   0.269838   4.396188   0.261588
    12  N    0.000000  -0.000151   0.006385  -0.115543   0.261588   7.136914
    13  O   -0.000004   0.000948   0.002272  -0.101217   0.626659  -0.107265
    14  C    0.001078  -0.040804  -0.063193   0.490005  -0.044854  -0.007846
    15  C    0.003064  -0.048919  -0.045674  -0.011412   0.004182   0.000074
    16  N   -0.092431   0.439046  -0.064960  -0.037900   0.000235  -0.000005
    17  C    0.325767  -0.036309   0.006667  -0.000025   0.000002  -0.000000
    18  C   -0.066766  -0.002486  -0.000093   0.000016   0.000000  -0.000000
    19  H   -0.000006  -0.000000   0.000000  -0.000000  -0.000000   0.000000
    20  H   -0.000000   0.000000   0.000000   0.000000  -0.000000   0.000000
    21  H    0.000025  -0.000001  -0.000000   0.000000  -0.000000   0.000000
    22  H    0.000004  -0.000000  -0.000000  -0.000000  -0.000000   0.000000
    23  H   -0.000007   0.000000   0.000000  -0.000000  -0.000000   0.000000
    24  H   -0.000109   0.000002   0.000001  -0.000000  -0.000000  -0.000000
    25  H    0.005154   0.000065  -0.000256  -0.000000  -0.000000   0.000000
    26  H   -0.008125   0.004816   0.002265  -0.000086  -0.000006  -0.000000
    27  H   -0.043790   0.004669  -0.000005  -0.000016  -0.000000   0.000000
    28  H   -0.033723  -0.012918   0.008210   0.000847  -0.000029  -0.000000
    29  H   -0.005263  -0.037098   0.337954  -0.044103  -0.009037   0.000778
    30  H    0.000000   0.000000  -0.000752  -0.000180  -0.009963   0.289077
    31  H   -0.000000   0.000001  -0.000210   0.008166  -0.003615   0.286798
    32  H    0.000013   0.000390   0.007144  -0.044531  -0.009099   0.005402
    33  H   -0.000115   0.005441   0.000618   0.002864  -0.000110   0.000002
    34  H   -0.035735  -0.012901   0.000643   0.000018   0.000000   0.000000
    35  H   -0.045041   0.005093  -0.000137   0.000001  -0.000000   0.000000
    36  H    0.005197  -0.000129  -0.000003  -0.000000   0.000000   0.000000
    37  H   -0.009503   0.006708   0.000047  -0.000003  -0.000000   0.000000
              13         14         15         16         17         18
     1  C    0.000000  -0.000000   0.000000   0.000000  -0.000230  -0.001563
     2  C   -0.000000  -0.000000  -0.000000  -0.000000   0.002367  -0.061294
     3  C   -0.000000   0.000000   0.000002   0.000188  -0.030326   0.367660
     4  C   -0.000000  -0.000000   0.000000   0.000000  -0.003895  -0.074926
     5  C   -0.000000  -0.000003   0.000010  -0.000074   0.001904  -0.008337
     6  C    0.000005  -0.000014  -0.000125   0.003771  -0.058428   0.001345
     7  N   -0.000004   0.001078   0.003064  -0.092431   0.325767  -0.066766
     8  C    0.000948  -0.040804  -0.048919   0.439046  -0.036309  -0.002486
     9  C    0.002272  -0.063193  -0.045674  -0.064960   0.006667  -0.000093
    10  C   -0.101217   0.490005  -0.011412  -0.037900  -0.000025   0.000016
    11  C    0.626659  -0.044854   0.004182   0.000235   0.000002   0.000000
    12  N   -0.107265  -0.007846   0.000074  -0.000005  -0.000000  -0.000000
    13  O    8.050429   0.002617  -0.000086   0.000001  -0.000000  -0.000000
    14  C    0.002617   5.171113   0.471419  -0.038197  -0.000055  -0.000019
    15  C   -0.000086   0.471419   4.731772   0.505453   0.000571  -0.000027
    16  N    0.000001  -0.038197   0.505453   6.841170  -0.026216   0.000244
    17  C   -0.000000  -0.000055   0.000571  -0.026216   4.956836   0.345991
    18  C   -0.000000  -0.000019  -0.000027   0.000244   0.345991   5.218442
    19  H    0.000000   0.000000  -0.000000  -0.000000   0.000038  -0.000720
    20  H    0.000000   0.000000  -0.000000  -0.000000   0.000010  -0.000168
    21  H    0.000000   0.000000   0.000000   0.000000  -0.000809   0.003691
    22  H   -0.000000   0.000000   0.000000  -0.000000  -0.000157   0.005907
    23  H    0.000000   0.000000  -0.000000  -0.000000   0.000097  -0.006757
    24  H    0.000000   0.000000   0.000000  -0.000000  -0.000218   0.007637
    25  H    0.000000   0.000000  -0.000000   0.000002  -0.000156   0.000037
    26  H   -0.000001  -0.000002  -0.000005  -0.000251  -0.001099   0.001813
    27  H   -0.000000   0.000001   0.000004  -0.000104  -0.006899  -0.001773
    28  H   -0.000041  -0.000017  -0.000002  -0.000075   0.005213  -0.000399
    29  H    0.016819   0.007044   0.000198   0.004553  -0.000230   0.000016
    30  H    0.003860   0.007312   0.000032   0.000005  -0.000000  -0.000000
    31  H    0.007557  -0.000061   0.000009   0.000000   0.000000   0.000000
    32  H   -0.000066   0.338291  -0.032874   0.004759  -0.000000   0.000000
    33  H    0.000000  -0.068252   0.378204  -0.057949   0.000072   0.000001
    34  H    0.000000   0.000107   0.000598   0.028847   0.360497  -0.035941
    35  H    0.000000   0.000002  -0.000009   0.000974   0.372076  -0.057855
    36  H    0.000000   0.000001   0.000009  -0.000157  -0.031028   0.350622
    37  H    0.000000   0.000006  -0.000038   0.002256  -0.033781   0.359673
              19         20         21         22         23         24
     1  C    0.374338   0.365076   0.378371  -0.037239  -0.044978   0.000471
     2  C   -0.036636  -0.028121  -0.036726   0.366727   0.361609  -0.015835
     3  C   -0.000625   0.005094  -0.005865  -0.036500  -0.031857  -0.031041
     4  C    0.003525   0.000097   0.000081  -0.008051   0.002637   0.354516
     5  C   -0.000154   0.000003   0.000003   0.000062  -0.000265  -0.057948
     6  C   -0.000015  -0.000000   0.000003   0.000006  -0.000004   0.003172
     7  N   -0.000006  -0.000000   0.000025   0.000004  -0.000007  -0.000109
     8  C   -0.000000   0.000000  -0.000001  -0.000000   0.000000   0.000002
     9  C    0.000000   0.000000  -0.000000  -0.000000   0.000000   0.000001
    10  C   -0.000000   0.000000   0.000000  -0.000000  -0.000000  -0.000000
    11  C   -0.000000  -0.000000  -0.000000  -0.000000  -0.000000  -0.000000
    12  N    0.000000   0.000000   0.000000   0.000000   0.000000  -0.000000
    13  O    0.000000   0.000000   0.000000  -0.000000   0.000000   0.000000
    14  C    0.000000   0.000000   0.000000   0.000000   0.000000   0.000000
    15  C   -0.000000  -0.000000   0.000000   0.000000  -0.000000   0.000000
    16  N   -0.000000  -0.000000   0.000000  -0.000000  -0.000000  -0.000000
    17  C    0.000038   0.000010  -0.000809  -0.000157   0.000097  -0.000218
    18  C   -0.000720  -0.000168   0.003691   0.005907  -0.006757   0.007637
    19  H    0.569650  -0.028761  -0.031668  -0.004408   0.005978   0.000260
    20  H   -0.028761   0.576577  -0.029617  -0.003223  -0.002292  -0.000047
    21  H   -0.031668  -0.029617   0.570164   0.005415  -0.004608   0.000020
    22  H   -0.004408  -0.003223   0.005415   0.598885  -0.035054   0.008586
    23  H    0.005978  -0.002292  -0.004608  -0.035054   0.612086   0.000218
    24  H    0.000260  -0.000047   0.000020   0.008586   0.000218   0.615383
    25  H    0.000003  -0.000000   0.000000  -0.000005   0.000003  -0.007390
    26  H    0.000004   0.000000  -0.000000   0.000011   0.000032   0.004178
    27  H    0.000145   0.000001   0.000000   0.000003   0.000005   0.000818
    28  H    0.000000   0.000000   0.000000   0.000000   0.000000  -0.000232
    29  H    0.000000  -0.000000   0.000000   0.000000   0.000000   0.000001
    30  H    0.000000   0.000000   0.000000   0.000000   0.000000  -0.000000
    31  H    0.000000  -0.000000   0.000000   0.000000   0.000000   0.000000
    32  H    0.000000   0.000000   0.000000   0.000000   0.000000   0.000000
    33  H   -0.000000   0.000000   0.000000  -0.000000  -0.000000   0.000000
    34  H    0.000011   0.000000   0.000094   0.000004   0.000016   0.000005
    35  H    0.000469   0.000007   0.000936  -0.000029   0.000059  -0.000076
    36  H    0.000111  -0.000169   0.003436   0.000264   0.004065  -0.000219
    37  H    0.000000   0.000004  -0.000016  -0.000228   0.000548  -0.000117
              25         26         27         28         29         30
     1  C    0.000003  -0.000014  -0.000034  -0.000001  -0.000000  -0.000000
     2  C   -0.000194  -0.000170  -0.000146   0.000002  -0.000000  -0.000000
     3  C    0.004826  -0.009138   0.001523   0.000167  -0.000008  -0.000000
     4  C   -0.024573  -0.035614  -0.001432   0.005172   0.000022  -0.000000
     5  C    0.349795   0.366799  -0.057062  -0.045446  -0.000164  -0.000000
     6  C   -0.030513  -0.037484   0.375682   0.363140   0.001862  -0.000000
     7  N    0.005154  -0.008125  -0.043790  -0.033723  -0.005263   0.000000
     8  C    0.000065   0.004816   0.004669  -0.012918  -0.037098   0.000000
     9  C   -0.000256   0.002265  -0.000005   0.008210   0.337954  -0.000752
    10  C   -0.000000  -0.000086  -0.000016   0.000847  -0.044103  -0.000180
    11  C   -0.000000  -0.000006  -0.000000  -0.000029  -0.009037  -0.009963
    12  N    0.000000  -0.000000   0.000000  -0.000000   0.000778   0.289077
    13  O    0.000000  -0.000001  -0.000000  -0.000041   0.016819   0.003860
    14  C    0.000000  -0.000002   0.000001  -0.000017   0.007044   0.007312
    15  C   -0.000000  -0.000005   0.000004  -0.000002   0.000198   0.000032
    16  N    0.000002  -0.000251  -0.000104  -0.000075   0.004553   0.000005
    17  C   -0.000156  -0.001099  -0.006899   0.005213  -0.000230  -0.000000
    18  C    0.000037   0.001813  -0.001773  -0.000399   0.000016  -0.000000
    19  H    0.000003   0.000004   0.000145   0.000000   0.000000   0.000000
    20  H   -0.000000   0.000000   0.000001   0.000000  -0.000000   0.000000
    21  H    0.000000  -0.000000   0.000000   0.000000   0.000000   0.000000
    22  H   -0.000005   0.000011   0.000003   0.000000   0.000000   0.000000
[...]
    12  N    0.000000  -0.000129   0.006989  -0.108710   0.266147   7.120374
    13  O   -0.000004   0.001032   0.000009  -0.095646   0.604854  -0.104185
    14  C    0.000933  -0.038223  -0.071303   0.484402  -0.042990  -0.008524
    15  C    0.003221  -0.045866  -0.044734  -0.010602   0.004019   0.000003
    16  N   -0.088400   0.434278  -0.061316  -0.036165   0.000170  -0.000003
    17  C    0.316593  -0.034025   0.006272  -0.000021   0.000001  -0.000000
    18  C   -0.061695  -0.002190  -0.000177   0.000011  -0.000000  -0.000000
    19  H   -0.000001  -0.000000   0.000000  -0.000000  -0.000000   0.000000
    20  H   -0.000000  -0.000000   0.000000   0.000000  -0.000000   0.000000
    21  H    0.000005  -0.000000  -0.000000  -0.000000  -0.000000   0.000000
    22  H    0.000003   0.000000  -0.000000  -0.000000   0.000000   0.000000
    23  H   -0.000007  -0.000000   0.000000  -0.000000  -0.000000   0.000000
    24  H   -0.000088   0.000002   0.000000  -0.000000  -0.000000   0.000000
    25  H    0.005060   0.000043  -0.000142   0.000000  -0.000000   0.000000
    26  H   -0.005984   0.003601   0.002181  -0.000087  -0.000007  -0.000000
    27  H   -0.044490   0.004549  -0.000022  -0.000017  -0.000000   0.000000
    28  H   -0.033371  -0.011965   0.007416   0.000852  -0.000033  -0.000000
    29  H   -0.005062  -0.036203   0.336404  -0.042558  -0.009665   0.000772
    30  H    0.000000   0.000001  -0.000795  -0.000319  -0.010135   0.287197
    31  H   -0.000000   0.000001  -0.000206   0.007847  -0.005926   0.286663
    32  H    0.000011   0.000326   0.006704  -0.040523  -0.009799   0.006057
    33  H   -0.000101   0.005099   0.000560   0.002814  -0.000104   0.000002
    34  H   -0.034673  -0.009913   0.000457   0.000011   0.000000  -0.000000
    35  H   -0.045734   0.004910  -0.000124   0.000001  -0.000000   0.000000
    36  H    0.005019  -0.000078   0.000000  -0.000000   0.000000   0.000000
    37  H   -0.007590   0.004788   0.000091  -0.000001  -0.000000   0.000000
              13         14         15         16         17         18
     1  C   -0.000000  -0.000000  -0.000000  -0.000000  -0.000085  -0.003845
     2  C   -0.000000  -0.000000  -0.000000  -0.000000   0.003453  -0.060371
     3  C   -0.000000   0.000000   0.000001   0.000137  -0.027871   0.366516
     4  C   -0.000000  -0.000000   0.000000   0.000022  -0.002221  -0.070095
     5  C   -0.000000  -0.000003   0.000007  -0.000084   0.002578  -0.007406
     6  C    0.000006  -0.000010  -0.000125   0.003409  -0.054493   0.002747
     7  N   -0.000004   0.000933   0.003221  -0.088400   0.316593  -0.061695
     8  C    0.001032  -0.038223  -0.045866   0.434278  -0.034025  -0.002190
     9  C    0.000009  -0.071303  -0.044734  -0.061316   0.006272  -0.000177
    10  C   -0.095646   0.484402  -0.010602  -0.036165  -0.000021   0.000011
    11  C    0.604854  -0.042990   0.004019   0.000170   0.000001  -0.000000
    12  N   -0.104185  -0.008524   0.000003  -0.000003  -0.000000  -0.000000
    13  O    8.061882   0.003213  -0.000077   0.000001  -0.000000  -0.000000
    14  C    0.003213   5.175118   0.470129  -0.036000  -0.000017  -0.000016
    15  C   -0.000077   0.470129   4.750937   0.485637   0.000412  -0.000037
    16  N    0.000001  -0.036000   0.485637   6.849671  -0.016500  -0.001319
    17  C   -0.000000  -0.000017   0.000412  -0.016500   4.929078   0.348557
    18  C   -0.000000  -0.000016  -0.000037  -0.001319   0.348557   5.208443
    19  H    0.000000   0.000000  -0.000000  -0.000000   0.000027  -0.000177
    20  H    0.000000   0.000000  -0.000000  -0.000000   0.000005  -0.000020
    21  H    0.000000   0.000000   0.000000  -0.000000  -0.000423   0.002156
    22  H    0.000000   0.000000   0.000000  -0.000000  -0.000143   0.005269
    23  H    0.000000   0.000000  -0.000000  -0.000000   0.000143  -0.003566
    24  H    0.000000   0.000000   0.000000  -0.000000  -0.000167   0.007265
    25  H    0.000000   0.000000  -0.000000   0.000002  -0.000224  -0.000038
    26  H   -0.000002  -0.000000  -0.000004  -0.000123  -0.000307   0.000687
    27  H   -0.000000   0.000000   0.000004  -0.000098  -0.006864  -0.001698
    28  H   -0.000051  -0.000012  -0.000002  -0.000075   0.004762  -0.000347
    29  H    0.019424   0.006719   0.000132   0.004207  -0.000198   0.000009
    30  H    0.003495   0.006367   0.000025   0.000002  -0.000000  -0.000000
    31  H    0.007761  -0.000085   0.000008   0.000000   0.000000  -0.000000
    32  H   -0.000041   0.339646  -0.033550   0.004407  -0.000000   0.000000
    33  H    0.000000  -0.065470   0.377593  -0.055715   0.000023   0.000009
    34  H    0.000000   0.000056   0.000340   0.022097   0.363239  -0.035687
    35  H    0.000000   0.000002  -0.000004   0.000786   0.371502  -0.055759
    36  H    0.000000   0.000000   0.000006  -0.000041  -0.031684   0.349049
    37  H    0.000000   0.000018  -0.000010   0.004261  -0.030821   0.355886
              19         20         21         22         23         24
     1  C    0.373568   0.364914   0.376080  -0.036569  -0.044629   0.000507
     2  C   -0.035124  -0.026528  -0.036405   0.364501   0.363248  -0.017354
     3  C   -0.000908   0.004188  -0.004153  -0.035483  -0.035830  -0.030597
     4  C    0.002519   0.000062   0.000118  -0.007378   0.001259   0.350373
     5  C   -0.000089   0.000002   0.000003   0.000106  -0.000241  -0.057339
     6  C    0.000000  -0.000000  -0.000000   0.000007   0.000002   0.003855
     7  N   -0.000001  -0.000000   0.000005   0.000003  -0.000007  -0.000088
     8  C   -0.000000  -0.000000  -0.000000   0.000000  -0.000000   0.000002
     9  C    0.000000   0.000000  -0.000000  -0.000000   0.000000   0.000000
    10  C   -0.000000   0.000000  -0.000000  -0.000000  -0.000000  -0.000000
    11  C   -0.000000  -0.000000  -0.000000   0.000000  -0.000000  -0.000000
    12  N    0.000000   0.000000   0.000000   0.000000   0.000000   0.000000
    13  O    0.000000   0.000000   0.000000   0.000000   0.000000   0.000000
    14  C    0.000000   0.000000   0.000000   0.000000   0.000000   0.000000
    15  C   -0.000000  -0.000000   0.000000   0.000000  -0.000000   0.000000
    16  N   -0.000000  -0.000000  -0.000000  -0.000000  -0.000000  -0.000000
    17  C    0.000027   0.000005  -0.000423  -0.000143   0.000143  -0.000167
    18  C   -0.000177  -0.000020   0.002156   0.005269  -0.003566   0.007265
    19  H    0.571239  -0.029292  -0.031399  -0.004352   0.005651   0.000202
    20  H   -0.029292   0.577974  -0.030431  -0.002725  -0.002486  -0.000049
    21  H   -0.031399  -0.030431   0.573092   0.005074  -0.004025   0.000024
    22  H   -0.004352  -0.002725   0.005074   0.598685  -0.036087   0.009466
    23  H    0.005651  -0.002486  -0.004025  -0.036087   0.615657   0.000249
    24  H    0.000202  -0.000049   0.000024   0.009466   0.000249   0.620442
    25  H    0.000000  -0.000000   0.000000  -0.000009   0.000001  -0.007275
    26  H    0.000002   0.000000   0.000000   0.000008   0.000027   0.003388
    27  H    0.000021   0.000000   0.000001   0.000001   0.000003   0.000259
    28  H    0.000000   0.000000   0.000000   0.000000   0.000000  -0.000181
    29  H    0.000000  -0.000000  -0.000000   0.000000   0.000000   0.000001
    30  H    0.000000   0.000000   0.000000   0.000000   0.000000  -0.000000
    31  H    0.000000  -0.000000   0.000000   0.000000   0.000000  -0.000000
    32  H    0.000000   0.000000  -0.000000   0.000000   0.000000   0.000000
    33  H   -0.000000  -0.000000  -0.000000  -0.000000  -0.000000   0.000000
    34  H    0.000002   0.000000   0.000028   0.000003   0.000010   0.000004
    35  H    0.000057   0.000001   0.000246  -0.000006   0.000025  -0.000036
    36  H   -0.000053  -0.000276   0.005063   0.000308   0.000754  -0.000208
    37  H    0.000005   0.000003   0.000007  -0.000210   0.001467  -0.000144
              25         26         27         28         29         30
     1  C    0.000007  -0.000007  -0.000011  -0.000000  -0.000000  -0.000000
     2  C   -0.000161  -0.000182  -0.000062   0.000001  -0.000000  -0.000000
     3  C    0.004186  -0.005981   0.001524   0.000102  -0.000005  -0.000000
     4  C   -0.026709  -0.035868  -0.002003   0.004463   0.000011  -0.000000
     5  C    0.348504   0.363805  -0.054634  -0.044046  -0.000311  -0.000000
     6  C   -0.030376  -0.033810   0.375840   0.364078   0.001935  -0.000000
     7  N    0.005060  -0.005984  -0.044490  -0.033371  -0.005062   0.000000
     8  C    0.000043   0.003601   0.004549  -0.011965  -0.036203   0.000001
     9  C   -0.000142   0.002181  -0.000022   0.007416   0.336404  -0.000795
    10  C    0.000000  -0.000087  -0.000017   0.000852  -0.042558  -0.000319
    11  C   -0.000000  -0.000007  -0.000000  -0.000033  -0.009665  -0.010135
    12  N    0.000000  -0.000000   0.000000  -0.000000   0.000772   0.287197
    13  O    0.000000  -0.000002  -0.000000  -0.000051   0.019424   0.003495
    14  C    0.000000  -0.000000   0.000000  -0.000012   0.006719   0.006367
    15  C   -0.000000  -0.000004   0.000004  -0.000002   0.000132   0.000025
    16  N    0.000002  -0.000123  -0.000098  -0.000075   0.004207   0.000002
    17  C   -0.000224  -0.000307  -0.006864   0.004762  -0.000198  -0.000000
    18  C   -0.000038   0.000687  -0.001698  -0.000347   0.000009  -0.000000
    19  H    0.000000   0.000002   0.000021   0.000000   0.000000   0.000000
    20  H   -0.000000   0.000000   0.000000   0.000000  -0.000000   0.000000
    21  H    0.000000   0.000000   0.000001   0.000000  -0.000000   0.000000
    22  H   -0.000009   0.000008   0.000001   0.000000   0.000000   0.000000
    23  H    0.000001   0.000027   0.000003   0.000000   0.000000   0.000000
    24  H   -0.007275   0.003388   0.000259  -0.000181   0.000001  -0.000000
    25  H    0.603466  -0.035027  -0.000366  -0.001228   0.000024   0.000000
    26  H   -0.035027   0.580120   0.005615  -0.003423   0.000938   0.000000
    27  H   -0.000366   0.005615   0.590623  -0.027790   0.000070   0.000000
    28  H   -0.001228  -0.003423  -0.027790   0.576669   0.002352   0.000000
    29  H    0.000024   0.000938   0.000070   0.002352   0.556113  -0.000064
    30  H    0.000000   0.000000   0.000000   0.000000  -0.000064   0.396540
    31  H    0.000000   0.000000   0.000000   0.000000  -0.000032  -0.020392
    32  H   -0.000000   0.000000  -0.000000  -0.000000  -0.000101   0.002421
    33  H    0.000000  -0.000000  -0.000000   0.000000   0.000029  -0.000003
    34  H    0.000006   0.000027   0.000464  -0.000176  -0.000020   0.000000
    35  H    0.000027   0.000078   0.009421   0.000506  -0.000006   0.000000
    36  H    0.000007  -0.000025   0.000016   0.000007   0.000000   0.000000
    37  H   -0.000022   0.000744   0.000103   0.000021  -0.000009  -0.000000
              31         32         33         34         35         36
     1  C   -0.000000  -0.000000   0.000000  -0.000016   0.000199   0.001123
     2  C   -0.000000  -0.000000   0.000000  -0.000162   0.000036  -0.007469
     3  C   -0.000000  -0.000000  -0.000000   0.003954  -0.003181  -0.038067
     4  C    0.000000  -0.000000  -0.000000   0.000107   0.001370   0.005383
     5  C   -0.000000   0.000000   0.000000  -0.000338  -0.001426  -0.000111
     6  C    0.000000  -0.000000   0.000003   0.004636  -0.007589  -0.000183
     7  N   -0.000000   0.000011  -0.000101  -0.034673  -0.045734   0.005019
     8  C    0.000001   0.000326   0.005099  -0.009913   0.004910  -0.000078
     9  C   -0.000206   0.006704   0.000560   0.000457  -0.000124   0.000000
    10  C    0.007847  -0.040523   0.002814   0.000011   0.000001  -0.000000
    11  C   -0.005926  -0.009799  -0.000104   0.000000  -0.000000   0.000000
    12  N    0.286663   0.006057   0.000002  -0.000000   0.000000   0.000000
    13  O    0.007761  -0.000041   0.000000   0.000000   0.000000   0.000000
    14  C   -0.000085   0.339646  -0.065470   0.000056   0.000002   0.000000
    15  C    0.000008  -0.033550   0.377593   0.000340  -0.000004   0.000006
    16  N    0.000000   0.004407  -0.055715   0.022097   0.000786  -0.000041
    17  C    0.000000  -0.000000   0.000023   0.363239   0.371502  -0.031684
    18  C   -0.000000   0.000000   0.000009  -0.035687  -0.055759   0.349049
    19  H    0.000000   0.000000  -0.000000   0.000002   0.000057  -0.000053
    20  H   -0.000000   0.000000  -0.000000   0.000000   0.000001  -0.000276
    21  H    0.000000  -0.000000  -0.000000   0.000028   0.000246   0.005063
    22  H    0.000000   0.000000  -0.000000   0.000003  -0.000006   0.000308
    23  H    0.000000   0.000000  -0.000000   0.000010   0.000025   0.000754
    24  H   -0.000000   0.000000   0.000000   0.000004  -0.000036  -0.000208
    25  H    0.000000  -0.000000   0.000000   0.000006   0.000027   0.000007
    26  H    0.000000   0.000000  -0.000000   0.000027   0.000078  -0.000025
    27  H    0.000000  -0.000000  -0.000000   0.000464   0.009421   0.000016
    28  H    0.000000  -0.000000   0.000000  -0.000176   0.000506   0.000007
    29  H   -0.000032  -0.000101   0.000029  -0.000020  -0.000006   0.000000
    30  H   -0.020392   0.002421  -0.000003   0.000000   0.000000   0.000000
    31  H    0.382798  -0.000111  -0.000000   0.000000  -0.000000   0.000000
    32  H   -0.000111   0.600998  -0.001909  -0.000001  -0.000000  -0.000000
    33  H   -0.000000  -0.001909   0.602195  -0.000108  -0.000001  -0.000000
    34  H    0.000000  -0.000001  -0.000108   0.535455  -0.026596  -0.001293
    35  H   -0.000000  -0.000000  -0.000001  -0.026596   0.607499  -0.000406
    36  H    0.000000  -0.000000  -0.000000  -0.001293  -0.000406   0.606746
    37  H   -0.000000  -0.000000  -0.000029  -0.002793   0.005588  -0.032812
              37
     1  C    0.000099
     2  C    0.000844
     3  C   -0.029888
     4  C   -0.005356
     5  C    0.001020
     6  C   -0.000545
     7  N   -0.007590
     8  C    0.004788
     9  C    0.000091
    10  C   -0.000001
    11  C   -0.000000
    12  N    0.000000
    13  O    0.000000
    14  C    0.000018
    15  C   -0.000010
    16  N    0.004261
    17  C   -0.030821
    18  C    0.355886
    19  H    0.000005
    20  H    0.000003
    21  H    0.000007
    22  H   -0.000210
    23  H    0.001467
    24  H   -0.000144
    25  H   -0.000022
    26  H    0.000744
    27  H    0.000103
    28  H    0.000021
    29  H   -0.000009
    30  H   -0.000000
    31  H   -0.000000
    32  H   -0.000000
    33  H   -0.000029
    34  H   -0.002793
    35  H    0.005588
    36  H   -0.032812
    37  H    0.566293
 Mulliken charges:
               1
     1  C   -0.441029
     2  C   -0.330300
     3  C    0.200123
     4  C   -0.199566
     5  C   -0.291422
     6  C   -0.156247
     7  N   -0.461671
     8  C    0.530265
     9  C   -0.235511
    10  C    0.105017
    11  C    0.537472
    12  N   -0.752653
    13  O   -0.501670
    14  C   -0.223947
    15  C    0.042536
    16  N   -0.513249
    17  C   -0.140582
    18  C   -0.342163
    19  H    0.148100
    20  H    0.144659
    21  H    0.144937
    22  H    0.139532
    23  H    0.138377
    24  H    0.117401
    25  H    0.140243
    26  H    0.159615
    27  H    0.149538
    28  H    0.161473
    29  H    0.165092
    30  H    0.335660
    31  H    0.341675
    32  H    0.125465
    33  H    0.135116
    34  H    0.180878
    35  H    0.138615
    36  H    0.139228
    37  H    0.168991
 Sum of Mulliken charges =  -0.00000
 Mulliken charges with hydrogens summed into heavy atoms:
               1
     1  C   -0.003333
     2  C   -0.052391
     3  C    0.200123
     4  C   -0.082165
     5  C    0.008436
     6  C    0.154764
     7  N   -0.461671
     8  C    0.530265
     9  C   -0.070419
    10  C    0.105017
    11  C    0.537472
    12  N   -0.075318
    13  O   -0.501670
    14  C   -0.098482
    15  C    0.177652
    16  N   -0.513249
    17  C    0.178911
    18  C   -0.033943
 Electronic spatial extent (au):  <R**2>=           6119.4712
 Charge=              0.0000 electrons
 Dipole moment (field-independent basis, Debye):
    X=             -0.4963    Y=              1.0160    Z=             -2.1971  Tot=              2.4710
 Quadrupole moment (field-independent basis, Debye-Ang):
   XX=            -95.3944   YY=           -108.6583   ZZ=           -104.7175
   XY=              8.8203   XZ=            -13.6165   YZ=             -0.8795
 Traceless Quadrupole moment (field-independent basis, Debye-Ang):
   XX=              7.5290   YY=             -5.7349   ZZ=             -1.7941
   XY=              8.8203   XZ=            -13.6165   YZ=             -0.8795
 Octapole moment (field-independent basis, Debye-Ang**2):
  XXX=             83.5837  YYY=              4.7144  ZZZ=             -3.8223  XYY=             -9.0867
  XXY=             34.0526  XXZ=            -74.4869  XZZ=             21.8252  YZZ=             -3.7048
  YYZ=             -5.8596  XYZ=              3.8811
 Hexadecapole moment (field-independent basis, Debye-Ang**3):
 XXXX=          -5968.0372 YYYY=          -1149.5207 ZZZZ=           -471.4826 XXXY=             31.9717
 XXXZ=           -359.5001 YYYX=             51.7474 YYYZ=             -5.9773 ZZZX=            -53.8910
 ZZZY=             -6.8524 XXYY=          -1312.4746 XXZZ=          -1068.2993 YYZZ=           -271.5446
 XXYZ=             33.2481 YYXZ=            -32.3571 ZZXY=            -14.7845
 N-N= 1.293809196290D+03 E-N=-4.409111978028D+03  KE= 7.769050562135D+02
 No NMR shielding tensors so no spin-rotation constants.
 Leave Link  601 at Fri Nov  4 18:25:38 2022, MaxMem=   805306368 cpu:               1.6 elap:               0.3
 (Enter /home/wykgroup/appl/g16/l9999.exe)
 1\1\GINC-NODE92\FOpt\RB3LYP\6-31G(d)\C14H19N3O1\WYKGROUP\04-Nov-2022\0
 \\#p b3lyp/6-31g(d) opt SCF=XQC\\Gaussian input prepared by ASE\\0,1\C
 ,5.0164216659,0.5254358237,0.1127184764\C,4.0118309833,-0.3123526434,0
 .9240747839\C,2.617198306,-0.3383714335,0.3220254906\C,2.1766964593,-1
 .459771794,-0.2723788358\C,0.8388527544,-1.7530953141,-0.9184247113\C,
 0.2458378957,-0.6336473183,-1.789926058\N,-0.1188385967,0.567037471,-1
 .0509471984\C,-1.3315982202,0.6848347188,-0.4020108913\C,-2.3845406036
 ,-0.246788044,-0.5825144647\C,-3.5952667705,-0.0378363714,0.0626089734
 \C,-4.673437609,-1.0684786596,-0.1581636524\N,-5.7107995619,-1.0534309
 662,0.74132575\O,-4.6374902749,-1.8587404263,-1.0925275459\C,-3.755994
 6534,1.096155733,0.8753095803\C,-2.6617718953,1.9445112212,1.003675971
 2\N,-1.4823485888,1.7543857714,0.4088517725\C,0.9893839208,1.445604649
 6,-0.6861833563\C,1.8221580025,0.9468312654,0.505716607\H,5.1429350712
 ,0.1103961662,-0.8934518711\H,5.9973557047,0.5394325548,0.601692241\H,
 4.686767597,1.565512485,0.0049864624\H,4.3941028191,-1.3359844288,1.01
 60850507\H,3.9569134841,0.0926897435,1.9457202893\H,2.8617087537,-2.30
 85039372,-0.2695175397\H,0.9469950764,-2.644327749,-1.5503479723\H,0.1
 007765189,-2.0246486972,-0.1474883219\H,0.9803177337,-0.3381092511,-2.
 5482473597\H,-0.6269864524,-1.0063517166,-2.3327005765\H,-2.2922751483
 ,-1.1251411896,-1.2069344051\H,-5.5917056646,-0.6376351954,1.653461870
 6\H,-6.3612501271,-1.8247709647,0.6722365585\H,-4.6948766539,1.3350627
 616,1.3631217873\H,-2.7322308017,2.835084949,1.6275458823\H,0.57469189
 13,2.4242216336,-0.4436316487\H,1.6298820503,1.5498499372,-1.570266922
 1\H,2.5130085205,1.7554603476,0.7779227345\H,1.1475764134,0.8354788676
 ,1.3673640489\\Version=ES64L-G16RevB.01\State=1-A\HF=-784.413995\RMSD=
 5.513e-09\RMSF=6.759e-06\Dipole=0.2029049,0.0125675,0.9506748\Quadrupo
 le=5.562766,-4.4140587,-1.1487073,-1.14387,-11.9368773,-1.3751684\PG=C
 01 [X(C14H19N3O1)]\\@


 SCIENCE AND PEACE WILL TRIUMPH OVER IGNORANCE AND WAR

                          -- PASTEUR
 Job cpu time:       0 days  1 hours  6 minutes 36.4 seconds.
 Elapsed time:       0 days  0 hours  9 minutes 41.0 seconds.
 File lengths (MBytes):  RWF=     65 Int=      0 D2E=      0 Chk=     10 Scr=      1
 Normal termination of Gaussian 16 at Fri Nov  4 18:25:38 2022.
