 Entering Gaussian System, Link 0=/home/wykgroup/appl/g16/g16
 Input=calculation/no_transfer_pubchem_sampling_0_b3lyp/145452207_rwf.com
 Output=calculation/no_transfer_pubchem_sampling_0_b3lyp/145452207_rwf.log
 Initial command:
 /home/wykgroup/appl/g16/l1.exe "/userdata/scratch/wykgroup/khs/calculation/no_transfer_pubchem_sampling_0_b3lyp/145452207_rwf/Gau-10787.inp" -scrdir="/userdata/scratch/wykgroup/khs/calculation/no_transfer_pubchem_sampling_0_b3lyp/145452207_rwf/"
 Entering Link 1 = /home/wykgroup/appl/g16/l1.exe PID=     10788.
  
 Copyright (c) 1988-2017, Gaussian, Inc.  All Rights Reserved.
  
 This is part of the Gaussian(R) 16 program.  It is based on
 the Gaussian(R) 09 system (copyright 2009, Gaussian, Inc.),
 the Gaussian(R) 03 system (copyright 2003, Gaussian, Inc.),
 the Gaussian(R) 98 system (copyright 1998, Gaussian, Inc.),
 the Gaussian(R) 94 system (copyright 1995, Gaussian, Inc.),
 the Gaussian 92(TM) system (copyright 1992, Gaussian, Inc.),
 the Gaussian 90(TM) system (copyright 1990, Gaussian, Inc.),
 the Gaussian 88(TM) system (copyright 1988, Gaussian, Inc.),
 the Gaussian 86(TM) system (copyright 1986, Carnegie Mellon
 University), and the Gaussian 82(TM) system (copyright 1983,
 Carnegie Mellon University). Gaussian is a federally registered
 trademark of Gaussian, Inc.
  
 This software contains proprietary and confidential information,
 including trade secrets, belonging to Gaussian, Inc.
  
 This software is provided under written license and may be
 used, copied, transmitted, or stored only in accord with that
 written license.
  
 The following legend is applicable only to US Government
 contracts under FAR:
  
                    RESTRICTED RIGHTS LEGEND
  
 Use, reproduction and disclosure by the US Government is
 subject to restrictions as set forth in subparagraphs (a)
 and (c) of the Commercial Computer Software - Restricted
 Rights clause in FAR 52.227-19.
  
 Gaussian, Inc.
 340 Quinnipiac St., Bldg. 40, Wallingford CT 06492
  
  
 ---------------------------------------------------------------
 Warning -- This program may not be used in any manner that
 competes with the business of Gaussian, Inc. or will provide
 assistance to any competitor of Gaussian, Inc.  The licensee
 of this program is prohibited from giving any competitor of
 Gaussian, Inc. access to this program.  By using this program,
 the user acknowledges that Gaussian, Inc. is engaged in the
 business of creating and licensing software in the field of
 computational chemistry and represents and warrants to the
 licensee that it is not a competitor of Gaussian, Inc. and that
 it will not use this program in any manner prohibited above.
 ---------------------------------------------------------------
  

 Cite this work as:
 Gaussian 16, Revision B.01,
 M. J. Frisch, G. W. Trucks, H. B. Schlegel, G. E. Scuseria, 
 M. A. Robb, J. R. Cheeseman, G. Scalmani, V. Barone, 
 G. A. Petersson, H. Nakatsuji, X. Li, M. Caricato, A. V. Marenich, 
 J. Bloino, B. G. Janesko, R. Gomperts, B. Mennucci, H. P. Hratchian, 
 J. V. Ortiz, A. F. Izmaylov, J. L. Sonnenberg, D. Williams-Young, 
 F. Ding, F. Lipparini, F. Egidi, J. Goings, B. Peng, A. Petrone, 
 T. Henderson, D. Ranasinghe, V. G. Zakrzewski, J. Gao, N. Rega, 
 G. Zheng, W. Liang, M. Hada, M. Ehara, K. Toyota, R. Fukuda, 
 J. Hasegawa, M. Ishida, T. Nakajima, Y. Honda, O. Kitao, H. Nakai, 
 T. Vreven, K. Throssell, J. A. Montgomery, Jr., J. E. Peralta, 
 F. Ogliaro, M. J. Bearpark, J. J. Heyd, E. N. Brothers, K. N. Kudin, 
 V. N. Staroverov, T. A. Keith, R. Kobayashi, J. Normand, 
 K. Raghavachari, A. P. Rendell, J. C. Burant, S. S. Iyengar, 
 J. Tomasi, M. Cossi, J. M. Millam, M. Klene, C. Adamo, R. Cammi, 
 J. W. Ochterski, R. L. Martin, K. Morokuma, O. Farkas, 
 J. B. Foresman, and D. J. Fox, Gaussian, Inc., Wallingford CT, 2016.
 
 ******************************************
 Gaussian 16:  ES64L-G16RevB.01 20-Dec-2017
                 5-Nov-2022 
 ******************************************
 %chk=calculation/no_transfer_pubchem_sampling_0_b3lyp/145452207_rwf.chk
 %rwf=calculation/no_transfer_pubchem_sampling_0_b3lyp/145452207_rwf.rwf
 %nprocshared=14
 Will use up to   14 processors via shared memory.
 %mem=3GB
 -------------------------------------------------------------------
 #p b3lyp/6-31g(d) 6D 10F nosymm GFInput td=(50-50,nstate=2) SCF=XQC
 -------------------------------------------------------------------
 1/38=1,172=1/1;
 2/12=2,15=1,17=6,18=5,40=1/2;
 3/5=1,6=6,7=1,8=22,11=9,24=10,25=1,30=1,74=-5/1,2,3,8;
 4//1;
 5/5=2,8=3,13=1,38=5/2,8;
 8/6=1,10=2,108=2/1;
 9/41=2,42=1,48=2,70=2/14;
 6/7=2,8=2,9=2,10=2/1;
 99/5=1,9=1/99;
 Leave Link    1 at Sat Nov  5 11:18:20 2022, MaxMem=   402653184 cpu:               2.9 elap:               0.3
 (Enter /home/wykgroup/appl/g16/l101.exe)
 ------------------------------
 Gaussian input prepared by ASE
 ------------------------------
 Symbolic Z-matrix:
 Charge =  0 Multiplicity = 1
 C                     9.86476  -1.37686   1.90657 
 C                     8.63381  -1.24663   1.0773 
 C                     7.30429  -1.30151   1.35928 
 C                     6.68906  -1.09432   0.0881 
 O                     5.36328  -1.07137  -0.10514 
 C                     4.91868  -0.85087  -1.46153 
 C                     3.39813  -0.83483  -1.45786 
 C                     2.78962   0.32305  -0.65617 
 C                     1.25572   0.31827  -0.6694 
 C                     0.66421   1.49578   0.11604 
 N                    -0.78893   1.42736   0.2632 
 C                    -1.32516   2.2962    1.31103 
 C                    -2.44168   1.60246   2.1144 
 C                    -3.55528   0.91952   1.35644 
 C                    -3.76765   0.98656   0.02598 
 C                    -2.9802    1.86849  -0.92062 
 C                    -1.47892   1.55143  -1.02664 
 N                    -4.74798   0.19019  -0.62964 
 C                    -5.667    -0.33976   0.07838 
 O                    -6.62974  -1.11392  -0.47996 
 C                    -6.55025  -1.28384  -1.88937 
 C                    -7.71871  -2.155    -2.30374 
 F                    -7.67928  -3.366    -1.71787 
 F                    -8.90243  -1.58964  -2.00262 
 F                    -7.67485  -2.33937  -3.64232 
 C                    -5.82348  -0.15804   1.5634 
 C                    -4.43001  -0.00354   2.18484 
 N                     7.56289  -0.92839  -0.88284 
 O                     8.81572  -1.0262   -0.24481 
 H                     10.47377  -0.46752   1.84799 
 H                     9.59983  -1.55181   2.9522 
 H                     10.4839  -2.21171   1.55883 
 H                     6.81837  -1.46256   2.30906 
 H                     5.31468  -1.65148  -2.09707 
 H                     5.33558   0.09794  -1.82123 
 H                     3.06721  -0.77873  -2.5043 
 H                     3.03494  -1.7942   -1.06605 
 H                     3.15159   0.2708    0.37846 
 H                     3.15838   1.27579  -1.06469 
 H                     0.87719  -0.61501  -0.23133 
 H                     0.90637   0.34091  -1.71007 
 H                     0.98621   2.44557  -0.36223 
 H                     1.10055   1.48797   1.12242 
 H                    -0.51755   2.52713   2.01395 
 H                    -1.66597   3.27142   0.92475 
 H                    -1.9633    0.83108   2.73877 
 H                    -2.86908   2.32757   2.82732 
 H                    -3.11667   2.92095  -0.64626 
 H                    -3.41252   1.75712  -1.9196 
 H                    -1.35623   0.61011  -1.5754 
 H                    -1.01503   2.34454  -1.64897 
 H                    -6.61053  -0.32211  -2.40698 
 H                    -5.61379  -1.77085  -2.17617 
 H                    -6.41556   0.75465   1.7298 
 H                    -6.3845   -0.99168   1.99437 
 H                    -4.52306   0.37342   3.21037 
 H                    -3.9434   -0.98992   2.26763 
 
 ITRead=  0  0  0  0  0  0  0  0  0  0  0  0  0  0  0  0  0  0  0  0
 ITRead=  0  0  0  0  0  0  0  0  0  0  0  0  0  0  0  0  0  0  0  0
 ITRead=  0  0  0  0  0  0  0  0  0  0  0  0  0  0  0  0  0
 MicOpt= -1 -1 -1 -1 -1 -1 -1 -1 -1 -1 -1 -1 -1 -1 -1 -1 -1 -1 -1 -1
 MicOpt= -1 -1 -1 -1 -1 -1 -1 -1 -1 -1 -1 -1 -1 -1 -1 -1 -1 -1 -1 -1
 MicOpt= -1 -1 -1 -1 -1 -1 -1 -1 -1 -1 -1 -1 -1 -1 -1 -1 -1
 NAtoms=     57 NQM=       57 NQMF=       0 NMMI=      0 NMMIF=      0
                NMic=       0 NMicF=      0.
                    Isotopes and Nuclear Properties:
 (Nuclear quadrupole moments (NQMom) in fm**2, nuclear magnetic moments (NMagM)
  in nuclear magnetons)

  Atom         1           2           3           4           5           6           7           8           9          10
 IAtWgt=          12          12          12          12          16          12          12          12          12          12
 AtmWgt=  12.0000000  12.0000000  12.0000000  12.0000000  15.9949146  12.0000000  12.0000000  12.0000000  12.0000000  12.0000000
 NucSpn=           0           0           0           0           0           0           0           0           0           0
 AtZEff=  -0.0000000  -0.0000000  -0.0000000  -0.0000000  -0.0000000  -0.0000000  -0.0000000  -0.0000000  -0.0000000  -0.0000000
 NQMom=    0.0000000   0.0000000   0.0000000   0.0000000   0.0000000   0.0000000   0.0000000   0.0000000   0.0000000   0.0000000
 NMagM=    0.0000000   0.0000000   0.0000000   0.0000000   0.0000000   0.0000000   0.0000000   0.0000000   0.0000000   0.0000000
 AtZNuc=   6.0000000   6.0000000   6.0000000   6.0000000   8.0000000   6.0000000   6.0000000   6.0000000   6.0000000   6.0000000

  Atom        11          12          13          14          15          16          17          18          19          20
 IAtWgt=          14          12          12          12          12          12          12          14          12          16
 AtmWgt=  14.0030740  12.0000000  12.0000000  12.0000000  12.0000000  12.0000000  12.0000000  14.0030740  12.0000000  15.9949146
 NucSpn=           2           0           0           0           0           0           0           2           0           0
 AtZEff=  -0.0000000  -0.0000000  -0.0000000  -0.0000000  -0.0000000  -0.0000000  -0.0000000  -0.0000000  -0.0000000  -0.0000000
 NQMom=    2.0440000   0.0000000   0.0000000   0.0000000   0.0000000   0.0000000   0.0000000   2.0440000   0.0000000   0.0000000
 NMagM=    0.4037610   0.0000000   0.0000000   0.0000000   0.0000000   0.0000000   0.0000000   0.4037610   0.0000000   0.0000000
 AtZNuc=   7.0000000   6.0000000   6.0000000   6.0000000   6.0000000   6.0000000   6.0000000   7.0000000   6.0000000   8.0000000

  Atom        21          22          23          24          25          26          27          28          29          30
 IAtWgt=          12          12          19          19          19          12          12          14          16           1
 AtmWgt=  12.0000000  12.0000000  18.9984032  18.9984032  18.9984032  12.0000000  12.0000000  14.0030740  15.9949146   1.0078250
 NucSpn=           0           0           1           1           1           0           0           2           0           1
 AtZEff=  -0.0000000  -0.0000000  -0.0000000  -0.0000000  -0.0000000  -0.0000000  -0.0000000  -0.0000000  -0.0000000  -0.0000000
 NQMom=    0.0000000   0.0000000   0.0000000   0.0000000   0.0000000   0.0000000   0.0000000   2.0440000   0.0000000   0.0000000
 NMagM=    0.0000000   0.0000000   2.6288670   2.6288670   2.6288670   0.0000000   0.0000000   0.4037610   0.0000000   2.7928460
 AtZNuc=   6.0000000   6.0000000   9.0000000   9.0000000   9.0000000   6.0000000   6.0000000   7.0000000   8.0000000   1.0000000

  Atom        31          32          33          34          35          36          37          38          39          40
 IAtWgt=           1           1           1           1           1           1           1           1           1           1
 AtmWgt=   1.0078250   1.0078250   1.0078250   1.0078250   1.0078250   1.0078250   1.0078250   1.0078250   1.0078250   1.0078250
 NucSpn=           1           1           1           1           1           1           1           1           1           1
 AtZEff=  -0.0000000  -0.0000000  -0.0000000  -0.0000000  -0.0000000  -0.0000000  -0.0000000  -0.0000000  -0.0000000  -0.0000000
 NQMom=    0.0000000   0.0000000   0.0000000   0.0000000   0.0000000   0.0000000   0.0000000   0.0000000   0.0000000   0.0000000
 NMagM=    2.7928460   2.7928460   2.7928460   2.7928460   2.7928460   2.7928460   2.7928460   2.7928460   2.7928460   2.7928460
 AtZNuc=   1.0000000   1.0000000   1.0000000   1.0000000   1.0000000   1.0000000   1.0000000   1.0000000   1.0000000   1.0000000

  Atom        41          42          43          44          45          46          47          48          49          50
 IAtWgt=           1           1           1           1           1           1           1           1           1           1
 AtmWgt=   1.0078250   1.0078250   1.0078250   1.0078250   1.0078250   1.0078250   1.0078250   1.0078250   1.0078250   1.0078250
 NucSpn=           1           1           1           1           1           1           1           1           1           1
 AtZEff=  -0.0000000  -0.0000000  -0.0000000  -0.0000000  -0.0000000  -0.0000000  -0.0000000  -0.0000000  -0.0000000  -0.0000000
 NQMom=    0.0000000   0.0000000   0.0000000   0.0000000   0.0000000   0.0000000   0.0000000   0.0000000   0.0000000   0.0000000
 NMagM=    2.7928460   2.7928460   2.7928460   2.7928460   2.7928460   2.7928460   2.7928460   2.7928460   2.7928460   2.7928460
 AtZNuc=   1.0000000   1.0000000   1.0000000   1.0000000   1.0000000   1.0000000   1.0000000   1.0000000   1.0000000   1.0000000

  Atom        51          52          53          54          55          56          57
 IAtWgt=           1           1           1           1           1           1           1
 AtmWgt=   1.0078250   1.0078250   1.0078250   1.0078250   1.0078250   1.0078250   1.0078250
 NucSpn=           1           1           1           1           1           1           1
 AtZEff=  -0.0000000  -0.0000000  -0.0000000  -0.0000000  -0.0000000  -0.0000000  -0.0000000
 NQMom=    0.0000000   0.0000000   0.0000000   0.0000000   0.0000000   0.0000000   0.0000000
 NMagM=    2.7928460   2.7928460   2.7928460   2.7928460   2.7928460   2.7928460   2.7928460
 AtZNuc=   1.0000000   1.0000000   1.0000000   1.0000000   1.0000000   1.0000000   1.0000000
 Leave Link  101 at Sat Nov  5 11:18:20 2022, MaxMem=   402653184 cpu:               3.0 elap:               0.3
 (Enter /home/wykgroup/appl/g16/l202.exe)
 Symmetry turned off by external request.
 Stoichiometry    C20H28F3N3O3
 Framework group  C1[X(C20H28F3N3O3)]
 Deg. of freedom   165
 Full point group                 C1      NOp   1
                          Input orientation:                          
 ---------------------------------------------------------------------
 Center     Atomic      Atomic             Coordinates (Angstroms)
 Number     Number       Type             X           Y           Z
 ---------------------------------------------------------------------
      1          6           0        9.864764   -1.376861    1.906568
      2          6           0        8.633810   -1.246628    1.077301
      3          6           0        7.304287   -1.301511    1.359279
      4          6           0        6.689062   -1.094325    0.088104
      5          8           0        5.363281   -1.071374   -0.105138
      6          6           0        4.918676   -0.850875   -1.461529
      7          6           0        3.398132   -0.834826   -1.457861
      8          6           0        2.789623    0.323055   -0.656169
      9          6           0        1.255722    0.318271   -0.669397
     10          6           0        0.664209    1.495781    0.116042
     11          7           0       -0.788933    1.427363    0.263202
     12          6           0       -1.325159    2.296203    1.311035
     13          6           0       -2.441683    1.602457    2.114402
     14          6           0       -3.555281    0.919517    1.356442
     15          6           0       -3.767648    0.986555    0.025978
     16          6           0       -2.980200    1.868490   -0.920618
     17          6           0       -1.478919    1.551426   -1.026645
     18          7           0       -4.747981    0.190191   -0.629643
     19          6           0       -5.667000   -0.339765    0.078379
     20          8           0       -6.629736   -1.113921   -0.479961
     21          6           0       -6.550249   -1.283836   -1.889369
     22          6           0       -7.718708   -2.154997   -2.303741
     23          9           0       -7.679276   -3.365995   -1.717868
     24          9           0       -8.902432   -1.589638   -2.002623
     25          9           0       -7.674852   -2.339366   -3.642320
     26          6           0       -5.823475   -0.158043    1.563404
     27          6           0       -4.430014   -0.003538    2.184837
     28          7           0        7.562892   -0.928392   -0.882837
     29          8           0        8.815723   -1.026200   -0.244815
     30          1           0       10.473771   -0.467515    1.847988
     31          1           0        9.599833   -1.551808    2.952200
     32          1           0       10.483902   -2.211707    1.558835
     33          1           0        6.818375   -1.462556    2.309064
     34          1           0        5.314679   -1.651475   -2.097071
     35          1           0        5.335581    0.097939   -1.821227
     36          1           0        3.067205   -0.778733   -2.504296
     37          1           0        3.034936   -1.794202   -1.066050
     38          1           0        3.151589    0.270796    0.378458
     39          1           0        3.158385    1.275793   -1.064693
     40          1           0        0.877189   -0.615009   -0.231331
     41          1           0        0.906365    0.340914   -1.710070
     42          1           0        0.986207    2.445571   -0.362232
     43          1           0        1.100550    1.487975    1.122418
     44          1           0       -0.517552    2.527125    2.013951
     45          1           0       -1.665972    3.271420    0.924754
     46          1           0       -1.963296    0.831080    2.738768
     47          1           0       -2.869081    2.327571    2.827320
     48          1           0       -3.116668    2.920954   -0.646256
     49          1           0       -3.412522    1.757124   -1.919601
     50          1           0       -1.356234    0.610113   -1.575405
     51          1           0       -1.015032    2.344538   -1.648972
     52          1           0       -6.610535   -0.322109   -2.406981
     53          1           0       -5.613787   -1.770845   -2.176174
     54          1           0       -6.415561    0.754653    1.729804
     55          1           0       -6.384497   -0.991678    1.994366
     56          1           0       -4.523062    0.373423    3.210366
     57          1           0       -3.943403   -0.989924    2.267628
 ---------------------------------------------------------------------
 Rotational constants (GHZ):           0.3063362           0.0338821           0.0321985
 Leave Link  202 at Sat Nov  5 11:18:20 2022, MaxMem=   402653184 cpu:               1.4 elap:               0.2
 (Enter /home/wykgroup/appl/g16/l301.exe)
 Standard basis: 6-31G(d) (6D, 10F)
 Ernie: Thresh=  0.10000D-02 Tol=  0.10000D-05 Strict=F.
 AO basis set in the form of general basis input (Overlap normalization):
      1 0
 S   6 1.00       0.000000000000
      0.3047524880D+04  0.1834737132D-02
      0.4573695180D+03  0.1403732281D-01
      0.1039486850D+03  0.6884262226D-01
      0.2921015530D+02  0.2321844432D+00
      0.9286662960D+01  0.4679413484D+00
      0.3163926960D+01  0.3623119853D+00
 SP   3 1.00       0.000000000000
      0.7868272350D+01 -0.1193324198D+00  0.6899906659D-01
      0.1881288540D+01 -0.1608541517D+00  0.3164239610D+00
      0.5442492580D+00  0.1143456438D+01  0.7443082909D+00
 SP   1 1.00       0.000000000000
      0.1687144782D+00  0.1000000000D+01  0.1000000000D+01
 D   1 1.00       0.000000000000
      0.8000000000D+00  0.1000000000D+01
 ****
      2 0
 S   6 1.00       0.000000000000
      0.3047524880D+04  0.1834737132D-02
      0.4573695180D+03  0.1403732281D-01
      0.1039486850D+03  0.6884262226D-01
      0.2921015530D+02  0.2321844432D+00
      0.9286662960D+01  0.4679413484D+00
      0.3163926960D+01  0.3623119853D+00
 SP   3 1.00       0.000000000000
      0.7868272350D+01 -0.1193324198D+00  0.6899906659D-01
      0.1881288540D+01 -0.1608541517D+00  0.3164239610D+00
      0.5442492580D+00  0.1143456438D+01  0.7443082909D+00
 SP   1 1.00       0.000000000000
      0.1687144782D+00  0.1000000000D+01  0.1000000000D+01
 D   1 1.00       0.000000000000
      0.8000000000D+00  0.1000000000D+01
 ****
      3 0
 S   6 1.00       0.000000000000
      0.3047524880D+04  0.1834737132D-02
      0.4573695180D+03  0.1403732281D-01
      0.1039486850D+03  0.6884262226D-01
      0.2921015530D+02  0.2321844432D+00
      0.9286662960D+01  0.4679413484D+00
      0.3163926960D+01  0.3623119853D+00
 SP   3 1.00       0.000000000000
      0.7868272350D+01 -0.1193324198D+00  0.6899906659D-01
      0.1881288540D+01 -0.1608541517D+00  0.3164239610D+00
      0.5442492580D+00  0.1143456438D+01  0.7443082909D+00
 SP   1 1.00       0.000000000000
      0.1687144782D+00  0.1000000000D+01  0.1000000000D+01
 D   1 1.00       0.000000000000
      0.8000000000D+00  0.1000000000D+01
 ****
      4 0
 S   6 1.00       0.000000000000
      0.3047524880D+04  0.1834737132D-02
      0.4573695180D+03  0.1403732281D-01
      0.1039486850D+03  0.6884262226D-01
      0.2921015530D+02  0.2321844432D+00
      0.9286662960D+01  0.4679413484D+00
      0.3163926960D+01  0.3623119853D+00
 SP   3 1.00       0.000000000000
      0.7868272350D+01 -0.1193324198D+00  0.6899906659D-01
      0.1881288540D+01 -0.1608541517D+00  0.3164239610D+00
      0.5442492580D+00  0.1143456438D+01  0.7443082909D+00
 SP   1 1.00       0.000000000000
      0.1687144782D+00  0.1000000000D+01  0.1000000000D+01
 D   1 1.00       0.000000000000
      0.8000000000D+00  0.1000000000D+01
 ****
      5 0
 S   6 1.00       0.000000000000
      0.5484671660D+04  0.1831074430D-02
      0.8252349460D+03  0.1395017220D-01
      0.1880469580D+03  0.6844507810D-01
      0.5296450000D+02  0.2327143360D+00
      0.1689757040D+02  0.4701928980D+00
      0.5799635340D+01  0.3585208530D+00
 SP   3 1.00       0.000000000000
      0.1553961625D+02 -0.1107775495D+00  0.7087426823D-01
      0.3599933586D+01 -0.1480262627D+00  0.3397528391D+00
      0.1013761750D+01  0.1130767015D+01  0.7271585773D+00
 SP   1 1.00       0.000000000000
      0.2700058226D+00  0.1000000000D+01  0.1000000000D+01
 D   1 1.00       0.000000000000
      0.8000000000D+00  0.1000000000D+01
 ****
      6 0
 S   6 1.00       0.000000000000
      0.3047524880D+04  0.1834737132D-02
      0.4573695180D+03  0.1403732281D-01
      0.1039486850D+03  0.6884262226D-01
      0.2921015530D+02  0.2321844432D+00
      0.9286662960D+01  0.4679413484D+00
      0.3163926960D+01  0.3623119853D+00
 SP   3 1.00       0.000000000000
      0.7868272350D+01 -0.1193324198D+00  0.6899906659D-01
      0.1881288540D+01 -0.1608541517D+00  0.3164239610D+00
      0.5442492580D+00  0.1143456438D+01  0.7443082909D+00
 SP   1 1.00       0.000000000000
      0.1687144782D+00  0.1000000000D+01  0.1000000000D+01
 D   1 1.00       0.000000000000
      0.8000000000D+00  0.1000000000D+01
 ****
      7 0
 S   6 1.00       0.000000000000
      0.3047524880D+04  0.1834737132D-02
      0.4573695180D+03  0.1403732281D-01
      0.1039486850D+03  0.6884262226D-01
      0.2921015530D+02  0.2321844432D+00
      0.9286662960D+01  0.4679413484D+00
      0.3163926960D+01  0.3623119853D+00
 SP   3 1.00       0.000000000000
      0.7868272350D+01 -0.1193324198D+00  0.6899906659D-01
      0.1881288540D+01 -0.1608541517D+00  0.3164239610D+00
      0.5442492580D+00  0.1143456438D+01  0.7443082909D+00
 SP   1 1.00       0.000000000000
      0.1687144782D+00  0.1000000000D+01  0.1000000000D+01
 D   1 1.00       0.000000000000
      0.8000000000D+00  0.1000000000D+01
 ****
      8 0
 S   6 1.00       0.000000000000
      0.3047524880D+04  0.1834737132D-02
      0.4573695180D+03  0.1403732281D-01
      0.1039486850D+03  0.6884262226D-01
      0.2921015530D+02  0.2321844432D+00
      0.9286662960D+01  0.4679413484D+00
      0.3163926960D+01  0.3623119853D+00
 SP   3 1.00       0.000000000000
      0.7868272350D+01 -0.1193324198D+00  0.6899906659D-01
      0.1881288540D+01 -0.1608541517D+00  0.3164239610D+00
      0.5442492580D+00  0.1143456438D+01  0.7443082909D+00
 SP   1 1.00       0.000000000000
      0.1687144782D+00  0.1000000000D+01  0.1000000000D+01
 D   1 1.00       0.000000000000
      0.8000000000D+00  0.1000000000D+01
 ****
      9 0
 S   6 1.00       0.000000000000
      0.3047524880D+04  0.1834737132D-02
      0.4573695180D+03  0.1403732281D-01
      0.1039486850D+03  0.6884262226D-01
      0.2921015530D+02  0.2321844432D+00
      0.9286662960D+01  0.4679413484D+00
      0.3163926960D+01  0.3623119853D+00
 SP   3 1.00       0.000000000000
      0.7868272350D+01 -0.1193324198D+00  0.6899906659D-01
      0.1881288540D+01 -0.1608541517D+00  0.3164239610D+00
      0.5442492580D+00  0.1143456438D+01  0.7443082909D+00
 SP   1 1.00       0.000000000000
      0.1687144782D+00  0.1000000000D+01  0.1000000000D+01
 D   1 1.00       0.000000000000
      0.8000000000D+00  0.1000000000D+01
 ****
     10 0
 S   6 1.00       0.000000000000
      0.3047524880D+04  0.1834737132D-02
      0.4573695180D+03  0.1403732281D-01
      0.1039486850D+03  0.6884262226D-01
      0.2921015530D+02  0.2321844432D+00
      0.9286662960D+01  0.4679413484D+00
      0.3163926960D+01  0.3623119853D+00
 SP   3 1.00       0.000000000000
      0.7868272350D+01 -0.1193324198D+00  0.6899906659D-01
      0.1881288540D+01 -0.1608541517D+00  0.3164239610D+00
      0.5442492580D+00  0.1143456438D+01  0.7443082909D+00
 SP   1 1.00       0.000000000000
      0.1687144782D+00  0.1000000000D+01  0.1000000000D+01
 D   1 1.00       0.000000000000
      0.8000000000D+00  0.1000000000D+01
 ****
     11 0
 S   6 1.00       0.000000000000
      0.4173511460D+04  0.1834772160D-02
      0.6274579110D+03  0.1399462700D-01
      0.1429020930D+03  0.6858655181D-01
      0.4023432930D+02  0.2322408730D+00
      0.1282021290D+02  0.4690699481D+00
      0.4390437010D+01  0.3604551991D+00
 SP   3 1.00       0.000000000000
      0.1162636186D+02 -0.1149611817D+00  0.6757974388D-01
      0.2716279807D+01 -0.1691174786D+00  0.3239072959D+00
      0.7722183966D+00  0.1145851947D+01  0.7408951398D+00
 SP   1 1.00       0.000000000000
      0.2120314975D+00  0.1000000000D+01  0.1000000000D+01
 D   1 1.00       0.000000000000
      0.8000000000D+00  0.1000000000D+01
 ****
     12 0
 S   6 1.00       0.000000000000
      0.3047524880D+04  0.1834737132D-02
      0.4573695180D+03  0.1403732281D-01
      0.1039486850D+03  0.6884262226D-01
      0.2921015530D+02  0.2321844432D+00
      0.9286662960D+01  0.4679413484D+00
      0.3163926960D+01  0.3623119853D+00
 SP   3 1.00       0.000000000000
      0.7868272350D+01 -0.1193324198D+00  0.6899906659D-01
      0.1881288540D+01 -0.1608541517D+00  0.3164239610D+00
      0.5442492580D+00  0.1143456438D+01  0.7443082909D+00
 SP   1 1.00       0.000000000000
      0.1687144782D+00  0.1000000000D+01  0.1000000000D+01
 D   1 1.00       0.000000000000
      0.8000000000D+00  0.1000000000D+01
 ****
     13 0
 S   6 1.00       0.000000000000
      0.3047524880D+04  0.1834737132D-02
      0.4573695180D+03  0.1403732281D-01
      0.1039486850D+03  0.6884262226D-01
      0.2921015530D+02  0.2321844432D+00
      0.9286662960D+01  0.4679413484D+00
      0.3163926960D+01  0.3623119853D+00
 SP   3 1.00       0.000000000000
      0.7868272350D+01 -0.1193324198D+00  0.6899906659D-01
      0.1881288540D+01 -0.1608541517D+00  0.3164239610D+00
      0.5442492580D+00  0.1143456438D+01  0.7443082909D+00
 SP   1 1.00       0.000000000000
      0.1687144782D+00  0.1000000000D+01  0.1000000000D+01
 D   1 1.00       0.000000000000
      0.8000000000D+00  0.1000000000D+01
 ****
     14 0
 S   6 1.00       0.000000000000
      0.3047524880D+04  0.1834737132D-02
      0.4573695180D+03  0.1403732281D-01
      0.1039486850D+03  0.6884262226D-01
      0.2921015530D+02  0.2321844432D+00
      0.9286662960D+01  0.4679413484D+00
      0.3163926960D+01  0.3623119853D+00
 SP   3 1.00       0.000000000000
      0.7868272350D+01 -0.1193324198D+00  0.6899906659D-01
      0.1881288540D+01 -0.1608541517D+00  0.3164239610D+00
      0.5442492580D+00  0.1143456438D+01  0.7443082909D+00
 SP   1 1.00       0.000000000000
      0.1687144782D+00  0.1000000000D+01  0.1000000000D+01
 D   1 1.00       0.000000000000
      0.8000000000D+00  0.1000000000D+01
 ****
     15 0
 S   6 1.00       0.000000000000
      0.3047524880D+04  0.1834737132D-02
      0.4573695180D+03  0.1403732281D-01
      0.1039486850D+03  0.6884262226D-01
      0.2921015530D+02  0.2321844432D+00
      0.9286662960D+01  0.4679413484D+00
      0.3163926960D+01  0.3623119853D+00
 SP   3 1.00       0.000000000000
      0.7868272350D+01 -0.1193324198D+00  0.6899906659D-01
      0.1881288540D+01 -0.1608541517D+00  0.3164239610D+00
      0.5442492580D+00  0.1143456438D+01  0.7443082909D+00
 SP   1 1.00       0.000000000000
      0.1687144782D+00  0.1000000000D+01  0.1000000000D+01
 D   1 1.00       0.000000000000
      0.8000000000D+00  0.1000000000D+01
 ****
     16 0
 S   6 1.00       0.000000000000
      0.3047524880D+04  0.1834737132D-02
      0.4573695180D+03  0.1403732281D-01
      0.1039486850D+03  0.6884262226D-01
      0.2921015530D+02  0.2321844432D+00
      0.9286662960D+01  0.4679413484D+00
      0.3163926960D+01  0.3623119853D+00
 SP   3 1.00       0.000000000000
      0.7868272350D+01 -0.1193324198D+00  0.6899906659D-01
      0.1881288540D+01 -0.1608541517D+00  0.3164239610D+00
      0.5442492580D+00  0.1143456438D+01  0.7443082909D+00
 SP   1 1.00       0.000000000000
      0.1687144782D+00  0.1000000000D+01  0.1000000000D+01
 D   1 1.00       0.000000000000
      0.8000000000D+00  0.1000000000D+01
 ****
     17 0
 S   6 1.00       0.000000000000
      0.3047524880D+04  0.1834737132D-02
      0.4573695180D+03  0.1403732281D-01
      0.1039486850D+03  0.6884262226D-01
      0.2921015530D+02  0.2321844432D+00
      0.9286662960D+01  0.4679413484D+00
      0.3163926960D+01  0.3623119853D+00
 SP   3 1.00       0.000000000000
      0.7868272350D+01 -0.1193324198D+00  0.6899906659D-01
      0.1881288540D+01 -0.1608541517D+00  0.3164239610D+00
      0.5442492580D+00  0.1143456438D+01  0.7443082909D+00
 SP   1 1.00       0.000000000000
      0.1687144782D+00  0.1000000000D+01  0.1000000000D+01
 D   1 1.00       0.000000000000
      0.8000000000D+00  0.1000000000D+01
 ****
     18 0
 S   6 1.00       0.000000000000
      0.4173511460D+04  0.1834772160D-02
      0.6274579110D+03  0.1399462700D-01
      0.1429020930D+03  0.6858655181D-01
      0.4023432930D+02  0.2322408730D+00
      0.1282021290D+02  0.4690699481D+00
      0.4390437010D+01  0.3604551991D+00
 SP   3 1.00       0.000000000000
      0.1162636186D+02 -0.1149611817D+00  0.6757974388D-01
      0.2716279807D+01 -0.1691174786D+00  0.3239072959D+00
      0.7722183966D+00  0.1145851947D+01  0.7408951398D+00
 SP   1 1.00       0.000000000000
      0.2120314975D+00  0.1000000000D+01  0.1000000000D+01
 D   1 1.00       0.000000000000
      0.8000000000D+00  0.1000000000D+01
 ****
     19 0
 S   6 1.00       0.000000000000
      0.3047524880D+04  0.1834737132D-02
      0.4573695180D+03  0.1403732281D-01
      0.1039486850D+03  0.6884262226D-01
      0.2921015530D+02  0.2321844432D+00
      0.9286662960D+01  0.4679413484D+00
      0.3163926960D+01  0.3623119853D+00
 SP   3 1.00       0.000000000000
      0.7868272350D+01 -0.1193324198D+00  0.6899906659D-01
      0.1881288540D+01 -0.1608541517D+00  0.3164239610D+00
      0.5442492580D+00  0.1143456438D+01  0.7443082909D+00
 SP   1 1.00       0.000000000000
      0.1687144782D+00  0.1000000000D+01  0.1000000000D+01
 D   1 1.00       0.000000000000
      0.8000000000D+00  0.1000000000D+01
 ****
     20 0
 S   6 1.00       0.000000000000
      0.5484671660D+04  0.1831074430D-02
      0.8252349460D+03  0.1395017220D-01
      0.1880469580D+03  0.6844507810D-01
      0.5296450000D+02  0.2327143360D+00
      0.1689757040D+02  0.4701928980D+00
      0.5799635340D+01  0.3585208530D+00
 SP   3 1.00       0.000000000000
      0.1553961625D+02 -0.1107775495D+00  0.7087426823D-01
      0.3599933586D+01 -0.1480262627D+00  0.3397528391D+00
      0.1013761750D+01  0.1130767015D+01  0.7271585773D+00
 SP   1 1.00       0.000000000000
      0.2700058226D+00  0.1000000000D+01  0.1000000000D+01
 D   1 1.00       0.000000000000
      0.8000000000D+00  0.1000000000D+01
 ****
     21 0
 S   6 1.00       0.000000000000
      0.3047524880D+04  0.1834737132D-02
      0.4573695180D+03  0.1403732281D-01
      0.1039486850D+03  0.6884262226D-01
      0.2921015530D+02  0.2321844432D+00
      0.9286662960D+01  0.4679413484D+00
      0.3163926960D+01  0.3623119853D+00
 SP   3 1.00       0.000000000000
      0.7868272350D+01 -0.1193324198D+00  0.6899906659D-01
      0.1881288540D+01 -0.1608541517D+00  0.3164239610D+00
      0.5442492580D+00  0.1143456438D+01  0.7443082909D+00
 SP   1 1.00       0.000000000000
      0.1687144782D+00  0.1000000000D+01  0.1000000000D+01
 D   1 1.00       0.000000000000
      0.8000000000D+00  0.1000000000D+01
 ****
     22 0
 S   6 1.00       0.000000000000
      0.3047524880D+04  0.1834737132D-02
      0.4573695180D+03  0.1403732281D-01
      0.1039486850D+03  0.6884262226D-01
      0.2921015530D+02  0.2321844432D+00
      0.9286662960D+01  0.4679413484D+00
      0.3163926960D+01  0.3623119853D+00
 SP   3 1.00       0.000000000000
      0.7868272350D+01 -0.1193324198D+00  0.6899906659D-01
      0.1881288540D+01 -0.1608541517D+00  0.3164239610D+00
      0.5442492580D+00  0.1143456438D+01  0.7443082909D+00
 SP   1 1.00       0.000000000000
      0.1687144782D+00  0.1000000000D+01  0.1000000000D+01
 D   1 1.00       0.000000000000
      0.8000000000D+00  0.1000000000D+01
 ****
     23 0
 S   6 1.00       0.000000000000
      0.7001713090D+04  0.1819616901D-02
      0.1051366090D+04  0.1391607961D-01
      0.2392856900D+03  0.6840532453D-01
      0.6739744530D+02  0.2331857601D+00
      0.2151995730D+02  0.4712674392D+00
      0.7403101300D+01  0.3566185462D+00
 SP   3 1.00       0.000000000000
      0.2084795280D+02 -0.1085069751D+00  0.7162872424D-01
      0.4808308340D+01 -0.1464516581D+00  0.3459121027D+00
      0.1344069860D+01  0.1128688581D+01  0.7224699564D+00
 SP   1 1.00       0.000000000000
      0.3581513930D+00  0.1000000000D+01  0.1000000000D+01
 D   1 1.00       0.000000000000
      0.8000000000D+00  0.1000000000D+01
 ****
     24 0
 S   6 1.00       0.000000000000
      0.7001713090D+04  0.1819616901D-02
      0.1051366090D+04  0.1391607961D-01
      0.2392856900D+03  0.6840532453D-01
      0.6739744530D+02  0.2331857601D+00
      0.2151995730D+02  0.4712674392D+00
      0.7403101300D+01  0.3566185462D+00
 SP   3 1.00       0.000000000000
      0.2084795280D+02 -0.1085069751D+00  0.7162872424D-01
      0.4808308340D+01 -0.1464516581D+00  0.3459121027D+00
      0.1344069860D+01  0.1128688581D+01  0.7224699564D+00
 SP   1 1.00       0.000000000000
      0.3581513930D+00  0.1000000000D+01  0.1000000000D+01
 D   1 1.00       0.000000000000
      0.8000000000D+00  0.1000000000D+01
 ****
     25 0
 S   6 1.00       0.000000000000
      0.7001713090D+04  0.1819616901D-02
      0.1051366090D+04  0.1391607961D-01
      0.2392856900D+03  0.6840532453D-01
      0.6739744530D+02  0.2331857601D+00
      0.2151995730D+02  0.4712674392D+00
      0.7403101300D+01  0.3566185462D+00
 SP   3 1.00       0.000000000000
      0.2084795280D+02 -0.1085069751D+00  0.7162872424D-01
      0.4808308340D+01 -0.1464516581D+00  0.3459121027D+00
      0.1344069860D+01  0.1128688581D+01  0.7224699564D+00
 SP   1 1.00       0.000000000000
      0.3581513930D+00  0.1000000000D+01  0.1000000000D+01
 D   1 1.00       0.000000000000
      0.8000000000D+00  0.1000000000D+01
 ****
     26 0
 S   6 1.00       0.000000000000
      0.3047524880D+04  0.1834737132D-02
      0.4573695180D+03  0.1403732281D-01
      0.1039486850D+03  0.6884262226D-01
      0.2921015530D+02  0.2321844432D+00
      0.9286662960D+01  0.4679413484D+00
      0.3163926960D+01  0.3623119853D+00
 SP   3 1.00       0.000000000000
      0.7868272350D+01 -0.1193324198D+00  0.6899906659D-01
      0.1881288540D+01 -0.1608541517D+00  0.3164239610D+00
      0.5442492580D+00  0.1143456438D+01  0.7443082909D+00
 SP   1 1.00       0.000000000000
      0.1687144782D+00  0.1000000000D+01  0.1000000000D+01
 D   1 1.00       0.000000000000
      0.8000000000D+00  0.1000000000D+01
 ****
     27 0
 S   6 1.00       0.000000000000
      0.3047524880D+04  0.1834737132D-02
      0.4573695180D+03  0.1403732281D-01
      0.1039486850D+03  0.6884262226D-01
      0.2921015530D+02  0.2321844432D+00
      0.9286662960D+01  0.4679413484D+00
      0.3163926960D+01  0.3623119853D+00
 SP   3 1.00       0.000000000000
      0.7868272350D+01 -0.1193324198D+00  0.6899906659D-01
      0.1881288540D+01 -0.1608541517D+00  0.3164239610D+00
      0.5442492580D+00  0.1143456438D+01  0.7443082909D+00
 SP   1 1.00       0.000000000000
      0.1687144782D+00  0.1000000000D+01  0.1000000000D+01
 D   1 1.00       0.000000000000
      0.8000000000D+00  0.1000000000D+01
 ****
     28 0
 S   6 1.00       0.000000000000
      0.4173511460D+04  0.1834772160D-02
      0.6274579110D+03  0.1399462700D-01
      0.1429020930D+03  0.6858655181D-01
      0.4023432930D+02  0.2322408730D+00
      0.1282021290D+02  0.4690699481D+00
      0.4390437010D+01  0.3604551991D+00
 SP   3 1.00       0.000000000000
      0.1162636186D+02 -0.1149611817D+00  0.6757974388D-01
      0.2716279807D+01 -0.1691174786D+00  0.3239072959D+00
      0.7722183966D+00  0.1145851947D+01  0.7408951398D+00
 SP   1 1.00       0.000000000000
      0.2120314975D+00  0.1000000000D+01  0.1000000000D+01
 D   1 1.00       0.000000000000
      0.8000000000D+00  0.1000000000D+01
 ****
     29 0
 S   6 1.00       0.000000000000
      0.5484671660D+04  0.1831074430D-02
      0.8252349460D+03  0.1395017220D-01
      0.1880469580D+03  0.6844507810D-01
      0.5296450000D+02  0.2327143360D+00
      0.1689757040D+02  0.4701928980D+00
      0.5799635340D+01  0.3585208530D+00
 SP   3 1.00       0.000000000000
      0.1553961625D+02 -0.1107775495D+00  0.7087426823D-01
      0.3599933586D+01 -0.1480262627D+00  0.3397528391D+00
      0.1013761750D+01  0.1130767015D+01  0.7271585773D+00
 SP   1 1.00       0.000000000000
      0.2700058226D+00  0.1000000000D+01  0.1000000000D+01
 D   1 1.00       0.000000000000
      0.8000000000D+00  0.1000000000D+01
 ****
     30 0
 S   3 1.00       0.000000000000
      0.1873113696D+02  0.3349460434D-01
      0.2825394365D+01  0.2347269535D+00
      0.6401216923D+00  0.8137573261D+00
 S   1 1.00       0.000000000000
      0.1612777588D+00  0.1000000000D+01
 ****
     31 0
 S   3 1.00       0.000000000000
      0.1873113696D+02  0.3349460434D-01
      0.2825394365D+01  0.2347269535D+00
      0.6401216923D+00  0.8137573261D+00
 S   1 1.00       0.000000000000
      0.1612777588D+00  0.1000000000D+01
 ****
     32 0
 S   3 1.00       0.000000000000
      0.1873113696D+02  0.3349460434D-01
      0.2825394365D+01  0.2347269535D+00
      0.6401216923D+00  0.8137573261D+00
 S   1 1.00       0.000000000000
      0.1612777588D+00  0.1000000000D+01
 ****
     33 0
 S   3 1.00       0.000000000000
      0.1873113696D+02  0.3349460434D-01
      0.2825394365D+01  0.2347269535D+00
      0.6401216923D+00  0.8137573261D+00
 S   1 1.00       0.000000000000
      0.1612777588D+00  0.1000000000D+01
 ****
     34 0
 S   3 1.00       0.000000000000
      0.1873113696D+02  0.3349460434D-01
      0.2825394365D+01  0.2347269535D+00
      0.6401216923D+00  0.8137573261D+00
 S   1 1.00       0.000000000000
      0.1612777588D+00  0.1000000000D+01
 ****
     35 0
 S   3 1.00       0.000000000000
      0.1873113696D+02  0.3349460434D-01
      0.2825394365D+01  0.2347269535D+00
      0.6401216923D+00  0.8137573261D+00
 S   1 1.00       0.000000000000
      0.1612777588D+00  0.1000000000D+01
 ****
     36 0
 S   3 1.00       0.000000000000
      0.1873113696D+02  0.3349460434D-01
      0.2825394365D+01  0.2347269535D+00
      0.6401216923D+00  0.8137573261D+00
 S   1 1.00       0.000000000000
      0.1612777588D+00  0.1000000000D+01
 ****
     37 0
 S   3 1.00       0.000000000000
      0.1873113696D+02  0.3349460434D-01
      0.2825394365D+01  0.2347269535D+00
      0.6401216923D+00  0.8137573261D+00
 S   1 1.00       0.000000000000
      0.1612777588D+00  0.1000000000D+01
 ****
     38 0
 S   3 1.00       0.000000000000
      0.1873113696D+02  0.3349460434D-01
      0.2825394365D+01  0.2347269535D+00
      0.6401216923D+00  0.8137573261D+00
 S   1 1.00       0.000000000000
      0.1612777588D+00  0.1000000000D+01
 ****
     39 0
 S   3 1.00       0.000000000000
      0.1873113696D+02  0.3349460434D-01
      0.2825394365D+01  0.2347269535D+00
      0.6401216923D+00  0.8137573261D+00
 S   1 1.00       0.000000000000
      0.1612777588D+00  0.1000000000D+01
 ****
     40 0
 S   3 1.00       0.000000000000
      0.1873113696D+02  0.3349460434D-01
      0.2825394365D+01  0.2347269535D+00
      0.6401216923D+00  0.8137573261D+00
 S   1 1.00       0.000000000000
      0.1612777588D+00  0.1000000000D+01
 ****
     41 0
 S   3 1.00       0.000000000000
      0.1873113696D+02  0.3349460434D-01
      0.2825394365D+01  0.2347269535D+00
      0.6401216923D+00  0.8137573261D+00
 S   1 1.00       0.000000000000
      0.1612777588D+00  0.1000000000D+01
 ****
     42 0
 S   3 1.00       0.000000000000
      0.1873113696D+02  0.3349460434D-01
      0.2825394365D+01  0.2347269535D+00
      0.6401216923D+00  0.8137573261D+00
 S   1 1.00       0.000000000000
      0.1612777588D+00  0.1000000000D+01
 ****
     43 0
 S   3 1.00       0.000000000000
      0.1873113696D+02  0.3349460434D-01
      0.2825394365D+01  0.2347269535D+00
      0.6401216923D+00  0.8137573261D+00
 S   1 1.00       0.000000000000
      0.1612777588D+00  0.1000000000D+01
 ****
     44 0
 S   3 1.00       0.000000000000
      0.1873113696D+02  0.3349460434D-01
      0.2825394365D+01  0.2347269535D+00
      0.6401216923D+00  0.8137573261D+00
 S   1 1.00       0.000000000000
      0.1612777588D+00  0.1000000000D+01
 ****
     45 0
 S   3 1.00       0.000000000000
      0.1873113696D+02  0.3349460434D-01
      0.2825394365D+01  0.2347269535D+00
      0.6401216923D+00  0.8137573261D+00
 S   1 1.00       0.000000000000
      0.1612777588D+00  0.1000000000D+01
 ****
     46 0
 S   3 1.00       0.000000000000
      0.1873113696D+02  0.3349460434D-01
      0.2825394365D+01  0.2347269535D+00
      0.6401216923D+00  0.8137573261D+00
 S   1 1.00       0.000000000000
      0.1612777588D+00  0.1000000000D+01
 ****
     47 0
 S   3 1.00       0.000000000000
      0.1873113696D+02  0.3349460434D-01
      0.2825394365D+01  0.2347269535D+00
      0.6401216923D+00  0.8137573261D+00
 S   1 1.00       0.000000000000
      0.1612777588D+00  0.1000000000D+01
 ****
     48 0
 S   3 1.00       0.000000000000
      0.1873113696D+02  0.3349460434D-01
      0.2825394365D+01  0.2347269535D+00
      0.6401216923D+00  0.8137573261D+00
 S   1 1.00       0.000000000000
      0.1612777588D+00  0.1000000000D+01
 ****
     49 0
 S   3 1.00       0.000000000000
      0.1873113696D+02  0.3349460434D-01
      0.2825394365D+01  0.2347269535D+00
      0.6401216923D+00  0.8137573261D+00
 S   1 1.00       0.000000000000
      0.1612777588D+00  0.1000000000D+01
 ****
     50 0
 S   3 1.00       0.000000000000
      0.1873113696D+02  0.3349460434D-01
      0.2825394365D+01  0.2347269535D+00
      0.6401216923D+00  0.8137573261D+00
 S   1 1.00       0.000000000000
      0.1612777588D+00  0.1000000000D+01
 ****
     51 0
 S   3 1.00       0.000000000000
      0.1873113696D+02  0.3349460434D-01
      0.2825394365D+01  0.2347269535D+00
      0.6401216923D+00  0.8137573261D+00
 S   1 1.00       0.000000000000
      0.1612777588D+00  0.1000000000D+01
 ****
     52 0
 S   3 1.00       0.000000000000
      0.1873113696D+02  0.3349460434D-01
      0.2825394365D+01  0.2347269535D+00
      0.6401216923D+00  0.8137573261D+00
 S   1 1.00       0.000000000000
      0.1612777588D+00  0.1000000000D+01
 ****
     53 0
 S   3 1.00       0.000000000000
      0.1873113696D+02  0.3349460434D-01
      0.2825394365D+01  0.2347269535D+00
      0.6401216923D+00  0.8137573261D+00
 S   1 1.00       0.000000000000
      0.1612777588D+00  0.1000000000D+01
 ****
     54 0
 S   3 1.00       0.000000000000
      0.1873113696D+02  0.3349460434D-01
      0.2825394365D+01  0.2347269535D+00
      0.6401216923D+00  0.8137573261D+00
 S   1 1.00       0.000000000000
      0.1612777588D+00  0.1000000000D+01
 ****
     55 0
 S   3 1.00       0.000000000000
      0.1873113696D+02  0.3349460434D-01
      0.2825394365D+01  0.2347269535D+00
      0.6401216923D+00  0.8137573261D+00
 S   1 1.00       0.000000000000
      0.1612777588D+00  0.1000000000D+01
 ****
     56 0
 S   3 1.00       0.000000000000
      0.1873113696D+02  0.3349460434D-01
      0.2825394365D+01  0.2347269535D+00
      0.6401216923D+00  0.8137573261D+00
 S   1 1.00       0.000000000000
      0.1612777588D+00  0.1000000000D+01
 ****
     57 0
 S   3 1.00       0.000000000000
      0.1873113696D+02  0.3349460434D-01
      0.2825394365D+01  0.2347269535D+00
      0.6401216923D+00  0.8137573261D+00
 S   1 1.00       0.000000000000
      0.1612777588D+00  0.1000000000D+01
 ****

   491 basis functions,   924 primitive gaussians,   491 cartesian basis functions
   110 alpha electrons      110 beta electrons
       nuclear repulsion energy      2613.5293944508 Hartrees.
 IExCor=  402 DFT=T Ex+Corr=B3LYP ExCW=0 ScaHFX=  0.200000
 ScaDFX=  0.800000  0.720000  1.000000  0.810000 ScalE2=  1.000000  1.000000
 IRadAn=      5 IRanWt=     -1 IRanGd=            0 ICorTp=0 IEmpDi=  4
 NAtoms=   57 NActive=   57 NUniq=   57 SFac= 1.00D+00 NAtFMM=   60 NAOKFM=F Big=F
 Integral buffers will be    131072 words long.
 Regular integral format.
 Two-electron integral symmetry is turned off.
 Leave Link  301 at Sat Nov  5 11:18:20 2022, MaxMem=   402653184 cpu:               1.4 elap:               0.2
 (Enter /home/wykgroup/appl/g16/l302.exe)
 NPDir=0 NMtPBC=     1 NCelOv=     1 NCel=       1 NClECP=     1 NCelD=      1
         NCelK=      1 NCelE2=     1 NClLst=     1 CellRange=     0.0.
 One-electron integrals computed using PRISM.
 NBasis=   491 RedAO= T EigKep=  1.26D-03  NBF=   491
 NBsUse=   491 1.00D-06 EigRej= -1.00D+00 NBFU=   491
 Precomputing XC quadrature grid using
 IXCGrd= 4 IRadAn=           5 IRanWt=          -1 IRanGd=           0 AccXCQ= 0.00D+00.
 Generated NRdTot=       0 NPtTot=           0 NUsed=           0 NTot=          32
 NSgBfM=   449   449   449   449   449 MxSgAt=    57 MxSgA2=    57.
 Leave Link  302 at Sat Nov  5 11:18:23 2022, MaxMem=   402653184 cpu:              23.6 elap:               2.2
 (Enter /home/wykgroup/appl/g16/l303.exe)
 DipDrv:  MaxL=1.
 Leave Link  303 at Sat Nov  5 11:18:23 2022, MaxMem=   402653184 cpu:               2.5 elap:               0.3
 (Enter /home/wykgroup/appl/g16/l308.exe)
 Leave Link  308 at Sat Nov  5 11:18:23 2022, MaxMem=   402653184 cpu:               3.3 elap:               0.4
 (Enter /home/wykgroup/appl/g16/l401.exe)
 ExpMin= 1.61D-01 ExpMax= 7.00D+03 ExpMxC= 1.05D+03 IAcc=3 IRadAn=         5 AccDes= 0.00D+00
 Harris functional with IExCor=  402 and IRadAn=       5 diagonalized for initial guess.
 HarFok:  IExCor=  402 AccDes= 0.00D+00 IRadAn=         5 IDoV= 1 UseB2=F ITyADJ=14
 ICtDFT=  3500011 ScaDFX=  1.000000  1.000000  1.000000  1.000000
 FoFCou: FMM=F IPFlag=           0 FMFlag=      100000 FMFlg1=           0
         NFxFlg=           0 DoJE=T BraDBF=F KetDBF=T FulRan=T
         wScrn=  0.000000 ICntrl=       500 IOpCl=  0 I1Cent=   200000004 NGrid=           0
         NMat0=    1 NMatS0=      1 NMatT0=    0 NMatD0=    1 NMtDS0=    0 NMtDT0=    0
 Symmetry not used in FoFCou.
 Harris En= -1468.32418980153    
 JPrj=0 DoOrth=F DoCkMO=F.
 Leave Link  401 at Sat Nov  5 11:18:29 2022, MaxMem=   402653184 cpu:              57.8 elap:               5.9
 (Enter /home/wykgroup/appl/g16/l502.exe)
 Two-electron integral symmetry not used.
 Closed shell SCF:
 Using DIIS extrapolation, IDIIS=  1040.
 NGot=   402653184 LenX=   402159760 LenY=   401918188
 Requested convergence on RMS density matrix=1.00D-08 within  32 cycles.
 Requested convergence on MAX density matrix=1.00D-06.
 Requested convergence on             energy=1.00D-06.
 No special actions if energy rises.
 Fock matrices will be formed incrementally for  20 cycles.
 Integral accuracy reduced to 1.0D-05 until final iterations.

 Cycle   1  Pass 0  IDiag  1:
 FoFJK:  IHMeth= 1 ICntrl=       0 DoSepK=F KAlg= 0 I1Cent=           0 FoldK=F
 IRaf= 540000000 NMat=       1 IRICut=       1 DoRegI=T DoRafI=F ISym2E= 0 IDoP0=0 IntGTp=1.
 FoFCou: FMM=F IPFlag=           0 FMFlag=      100000 FMFlg1=           0
         NFxFlg=           0 DoJE=F BraDBF=F KetDBF=F FulRan=T
         wScrn=  0.000000 ICntrl=         0 IOpCl=  0 I1Cent=           0 NGrid=           0
         NMat0=    1 NMatS0=      1 NMatT0=    0 NMatD0=    1 NMtDS0=    0 NMtDT0=    0
 Symmetry not used in FoFCou.
 E= -1467.74107979679    
 DIIS: error= 2.84D-02 at cycle   1 NSaved=   1.
 NSaved= 1 IEnMin= 1 EnMin= -1467.74107979679     IErMin= 1 ErrMin= 2.84D-02
 ErrMax= 2.84D-02  0.00D+00 EMaxC= 1.00D-01 BMatC= 6.42D-01 BMatP= 6.42D-01
 IDIUse=3 WtCom= 7.16D-01 WtEn= 2.84D-01
 Coeff-Com:  0.100D+01
 Coeff-En:   0.100D+01
 Coeff:      0.100D+01
 Gap=     0.151 Goal=   None    Shift=    0.000
 GapD=    0.151 DampG=1.000 DampE=0.500 DampFc=0.5000 IDamp=-1.
 Damping current iteration by 5.00D-01
 RMSDP=3.77D-03 MaxDP=1.69D-01              OVMax= 2.60D-01

 Cycle   2  Pass 0  IDiag  1:
 RMSU=  1.87D-03    CP:  9.84D-01
 E= -1468.00092734509     Delta-E=       -0.259847548297 Rises=F Damp=T
 DIIS: error= 5.52D-03 at cycle   2 NSaved=   2.
 NSaved= 2 IEnMin= 2 EnMin= -1468.00092734509     IErMin= 2 ErrMin= 5.52D-03
 ErrMax= 5.52D-03  0.00D+00 EMaxC= 1.00D-01 BMatC= 5.06D-02 BMatP= 6.42D-01
 IDIUse=3 WtCom= 9.45D-01 WtEn= 5.52D-02
 Coeff-Com:  0.911D-01 0.909D+00
 Coeff-En:   0.160D+00 0.840D+00
 Coeff:      0.949D-01 0.905D+00
 Gap=     0.231 Goal=   None    Shift=    0.000
 RMSDP=1.08D-03 MaxDP=5.19D-02 DE=-2.60D-01 OVMax= 2.39D-01

 Cycle   3  Pass 0  IDiag  1:
 RMSU=  9.89D-04    CP:  9.80D-01  7.68D-01
 E= -1468.32369039438     Delta-E=       -0.322763049295 Rises=F Damp=F
 DIIS: error= 7.56D-03 at cycle   3 NSaved=   3.
 NSaved= 3 IEnMin= 3 EnMin= -1468.32369039438     IErMin= 2 ErrMin= 5.52D-03
 ErrMax= 7.56D-03  0.00D+00 EMaxC= 1.00D-01 BMatC= 4.63D-02 BMatP= 5.06D-02
 IDIUse=3 WtCom= 9.24D-01 WtEn= 7.56D-02
 Coeff-Com: -0.285D-02 0.487D+00 0.516D+00
 Coeff-En:   0.000D+00 0.000D+00 0.100D+01
 Coeff:     -0.264D-02 0.450D+00 0.552D+00
 Gap=     0.180 Goal=   None    Shift=    0.000
 RMSDP=6.65D-04 MaxDP=3.68D-02 DE=-3.23D-01 OVMax= 7.91D-02

 Cycle   4  Pass 0  IDiag  1:
 RMSU=  4.17D-04    CP:  9.81D-01  8.71D-01  5.14D-01
 E= -1468.35289770935     Delta-E=       -0.029207314965 Rises=F Damp=F
 DIIS: error= 4.93D-03 at cycle   4 NSaved=   4.
 NSaved= 4 IEnMin= 4 EnMin= -1468.35289770935     IErMin= 4 ErrMin= 4.93D-03
 ErrMax= 4.93D-03  0.00D+00 EMaxC= 1.00D-01 BMatC= 1.53D-02 BMatP= 4.63D-02
 IDIUse=3 WtCom= 9.51D-01 WtEn= 4.93D-02
 Coeff-Com: -0.150D-01 0.130D+00 0.371D+00 0.514D+00
 Coeff-En:   0.000D+00 0.000D+00 0.275D+00 0.725D+00
 Coeff:     -0.143D-01 0.123D+00 0.367D+00 0.524D+00
 Gap=     0.180 Goal=   None    Shift=    0.000
 RMSDP=2.60D-04 MaxDP=1.62D-02 DE=-2.92D-02 OVMax= 3.04D-02

 Cycle   5  Pass 0  IDiag  1:
 RMSU=  1.17D-04    CP:  9.81D-01  8.52D-01  6.35D-01  5.29D-01
 E= -1468.36546859858     Delta-E=       -0.012570889229 Rises=F Damp=F
 DIIS: error= 1.18D-03 at cycle   5 NSaved=   5.
 NSaved= 5 IEnMin= 5 EnMin= -1468.36546859858     IErMin= 5 ErrMin= 1.18D-03
 ErrMax= 1.18D-03  0.00D+00 EMaxC= 1.00D-01 BMatC= 1.01D-03 BMatP= 1.53D-02
 IDIUse=3 WtCom= 9.88D-01 WtEn= 1.18D-02
 Coeff-Com: -0.700D-02 0.334D-01 0.165D+00 0.301D+00 0.507D+00
 Coeff-En:   0.000D+00 0.000D+00 0.000D+00 0.000D+00 0.100D+01
 Coeff:     -0.692D-02 0.330D-01 0.163D+00 0.298D+00 0.513D+00
 Gap=     0.183 Goal=   None    Shift=    0.000
 RMSDP=7.26D-05 MaxDP=4.06D-03 DE=-1.26D-02 OVMax= 8.28D-03

 Cycle   6  Pass 0  IDiag  1:
 RMSU=  4.08D-05    CP:  9.81D-01  8.54D-01  6.44D-01  5.83D-01  5.30D-01
 E= -1468.36622450211     Delta-E=       -0.000755903537 Rises=F Damp=F
 DIIS: error= 3.41D-04 at cycle   6 NSaved=   6.
 NSaved= 6 IEnMin= 6 EnMin= -1468.36622450211     IErMin= 6 ErrMin= 3.41D-04
 ErrMax= 3.41D-04  0.00D+00 EMaxC= 1.00D-01 BMatC= 9.48D-05 BMatP= 1.01D-03
 IDIUse=3 WtCom= 9.97D-01 WtEn= 3.41D-03
 Coeff-Com: -0.226D-02 0.502D-02 0.536D-01 0.113D+00 0.296D+00 0.534D+00
 Coeff-En:   0.000D+00 0.000D+00 0.000D+00 0.000D+00 0.520D-01 0.948D+00
 Coeff:     -0.225D-02 0.501D-02 0.534D-01 0.113D+00 0.295D+00 0.536D+00
 Gap=     0.182 Goal=   None    Shift=    0.000
 RMSDP=2.45D-05 MaxDP=1.88D-03 DE=-7.56D-04 OVMax= 3.66D-03

 Cycle   7  Pass 0  IDiag  1:
 RMSU=  1.32D-05    CP:  9.81D-01  8.54D-01  6.43D-01  5.86D-01  6.01D-01
                    CP:  5.35D-01
 E= -1468.36630223711     Delta-E=       -0.000077734993 Rises=F Damp=F
 DIIS: error= 9.50D-05 at cycle   7 NSaved=   7.
 NSaved= 7 IEnMin= 7 EnMin= -1468.36630223711     IErMin= 7 ErrMin= 9.50D-05
 ErrMax= 9.50D-05  0.00D+00 EMaxC= 1.00D-01 BMatC= 1.09D-05 BMatP= 9.48D-05
 IDIUse=1 WtCom= 1.00D+00 WtEn= 0.00D+00
 Coeff-Com: -0.847D-03 0.291D-03 0.200D-01 0.461D-01 0.145D+00 0.332D+00
 Coeff-Com:  0.457D+00
 Coeff:     -0.847D-03 0.291D-03 0.200D-01 0.461D-01 0.145D+00 0.332D+00
 Coeff:      0.457D+00
 Gap=     0.182 Goal=   None    Shift=    0.000
 RMSDP=7.57D-06 MaxDP=5.31D-04 DE=-7.77D-05 OVMax= 1.18D-03

 Initial convergence to 1.0D-05 achieved.  Increase integral accuracy.
 Cycle   8  Pass 1  IDiag  1:
 E= -1468.36632747311     Delta-E=       -0.000025236000 Rises=F Damp=F
 DIIS: error= 4.19D-05 at cycle   1 NSaved=   1.
 NSaved= 1 IEnMin= 1 EnMin= -1468.36632747311     IErMin= 1 ErrMin= 4.19D-05
 ErrMax= 4.19D-05  0.00D+00 EMaxC= 1.00D-01 BMatC= 9.03D-07 BMatP= 9.03D-07
 IDIUse=1 WtCom= 1.00D+00 WtEn= 0.00D+00
 Coeff-Com:  0.100D+01
 Coeff:      0.100D+01
 Gap=     0.182 Goal=   None    Shift=    0.000
 RMSDP=7.57D-06 MaxDP=5.31D-04 DE=-2.52D-05 OVMax= 4.93D-04

 Cycle   9  Pass 1  IDiag  1:
 RMSU=  1.17D-05    CP:  1.00D+00
 E= -1468.36632690913     Delta-E=        0.000000563979 Rises=F Damp=F
 DIIS: error= 5.68D-05 at cycle   2 NSaved=   2.
 NSaved= 2 IEnMin= 1 EnMin= -1468.36632747311     IErMin= 1 ErrMin= 4.19D-05
 ErrMax= 5.68D-05  0.00D+00 EMaxC= 1.00D-01 BMatC= 1.60D-06 BMatP= 9.03D-07
 IDIUse=1 WtCom= 1.00D+00 WtEn= 0.00D+00
 Coeff-Com:  0.583D+00 0.417D+00
 Coeff:      0.583D+00 0.417D+00
 Gap=     0.182 Goal=   None    Shift=    0.000
 RMSDP=2.94D-06 MaxDP=2.23D-04 DE= 5.64D-07 OVMax= 4.73D-04

 Cycle  10  Pass 1  IDiag  1:
 RMSU=  2.84D-06    CP:  1.00D+00  9.36D-01
 E= -1468.36632819369     Delta-E=       -0.000001284566 Rises=F Damp=F
 DIIS: error= 2.13D-05 at cycle   3 NSaved=   3.
 NSaved= 3 IEnMin= 3 EnMin= -1468.36632819369     IErMin= 3 ErrMin= 2.13D-05
 ErrMax= 2.13D-05  0.00D+00 EMaxC= 1.00D-01 BMatC= 1.33D-07 BMatP= 9.03D-07
 IDIUse=1 WtCom= 1.00D+00 WtEn= 0.00D+00
 Coeff-Com:  0.103D+00 0.229D+00 0.668D+00
 Coeff:      0.103D+00 0.229D+00 0.668D+00
 Gap=     0.182 Goal=   None    Shift=    0.000
 RMSDP=9.57D-07 MaxDP=9.64D-05 DE=-1.28D-06 OVMax= 1.88D-04

 Cycle  11  Pass 1  IDiag  1:
 RMSU=  6.28D-07    CP:  1.00D+00  9.56D-01  7.60D-01
 E= -1468.36632828955     Delta-E=       -0.000000095859 Rises=F Damp=F
 DIIS: error= 8.15D-06 at cycle   4 NSaved=   4.
 NSaved= 4 IEnMin= 4 EnMin= -1468.36632828955     IErMin= 4 ErrMin= 8.15D-06
 ErrMax= 8.15D-06  0.00D+00 EMaxC= 1.00D-01 BMatC= 3.12D-08 BMatP= 1.33D-07
 IDIUse=1 WtCom= 1.00D+00 WtEn= 0.00D+00
 Coeff-Com:  0.501D-02 0.102D+00 0.429D+00 0.464D+00
 Coeff:      0.501D-02 0.102D+00 0.429D+00 0.464D+00
 Gap=     0.182 Goal=   None    Shift=    0.000
 RMSDP=3.53D-07 MaxDP=3.11D-05 DE=-9.59D-08 OVMax= 6.17D-05

 Cycle  12  Pass 1  IDiag  1:
 RMSU=  1.47D-07    CP:  1.00D+00  9.57D-01  7.91D-01  5.10D-01
 E= -1468.36632831472     Delta-E=       -0.000000025165 Rises=F Damp=F
 DIIS: error= 1.24D-06 at cycle   5 NSaved=   5.
 NSaved= 5 IEnMin= 5 EnMin= -1468.36632831472     IErMin= 5 ErrMin= 1.24D-06
 ErrMax= 1.24D-06  0.00D+00 EMaxC= 1.00D-01 BMatC= 1.52D-09 BMatP= 3.12D-08
 IDIUse=1 WtCom= 1.00D+00 WtEn= 0.00D+00
 Coeff-Com: -0.181D-02 0.513D-01 0.232D+00 0.285D+00 0.433D+00
 Coeff:     -0.181D-02 0.513D-01 0.232D+00 0.285D+00 0.433D+00
 Gap=     0.182 Goal=   None    Shift=    0.000
 RMSDP=8.73D-08 MaxDP=5.41D-06 DE=-2.52D-08 OVMax= 1.19D-05

 Cycle  13  Pass 1  IDiag  1:
 RMSU=  4.02D-08    CP:  1.00D+00  9.57D-01  7.95D-01  5.18D-01  4.78D-01
 E= -1468.36632831602     Delta-E=       -0.000000001299 Rises=F Damp=F
 DIIS: error= 2.61D-07 at cycle   6 NSaved=   6.
 NSaved= 6 IEnMin= 6 EnMin= -1468.36632831602     IErMin= 6 ErrMin= 2.61D-07
 ErrMax= 2.61D-07  0.00D+00 EMaxC= 1.00D-01 BMatC= 6.61D-11 BMatP= 1.52D-09
 IDIUse=1 WtCom= 1.00D+00 WtEn= 0.00D+00
 Coeff-Com: -0.140D-02 0.222D-01 0.103D+00 0.132D+00 0.242D+00 0.502D+00
 Coeff:     -0.140D-02 0.222D-01 0.103D+00 0.132D+00 0.242D+00 0.502D+00
 Gap=     0.182 Goal=   None    Shift=    0.000
 RMSDP=2.07D-08 MaxDP=1.33D-06 DE=-1.30D-09 OVMax= 2.97D-06

 Cycle  14  Pass 1  IDiag  1:
 RMSU=  1.45D-08    CP:  1.00D+00  9.57D-01  7.94D-01  5.16D-01  5.10D-01
                    CP:  6.67D-01
 E= -1468.36632831608     Delta-E=       -0.000000000062 Rises=F Damp=F
 DIIS: error= 6.13D-08 at cycle   7 NSaved=   7.
 NSaved= 7 IEnMin= 7 EnMin= -1468.36632831608     IErMin= 7 ErrMin= 6.13D-08
 ErrMax= 6.13D-08  0.00D+00 EMaxC= 1.00D-01 BMatC= 4.50D-12 BMatP= 6.61D-11
 IDIUse=1 WtCom= 1.00D+00 WtEn= 0.00D+00
 Coeff-Com: -0.518D-03 0.632D-02 0.303D-01 0.397D-01 0.768D-01 0.257D+00
 Coeff-Com:  0.590D+00
 Coeff:     -0.518D-03 0.632D-02 0.303D-01 0.397D-01 0.768D-01 0.257D+00
 Coeff:      0.590D+00
 Gap=     0.182 Goal=   None    Shift=    0.000
 RMSDP=6.03D-09 MaxDP=2.88D-07 DE=-6.23D-11 OVMax= 6.98D-07

 SCF Done:  E(RB3LYP) =  -1468.36632832     A.U. after   14 cycles
            NFock= 14  Conv=0.60D-08     -V/T= 2.0088
 KE= 1.455558463839D+03 PE=-8.658464404919D+03 EE= 3.121010218313D+03
 Leave Link  502 at Sat Nov  5 11:19:15 2022, MaxMem=   402653184 cpu:             592.9 elap:              45.1
 (Enter /home/wykgroup/appl/g16/l508.exe)
 QCSCF skips out because SCF is already converged.
 Leave Link  508 at Sat Nov  5 11:19:15 2022, MaxMem=   402653184 cpu:               0.0 elap:               0.0
 (Enter /home/wykgroup/appl/g16/l801.exe)
 DoSCS=F DFT=T ScalE2(SS,OS)=  1.000000  1.000000
 ExpMin= 1.61D-01 ExpMax= 7.00D+03 ExpMxC= 1.05D+03 IAcc=3 IRadAn=         5 AccDes= 0.00D+00
 HarFok:  IExCor=  205 AccDes= 0.00D+00 IRadAn=         5 IDoV=-2 UseB2=F ITyADJ=14
 ICtDFT= 12500011 ScaDFX=  1.000000  1.000000  1.000000  1.000000
 GSVD:  LWork=       -1073 too small for GESVD, short by        4640 words or        4640 for optimal perf.
 Largest valence mixing into a core orbital is  6.79D-05
 Largest core mixing into a valence orbital is  1.32D-05
 Range of M.O.s used for correlation:    30   491
 NBasis=   491 NAE=   110 NBE=   110 NFC=    29 NFV=     0
 NROrb=    462 NOA=    81 NOB=    81 NVA=   381 NVB=   381
 Leave Link  801 at Sat Nov  5 11:19:15 2022, MaxMem=   402653184 cpu:               2.4 elap:               0.2
 (Enter /home/wykgroup/appl/g16/l914.exe)
 RHF ground state
 Two-electron integral symmetry not used.
 MDV=   402653184 DFT=T DoStab=F Mixed=T DoRPA=T DoScal=F NonHer=T
 Making orbital integer symmetry assigments:
    16 initial guesses have been made.
 Convergence on wavefunction:    0.001000000000000
 Davidson Disk Diagonalization:  ConvIn= 1.00D-03 SkipCon=T Conv= 1.00D-03.
 Max sub-space:  2000 roots to seek:    16 dimension of matrix:        61722
 Iteration     1 Dimension    16 NMult     0 NNew     16
 CISAX will form    16 AO SS matrices at one time.
 NMat=    16 NSing=     8 JSym2X= 0.
 FoFJK:  IHMeth= 1 ICntrl=       0 DoSepK=F KAlg= 0 I1Cent=           0 FoldK=F
 IRaf= 540000000 NMat=      32 IRICut=       1 DoRegI=T DoRafI=F ISym2E= 0 IDoP0=0 IntGTp=1.
 FoFCou: FMM=F IPFlag=           0 FMFlag=      100000 FMFlg1=           0
         NFxFlg=           0 DoJE=F BraDBF=F KetDBF=F FulRan=T
         wScrn=  0.000000 ICntrl=         0 IOpCl=  0 I1Cent=           0 NGrid=           0
         NMat0=   32 NMatS0=      8 NMatT0=    8 NMatD0=   32 NMtDS0=    0 NMtDT0=    0
 Symmetry not used in FoFCou.
 New state      1 was old state      4
 New state      2 was old state      1
 New state      3 was old state      2
 New state      4 was old state     16
 New state      5 was old state     14
 New state      7 was old state      5
 New state      8 was old state     13
 Excitation Energies [eV] at current iteration:
 Root      1 :     3.226925427356041
 Root      2 :     4.342897537384858
 Root      3 :     4.356967222500795
 Root      4 :     4.739465525949885
 Root      5 :     5.039417336514934
 Root      6 :     5.215669620045782
 Root      7 :     5.215698011903734
 Root      8 :     5.409115431154760
 Root      9 :     5.516199949576661
 Root     10 :     5.516209660256362
 Root     11 :     5.716243957586383
 Root     12 :     5.922498674420714
 Root     13 :     5.922516434792736
 Root     14 :     6.216291772940616
 Root     15 :     6.216317566969191
 Root     16 :     7.690676914061926
 Vector   4 SDiff=6.96D-02 TDiff=9.58D+00 assumed to be singlet.
 Vector   8 SDiff=7.18D-02 TDiff=8.70D+00 assumed to be singlet.
 Iteration     2 Dimension    24 NMult    16 NNew      8
 CISAX will form     8 AO SS matrices at one time.
 NMat=     8 NSing=     4 JSym2X= 0.
 Root      1 not converged, maximum delta is    0.102222235838970
 Root      2 not converged, maximum delta is    0.077875583336811
 Root      3 not converged, maximum delta is    0.033400470879283
 New state      4 was old state      8
 Root      4 not converged, maximum delta is    0.341332765135750
 Excitation Energies [eV] at current iteration:
 Root      1 :     2.809162639390778   Change is   -0.417762787965263
 Root      2 :     4.308308035453644   Change is   -0.034589501931215
 Root      3 :     4.335752806350424   Change is   -0.021214416150370
 Root      4 :     4.917242219816388   Change is   -0.491873211338371
 Iteration     3 Dimension    32 NMult    24 NNew      8
 CISAX will form     8 AO SS matrices at one time.
 NMat=     8 NSing=     4 JSym2X= 0.
 Root      1 not converged, maximum delta is    0.007008207294797
 Root      2 not converged, maximum delta is    0.045565687550335
 Root      3 not converged, maximum delta is    0.003903954037448
 Root      4 not converged, maximum delta is    0.088586844094136
 Excitation Energies [eV] at current iteration:
 Root      1 :     2.793571673543349   Change is   -0.015590965847429
 Root      2 :     4.300574611344387   Change is   -0.007733424109257
 Root      3 :     4.335223946505319   Change is   -0.000528859845105
 Root      4 :     4.719309844752215   Change is   -0.197932375064173
 Iteration     4 Dimension    40 NMult    32 NNew      8
 CISAX will form     8 AO SS matrices at one time.
 NMat=     8 NSing=     4 JSym2X= 0.
 Root      1 not converged, maximum delta is    0.004406250047206
 Root      2 not converged, maximum delta is    0.005953362327756
 Root      3 not converged, maximum delta is    0.001614997692645
 Root      4 not converged, maximum delta is    0.007294040774208
 Excitation Energies [eV] at current iteration:
 Root      1 :     2.792834138593121   Change is   -0.000737534950228
 Root      2 :     4.299454539051038   Change is   -0.001120072293348
 Root      3 :     4.335168311589895   Change is   -0.000055634915424
 Root      4 :     4.702433386141153   Change is   -0.016876458611062
 Iteration     5 Dimension    48 NMult    40 NNew      8
 CISAX will form     8 AO SS matrices at one time.
 NMat=     8 NSing=     4 JSym2X= 0.
 Root      1 has converged.
 Root      2 has converged.
 Root      3 has converged.
 Root      4 not converged, maximum delta is    0.003074570517078
 Excitation Energies [eV] at current iteration:
 Root      1 :     2.792791662993859   Change is   -0.000042475599263
 Root      2 :     4.299300040569994   Change is   -0.000154498481045
 Root      3 :     4.335159411282761   Change is   -0.000008900307133
 Root      4 :     4.700157247681971   Change is   -0.002276138459183
 Iteration     6 Dimension    50 NMult    48 NNew      2
 CISAX will form     2 AO SS matrices at one time.
 NMat=     2 NSing=     2 JSym2X= 0.
 Root      1 has converged.
 Root      2 has converged.
 Root      3 has converged.
 Root      4 has converged.
 Excitation Energies [eV] at current iteration:
 Root      1 :     2.792791662993947   Change is    0.000000000000088
 Root      2 :     4.299286670058027   Change is   -0.000013370511967
 Root      3 :     4.335159411282780   Change is    0.000000000000019
 Root      4 :     4.699868867210252   Change is   -0.000288380471718
 Convergence achieved on expansion vectors.
 ***********************************************************************
 Excited states from <AA,BB:AA,BB> singles matrix:
 ***********************************************************************
 
 1PDM for each excited state written to RWF  633
 Ground to excited state transition densities written to RWF  633
 Ground to excited state transition electric dipole moments (Au):
       state          X           Y           Z        Dip. S.      Osc.
         1         0.0000      0.0000     -0.0000      0.0000      0.0000
         2         0.3892      0.1649      0.1870      0.2136      0.0225
         3        -0.0000     -0.0000     -0.0000      0.0000      0.0000
         4        -0.8342     -0.3736     -0.7513      1.4000      0.1612
 Ground to excited state transition velocity dipole moments (Au):
       state          X           Y           Z        Dip. S.      Osc.
         1        -0.0000     -0.0000      0.0000      0.0000      0.0000
         2        -0.0567     -0.0267     -0.0307      0.0049      0.0205
         3         0.0000     -0.0000      0.0000      0.0000      0.0000
         4         0.1391      0.0565      0.1297      0.0394      0.1519
 Ground to excited state transition magnetic dipole moments (Au):
       state          X           Y           Z
         1        -0.0000     -0.0000      0.0000
         2        -0.0365     -0.1716      0.1908
         3         0.0000     -0.0000     -0.0000
         4         0.2675      0.5976     -0.7198
 Ground to excited state transition velocity quadrupole moments (Au):
       state          XX          YY          ZZ          XY          XZ          YZ
         1         0.0000      0.0000      0.0000     -0.0000      0.0000     -0.0000
         2         0.8343     -0.0596     -0.0955      0.1812      0.2753      0.0223
         3        -0.0000     -0.0000      0.0000     -0.0000      0.0000     -0.0000
         4        -2.3740     -0.0293      0.3305     -0.5551     -0.9661      0.1547
 <0|del|b> * <b|rxdel|0> + <0|del|b> * <b|delr+rdel|0>
 Rotatory Strengths (R) in cgs (10**-40 erg-esu-cm/Gauss)
       state          XX          YY          ZZ    R(velocity)    E-M Angle
         1         0.0000      0.0000     -0.0000      0.0000       90.00
         2         1.1271      1.1351      1.2684      1.1769       87.50
         3         0.0000     -0.0000      0.0000      0.0000       90.00
         4      -157.7508     76.4739    -10.4670    -30.5813       96.67
 1/2[<0|r|b>*<b|rxdel|0> + (<0|rxdel|b>*<b|r|0>)*]
 Rotatory Strengths (R) in cgs (10**-40 erg-esu-cm/Gauss)
       state          XX          YY          ZZ     R(length)
         1         0.0000      0.0000      0.0000      0.0000
         2        10.0401     20.0089    -25.2325      1.6055
         3         0.0000     -0.0000     -0.0000     -0.0000
         4       157.8136    157.9103   -382.3948    -22.2236
  1/2[<0|del|b>*<b|r|0> + (<0|r|b>*<b|del|0>)*] (Au)
       state          X           Y           Z        Dip. S.   Osc.(frdel)
         1        -0.0000     -0.0000     -0.0000      0.0000      0.0000
         2        -0.0221     -0.0044     -0.0057      0.0322      0.0215
         3        -0.0000      0.0000     -0.0000      0.0000      0.0000
         4        -0.1160     -0.0211     -0.0975      0.2346      0.1564

 Excitation energies and oscillator strengths:
 
 Excited state symmetry could not be determined.
 Excited State   1:      Triplet-?Sym    2.7928 eV  443.94 nm  f=0.0000  <S**2>=2.000
     109 ->111         0.50756
     110 ->111        -0.47873
 This state for optimization and/or second-order correction.
 Total Energy, E(TD-HF/TD-DFT) =  -1468.26369511    
 Copying the excited state density for this state as the 1-particle RhoCI density.
 
 Excited state symmetry could not be determined.
 Excited State   2:      Singlet-?Sym    4.2993 eV  288.38 nm  f=0.0225  <S**2>=0.000
     109 ->111         0.24996
     110 ->111         0.65933
 
 Excited state symmetry could not be determined.
 Excited State   3:      Triplet-?Sym    4.3352 eV  286.00 nm  f=0.0000  <S**2>=2.000
     109 ->111         0.48268
     110 ->111         0.51306
 
 Excited state symmetry could not be determined.
 Excited State   4:      Singlet-?Sym    4.6999 eV  263.80 nm  f=0.1612  <S**2>=0.000
     109 ->111         0.65023
     110 ->111        -0.24357
 SavETr:  write IOETrn=   770 NScale= 10 NData=  16 NLR=1 NState=    4 LETran=      82.
 Leave Link  914 at Sat Nov  5 11:24:12 2022, MaxMem=   402653184 cpu:            3443.8 elap:             296.7
 (Enter /home/wykgroup/appl/g16/l601.exe)
 Copying SCF densities to generalized density rwf, IOpCl= 0 IROHF=0.

 **********************************************************************

            Population analysis using the SCF Density.

 **********************************************************************

 Alpha  occ. eigenvalues --  -24.72559 -24.72315 -24.72313 -19.22142 -19.20062
 Alpha  occ. eigenvalues --  -19.18582 -14.36005 -14.31888 -14.31697 -10.43181
 Alpha  occ. eigenvalues --  -10.28468 -10.27101 -10.26242 -10.25803 -10.23914
 Alpha  occ. eigenvalues --  -10.20822 -10.20744 -10.20480 -10.20474 -10.20429
 Alpha  occ. eigenvalues --  -10.20263 -10.19567 -10.18920 -10.18793 -10.18708
 Alpha  occ. eigenvalues --  -10.18454 -10.18179 -10.18128 -10.17820  -1.30245
 Alpha  occ. eigenvalues --   -1.21576  -1.21458  -1.12754  -1.09389  -1.07352
 Alpha  occ. eigenvalues --   -0.92862  -0.91483  -0.85298  -0.81125  -0.80667
 Alpha  occ. eigenvalues --   -0.80127  -0.79512  -0.77099  -0.75959  -0.74753
 Alpha  occ. eigenvalues --   -0.72388  -0.70215  -0.67356  -0.66385  -0.65910
 Alpha  occ. eigenvalues --   -0.62687  -0.61452  -0.60406  -0.59955  -0.58582
 Alpha  occ. eigenvalues --   -0.58478  -0.57210  -0.56078  -0.55713  -0.55616
 Alpha  occ. eigenvalues --   -0.52989  -0.51929  -0.49709  -0.49286  -0.48853
 Alpha  occ. eigenvalues --   -0.48235  -0.48075  -0.47409  -0.46760  -0.46313
 Alpha  occ. eigenvalues --   -0.45639  -0.45462  -0.45399  -0.44935  -0.43958
 Alpha  occ. eigenvalues --   -0.43115  -0.42129  -0.41884  -0.41829  -0.41632
 Alpha  occ. eigenvalues --   -0.41354  -0.41094  -0.40819  -0.40286  -0.39806
 Alpha  occ. eigenvalues --   -0.39793  -0.39464  -0.38373  -0.38001  -0.37726
 Alpha  occ. eigenvalues --   -0.37030  -0.36730  -0.36140  -0.36078  -0.35516
 Alpha  occ. eigenvalues --   -0.34796  -0.34647  -0.34296  -0.33909  -0.33043
 Alpha  occ. eigenvalues --   -0.32283  -0.32242  -0.31405  -0.30311  -0.29358
 Alpha  occ. eigenvalues --   -0.26365  -0.25414  -0.24371  -0.20921  -0.19925
 Alpha virt. eigenvalues --   -0.01709   0.00300   0.06361   0.07989   0.08573
 Alpha virt. eigenvalues --    0.08946   0.09428   0.09594   0.10307   0.11023
 Alpha virt. eigenvalues --    0.11249   0.11493   0.11867   0.12278   0.12524
 Alpha virt. eigenvalues --    0.12791   0.13517   0.13608   0.14240   0.14852
 Alpha virt. eigenvalues --    0.15146   0.15720   0.16012   0.16217   0.16660
 Alpha virt. eigenvalues --    0.16837   0.16981   0.17075   0.17848   0.18382
 Alpha virt. eigenvalues --    0.18763   0.19543   0.20116   0.20209   0.21052
 Alpha virt. eigenvalues --    0.21281   0.21459   0.21484   0.21609   0.21869
 Alpha virt. eigenvalues --    0.22278   0.22824   0.23115   0.23533   0.23804
 Alpha virt. eigenvalues --    0.24502   0.25208   0.25761   0.26270   0.27097
 Alpha virt. eigenvalues --    0.27836   0.28822   0.29933   0.30448   0.31346
 Alpha virt. eigenvalues --    0.32514   0.33780   0.34384   0.38271   0.41448
 Alpha virt. eigenvalues --    0.41970   0.45293   0.46407   0.48195   0.48495
 Alpha virt. eigenvalues --    0.49558   0.50569   0.51153   0.51511   0.51680
 Alpha virt. eigenvalues --    0.51918   0.52320   0.52962   0.53588   0.54051
 Alpha virt. eigenvalues --    0.55007   0.55404   0.55976   0.56278   0.56602
 Alpha virt. eigenvalues --    0.57157   0.57343   0.57764   0.58547   0.58977
 Alpha virt. eigenvalues --    0.59212   0.59807   0.59902   0.60466   0.61233
 Alpha virt. eigenvalues --    0.61497   0.63027   0.63805   0.64510   0.64711
 Alpha virt. eigenvalues --    0.65547   0.66680   0.67259   0.67411   0.67576
 Alpha virt. eigenvalues --    0.68481   0.69460   0.69917   0.70300   0.71145
 Alpha virt. eigenvalues --    0.72975   0.73498   0.74213   0.74905   0.76115
 Alpha virt. eigenvalues --    0.76579   0.76790   0.77557   0.78478   0.78938
 Alpha virt. eigenvalues --    0.80566   0.80740   0.81045   0.81945   0.82383
 Alpha virt. eigenvalues --    0.82963   0.83410   0.84077   0.84521   0.85561
 Alpha virt. eigenvalues --    0.85794   0.86310   0.86472   0.86801   0.87669
 Alpha virt. eigenvalues --    0.87774   0.88464   0.89268   0.89484   0.89857
 Alpha virt. eigenvalues --    0.90488   0.91103   0.91918   0.92177   0.92601
 Alpha virt. eigenvalues --    0.92909   0.93637   0.93731   0.94235   0.94478
 Alpha virt. eigenvalues --    0.94809   0.95764   0.96179   0.96826   0.97265
 Alpha virt. eigenvalues --    0.98125   0.98575   0.98864   1.00415   1.01314
 Alpha virt. eigenvalues --    1.01416   1.01770   1.03231   1.03844   1.04374
 Alpha virt. eigenvalues --    1.06605   1.07792   1.08216   1.08795   1.09517
 Alpha virt. eigenvalues --    1.10936   1.11068   1.11510   1.12735   1.14499
 Alpha virt. eigenvalues --    1.16416   1.17619   1.19394   1.19739   1.21523
 Alpha virt. eigenvalues --    1.24056   1.25829   1.26612   1.27776   1.30242
 Alpha virt. eigenvalues --    1.30350   1.31664   1.32406   1.33602   1.34460
 Alpha virt. eigenvalues --    1.35358   1.35669   1.36998   1.37304   1.38018
 Alpha virt. eigenvalues --    1.38594   1.38981   1.40466   1.40902   1.41825
 Alpha virt. eigenvalues --    1.41976   1.43492   1.44947   1.45110   1.45556
 Alpha virt. eigenvalues --    1.46247   1.47988   1.49153   1.49843   1.51111
 Alpha virt. eigenvalues --    1.52777   1.55771   1.56205   1.57558   1.58540
 Alpha virt. eigenvalues --    1.59638   1.61039   1.61600   1.62939   1.64963
 Alpha virt. eigenvalues --    1.65601   1.66349   1.68083   1.68260   1.69303
 Alpha virt. eigenvalues --    1.69779   1.70676   1.72509   1.74501   1.75013
 Alpha virt. eigenvalues --    1.75767   1.77841   1.78574   1.79658   1.80583
 Alpha virt. eigenvalues --    1.82328   1.82895   1.83610   1.84214   1.84637
 Alpha virt. eigenvalues --    1.85461   1.86103   1.86430   1.86713   1.87043
 Alpha virt. eigenvalues --    1.88086   1.88294   1.88454   1.91142   1.92121
 Alpha virt. eigenvalues --    1.92724   1.93352   1.93873   1.95137   1.95440
 Alpha virt. eigenvalues --    1.96848   1.97390   1.97444   1.97850   1.98480
 Alpha virt. eigenvalues --    1.98786   1.99210   1.99557   2.00727   2.01235
 Alpha virt. eigenvalues --    2.02535   2.02655   2.03431   2.04233   2.04778
 Alpha virt. eigenvalues --    2.05648   2.05749   2.06194   2.06234   2.07183
 Alpha virt. eigenvalues --    2.08611   2.09373   2.10000   2.12893   2.13451
 Alpha virt. eigenvalues --    2.14668   2.16768   2.16845   2.17453   2.17766
 Alpha virt. eigenvalues --    2.19020   2.21362   2.21575   2.23853   2.24111
 Alpha virt. eigenvalues --    2.24379   2.25731   2.26338   2.26888   2.27770
 Alpha virt. eigenvalues --    2.28684   2.29016   2.30866   2.31910   2.33763
 Alpha virt. eigenvalues --    2.34509   2.35457   2.35811   2.37638   2.38644
 Alpha virt. eigenvalues --    2.39667   2.39919   2.40311   2.41244   2.41425
 Alpha virt. eigenvalues --    2.43400   2.45923   2.46419   2.46688   2.47979
 Alpha virt. eigenvalues --    2.49137   2.52066   2.52236   2.53254   2.56878
 Alpha virt. eigenvalues --    2.57104   2.58144   2.59583   2.59863   2.61766
 Alpha virt. eigenvalues --    2.62951   2.63989   2.64662   2.66830   2.68901
 Alpha virt. eigenvalues --    2.70704   2.72215   2.73794   2.75050   2.77176
 Alpha virt. eigenvalues --    2.77689   2.78044   2.78385   2.80672   2.81043
 Alpha virt. eigenvalues --    2.81444   2.84057   2.86154   2.86855   2.91033
 Alpha virt. eigenvalues --    2.93413   2.95343   3.00428   3.02285   3.02701
 Alpha virt. eigenvalues --    3.03600   3.09585   3.09736   3.17221   3.17629
 Alpha virt. eigenvalues --    3.23335   3.32553   3.84721   4.03133   4.05792
 Alpha virt. eigenvalues --    4.06917   4.12041   4.14849   4.17146   4.18247
 Alpha virt. eigenvalues --    4.20692   4.21845   4.25789   4.25990   4.28408
 Alpha virt. eigenvalues --    4.31283   4.32105   4.33655   4.39540   4.40232
 Alpha virt. eigenvalues --    4.43480   4.47117   4.49222   4.50405   4.55488
 Alpha virt. eigenvalues --    4.59783   4.61881   4.64611   4.66227   4.73348
 Alpha virt. eigenvalues --    5.28223
          Condensed to atoms (all electrons):
 Mulliken charges:
               1
     1  C   -0.527514
     2  C    0.435878
     3  C   -0.312077
     4  C    0.562594
     5  O   -0.511925
     6  C   -0.040785
     7  C   -0.281756
     8  C   -0.260681
     9  C   -0.265523
    10  C   -0.112279
    11  N   -0.390663
    12  C   -0.140552
    13  C   -0.315525
    14  C    0.122674
    15  C    0.235536
    16  C   -0.377517
    17  C   -0.103102
    18  N   -0.543887
    19  C    0.553581
    20  O   -0.484213
    21  C   -0.125392
    22  C    0.800542
    23  F   -0.259460
    24  F   -0.259503
    25  F   -0.272035
    26  C   -0.350331
    27  C   -0.334602
    28  N   -0.256866
    29  O   -0.383165
    30  H    0.183864
    31  H    0.172389
    32  H    0.184131
    33  H    0.148073
    34  H    0.159098
    35  H    0.157625
    36  H    0.139445
    37  H    0.148329
    38  H    0.149968
    39  H    0.129711
    40  H    0.143101
    41  H    0.134838
    42  H    0.105268
    43  H    0.132276
    44  H    0.135312
    45  H    0.124632
    46  H    0.144634
    47  H    0.131735
    48  H    0.150660
    49  H    0.157113
    50  H    0.148080
    51  H    0.106528
    52  H    0.181653
    53  H    0.182996
    54  H    0.171460
    55  H    0.169941
    56  H    0.148533
    57  H    0.157153
 Sum of Mulliken charges =  -0.00000
 Mulliken charges with hydrogens summed into heavy atoms:
               1
     1  C    0.012870
     2  C    0.435878
     3  C   -0.164005
     4  C    0.562594
     5  O   -0.511925
     6  C    0.275939
     7  C    0.006017
     8  C    0.018998
     9  C    0.012417
    10  C    0.125265
    11  N   -0.390663
    12  C    0.119393
    13  C   -0.039156
    14  C    0.122674
    15  C    0.235536
    16  C   -0.069745
    17  C    0.151506
    18  N   -0.543887
    19  C    0.553581
    20  O   -0.484213
    21  C    0.239257
    22  C    0.800542
    23  F   -0.259460
    24  F   -0.259503
    25  F   -0.272035
    26  C   -0.008930
    27  C   -0.028915
    28  N   -0.256866
    29  O   -0.383165
 Electronic spatial extent (au):  <R**2>=          30874.6756
 Charge=             -0.0000 electrons
 Dipole moment (field-independent basis, Debye):
    X=              1.2233    Y=              1.4325    Z=              3.4109  Tot=              3.8965
 Quadrupole moment (field-independent basis, Debye-Ang):
   XX=           -189.4173   YY=           -169.9138   ZZ=           -161.2503
   XY=            -13.8546   XZ=             10.4163   YZ=             -3.9810
 Traceless Quadrupole moment (field-independent basis, Debye-Ang):
   XX=            -15.8901   YY=              3.6133   ZZ=             12.2768
   XY=            -13.8546   XZ=             10.4163   YZ=             -3.9810
 Octapole moment (field-independent basis, Debye-Ang**2):
  XXX=            462.2336  YYY=            128.5672  ZZZ=            108.8108  XYY=             90.7688
  XXY=             96.5288  XXZ=            318.8650  XZZ=             82.5806  YZZ=             41.0866
  YYZ=             39.9935  XYZ=             -7.3790
 Hexadecapole moment (field-independent basis, Debye-Ang**3):
 XXXX=         -33874.8353 YYYY=          -2275.9220 ZZZZ=          -2401.6820 XXXY=          -1000.8771
 XXXZ=             41.9526 YYYX=             77.9105 YYYZ=           -436.2057 ZZZX=          -1286.6582
 ZZZY=           -455.6136 XXYY=          -6045.8290 XXZZ=          -5764.0935 YYZZ=           -780.4537
 XXYZ=           -571.2853 YYXZ=           -461.3039 ZZXY=            -46.0770
 N-N= 2.613529394451D+03 E-N=-8.658464427050D+03  KE= 1.455558463839D+03
 Leave Link  601 at Sat Nov  5 11:24:12 2022, MaxMem=   402653184 cpu:               2.6 elap:               0.3
 (Enter /home/wykgroup/appl/g16/l9999.exe)
 Electronic transition elements 
                 1             2             3             4 
      1  -0.146826D+04 -0.146821D+04 -0.146821D+04 -0.146819D+04
      2   0.000000D+00  0.389170D+00  0.000000D+00 -0.834245D+00
      3   0.000000D+00  0.164900D+00  0.000000D+00 -0.373637D+00
      4   0.000000D+00  0.187005D+00  0.000000D+00 -0.751275D+00
      5   0.000000D+00 -0.566955D-01  0.000000D+00  0.139089D+00
      6   0.000000D+00 -0.266725D-01  0.000000D+00  0.564704D-01
      7   0.000000D+00 -0.306922D-01  0.000000D+00  0.129713D+00
      8   0.000000D+00 -0.364821D-01  0.000000D+00  0.267504D+00
      9   0.000000D+00 -0.171586D+00  0.000000D+00  0.597639D+00
     10   0.000000D+00  0.190803D+00  0.000000D+00 -0.719767D+00
     11   0.000000D+00  0.834275D+00  0.000000D+00 -0.237403D+01
     12   0.000000D+00 -0.595518D-01  0.000000D+00 -0.292847D-01
     13   0.000000D+00 -0.954678D-01  0.000000D+00  0.330512D+00
     14   0.000000D+00  0.181176D+00  0.000000D+00 -0.555057D+00
     15   0.000000D+00  0.275335D+00  0.000000D+00 -0.966080D+00
     16   0.000000D+00  0.223238D-01  0.000000D+00  0.154676D+00
 1\1\GINC-NODE103\SP\RB3LYP TD-FC\6-31G(d)\C20H28F3N3O3\WYKGROUP\05-Nov
 -2022\0\\#p b3lyp/6-31g(d) 6D 10F nosymm GFInput td=(50-50,nstate=2) S
 CF=XQC\\Gaussian input prepared by ASE\\0,1\C,0,9.8647635215,-1.376861
 1079,1.9065684203\C,0,8.6338095187,-1.2466282545,1.0773013071\C,0,7.30
 42870853,-1.3015107943,1.3592793982\C,0,6.6890621671,-1.0943249226,0.0
 881043957\O,0,5.3632805718,-1.0713741519,-0.1051384345\C,0,4.918676242
 5,-0.8508747052,-1.4615291683\C,0,3.3981315854,-0.8348261099,-1.457861
 178\C,0,2.7896230202,0.3230548222,-0.656169352\C,0,1.2557224728,0.3182
 714314,-0.6693966956\C,0,0.6642085644,1.4957814631,0.1160417417\N,0,-0
 .7889329605,1.4273629589,0.2632022248\C,0,-1.3251591596,2.2962031138,1
 .3110348244\C,0,-2.4416828297,1.6024571184,2.1144022165\C,0,-3.5552806
 441,0.9195174568,1.3564418024\C,0,-3.7676480577,0.9865554629,0.0259775
 105\C,0,-2.9801997789,1.8684904306,-0.9206179284\C,0,-1.4789190826,1.5
 514257555,-1.0266449284\N,0,-4.7479807206,0.1901909371,-0.6296426619\C
 ,0,-5.6670003212,-0.3397646034,0.0783785125\O,0,-6.6297360961,-1.11392
 08843,-0.4799611743\C,0,-6.5502487331,-1.2838362409,-1.8893694434\C,0,
 -7.7187076928,-2.1549965906,-2.3037408141\F,0,-7.6792756625,-3.3659952
 446,-1.7178684451\F,0,-8.9024321926,-1.589637892,-2.0026229242\F,0,-7.
 6748517899,-2.3393664972,-3.6423197166\C,0,-5.8234750677,-0.1580426638
 ,1.5634043065\C,0,-4.4300142276,-0.0035378132,2.1848370139\N,0,7.56289
 16611,-0.9283921714,-0.8828368343\O,0,8.8157231733,-1.0262003291,-0.24
 48149226\H,0,10.4737705473,-0.4675153598,1.847987895\H,0,9.5998328251,
 -1.5518083019,2.9521995339\H,0,10.4839019549,-2.21170711,1.5588345373\
 H,0,6.8183746477,-1.4625555459,2.3090644011\H,0,5.3146790746,-1.651475
 4388,-2.0970712557\H,0,5.3355810358,0.0979387787,-1.8212269288\H,0,3.0
 672052535,-0.7787333878,-2.5042956901\H,0,3.0349357836,-1.7942021778,-
 1.0660497839\H,0,3.1515886512,0.2707957954,0.378457809\H,0,3.158384817
 1,1.2757929127,-1.0646934388\H,0,0.8771892135,-0.6150086125,-0.2313312
 666\H,0,0.9063651743,0.3409140528,-1.7100699251\H,0,0.9862072425,2.445
 5713333,-0.3622318533\H,0,1.100550403,1.48797469,1.1224180829\H,0,-0.5
 175521601,2.5271250799,2.0139509563\H,0,-1.6659723895,3.2714197943,0.9
 247541773\H,0,-1.9632962251,0.831079731,2.7387676057\H,0,-2.8690807314
 ,2.3275706169,2.827320408\H,0,-3.1166676262,2.9209538685,-0.6462562126
 \H,0,-3.4125218656,1.757123979,-1.9196011931\H,0,-1.3562336814,0.61011
 32836,-1.5754045033\H,0,-1.0150320586,2.3445384341,-1.6489723635\H,0,-
 6.6105346346,-0.322108666,-2.4069805081\H,0,-5.6137870755,-1.770845377
 5,-2.1761735874\H,0,-6.4155613689,0.7546528426,1.7298038765\H,0,-6.384
 4967856,-0.9916781081,1.994366499\H,0,-4.5230616552,0.3734230121,3.210
 3663704\H,0,-3.9434029333,-0.9899240919,2.2676283051\\Version=ES64L-G1
 6RevB.01\HF=-1468.3663283\RMSD=6.026e-09\PG=C01 [X(C20H28F3N3O3)]\\@


 MAN IS THE MEASURE OF ALL THINGS.
  -- PROTAGORAS (5TH CENTURY B.C.)
 Job cpu time:       0 days  1 hours  8 minutes 59.6 seconds.
 Elapsed time:       0 days  0 hours  5 minutes 52.4 seconds.
 File lengths (MBytes):  RWF=   1478 Int=      0 D2E=      0 Chk=     51 Scr=      1
 Normal termination of Gaussian 16 at Sat Nov  5 11:24:13 2022.
