 Entering Gaussian System, Link 0=/home/wykgroup/appl/g16/g16
 Input=./calculation/no_transfer_pubchem_sampling_0_b3lyp/54696300.com
 Output=./calculation/no_transfer_pubchem_sampling_0_b3lyp/54696300.log
 Initial command:
 /home/wykgroup/appl/g16/l1.exe "/userdata/scratch/wykgroup/khs/./calculation/no_transfer_pubchem_sampling_0_b3lyp/54696300/Gau-16648.inp" -scrdir="/userdata/scratch/wykgroup/khs/./calculation/no_transfer_pubchem_sampling_0_b3lyp/54696300/"
 Entering Link 1 = /home/wykgroup/appl/g16/l1.exe PID=     16649.
  
 Copyright (c) 1988-2017, Gaussian, Inc.  All Rights Reserved.
  
 This is part of the Gaussian(R) 16 program.  It is based on
 the Gaussian(R) 09 system (copyright 2009, Gaussian, Inc.),
 the Gaussian(R) 03 system (copyright 2003, Gaussian, Inc.),
 the Gaussian(R) 98 system (copyright 1998, Gaussian, Inc.),
 the Gaussian(R) 94 system (copyright 1995, Gaussian, Inc.),
 the Gaussian 92(TM) system (copyright 1992, Gaussian, Inc.),
 the Gaussian 90(TM) system (copyright 1990, Gaussian, Inc.),
 the Gaussian 88(TM) system (copyright 1988, Gaussian, Inc.),
 the Gaussian 86(TM) system (copyright 1986, Carnegie Mellon
 University), and the Gaussian 82(TM) system (copyright 1983,
 Carnegie Mellon University). Gaussian is a federally registered
 trademark of Gaussian, Inc.
  
 This software contains proprietary and confidential information,
 including trade secrets, belonging to Gaussian, Inc.
  
 This software is provided under written license and may be
 used, copied, transmitted, or stored only in accord with that
 written license.
  
 The following legend is applicable only to US Government
 contracts under FAR:
  
                    RESTRICTED RIGHTS LEGEND
  
 Use, reproduction and disclosure by the US Government is
 subject to restrictions as set forth in subparagraphs (a)
 and (c) of the Commercial Computer Software - Restricted
 Rights clause in FAR 52.227-19.
  
 Gaussian, Inc.
 340 Quinnipiac St., Bldg. 40, Wallingford CT 06492
  
  
 ---------------------------------------------------------------
 Warning -- This program may not be used in any manner that
 competes with the business of Gaussian, Inc. or will provide
 assistance to any competitor of Gaussian, Inc.  The licensee
 of this program is prohibited from giving any competitor of
 Gaussian, Inc. access to this program.  By using this program,
 the user acknowledges that Gaussian, Inc. is engaged in the
 business of creating and licensing software in the field of
 computational chemistry and represents and warrants to the
 licensee that it is not a competitor of Gaussian, Inc. and that
 it will not use this program in any manner prohibited above.
 ---------------------------------------------------------------
  

 Cite this work as:
 Gaussian 16, Revision B.01,
 M. J. Frisch, G. W. Trucks, H. B. Schlegel, G. E. Scuseria, 
 M. A. Robb, J. R. Cheeseman, G. Scalmani, V. Barone, 
 G. A. Petersson, H. Nakatsuji, X. Li, M. Caricato, A. V. Marenich, 
 J. Bloino, B. G. Janesko, R. Gomperts, B. Mennucci, H. P. Hratchian, 
 J. V. Ortiz, A. F. Izmaylov, J. L. Sonnenberg, D. Williams-Young, 
 F. Ding, F. Lipparini, F. Egidi, J. Goings, B. Peng, A. Petrone, 
 T. Henderson, D. Ranasinghe, V. G. Zakrzewski, J. Gao, N. Rega, 
 G. Zheng, W. Liang, M. Hada, M. Ehara, K. Toyota, R. Fukuda, 
 J. Hasegawa, M. Ishida, T. Nakajima, Y. Honda, O. Kitao, H. Nakai, 
 T. Vreven, K. Throssell, J. A. Montgomery, Jr., J. E. Peralta, 
 F. Ogliaro, M. J. Bearpark, J. J. Heyd, E. N. Brothers, K. N. Kudin, 
 V. N. Staroverov, T. A. Keith, R. Kobayashi, J. Normand, 
 K. Raghavachari, A. P. Rendell, J. C. Burant, S. S. Iyengar, 
 J. Tomasi, M. Cossi, J. M. Millam, M. Klene, C. Adamo, R. Cammi, 
 J. W. Ochterski, R. L. Martin, K. Morokuma, O. Farkas, 
 J. B. Foresman, and D. J. Fox, Gaussian, Inc., Wallingford CT, 2016.
 
 ******************************************
 Gaussian 16:  ES64L-G16RevB.01 20-Dec-2017
                 4-Nov-2022 
 ******************************************
 %chk=./calculation/no_transfer_pubchem_sampling_0_b3lyp/54696300.chk
 %nprocshared=7
 Will use up to    7 processors via shared memory.
 %mem=6GB
 -----------------------------
 #p b3lyp/6-31g(d) opt SCF=XQC
 -----------------------------
 1/18=20,19=15,26=3,38=1/1,3;
 2/9=110,12=2,17=6,18=5,40=1/2;
 3/5=1,6=6,7=1,11=2,25=1,30=1,71=1,74=-5/1,2,3;
 4//1;
 5/5=2,8=3,13=1,38=5/2,8;
 6/7=2,8=2,9=2,10=2,28=1/1;
 7//1,2,3,16;
 1/18=20,19=15,26=3/3(2);
 2/9=110/2;
 99//99;
 2/9=110/2;
 3/5=1,6=6,7=1,11=2,25=1,30=1,71=1,74=-5/1,2,3;
 4/5=5,16=3,69=1/1;
 5/5=2,8=3,13=1,38=5/2,8;
 7//1,2,3,16;
 1/18=20,19=15,26=3/3(-5);
 2/9=110/2;
 6/7=2,8=2,9=2,10=2,19=2,28=1/1;
 99/9=1/99;
 Leave Link    1 at Fri Nov  4 18:11:48 2022, MaxMem=   805306368 cpu:               0.5 elap:               0.1
 (Enter /home/wykgroup/appl/g16/l101.exe)
 ------------------------------
 Gaussian input prepared by ASE
 ------------------------------
 Symbolic Z-matrix:
 Charge =  0 Multiplicity = 1
 C                    -3.16387   2.50695  -0.41422 
 C                    -2.46539   2.06664   0.87375 
 C                    -1.34732   1.11239   0.57431 
 C                    -0.04426   1.52943   0.49825 
 C                     1.01301   0.6592    0.18443 
 C                     2.37909   1.09319   0.11264 
 O                     2.74609   2.34835   0.38948 
 C                     3.34575   0.17826  -0.20003 
 N                     4.73237   0.59475  -0.26651 
 O                     4.99463   1.52074  -0.99817 
 O                     5.52145  -0.00827   0.41737 
 C                     3.0718   -1.21724  -0.47661 
 O                     3.91233  -2.02938  -0.79966 
 N                     1.72578  -1.57934  -0.37681 
 C                     1.42745  -2.97411  -0.63212 
 C                     0.72555  -0.70018  -0.06399 
 C                    -0.60581  -1.129     0.01727 
 C                    -1.62902  -0.25139   0.32498 
 O                    -2.93031  -0.60469   0.41475 
 C                    -3.29928  -1.94845   0.21114 
 H                    -3.96315   3.20754  -0.18707 
 H                    -2.45724   2.99063  -1.08513 
 H                    -3.59093   1.64655  -0.92181 
 H                    -2.07182   2.94256   1.39227 
 H                    -3.19196   1.57522   1.52181 
 H                     0.15512   2.57581   0.68936 
 H                     1.98386   2.9093    0.57941 
 H                     0.98486  -3.4421    0.24774 
 H                     0.76085  -3.07697  -1.489 
 H                     2.37538  -3.46199  -0.85777 
 H                    -0.83643  -2.16232  -0.16781 
 H                    -3.05718  -2.28226  -0.80244 
 H                    -2.82273  -2.61087   0.93997 
 H                    -4.37865  -1.97893   0.35024 
 
 ITRead=  0  0  0  0  0  0  0  0  0  0  0  0  0  0  0  0  0  0  0  0
 ITRead=  0  0  0  0  0  0  0  0  0  0  0  0  0  0
 MicOpt= -1 -1 -1 -1 -1 -1 -1 -1 -1 -1 -1 -1 -1 -1 -1 -1 -1 -1 -1 -1
 MicOpt= -1 -1 -1 -1 -1 -1 -1 -1 -1 -1 -1 -1 -1 -1
 NAtoms=     34 NQM=       34 NQMF=       0 NMMI=      0 NMMIF=      0
                NMic=       0 NMicF=      0.
                    Isotopes and Nuclear Properties:
 (Nuclear quadrupole moments (NQMom) in fm**2, nuclear magnetic moments (NMagM)
  in nuclear magnetons)

  Atom         1           2           3           4           5           6           7           8           9          10
 IAtWgt=          12          12          12          12          12          12          16          12          14          16
 AtmWgt=  12.0000000  12.0000000  12.0000000  12.0000000  12.0000000  12.0000000  15.9949146  12.0000000  14.0030740  15.9949146
 NucSpn=           0           0           0           0           0           0           0           0           2           0
 AtZEff=  -0.0000000  -0.0000000  -0.0000000  -0.0000000  -0.0000000  -0.0000000  -0.0000000  -0.0000000  -0.0000000  -0.0000000
 NQMom=    0.0000000   0.0000000   0.0000000   0.0000000   0.0000000   0.0000000   0.0000000   0.0000000   2.0440000   0.0000000
 NMagM=    0.0000000   0.0000000   0.0000000   0.0000000   0.0000000   0.0000000   0.0000000   0.0000000   0.4037610   0.0000000
 AtZNuc=   6.0000000   6.0000000   6.0000000   6.0000000   6.0000000   6.0000000   8.0000000   6.0000000   7.0000000   8.0000000

  Atom        11          12          13          14          15          16          17          18          19          20
 IAtWgt=          16          12          16          14          12          12          12          12          16          12
 AtmWgt=  15.9949146  12.0000000  15.9949146  14.0030740  12.0000000  12.0000000  12.0000000  12.0000000  15.9949146  12.0000000
 NucSpn=           0           0           0           2           0           0           0           0           0           0
 AtZEff=  -0.0000000  -0.0000000  -0.0000000  -0.0000000  -0.0000000  -0.0000000  -0.0000000  -0.0000000  -0.0000000  -0.0000000
 NQMom=    0.0000000   0.0000000   0.0000000   2.0440000   0.0000000   0.0000000   0.0000000   0.0000000   0.0000000   0.0000000
 NMagM=    0.0000000   0.0000000   0.0000000   0.4037610   0.0000000   0.0000000   0.0000000   0.0000000   0.0000000   0.0000000
 AtZNuc=   8.0000000   6.0000000   8.0000000   7.0000000   6.0000000   6.0000000   6.0000000   6.0000000   8.0000000   6.0000000

  Atom        21          22          23          24          25          26          27          28          29          30
 IAtWgt=           1           1           1           1           1           1           1           1           1           1
 AtmWgt=   1.0078250   1.0078250   1.0078250   1.0078250   1.0078250   1.0078250   1.0078250   1.0078250   1.0078250   1.0078250
 NucSpn=           1           1           1           1           1           1           1           1           1           1
 AtZEff=  -0.0000000  -0.0000000  -0.0000000  -0.0000000  -0.0000000  -0.0000000  -0.0000000  -0.0000000  -0.0000000  -0.0000000
 NQMom=    0.0000000   0.0000000   0.0000000   0.0000000   0.0000000   0.0000000   0.0000000   0.0000000   0.0000000   0.0000000
 NMagM=    2.7928460   2.7928460   2.7928460   2.7928460   2.7928460   2.7928460   2.7928460   2.7928460   2.7928460   2.7928460
 AtZNuc=   1.0000000   1.0000000   1.0000000   1.0000000   1.0000000   1.0000000   1.0000000   1.0000000   1.0000000   1.0000000

  Atom        31          32          33          34
 IAtWgt=           1           1           1           1
 AtmWgt=   1.0078250   1.0078250   1.0078250   1.0078250
 NucSpn=           1           1           1           1
 AtZEff=  -0.0000000  -0.0000000  -0.0000000  -0.0000000
 NQMom=    0.0000000   0.0000000   0.0000000   0.0000000
 NMagM=    2.7928460   2.7928460   2.7928460   2.7928460
 AtZNuc=   1.0000000   1.0000000   1.0000000   1.0000000
 Leave Link  101 at Fri Nov  4 18:11:48 2022, MaxMem=   805306368 cpu:               1.2 elap:               0.2
 (Enter /home/wykgroup/appl/g16/l103.exe)

 GradGradGradGradGradGradGradGradGradGradGradGradGradGradGradGradGradGrad
 Berny optimization.
 Initialization pass.
                           ----------------------------
                           !    Initial Parameters    !
                           ! (Angstroms and Degrees)  !
 --------------------------                            --------------------------
 ! Name  Definition              Value          Derivative Info.                !
 --------------------------------------------------------------------------------
 ! R1    R(1,2)                  1.5299         estimate D2E/DX2                !
 ! R2    R(1,21)                 1.0869         estimate D2E/DX2                !
 ! R3    R(1,22)                 1.0878         estimate D2E/DX2                !
 ! R4    R(1,23)                 1.0864         estimate D2E/DX2                !
 ! R5    R(2,3)                  1.5001         estimate D2E/DX2                !
 ! R6    R(2,24)                 1.0913         estimate D2E/DX2                !
 ! R7    R(2,25)                 1.0906         estimate D2E/DX2                !
 ! R8    R(3,4)                  1.3703         estimate D2E/DX2                !
 ! R9    R(3,18)                 1.4147         estimate D2E/DX2                !
 ! R10   R(4,5)                  1.4049         estimate D2E/DX2                !
 ! R11   R(4,26)                 1.0822         estimate D2E/DX2                !
 ! R12   R(5,6)                  1.4352         estimate D2E/DX2                !
 ! R13   R(5,16)                 1.4115         estimate D2E/DX2                !
 ! R14   R(6,7)                  1.3367         estimate D2E/DX2                !
 ! R15   R(6,8)                  1.3672         estimate D2E/DX2                !
 ! R16   R(7,27)                 0.9653         estimate D2E/DX2                !
 ! R17   R(8,9)                  1.4493         estimate D2E/DX2                !
 ! R18   R(8,12)                 1.4488         estimate D2E/DX2                !
 ! R19   R(9,10)                 1.2089         estimate D2E/DX2                !
 ! R20   R(9,11)                 1.2058         estimate D2E/DX2                !
 ! R21   R(12,13)                1.2126         estimate D2E/DX2                !
 ! R22   R(12,14)                1.3974         estimate D2E/DX2                !
 ! R23   R(14,15)                1.449          estimate D2E/DX2                !
 ! R24   R(14,16)                1.3679         estimate D2E/DX2                !
 ! R25   R(15,28)                1.0904         estimate D2E/DX2                !
 ! R26   R(15,29)                1.0905         estimate D2E/DX2                !
 ! R27   R(15,30)                1.0897         estimate D2E/DX2                !
 ! R28   R(16,17)                1.4011         estimate D2E/DX2                !
 ! R29   R(17,18)                1.3827         estimate D2E/DX2                !
 ! R30   R(17,31)                1.0748         estimate D2E/DX2                !
 ! R31   R(18,19)                1.3514         estimate D2E/DX2                !
 ! R32   R(19,20)                1.4083         estimate D2E/DX2                !
 ! R33   R(20,32)                1.0943         estimate D2E/DX2                !
 ! R34   R(20,33)                1.0941         estimate D2E/DX2                !
 ! R35   R(20,34)                1.0887         estimate D2E/DX2                !
 ! A1    A(2,1,21)             110.2014         estimate D2E/DX2                !
 ! A2    A(2,1,22)             110.5246         estimate D2E/DX2                !
 ! A3    A(2,1,23)             110.1737         estimate D2E/DX2                !
 ! A4    A(21,1,22)            108.6618         estimate D2E/DX2                !
 ! A5    A(21,1,23)            108.6061         estimate D2E/DX2                !
 ! A6    A(22,1,23)            108.6216         estimate D2E/DX2                !
 ! A7    A(1,2,3)              110.8127         estimate D2E/DX2                !
 ! A8    A(1,2,24)             109.4898         estimate D2E/DX2                !
 ! A9    A(1,2,25)             109.0127         estimate D2E/DX2                !
 ! A10   A(3,2,24)             109.6709         estimate D2E/DX2                !
 ! A11   A(3,2,25)             109.1798         estimate D2E/DX2                !
 ! A12   A(24,2,25)            108.6376         estimate D2E/DX2                !
 ! A13   A(2,3,4)              121.7518         estimate D2E/DX2                !
 ! A14   A(2,3,18)             119.9991         estimate D2E/DX2                !
 ! A15   A(4,3,18)             118.2265         estimate D2E/DX2                !
 ! A16   A(3,4,5)              122.6523         estimate D2E/DX2                !
 ! A17   A(3,4,26)             117.3653         estimate D2E/DX2                !
 ! A18   A(5,4,26)             119.9823         estimate D2E/DX2                !
 ! A19   A(4,5,6)              122.6981         estimate D2E/DX2                !
 ! A20   A(4,5,16)             118.8571         estimate D2E/DX2                !
 ! A21   A(6,5,16)             118.4439         estimate D2E/DX2                !
 ! A22   A(5,6,7)              122.34           estimate D2E/DX2                !
 ! A23   A(5,6,8)              118.8205         estimate D2E/DX2                !
 ! A24   A(7,6,8)              118.7908         estimate D2E/DX2                !
 ! A25   A(6,7,27)             111.6924         estimate D2E/DX2                !
 ! A26   A(6,8,9)              119.6441         estimate D2E/DX2                !
 ! A27   A(6,8,12)             123.6796         estimate D2E/DX2                !
 ! A28   A(9,8,12)             116.6763         estimate D2E/DX2                !
 ! A29   A(8,9,10)             117.0918         estimate D2E/DX2                !
 ! A30   A(8,9,11)             117.1518         estimate D2E/DX2                !
 ! A31   A(10,9,11)            125.7554         estimate D2E/DX2                !
 ! A32   A(8,12,13)            124.3957         estimate D2E/DX2                !
 ! A33   A(8,12,14)            114.7136         estimate D2E/DX2                !
 ! A34   A(13,12,14)           120.8729         estimate D2E/DX2                !
 ! A35   A(12,14,15)           115.7946         estimate D2E/DX2                !
 ! A36   A(12,14,16)           123.6483         estimate D2E/DX2                !
 ! A37   A(15,14,16)           120.5568         estimate D2E/DX2                !
 ! A38   A(14,15,28)           110.7634         estimate D2E/DX2                !
 ! A39   A(14,15,29)           110.7996         estimate D2E/DX2                !
 ! A40   A(14,15,30)           106.7586         estimate D2E/DX2                !
 ! A41   A(28,15,29)           110.2089         estimate D2E/DX2                !
 ! A42   A(28,15,30)           109.1472         estimate D2E/DX2                !
 ! A43   A(29,15,30)           109.0751         estimate D2E/DX2                !
 ! A44   A(5,16,14)            120.684          estimate D2E/DX2                !
 ! A45   A(5,16,17)            118.5607         estimate D2E/DX2                !
 ! A46   A(14,16,17)           120.7553         estimate D2E/DX2                !
 ! A47   A(16,17,18)           121.4556         estimate D2E/DX2                !
 ! A48   A(16,17,31)           119.2197         estimate D2E/DX2                !
 ! A49   A(18,17,31)           119.3243         estimate D2E/DX2                !
 ! A50   A(3,18,17)            120.2468         estimate D2E/DX2                !
 ! A51   A(3,18,19)            115.5982         estimate D2E/DX2                !
 ! A52   A(17,18,19)           124.1547         estimate D2E/DX2                !
 ! A53   A(18,19,20)           119.4813         estimate D2E/DX2                !
 ! A54   A(19,20,32)           111.5324         estimate D2E/DX2                !
 ! A55   A(19,20,33)           111.5475         estimate D2E/DX2                !
 ! A56   A(19,20,34)           105.5447         estimate D2E/DX2                !
 ! A57   A(32,20,33)           109.6312         estimate D2E/DX2                !
 ! A58   A(32,20,34)           109.2172         estimate D2E/DX2                !
 ! A59   A(33,20,34)           109.2543         estimate D2E/DX2                !
 ! D1    D(21,1,2,3)          -179.2641         estimate D2E/DX2                !
 ! D2    D(21,1,2,24)          -58.164          estimate D2E/DX2                !
 ! D3    D(21,1,2,25)           60.5553         estimate D2E/DX2                !
 ! D4    D(22,1,2,3)           -59.1437         estimate D2E/DX2                !
 ! D5    D(22,1,2,24)           61.9565         estimate D2E/DX2                !
 ! D6    D(22,1,2,25)         -179.3243         estimate D2E/DX2                !
 ! D7    D(23,1,2,3)            60.9088         estimate D2E/DX2                !
 ! D8    D(23,1,2,24)         -177.991          estimate D2E/DX2                !
 ! D9    D(23,1,2,25)          -59.2718         estimate D2E/DX2                !
 ! D10   D(1,2,3,4)             98.1622         estimate D2E/DX2                !
 ! D11   D(1,2,3,18)           -80.0776         estimate D2E/DX2                !
 ! D12   D(24,2,3,4)           -22.8309         estimate D2E/DX2                !
 ! D13   D(24,2,3,18)          158.9293         estimate D2E/DX2                !
 ! D14   D(25,2,3,4)          -141.7569         estimate D2E/DX2                !
 ! D15   D(25,2,3,18)           40.0033         estimate D2E/DX2                !
 ! D16   D(2,3,4,5)           -178.2752         estimate D2E/DX2                !
 ! D17   D(2,3,4,26)             1.5978         estimate D2E/DX2                !
 ! D18   D(18,3,4,5)            -0.0053         estimate D2E/DX2                !
 ! D19   D(18,3,4,26)          179.8677         estimate D2E/DX2                !
 ! D20   D(2,3,18,17)          178.464          estimate D2E/DX2                !
 ! D21   D(2,3,18,19)           -1.7271         estimate D2E/DX2                !
 ! D22   D(4,3,18,17)            0.1628         estimate D2E/DX2                !
 ! D23   D(4,3,18,19)          179.9716         estimate D2E/DX2                !
 ! D24   D(3,4,5,6)           -179.6024         estimate D2E/DX2                !
 ! D25   D(3,4,5,16)             0.0383         estimate D2E/DX2                !
 ! D26   D(26,4,5,6)             0.5278         estimate D2E/DX2                !
 ! D27   D(26,4,5,16)         -179.8315         estimate D2E/DX2                !
 ! D28   D(4,5,6,7)              2.5794         estimate D2E/DX2                !
 ! D29   D(4,5,6,8)           -179.9904         estimate D2E/DX2                !
 ! D30   D(16,5,6,7)          -177.0628         estimate D2E/DX2                !
 ! D31   D(16,5,6,8)             0.3675         estimate D2E/DX2                !
 ! D32   D(4,5,16,14)          179.7992         estimate D2E/DX2                !
 ! D33   D(4,5,16,17)           -0.2228         estimate D2E/DX2                !
 ! D34   D(6,5,16,14)           -0.5446         estimate D2E/DX2                !
 ! D35   D(6,5,16,17)          179.4334         estimate D2E/DX2                !
 ! D36   D(5,6,7,27)            -3.6191         estimate D2E/DX2                !
 ! D37   D(8,6,7,27)           178.9499         estimate D2E/DX2                !
 ! D38   D(5,6,8,9)           -179.4904         estimate D2E/DX2                !
 ! D39   D(5,6,8,12)             0.4886         estimate D2E/DX2                !
 ! D40   D(7,6,8,9)             -1.9677         estimate D2E/DX2                !
 ! D41   D(7,6,8,12)           178.0113         estimate D2E/DX2                !
 ! D42   D(6,8,9,10)           -54.7982         estimate D2E/DX2                !
 ! D43   D(6,8,9,11)           124.8507         estimate D2E/DX2                !
 ! D44   D(12,8,9,10)          125.2214         estimate D2E/DX2                !
 ! D45   D(12,8,9,11)          -55.1297         estimate D2E/DX2                !
 ! D46   D(6,8,12,13)          177.3582         estimate D2E/DX2                !
 ! D47   D(6,8,12,14)           -1.1166         estimate D2E/DX2                !
 ! D48   D(9,8,12,13)           -2.6622         estimate D2E/DX2                !
 ! D49   D(9,8,12,14)          178.8629         estimate D2E/DX2                !
 ! D50   D(8,12,14,15)        -179.2429         estimate D2E/DX2                !
 ! D51   D(8,12,14,16)           0.9374         estimate D2E/DX2                !
 ! D52   D(13,12,14,15)          2.2233         estimate D2E/DX2                !
 ! D53   D(13,12,14,16)       -177.5964         estimate D2E/DX2                !
 ! D54   D(12,14,15,28)        118.7947         estimate D2E/DX2                !
 ! D55   D(12,14,15,29)       -118.5754         estimate D2E/DX2                !
 ! D56   D(12,14,15,30)          0.0762         estimate D2E/DX2                !
 ! D57   D(16,14,15,28)        -61.3796         estimate D2E/DX2                !
 ! D58   D(16,14,15,29)         61.2503         estimate D2E/DX2                !
 ! D59   D(16,14,15,30)        179.9019         estimate D2E/DX2                !
 ! D60   D(12,14,16,5)          -0.1503         estimate D2E/DX2                !
 ! D61   D(12,14,16,17)        179.8722         estimate D2E/DX2                !
 ! D62   D(15,14,16,5)        -179.9618         estimate D2E/DX2                !
 ! D63   D(15,14,16,17)          0.0607         estimate D2E/DX2                !
 ! D64   D(5,16,17,18)           0.3866         estimate D2E/DX2                !
 ! D65   D(5,16,17,31)        -179.8696         estimate D2E/DX2                !
 ! D66   D(14,16,17,18)       -179.6354         estimate D2E/DX2                !
 ! D67   D(14,16,17,31)          0.1084         estimate D2E/DX2                !
 ! D68   D(16,17,18,3)          -0.3596         estimate D2E/DX2                !
 ! D69   D(16,17,18,19)        179.8487         estimate D2E/DX2                !
 ! D70   D(31,17,18,3)         179.8969         estimate D2E/DX2                !
 ! D71   D(31,17,18,19)          0.1052         estimate D2E/DX2                !
 ! D72   D(3,18,19,20)        -178.6113         estimate D2E/DX2                !
 ! D73   D(17,18,19,20)          1.1892         estimate D2E/DX2                !
 ! D74   D(18,19,20,32)        -62.3768         estimate D2E/DX2                !
 ! D75   D(18,19,20,33)         60.587          estimate D2E/DX2                !
 ! D76   D(18,19,20,34)        179.1313         estimate D2E/DX2                !
 --------------------------------------------------------------------------------
 Trust Radius=3.00D-01 FncErr=1.00D-07 GrdErr=1.00D-06 EigMax=2.50D+02 EigMin=1.00D-04
 Number of steps in this run=    180 maximum allowed number of steps=    204.
 GradGradGradGradGradGradGradGradGradGradGradGradGradGradGradGradGradGrad

 Leave Link  103 at Fri Nov  4 18:11:48 2022, MaxMem=   805306368 cpu:               0.1 elap:               0.0
 (Enter /home/wykgroup/appl/g16/l202.exe)
                          Input orientation:                          
 ---------------------------------------------------------------------
 Center     Atomic      Atomic             Coordinates (Angstroms)
 Number     Number       Type             X           Y           Z
 ---------------------------------------------------------------------
      1          6           0       -3.163868    2.506948   -0.414223
      2          6           0       -2.465385    2.066635    0.873746
      3          6           0       -1.347321    1.112388    0.574312
      4          6           0       -0.044261    1.529428    0.498246
      5          6           0        1.013009    0.659196    0.184431
      6          6           0        2.379089    1.093194    0.112639
      7          8           0        2.746093    2.348352    0.389476
      8          6           0        3.345753    0.178256   -0.200030
      9          7           0        4.732368    0.594750   -0.266511
     10          8           0        4.994635    1.520739   -0.998166
     11          8           0        5.521447   -0.008270    0.417374
     12          6           0        3.071803   -1.217241   -0.476609
     13          8           0        3.912333   -2.029383   -0.799665
     14          7           0        1.725776   -1.579340   -0.376806
     15          6           0        1.427445   -2.974113   -0.632123
     16          6           0        0.725545   -0.700178   -0.063993
     17          6           0       -0.605810   -1.128996    0.017269
     18          6           0       -1.629021   -0.251390    0.324981
     19          8           0       -2.930314   -0.604692    0.414748
     20          6           0       -3.299284   -1.948451    0.211143
     21          1           0       -3.963148    3.207543   -0.187073
     22          1           0       -2.457244    2.990629   -1.085131
     23          1           0       -3.590933    1.646550   -0.921814
     24          1           0       -2.071819    2.942560    1.392266
     25          1           0       -3.191964    1.575220    1.521811
     26          1           0        0.155121    2.575809    0.689362
     27          1           0        1.983856    2.909299    0.579413
     28          1           0        0.984862   -3.442104    0.247735
     29          1           0        0.760850   -3.076966   -1.488996
     30          1           0        2.375377   -3.461992   -0.857769
     31          1           0       -0.836429   -2.162318   -0.167812
     32          1           0       -3.057184   -2.282258   -0.802444
     33          1           0       -2.822726   -2.610874    0.939971
     34          1           0       -4.378650   -1.978932    0.350243
 ---------------------------------------------------------------------
                    Distance matrix (angstroms):
                    1          2          3          4          5
     1  C    0.000000
     2  C    1.529908   0.000000
     3  C    2.494362   1.500105   0.000000
     4  C    3.394126   2.508273   1.370282   0.000000
     5  C    4.606396   3.815137   2.434862   1.404850   0.000000
     6  C    5.744621   4.999581   3.754950   2.492312   1.435159
     7  O    5.966467   5.241507   4.279932   2.910077   2.428760
     8  C    6.916925   6.203894   4.847387   3.715569   2.412635
     9  N    8.125815   7.434668   6.159347   4.926932   3.747150
    10  O    8.238615   7.710639   6.546743   5.256405   4.241949
    11  O    9.080340   8.264563   6.961356   5.774787   4.563527
    12  C    7.263407   6.577823   5.104926   4.266660   2.862974
    13  O    8.414243   7.762277   6.278734   5.477621   4.074675
    14  N    6.372423   5.694107   4.194515   3.682823   2.415381
    15  C    7.153298   6.544533   5.084713   4.870886   3.746925
    16  C    5.053302   4.326274   2.826589   2.424841   1.411470
    17  C    4.466536   3.795212   2.425684   2.759328   2.417882
    18  C    3.242007   2.524656   1.414713   2.390146   2.798079
    19  O    3.228629   2.750059   2.340874   3.590368   4.147319
    20  C    4.501111   4.153955   3.648395   4.772131   5.039484
    21  H    1.086866   2.161088   3.436849   4.317801   5.603055
    22  H    1.087834   2.165879   2.741071   3.234916   4.369214
    23  H    1.086424   2.160408   2.749094   3.822194   4.836831
    24  H    2.155396   1.091330   2.131543   2.628157   4.023529
    25  H    2.148751   1.090593   2.124776   3.310259   4.506605
    26  H    3.498333   2.675875   2.100516   1.082217   2.159707
    27  H    5.258161   4.537892   3.784925   2.454362   2.482240
    28  H    7.282951   6.530107   5.127292   5.083107   4.101885
    29  H    6.909316   6.515196   5.123701   5.080964   4.101566
    30  H    8.155258   7.549625   6.069127   5.710315   4.463902
    31  H    5.223001   4.649988   3.396389   3.834077   3.391967
    32  H    4.806100   4.698161   4.042612   5.029756   5.117865
    33  H    5.304934   4.691606   4.021593   5.005705   5.096770
    34  H    4.709907   4.505691   4.335369   5.578299   6.004766
                    6          7          8          9         10
     6  C    0.000000
     7  O    1.336695   0.000000
     8  C    1.367228   2.327322   0.000000
     9  N    2.435184   2.729602   1.449340   0.000000
    10  O    2.873632   2.768832   2.271143   1.208950   0.000000
    11  O    3.343725   3.641021   2.269278   1.205810   2.149222
    12  C    2.482977   3.683700   1.448778   2.466764   3.386124
    13  O    3.596334   4.683880   2.356744   2.800496   3.716739
    14  N    2.794425   4.129770   2.396814   3.711930   4.547748
    15  C    4.243027   5.577736   3.715379   4.877803   5.750002
    16  C    2.445729   3.685347   2.766883   4.215742   4.902069
    17  C    3.722479   4.844146   4.167851   5.616758   6.278311
    18  C    4.232959   5.089641   5.020818   6.444617   6.983121
    19  O    5.582459   6.398649   6.354524   7.785851   8.325779
    20  C    6.442455   7.418955   6.989167   8.438213   9.071206
    21  H    6.692106   6.788559   7.911813   9.079923   9.151232
    22  H    5.331514   5.446257   6.509042   7.622395   7.595962
    23  H    6.084198   6.509218   7.127024   8.415049   8.586829
    24  H    4.986801   4.956910   6.287040   7.386523   7.594110
    25  H    5.766693   6.094295   6.903476   8.182570   8.565842
    26  H    2.734373   2.618168   4.088938   5.078335   5.232764
    27  H    1.916331   0.965269   3.149745   3.691483   3.671736
    28  H    4.746688   6.054041   4.345263   5.532128   6.500797
    29  H    4.751228   6.074860   4.351968   5.545171   6.269349
    30  H    4.657405   5.954255   3.824350   4.728863   5.630971
    31  H    4.584383   5.787157   4.792700   6.214714   6.946633
    32  H    6.464064   7.519392   6.885828   8.321149   8.906901
    33  H    6.439214   7.477213   6.865055   8.295243   9.051946
    34  H    7.427076   8.336001   8.038823   9.487617  10.095761
                   11         12         13         14         15
    11  O    0.000000
    12  C    2.874295   0.000000
    13  O    2.855753   1.212612   0.000000
    14  N    4.184028   1.397449   2.272086   0.000000
    15  C    5.163188   2.411368   2.663691   1.448993   0.000000
    16  C    4.869407   2.437731   3.530384   1.367933   2.446674
    17  C    6.241745   3.711676   4.678856   2.407156   2.821399
    18  C    7.155197   4.865508   5.927283   3.675680   4.203719
    19  O    8.472779   6.098782   7.094107   4.822414   5.069533
    20  C    9.033942   6.449683   7.282561   5.072786   4.909689
    21  H   10.033163   8.315833   9.477545   7.437346   8.213978
    22  H    8.655081   6.974728   8.115018   6.235704   7.132613
    23  H    9.357741   7.265780   8.356219   6.242660   6.827779
    24  H    8.204603   6.874118   8.082998   6.164327   7.165893
    25  H    8.924727   7.143269   8.297797   6.143302   6.831896
    26  H    5.962290   4.924810   6.127123   4.568253   5.845234
    27  H    4.588357   4.396265   5.478271   4.596612   6.032574
    28  H    5.692152   3.135286   3.415101   2.099738   1.090434
    29  H    5.976154   3.134327   3.391821   2.100222   1.090486
    30  H    4.842720   2.381008   2.101898   2.048826   1.089733
    31  H    6.738320   4.032717   4.792458   2.635989   2.449433
    32  H    8.958341   6.229359   6.974103   4.853037   4.540877
    33  H    8.756247   6.220481   6.980364   4.846322   4.546138
    34  H   10.094550   7.534794   8.370498   6.160544   5.972116
                   16         17         18         19         20
    16  C    0.000000
    17  C    1.401069   0.000000
    18  C    2.428311   1.382693   0.000000
    19  O    3.688308   2.415824   1.351386   0.000000
    20  C    4.222929   2.822037   2.383852   1.408290   0.000000
    21  H    6.104857   5.488083   4.204113   3.995256   5.213786
    22  H    4.979450   4.649130   3.631123   3.924253   5.175313
    23  H    4.987482   4.182881   3.000962   2.700168   3.780566
    24  H    4.818244   4.540636   3.396540   3.778300   5.179161
    25  H    4.799905   4.032942   2.685460   2.458875   3.761067
    26  H    3.409548   3.841394   3.362885   4.439697   5.712314
    27  H    3.876292   4.830135   4.807034   6.043535   7.186440
    28  H    2.771746   2.816703   4.125410   4.838119   4.537206
    29  H    2.771462   2.816235   4.121393   4.833329   4.544085
    30  H    3.313555   3.885362   5.267074   6.159044   5.969519
    31  H    2.142054   1.074799   2.126662   2.673935   2.500999
    32  H    4.166212   2.830402   2.726749   2.076507   1.094257
    33  H    4.153183   2.821711   2.714831   2.076584   1.094122
    34  H    5.278221   3.881699   3.247384   1.997592   1.088720
                   21         22         23         24         25
    21  H    0.000000
    22  H    1.766722   0.000000
    23  H    1.764961   1.765919   0.000000
    24  H    2.478235   2.507660   3.056520   0.000000
    25  H    2.485857   3.056033   2.477008   1.772322   0.000000
    26  H    4.257624   3.185178   4.182384   2.363862   3.591256
    27  H    6.003607   4.743489   5.909864   4.136464   5.427429
    28  H    8.299980   7.416514   6.942632   7.170578   6.651517
    29  H    7.969079   6.880039   6.447582   7.249854   6.806800
    30  H    9.225478   8.064877   7.854818   8.115325   7.875989
    31  H    6.213868   5.479177   4.760598   5.479034   4.729964
    32  H    5.597980   5.314431   3.966696   5.752080   4.505604
    33  H    6.035294   5.967533   4.709782   5.622194   4.242436
    34  H    5.230763   5.518028   3.922085   5.534290   3.925914
                   26         27         28         29         30
    26  H    0.000000
    27  H    1.862143   0.000000
    28  H    6.090877   6.438037   0.000000
    29  H    6.088187   6.450537   1.788783   0.000000
    30  H    6.616509   6.543098   1.776533   1.775779   0.000000
    31  H    4.916072   5.850953   2.264427   2.265703   3.532831
    32  H    6.012088   7.367081   4.334310   3.959835   5.559456
    33  H    5.985988   7.328406   3.958264   4.354210   5.565658
    34  H    6.435507   8.026756   5.560453   5.568029   7.019662
                   31         32         33         34
    31  H    0.000000
    32  H    2.312768   0.000000
    33  H    2.318137   1.788567   0.000000
    34  H    3.584598   1.779598   1.779897   0.000000
 Stoichiometry    C13H14N2O5
 Framework group  C1[X(C13H14N2O5)]
 Deg. of freedom    96
 Full point group                 C1      NOp   1
 Largest Abelian subgroup         C1      NOp   1
 Largest concise Abelian subgroup C1      NOp   1
                         Standard orientation:                         
 ---------------------------------------------------------------------
 Center     Atomic      Atomic             Coordinates (Angstroms)
 Number     Number       Type             X           Y           Z
 ---------------------------------------------------------------------
      1          6           0       -4.154008   -2.170796    0.983809
      2          6           0       -3.544746   -1.912641   -0.395602
      3          6           0       -2.363079   -0.994249   -0.292966
      4          6           0       -1.078750   -1.471403   -0.270676
      5          6           0        0.039720   -0.631491   -0.139611
      6          6           0        1.385653   -1.129402   -0.124486
      7          8           0        1.670434   -2.425515   -0.284940
      8          6           0        2.415883   -0.240270    0.007357
      9          7           0        3.782626   -0.722515    0.013662
     10          8           0        4.061545   -1.576147    0.823029
     11          8           0        4.539439   -0.241940   -0.792725
     12          6           0        2.230173    1.189994    0.144518
     13          8           0        3.130963    1.985158    0.307983
     14          7           0        0.898583    1.612388    0.108237
     15          6           0        0.686811    3.040952    0.226293
     16          6           0       -0.163431    0.760590   -0.025214
     17          6           0       -1.475815    1.250422   -0.051806
     18          6           0       -2.560213    0.401986   -0.178611
     19          8           0       -3.846845    0.814288   -0.207397
     20          6           0       -4.135555    2.190456   -0.129359
     21          1           0       -5.000684   -2.847049    0.899553
     22          1           0       -3.417396   -2.616452    1.648771
     23          1           0       -4.497683   -1.238016    1.422132
     24          1           0       -3.236037   -2.860185   -0.840418
     25          1           0       -4.298982   -1.455721   -1.037276
     26          1           0       -0.944162   -2.541747   -0.356943
     27          1           0        0.870129   -2.961139   -0.350983
     28          1           0        0.195083    3.433744   -0.664192
     29          1           0        0.098679    3.273114    1.114754
     30          1           0        1.671568    3.497757    0.321691
     31          1           0       -1.642600    2.308860    0.032362
     32          1           0       -3.795498    2.619056    0.818302
     33          1           0       -3.690844    2.742243   -0.962945
     34          1           0       -5.220173    2.264789   -0.187562
 ---------------------------------------------------------------------
 Rotational constants (GHZ):           0.6483344           0.2150907           0.1671625
 Leave Link  202 at Fri Nov  4 18:11:48 2022, MaxMem=   805306368 cpu:               0.1 elap:               0.0
 (Enter /home/wykgroup/appl/g16/l301.exe)
 Standard basis: 6-31G(d) (6D, 7F)
 Ernie: Thresh=  0.10000D-02 Tol=  0.10000D-05 Strict=F.
 There are   328 symmetry adapted cartesian basis functions of A   symmetry.
 There are   328 symmetry adapted basis functions of A   symmetry.
   328 basis functions,   616 primitive gaussians,   328 cartesian basis functions
    73 alpha electrons       73 beta electrons
       nuclear repulsion energy      1594.0239672388 Hartrees.
 IExCor=  402 DFT=T Ex+Corr=B3LYP ExCW=0 ScaHFX=  0.200000
 ScaDFX=  0.800000  0.720000  1.000000  0.810000 ScalE2=  1.000000  1.000000
 IRadAn=      5 IRanWt=     -1 IRanGd=            0 ICorTp=0 IEmpDi=  4
 NAtoms=   34 NActive=   34 NUniq=   34 SFac= 1.00D+00 NAtFMM=   60 NAOKFM=F Big=F
 Integral buffers will be    131072 words long.
 Raffenetti 2 integral format.
 Two-electron integral symmetry is turned on.
 Leave Link  301 at Fri Nov  4 18:11:48 2022, MaxMem=   805306368 cpu:               0.3 elap:               0.1
 (Enter /home/wykgroup/appl/g16/l302.exe)
 NPDir=0 NMtPBC=     1 NCelOv=     1 NCel=       1 NClECP=     1 NCelD=      1
         NCelK=      1 NCelE2=     1 NClLst=     1 CellRange=     0.0.
 One-electron integrals computed using PRISM.
 One-electron integral symmetry used in STVInt
 NBasis=   328 RedAO= T EigKep=  2.68D-04  NBF=   328
 NBsUse=   328 1.00D-06 EigRej= -1.00D+00 NBFU=   328
 Precomputing XC quadrature grid using
 IXCGrd= 4 IRadAn=           5 IRanWt=          -1 IRanGd=           0 AccXCQ= 0.00D+00.
 Generated NRdTot=       0 NPtTot=           0 NUsed=           0 NTot=          32
 NSgBfM=   327   327   327   327   327 MxSgAt=    34 MxSgA2=    34.
 Leave Link  302 at Fri Nov  4 18:11:49 2022, MaxMem=   805306368 cpu:               2.5 elap:               0.4
 (Enter /home/wykgroup/appl/g16/l303.exe)
 DipDrv:  MaxL=1.
 Leave Link  303 at Fri Nov  4 18:11:49 2022, MaxMem=   805306368 cpu:               0.2 elap:               0.1
 (Enter /home/wykgroup/appl/g16/l401.exe)
 ExpMin= 1.61D-01 ExpMax= 5.48D+03 ExpMxC= 8.25D+02 IAcc=3 IRadAn=         5 AccDes= 0.00D+00
 Harris functional with IExCor=  402 and IRadAn=       5 diagonalized for initial guess.
 HarFok:  IExCor=  402 AccDes= 0.00D+00 IRadAn=         5 IDoV= 1 UseB2=F ITyADJ=14
 ICtDFT=  3500011 ScaDFX=  1.000000  1.000000  1.000000  1.000000
 FoFCou: FMM=F IPFlag=           0 FMFlag=      100000 FMFlg1=           0
         NFxFlg=           0 DoJE=T BraDBF=F KetDBF=T FulRan=T
         wScrn=  0.000000 ICntrl=       500 IOpCl=  0 I1Cent=   200000004 NGrid=           0
         NMat0=    1 NMatS0=      1 NMatT0=    0 NMatD0=    1 NMtDS0=    0 NMtDT0=    0
 Petite list used in FoFCou.
 Harris En= -989.371696136193    
 JPrj=0 DoOrth=F DoCkMO=F.
 Leave Link  401 at Fri Nov  4 18:11:50 2022, MaxMem=   805306368 cpu:              11.7 elap:               1.7
 (Enter /home/wykgroup/appl/g16/l502.exe)
 Integral symmetry usage will be decided dynamically.
 Closed shell SCF:
 Using DIIS extrapolation, IDIIS=  1040.
 NGot=   805306368 LenX=   805085280 LenY=   804977255
 Requested convergence on RMS density matrix=1.00D-08 within  32 cycles.
 Requested convergence on MAX density matrix=1.00D-06.
 Requested convergence on             energy=1.00D-06.
 No special actions if energy rises.
 Fock matrices will be formed incrementally for  20 cycles.
 Integral accuracy reduced to 1.0D-05 until final iterations.

 Cycle   1  Pass 0  IDiag  1:
 FoFJK:  IHMeth= 1 ICntrl=       0 DoSepK=F KAlg= 0 I1Cent=           0 FoldK=F
 IRaf= 790000000 NMat=       1 IRICut=       1 DoRegI=T DoRafI=F ISym2E= 0 IDoP0=0 IntGTp=1.
 FoFCou: FMM=F IPFlag=           0 FMFlag=      100000 FMFlg1=           0
         NFxFlg=           0 DoJE=F BraDBF=F KetDBF=F FulRan=T
         wScrn=  0.000000 ICntrl=         0 IOpCl=  0 I1Cent=           0 NGrid=           0
         NMat0=    1 NMatS0=      1 NMatT0=    0 NMatD0=    1 NMtDS0=    0 NMtDT0=    0
 Symmetry not used in FoFCou.
 E= -988.805927286485    
 DIIS: error= 3.61D-02 at cycle   1 NSaved=   1.
 NSaved= 1 IEnMin= 1 EnMin= -988.805927286485     IErMin= 1 ErrMin= 3.61D-02
 ErrMax= 3.61D-02  0.00D+00 EMaxC= 1.00D-01 BMatC= 6.16D-01 BMatP= 6.16D-01
 IDIUse=3 WtCom= 6.39D-01 WtEn= 3.61D-01
 Coeff-Com:  0.100D+01
 Coeff-En:   0.100D+01
 Coeff:      0.100D+01
 Gap=     0.157 Goal=   None    Shift=    0.000
 GapD=    0.157 DampG=1.000 DampE=0.500 DampFc=0.5000 IDamp=-1.
 Damping current iteration by 5.00D-01
 RMSDP=6.00D-03 MaxDP=2.47D-01              OVMax= 3.03D-01

 Cycle   2  Pass 0  IDiag  1:
 RMSU=  2.99D-03    CP:  9.84D-01
 E= -988.933130966968     Delta-E=       -0.127203680483 Rises=F Damp=T
 DIIS: error= 1.53D-02 at cycle   2 NSaved=   2.
 NSaved= 2 IEnMin= 2 EnMin= -988.933130966968     IErMin= 2 ErrMin= 1.53D-02
 ErrMax= 1.53D-02  0.00D+00 EMaxC= 1.00D-01 BMatC= 1.18D-01 BMatP= 6.16D-01
 IDIUse=3 WtCom= 8.47D-01 WtEn= 1.53D-01
 Coeff-Com:  0.245D+00 0.755D+00
 Coeff-En:   0.369D+00 0.631D+00
 Coeff:      0.264D+00 0.736D+00
 Gap=     0.212 Goal=   None    Shift=    0.000
 RMSDP=2.13D-03 MaxDP=1.36D-01 DE=-1.27D-01 OVMax= 2.34D-01

 Cycle   3  Pass 0  IDiag  1:
 RMSU=  1.89D-03    CP:  9.67D-01  6.96D-01
 E= -989.257777012601     Delta-E=       -0.324646045633 Rises=F Damp=F
 DIIS: error= 1.51D-02 at cycle   3 NSaved=   3.
 NSaved= 3 IEnMin= 3 EnMin= -989.257777012601     IErMin= 3 ErrMin= 1.51D-02
 ErrMax= 1.51D-02  0.00D+00 EMaxC= 1.00D-01 BMatC= 8.25D-02 BMatP= 1.18D-01
 IDIUse=3 WtCom= 8.49D-01 WtEn= 1.51D-01
 Coeff-Com:  0.846D-01 0.447D+00 0.469D+00
 Coeff-En:   0.000D+00 0.000D+00 0.100D+01
 Coeff:      0.718D-01 0.379D+00 0.549D+00
 Gap=     0.162 Goal=   None    Shift=    0.000
 RMSDP=1.44D-03 MaxDP=7.39D-02 DE=-3.25D-01 OVMax= 1.07D-01

 Cycle   4  Pass 0  IDiag  1:
 RMSU=  8.65D-04    CP:  9.73D-01  8.60D-01  4.53D-01
 E= -989.309654842506     Delta-E=       -0.051877829905 Rises=F Damp=F
 DIIS: error= 8.61D-03 at cycle   4 NSaved=   4.
 NSaved= 4 IEnMin= 4 EnMin= -989.309654842506     IErMin= 4 ErrMin= 8.61D-03
 ErrMax= 8.61D-03  0.00D+00 EMaxC= 1.00D-01 BMatC= 2.73D-02 BMatP= 8.25D-02
 IDIUse=3 WtCom= 9.14D-01 WtEn= 8.61D-02
 Coeff-Com:  0.271D-01 0.117D+00 0.362D+00 0.493D+00
 Coeff-En:   0.000D+00 0.000D+00 0.276D+00 0.724D+00
 Coeff:      0.248D-01 0.107D+00 0.355D+00 0.513D+00
 Gap=     0.157 Goal=   None    Shift=    0.000
 RMSDP=6.24D-04 MaxDP=3.55D-02 DE=-5.19D-02 OVMax= 4.49D-02

 Cycle   5  Pass 0  IDiag  1:
 RMSU=  2.70D-04    CP:  9.72D-01  7.68D-01  6.29D-01  5.84D-01
 E= -989.329789066033     Delta-E=       -0.020134223527 Rises=F Damp=F
 DIIS: error= 3.56D-03 at cycle   5 NSaved=   5.
 NSaved= 5 IEnMin= 5 EnMin= -989.329789066033     IErMin= 5 ErrMin= 3.56D-03
 ErrMax= 3.56D-03  0.00D+00 EMaxC= 1.00D-01 BMatC= 3.80D-03 BMatP= 2.73D-02
 IDIUse=3 WtCom= 9.64D-01 WtEn= 3.56D-02
 Coeff-Com:  0.856D-02 0.162D-01 0.185D+00 0.368D+00 0.422D+00
 Coeff-En:   0.000D+00 0.000D+00 0.000D+00 0.951D-01 0.905D+00
 Coeff:      0.825D-02 0.157D-01 0.179D+00 0.358D+00 0.439D+00
 Gap=     0.155 Goal=   None    Shift=    0.000
 RMSDP=2.04D-04 MaxDP=1.25D-02 DE=-2.01D-02 OVMax= 2.88D-02

 Cycle   6  Pass 0  IDiag  1:
 RMSU=  1.01D-04    CP:  9.72D-01  7.79D-01  6.26D-01  6.40D-01  3.81D-01
 E= -989.332313793544     Delta-E=       -0.002524727511 Rises=F Damp=F
 DIIS: error= 1.72D-03 at cycle   6 NSaved=   6.
 NSaved= 6 IEnMin= 6 EnMin= -989.332313793544     IErMin= 6 ErrMin= 1.72D-03
 ErrMax= 1.72D-03  0.00D+00 EMaxC= 1.00D-01 BMatC= 6.60D-04 BMatP= 3.80D-03
 IDIUse=3 WtCom= 9.83D-01 WtEn= 1.72D-02
 Coeff-Com:  0.291D-02-0.227D-02 0.871D-01 0.199D+00 0.326D+00 0.387D+00
 Coeff-En:   0.000D+00 0.000D+00 0.000D+00 0.000D+00 0.166D+00 0.834D+00
 Coeff:      0.286D-02-0.223D-02 0.856D-01 0.196D+00 0.323D+00 0.395D+00
 Gap=     0.156 Goal=   None    Shift=    0.000
 RMSDP=7.75D-05 MaxDP=4.73D-03 DE=-2.52D-03 OVMax= 1.31D-02

 Cycle   7  Pass 0  IDiag  1:
 RMSU=  4.38D-05    CP:  9.72D-01  7.82D-01  6.26D-01  6.41D-01  4.70D-01
                    CP:  4.20D-01
 E= -989.332785255411     Delta-E=       -0.000471461867 Rises=F Damp=F
 DIIS: error= 4.83D-04 at cycle   7 NSaved=   7.
 NSaved= 7 IEnMin= 7 EnMin= -989.332785255411     IErMin= 7 ErrMin= 4.83D-04
 ErrMax= 4.83D-04  0.00D+00 EMaxC= 1.00D-01 BMatC= 7.44D-05 BMatP= 6.60D-04
 IDIUse=3 WtCom= 9.95D-01 WtEn= 4.83D-03
 Coeff-Com:  0.673D-03-0.364D-02 0.281D-01 0.716D-01 0.152D+00 0.284D+00
 Coeff-Com:  0.467D+00
 Coeff-En:   0.000D+00 0.000D+00 0.000D+00 0.000D+00 0.000D+00 0.112D+00
 Coeff-En:   0.888D+00
 Coeff:      0.670D-03-0.363D-02 0.280D-01 0.712D-01 0.152D+00 0.283D+00
 Coeff:      0.469D+00
 Gap=     0.156 Goal=   None    Shift=    0.000
 RMSDP=2.50D-05 MaxDP=1.58D-03 DE=-4.71D-04 OVMax= 2.96D-03

 Cycle   8  Pass 0  IDiag  1:
 RMSU=  1.31D-05    CP:  9.72D-01  7.80D-01  6.27D-01  6.42D-01  4.77D-01
                    CP:  5.08D-01  5.77D-01
 E= -989.332841756646     Delta-E=       -0.000056501235 Rises=F Damp=F
 DIIS: error= 5.54D-05 at cycle   8 NSaved=   8.
 NSaved= 8 IEnMin= 8 EnMin= -989.332841756646     IErMin= 8 ErrMin= 5.54D-05
 ErrMax= 5.54D-05  0.00D+00 EMaxC= 1.00D-01 BMatC= 3.44D-06 BMatP= 7.44D-05
 IDIUse=1 WtCom= 1.00D+00 WtEn= 0.00D+00
 Coeff-Com:  0.911D-04-0.173D-02 0.572D-02 0.162D-01 0.474D-01 0.112D+00
 Coeff-Com:  0.255D+00 0.565D+00
 Coeff:      0.911D-04-0.173D-02 0.572D-02 0.162D-01 0.474D-01 0.112D+00
 Coeff:      0.255D+00 0.565D+00
 Gap=     0.156 Goal=   None    Shift=    0.000
 RMSDP=7.00D-06 MaxDP=3.50D-04 DE=-5.65D-05 OVMax= 6.06D-04

 Initial convergence to 1.0D-05 achieved.  Increase integral accuracy.
 Cycle   9  Pass 1  IDiag  1:
 E= -989.332838556124     Delta-E=        0.000003200522 Rises=F Damp=F
 DIIS: error= 6.78D-05 at cycle   1 NSaved=   1.
 NSaved= 1 IEnMin= 1 EnMin= -989.332838556124     IErMin= 1 ErrMin= 6.78D-05
 ErrMax= 6.78D-05  0.00D+00 EMaxC= 1.00D-01 BMatC= 8.90D-07 BMatP= 8.90D-07
 IDIUse=1 WtCom= 1.00D+00 WtEn= 0.00D+00
 Coeff-Com:  0.100D+01
 Coeff:      0.100D+01
 Gap=     0.156 Goal=   None    Shift=    0.000
 RMSDP=7.00D-06 MaxDP=3.50D-04 DE= 3.20D-06 OVMax= 5.57D-04

 Cycle  10  Pass 1  IDiag  1:
 RMSU=  4.12D-05    CP:  1.00D+00
 E= -989.332838432736     Delta-E=        0.000000123388 Rises=F Damp=F
 DIIS: error= 3.74D-05 at cycle   2 NSaved=   2.
 NSaved= 2 IEnMin= 1 EnMin= -989.332838556124     IErMin= 2 ErrMin= 3.74D-05
 ErrMax= 3.74D-05  0.00D+00 EMaxC= 1.00D-01 BMatC= 8.17D-07 BMatP= 8.90D-07
 IDIUse=1 WtCom= 1.00D+00 WtEn= 0.00D+00
 Coeff-Com:  0.486D+00 0.514D+00
 Coeff:      0.486D+00 0.514D+00
 Gap=     0.156 Goal=   None    Shift=    0.000
 RMSDP=4.75D-06 MaxDP=2.31D-04 DE= 1.23D-07 OVMax= 5.52D-04

 Cycle  11  Pass 1  IDiag  1:
 RMSU=  4.75D-06    CP:  1.00D+00  9.98D-01
 E= -989.332839023598     Delta-E=       -0.000000590862 Rises=F Damp=F
 DIIS: error= 2.18D-05 at cycle   3 NSaved=   3.
 NSaved= 3 IEnMin= 3 EnMin= -989.332839023598     IErMin= 3 ErrMin= 2.18D-05
 ErrMax= 2.18D-05  0.00D+00 EMaxC= 1.00D-01 BMatC= 2.50D-07 BMatP= 8.17D-07
 IDIUse=1 WtCom= 1.00D+00 WtEn= 0.00D+00
 Coeff-Com:  0.425D-01 0.351D+00 0.606D+00
 Coeff:      0.425D-01 0.351D+00 0.606D+00
 Gap=     0.156 Goal=   None    Shift=    0.000
 RMSDP=1.95D-06 MaxDP=9.88D-05 DE=-5.91D-07 OVMax= 1.85D-04

 Cycle  12  Pass 1  IDiag  1:
 RMSU=  9.47D-07    CP:  1.00D+00  1.01D+00  6.50D-01
 E= -989.332839236939     Delta-E=       -0.000000213341 Rises=F Damp=F
 DIIS: error= 6.93D-06 at cycle   4 NSaved=   4.
 NSaved= 4 IEnMin= 4 EnMin= -989.332839236939     IErMin= 4 ErrMin= 6.93D-06
 ErrMax= 6.93D-06  0.00D+00 EMaxC= 1.00D-01 BMatC= 3.64D-08 BMatP= 2.50D-07
 IDIUse=1 WtCom= 1.00D+00 WtEn= 0.00D+00
 Coeff-Com: -0.736D-03 0.209D+00 0.411D+00 0.380D+00
 Coeff:     -0.736D-03 0.209D+00 0.411D+00 0.380D+00
 Gap=     0.156 Goal=   None    Shift=    0.000
 RMSDP=6.06D-07 MaxDP=3.12D-05 DE=-2.13D-07 OVMax= 4.85D-05

 Cycle  13  Pass 1  IDiag  1:
 RMSU=  1.80D-07    CP:  1.00D+00  1.01D+00  6.65D-01  3.95D-01
 E= -989.332839266025     Delta-E=       -0.000000029086 Rises=F Damp=F
 DIIS: error= 1.77D-06 at cycle   5 NSaved=   5.
 NSaved= 5 IEnMin= 5 EnMin= -989.332839266025     IErMin= 5 ErrMin= 1.77D-06
 ErrMax= 1.77D-06  0.00D+00 EMaxC= 1.00D-01 BMatC= 1.19D-09 BMatP= 3.64D-08
 IDIUse=1 WtCom= 1.00D+00 WtEn= 0.00D+00
 Coeff-Com: -0.182D-02 0.128D+00 0.252D+00 0.251D+00 0.370D+00
 Coeff:     -0.182D-02 0.128D+00 0.252D+00 0.251D+00 0.370D+00
 Gap=     0.156 Goal=   None    Shift=    0.000
 RMSDP=1.11D-07 MaxDP=6.15D-06 DE=-2.91D-08 OVMax= 1.44D-05

 Cycle  14  Pass 1  IDiag  1:
 RMSU=  6.62D-08    CP:  1.00D+00  1.01D+00  6.66D-01  4.07D-01  5.13D-01
 E= -989.332839266948     Delta-E=       -0.000000000923 Rises=F Damp=F
 DIIS: error= 7.11D-07 at cycle   6 NSaved=   6.
 NSaved= 6 IEnMin= 6 EnMin= -989.332839266948     IErMin= 6 ErrMin= 7.11D-07
 ErrMax= 7.11D-07  0.00D+00 EMaxC= 1.00D-01 BMatC= 1.32D-10 BMatP= 1.19D-09
 IDIUse=1 WtCom= 1.00D+00 WtEn= 0.00D+00
 Coeff-Com: -0.122D-02 0.695D-01 0.138D+00 0.140D+00 0.263D+00 0.390D+00
 Coeff:     -0.122D-02 0.695D-01 0.138D+00 0.140D+00 0.263D+00 0.390D+00
 Gap=     0.156 Goal=   None    Shift=    0.000
 RMSDP=3.52D-08 MaxDP=1.96D-06 DE=-9.23D-10 OVMax= 5.40D-06

 Cycle  15  Pass 1  IDiag  1:
 RMSU=  2.69D-08    CP:  1.00D+00  1.01D+00  6.65D-01  4.10D-01  5.48D-01
                    CP:  6.82D-01
 E= -989.332839267038     Delta-E=       -0.000000000090 Rises=F Damp=F
 DIIS: error= 2.35D-07 at cycle   7 NSaved=   7.
 NSaved= 7 IEnMin= 7 EnMin= -989.332839267038     IErMin= 7 ErrMin= 2.35D-07
 ErrMax= 2.35D-07  0.00D+00 EMaxC= 1.00D-01 BMatC= 1.29D-11 BMatP= 1.32D-10
 IDIUse=1 WtCom= 1.00D+00 WtEn= 0.00D+00
 Coeff-Com: -0.522D-03 0.258D-01 0.510D-01 0.533D-01 0.113D+00 0.261D+00
 Coeff-Com:  0.496D+00
 Coeff:     -0.522D-03 0.258D-01 0.510D-01 0.533D-01 0.113D+00 0.261D+00
 Coeff:      0.496D+00
 Gap=     0.156 Goal=   None    Shift=    0.000
 RMSDP=1.24D-08 MaxDP=6.36D-07 DE=-8.96D-11 OVMax= 1.39D-06

 Cycle  16  Pass 1  IDiag  1:
 RMSU=  9.05D-09    CP:  1.00D+00  1.01D+00  6.65D-01  4.09D-01  5.58D-01
                    CP:  7.36D-01  7.30D-01
 E= -989.332839267064     Delta-E=       -0.000000000027 Rises=F Damp=F
 DIIS: error= 6.48D-08 at cycle   8 NSaved=   8.
 NSaved= 8 IEnMin= 8 EnMin= -989.332839267064     IErMin= 8 ErrMin= 6.48D-08
 ErrMax= 6.48D-08  0.00D+00 EMaxC= 1.00D-01 BMatC= 1.87D-12 BMatP= 1.29D-11
 IDIUse=1 WtCom= 1.00D+00 WtEn= 0.00D+00
 Coeff-Com: -0.121D-03 0.439D-02 0.851D-02 0.951D-02 0.257D-01 0.101D+00
 Coeff-Com:  0.323D+00 0.527D+00
 Coeff:     -0.121D-03 0.439D-02 0.851D-02 0.951D-02 0.257D-01 0.101D+00
 Coeff:      0.323D+00 0.527D+00
 Gap=     0.156 Goal=   None    Shift=    0.000
 RMSDP=4.49D-09 MaxDP=1.96D-07 DE=-2.68D-11 OVMax= 3.41D-07

 SCF Done:  E(RB3LYP) =  -989.332839267     A.U. after   16 cycles
            NFock= 16  Conv=0.45D-08     -V/T= 2.0084
 KE= 9.811120068383D+02 PE=-5.495299829225D+03 EE= 1.930831015881D+03
 Leave Link  502 at Fri Nov  4 18:12:27 2022, MaxMem=   805306368 cpu:             258.8 elap:              37.0
 (Enter /home/wykgroup/appl/g16/l508.exe)
 QCSCF skips out because SCF is already converged.
 Leave Link  508 at Fri Nov  4 18:12:27 2022, MaxMem=   805306368 cpu:               0.0 elap:               0.0
 (Enter /home/wykgroup/appl/g16/l601.exe)
 Copying SCF densities to generalized density rwf, IOpCl= 0 IROHF=0.

 **********************************************************************

            Population analysis using the SCF Density.

 **********************************************************************

 Orbital symmetries:
       Occupied  (A) (A) (A) (A) (A) (A) (A) (A) (A) (A) (A) (A)
                 (A) (A) (A) (A) (A) (A) (A) (A) (A) (A) (A) (A)
                 (A) (A) (A) (A) (A) (A) (A) (A) (A) (A) (A) (A)
                 (A) (A) (A) (A) (A) (A) (A) (A) (A) (A) (A) (A)
                 (A) (A) (A) (A) (A) (A) (A) (A) (A) (A) (A) (A)
                 (A) (A) (A) (A) (A) (A) (A) (A) (A) (A) (A) (A)
                 (A)
       Virtual   (A) (A) (A) (A) (A) (A) (A) (A) (A) (A) (A) (A)
                 (A) (A) (A) (A) (A) (A) (A) (A) (A) (A) (A) (A)
                 (A) (A) (A) (A) (A) (A) (A) (A) (A) (A) (A) (A)
                 (A) (A) (A) (A) (A) (A) (A) (A) (A) (A) (A) (A)
                 (A) (A) (A) (A) (A) (A) (A) (A) (A) (A) (A) (A)
                 (A) (A) (A) (A) (A) (A) (A) (A) (A) (A) (A) (A)
                 (A) (A) (A) (A) (A) (A) (A) (A) (A) (A) (A) (A)
                 (A) (A) (A) (A) (A) (A) (A) (A) (A) (A) (A) (A)
                 (A) (A) (A) (A) (A) (A) (A) (A) (A) (A) (A) (A)
                 (A) (A) (A) (A) (A) (A) (A) (A) (A) (A) (A) (A)
                 (A) (A) (A) (A) (A) (A) (A) (A) (A) (A) (A) (A)
                 (A) (A) (A) (A) (A) (A) (A) (A) (A) (A) (A) (A)
                 (A) (A) (A) (A) (A) (A) (A) (A) (A) (A) (A) (A)
                 (A) (A) (A) (A) (A) (A) (A) (A) (A) (A) (A) (A)
                 (A) (A) (A) (A) (A) (A) (A) (A) (A) (A) (A) (A)
                 (A) (A) (A) (A) (A) (A) (A) (A) (A) (A) (A) (A)
                 (A) (A) (A) (A) (A) (A) (A) (A) (A) (A) (A) (A)
                 (A) (A) (A) (A) (A) (A) (A) (A) (A) (A) (A) (A)
                 (A) (A) (A) (A) (A) (A) (A) (A) (A) (A) (A) (A)
                 (A) (A) (A) (A) (A) (A) (A) (A) (A) (A) (A) (A)
                 (A) (A) (A) (A) (A) (A) (A) (A) (A) (A) (A) (A)
                 (A) (A) (A)
 The electronic state is 1-A.
 Alpha  occ. eigenvalues --  -19.21547 -19.21124 -19.16085 -19.15980 -19.11501
 Alpha  occ. eigenvalues --  -14.55579 -14.39932 -10.29960 -10.29622 -10.27854
 Alpha  occ. eigenvalues --  -10.26614 -10.26524 -10.23357 -10.22701 -10.22436
 Alpha  occ. eigenvalues --  -10.22360 -10.21330 -10.21198 -10.20083 -10.18512
 Alpha  occ. eigenvalues --   -1.22527  -1.10648  -1.10297  -1.05504  -1.04589
 Alpha  occ. eigenvalues --   -0.97961  -0.88611  -0.85153  -0.81255  -0.79218
 Alpha  occ. eigenvalues --   -0.75662  -0.74873  -0.72781  -0.69878  -0.67100
 Alpha  occ. eigenvalues --   -0.63737  -0.62646  -0.61009  -0.59642  -0.55568
 Alpha  occ. eigenvalues --   -0.54960  -0.53837  -0.52617  -0.50722  -0.50328
 Alpha  occ. eigenvalues --   -0.49958  -0.49221  -0.48745  -0.48344  -0.47204
 Alpha  occ. eigenvalues --   -0.45336  -0.44905  -0.44503  -0.43652  -0.42204
 Alpha  occ. eigenvalues --   -0.41437  -0.40540  -0.40055  -0.39895  -0.38637
 Alpha  occ. eigenvalues --   -0.38055  -0.37688  -0.36421  -0.35373  -0.34813
 Alpha  occ. eigenvalues --   -0.31176  -0.29271  -0.28825  -0.28707  -0.27228
 Alpha  occ. eigenvalues --   -0.26068  -0.24566  -0.22181
 Alpha virt. eigenvalues --   -0.06600  -0.03419  -0.01667   0.01359   0.03296
 Alpha virt. eigenvalues --    0.07096   0.08014   0.09073   0.10541   0.11105
 Alpha virt. eigenvalues --    0.12628   0.13100   0.13512   0.13686   0.14552
 Alpha virt. eigenvalues --    0.14804   0.16015   0.16389   0.16775   0.16953
 Alpha virt. eigenvalues --    0.17984   0.18442   0.20150   0.22672   0.23231
 Alpha virt. eigenvalues --    0.23569   0.25769   0.27185   0.27950   0.29473
 Alpha virt. eigenvalues --    0.31046   0.32792   0.34734   0.35513   0.36610
 Alpha virt. eigenvalues --    0.38302   0.42215   0.44495   0.45852   0.46867
 Alpha virt. eigenvalues --    0.47412   0.47955   0.49149   0.49952   0.50773
 Alpha virt. eigenvalues --    0.51325   0.51714   0.52776   0.52990   0.53930
 Alpha virt. eigenvalues --    0.54128   0.54701   0.55818   0.56100   0.57892
 Alpha virt. eigenvalues --    0.58782   0.59752   0.60595   0.62827   0.63908
 Alpha virt. eigenvalues --    0.64154   0.65364   0.66688   0.67542   0.68571
 Alpha virt. eigenvalues --    0.70401   0.70818   0.71010   0.71484   0.74646
 Alpha virt. eigenvalues --    0.76215   0.77015   0.77819   0.78338   0.79116
 Alpha virt. eigenvalues --    0.79862   0.80763   0.82689   0.83084   0.83271
 Alpha virt. eigenvalues --    0.84199   0.85070   0.85886   0.87119   0.87627
 Alpha virt. eigenvalues --    0.88114   0.88501   0.90116   0.90803   0.91165
 Alpha virt. eigenvalues --    0.92219   0.92982   0.93289   0.95145   0.95985
 Alpha virt. eigenvalues --    0.96116   0.96344   0.98426   0.98898   1.00923
 Alpha virt. eigenvalues --    1.01108   1.02687   1.03245   1.04510   1.05820
 Alpha virt. eigenvalues --    1.07405   1.07970   1.08808   1.09782   1.11531
 Alpha virt. eigenvalues --    1.12609   1.13691   1.15791   1.17394   1.18644
 Alpha virt. eigenvalues --    1.21153   1.22107   1.23050   1.24980   1.26988
 Alpha virt. eigenvalues --    1.29338   1.32210   1.33180   1.34728   1.34921
 Alpha virt. eigenvalues --    1.36483   1.38117   1.38524   1.40379   1.43132
 Alpha virt. eigenvalues --    1.44366   1.45133   1.45366   1.48813   1.49118
 Alpha virt. eigenvalues --    1.49984   1.51901   1.53479   1.58754   1.62415
 Alpha virt. eigenvalues --    1.64225   1.65491   1.66375   1.69252   1.70482
 Alpha virt. eigenvalues --    1.71287   1.73135   1.73924   1.75057   1.75996
 Alpha virt. eigenvalues --    1.76970   1.77473   1.80303   1.81576   1.82080
 Alpha virt. eigenvalues --    1.82496   1.84358   1.85505   1.86411   1.86777
 Alpha virt. eigenvalues --    1.87234   1.89966   1.91304   1.92117   1.93241
 Alpha virt. eigenvalues --    1.95325   1.96754   1.97075   1.98118   2.00571
 Alpha virt. eigenvalues --    2.01560   2.03009   2.04060   2.05477   2.06282
 Alpha virt. eigenvalues --    2.06726   2.08761   2.10409   2.11993   2.13047
 Alpha virt. eigenvalues --    2.13936   2.14228   2.16433   2.18858   2.19468
 Alpha virt. eigenvalues --    2.20495   2.22662   2.25014   2.26986   2.27607
 Alpha virt. eigenvalues --    2.28727   2.30664   2.31713   2.32511   2.33812
 Alpha virt. eigenvalues --    2.36107   2.37140   2.39082   2.40118   2.40669
 Alpha virt. eigenvalues --    2.42968   2.44908   2.46322   2.48098   2.50661
 Alpha virt. eigenvalues --    2.52686   2.53808   2.55545   2.59755   2.60782
 Alpha virt. eigenvalues --    2.63658   2.66439   2.67287   2.68183   2.71135
 Alpha virt. eigenvalues --    2.72317   2.72543   2.76104   2.78972   2.82396
 Alpha virt. eigenvalues --    2.85627   2.86306   2.87569   2.89510   2.92489
 Alpha virt. eigenvalues --    2.98569   3.00224   3.02203   3.06232   3.06948
 Alpha virt. eigenvalues --    3.09588   3.17494   3.27066   3.43916   3.51732
 Alpha virt. eigenvalues --    3.75901   3.85078   3.87082   4.02461   4.04759
 Alpha virt. eigenvalues --    4.11962   4.13451   4.14884   4.17012   4.18825
 Alpha virt. eigenvalues --    4.25064   4.33017   4.38846   4.39875   4.42533
 Alpha virt. eigenvalues --    4.51185   4.54840   4.67710   4.82064   4.99113
          Condensed to atoms (all electrons):
               1          2          3          4          5          6
     1  C    5.085724   0.359920  -0.045566  -0.004267  -0.000239   0.000004
     2  C    0.359920   5.104084   0.349700  -0.057650   0.007307  -0.000215
     3  C   -0.045566   0.349700   4.790594   0.525964  -0.016078   0.008257
     4  C   -0.004267  -0.057650   0.525964   5.268910   0.381129  -0.060371
     5  C   -0.000239   0.007307  -0.016078   0.381129   5.073534   0.284498
     6  C    0.000004  -0.000215   0.008257  -0.060371   0.284498   4.835707
     7  O   -0.000000  -0.000002   0.000937  -0.001262  -0.077373   0.345859
     8  C   -0.000000   0.000001  -0.000059   0.012185  -0.034468   0.371106
     9  N   -0.000000  -0.000000   0.000000  -0.000146   0.003444  -0.035381
    10  O   -0.000000   0.000000  -0.000000   0.000016   0.000462   0.000013
    11  O   -0.000000   0.000000  -0.000000   0.000002  -0.000048  -0.000229
    12  C   -0.000000  -0.000000   0.000022   0.000245  -0.030441  -0.021548
    13  O    0.000000   0.000000  -0.000000   0.000002   0.000552   0.004096
    14  N   -0.000000   0.000001  -0.000180   0.009139  -0.033270  -0.040443
    15  C   -0.000000   0.000000   0.000012  -0.000078   0.006588  -0.000644
    16  C    0.000019   0.000044  -0.029380  -0.024590   0.492753  -0.015365
    17  C   -0.000163   0.011616  -0.059658  -0.089856  -0.046759   0.012973
    18  C   -0.002635  -0.053456   0.490288  -0.006954  -0.045184   0.000081
    19  O   -0.003282  -0.006150  -0.067316   0.004359   0.000177  -0.000000
    20  C    0.000077  -0.000188   0.005617  -0.000093   0.000001  -0.000000
    21  H    0.367487  -0.029606   0.005228   0.000071   0.000003  -0.000000
    22  H    0.378174  -0.037338  -0.003419   0.003224  -0.000145  -0.000002
    23  H    0.381582  -0.033470  -0.009108  -0.000263   0.000047   0.000000
    24  H   -0.037808   0.364101  -0.033622  -0.007383   0.000136  -0.000003
    25  H   -0.038572   0.365936  -0.028364   0.003687  -0.000158   0.000003
    26  H    0.000571  -0.011465  -0.021628   0.335969  -0.070033  -0.005587
    27  H   -0.000001  -0.000019   0.000588   0.013275  -0.020580  -0.019992
    28  H   -0.000000  -0.000000   0.000002  -0.000015  -0.000193   0.000029
    29  H    0.000000   0.000000   0.000007  -0.000023  -0.000215   0.000054
    30  H    0.000000  -0.000000  -0.000000   0.000004  -0.000061  -0.000131
    31  H    0.000001  -0.000164   0.003174   0.001043   0.004500  -0.000213
    32  H   -0.000000   0.000000  -0.000206  -0.000009   0.000005   0.000000
    33  H   -0.000005   0.000074  -0.000473  -0.000031   0.000011   0.000000
    34  H    0.000024  -0.000057   0.000065   0.000009  -0.000001  -0.000000
               7          8          9         10         11         12
     1  C   -0.000000  -0.000000  -0.000000  -0.000000  -0.000000  -0.000000
     2  C   -0.000002   0.000001  -0.000000   0.000000   0.000000  -0.000000
     3  C    0.000937  -0.000059   0.000000  -0.000000  -0.000000   0.000022
     4  C   -0.001262   0.012185  -0.000146   0.000016   0.000002   0.000245
     5  C   -0.077373  -0.034468   0.003444   0.000462  -0.000048  -0.030441
     6  C    0.345859   0.371106  -0.035381   0.000013  -0.000229  -0.021548
     7  O    8.176360  -0.074180  -0.003170  -0.003209  -0.000181   0.001712
     8  C   -0.074180   5.539718   0.148588  -0.089866  -0.089299   0.331261
     9  N   -0.003170   0.148588   5.894503   0.309624   0.316926  -0.041056
    10  O   -0.003209  -0.089866   0.309624   8.264013  -0.093518   0.000358
    11  O   -0.000181  -0.089299   0.316926  -0.093518   8.240811   0.002533
    12  C    0.001712   0.331261  -0.041056   0.000358   0.002533   4.358548
    13  O   -0.000009  -0.081253  -0.002615  -0.000153  -0.003146   0.601442
    14  N    0.000034  -0.088001   0.002048  -0.000045   0.000001   0.218809
    15  C    0.000002   0.007176  -0.000061   0.000001   0.000004  -0.038722
    16  C    0.002262  -0.033734   0.000529  -0.000049  -0.000018  -0.015672
    17  C   -0.000074  -0.001335   0.000003  -0.000000  -0.000000   0.003957
    18  C   -0.000005  -0.000025  -0.000000   0.000000  -0.000000   0.000047
    19  O   -0.000000  -0.000000   0.000000   0.000000   0.000000   0.000000
    20  C   -0.000000   0.000000  -0.000000   0.000000   0.000000  -0.000000
    21  H    0.000000   0.000000  -0.000000  -0.000000   0.000000  -0.000000
    22  H   -0.000000  -0.000000   0.000000   0.000000  -0.000000  -0.000000
    23  H    0.000000  -0.000000  -0.000000   0.000000  -0.000000   0.000000
    24  H   -0.000000   0.000000  -0.000000   0.000000   0.000000  -0.000000
    25  H   -0.000000  -0.000000   0.000000  -0.000000   0.000000  -0.000000
    26  H    0.000992   0.000609  -0.000001   0.000002   0.000000  -0.000028
    27  H    0.241734   0.008050  -0.000032   0.000132  -0.000006  -0.000031
    28  H   -0.000000  -0.000155   0.000001   0.000000  -0.000000   0.001621
    29  H   -0.000000  -0.000168   0.000001  -0.000000  -0.000000   0.001518
    30  H    0.000000   0.002137   0.000001   0.000000   0.000002  -0.002856
    31  H    0.000000   0.000026   0.000000  -0.000000   0.000000  -0.000123
    32  H   -0.000000   0.000000  -0.000000  -0.000000   0.000000  -0.000000
    33  H    0.000000   0.000000  -0.000000   0.000000  -0.000000   0.000000
    34  H    0.000000   0.000000   0.000000   0.000000   0.000000  -0.000000
              13         14         15         16         17         18
     1  C    0.000000  -0.000000  -0.000000   0.000019  -0.000163  -0.002635
     2  C    0.000000   0.000001   0.000000   0.000044   0.011616  -0.053456
     3  C   -0.000000  -0.000180   0.000012  -0.029380  -0.059658   0.490288
     4  C    0.000002   0.009139  -0.000078  -0.024590  -0.089856  -0.006954
     5  C    0.000552  -0.033270   0.006588   0.492753  -0.046759  -0.045184
     6  C    0.004096  -0.040443  -0.000644  -0.015365   0.012973   0.000081
     7  O   -0.000009   0.000034   0.000002   0.002262  -0.000074  -0.000005
     8  C   -0.081253  -0.088001   0.007176  -0.033734  -0.001335  -0.000025
     9  N   -0.002615   0.002048  -0.000061   0.000529   0.000003  -0.000000
    10  O   -0.000153  -0.000045   0.000001  -0.000049  -0.000000   0.000000
    11  O   -0.003146   0.000001   0.000004  -0.000018  -0.000000  -0.000000
    12  C    0.601442   0.218809  -0.038722  -0.015672   0.003957   0.000047
    13  O    8.082403  -0.103002  -0.018424   0.000814  -0.000145   0.000001
    14  N   -0.103002   7.302788   0.289842   0.274986  -0.082713   0.004585
    15  C   -0.018424   0.289842   5.039609  -0.044789  -0.013766   0.000167
    16  C    0.000814   0.274986  -0.044789   4.609845   0.415571   0.020064
    17  C   -0.000145  -0.082713  -0.013766   0.415571   5.437592   0.414229
    18  C    0.000001   0.004585   0.000167   0.020064   0.414229   4.617050
    19  O   -0.000000  -0.000024   0.000002   0.003545  -0.065155   0.293350
    20  C   -0.000000  -0.000006  -0.000053   0.000500  -0.007658  -0.044362
    21  H   -0.000000   0.000000   0.000000  -0.000000   0.000004   0.000051
    22  H   -0.000000   0.000000   0.000000  -0.000004  -0.000029  -0.000195
    23  H    0.000000   0.000000  -0.000000  -0.000024  -0.000027   0.003343
    24  H    0.000000   0.000000  -0.000000   0.000016  -0.000197   0.004893
    25  H    0.000000   0.000000   0.000000  -0.000011   0.000122  -0.009874
    26  H   -0.000000  -0.000078   0.000003   0.003390   0.000114   0.006861
    27  H    0.000001   0.000015  -0.000000  -0.000194  -0.000002   0.000014
    28  H    0.000689  -0.040508   0.374107  -0.004121   0.003239   0.000203
    29  H    0.000627  -0.040245   0.374112  -0.003813   0.003213   0.000128
    30  H    0.031189  -0.037839   0.364318   0.002715   0.000365  -0.000004
    31  H   -0.000002  -0.012829   0.011857  -0.027900   0.336203  -0.040409
    32  H    0.000000  -0.000000  -0.000015  -0.000167   0.004615  -0.004724
    33  H    0.000000  -0.000002  -0.000014  -0.000129   0.005835  -0.005387
    34  H   -0.000000  -0.000000   0.000000   0.000006   0.000200   0.002800
              19         20         21         22         23         24
     1  C   -0.003282   0.000077   0.367487   0.378174   0.381582  -0.037808
     2  C   -0.006150  -0.000188  -0.029606  -0.037338  -0.033470   0.364101
     3  C   -0.067316   0.005617   0.005228  -0.003419  -0.009108  -0.033622
     4  C    0.004359  -0.000093   0.000071   0.003224  -0.000263  -0.007383
     5  C    0.000177   0.000001   0.000003  -0.000145   0.000047   0.000136
     6  C   -0.000000  -0.000000  -0.000000  -0.000002   0.000000  -0.000003
     7  O   -0.000000  -0.000000   0.000000  -0.000000   0.000000  -0.000000
     8  C   -0.000000   0.000000   0.000000  -0.000000  -0.000000   0.000000
     9  N    0.000000  -0.000000  -0.000000   0.000000  -0.000000  -0.000000
    10  O    0.000000   0.000000  -0.000000   0.000000   0.000000   0.000000
    11  O    0.000000   0.000000   0.000000  -0.000000  -0.000000   0.000000
    12  C    0.000000  -0.000000  -0.000000  -0.000000   0.000000  -0.000000
    13  O   -0.000000  -0.000000  -0.000000  -0.000000   0.000000   0.000000
    14  N   -0.000024  -0.000006   0.000000   0.000000   0.000000   0.000000
    15  C    0.000002  -0.000053   0.000000   0.000000  -0.000000  -0.000000
    16  C    0.003545   0.000500  -0.000000  -0.000004  -0.000024   0.000016
    17  C   -0.065155  -0.007658   0.000004  -0.000029  -0.000027  -0.000197
    18  C    0.293350  -0.044362   0.000051  -0.000195   0.003343   0.004893
    19  O    8.195931   0.245233   0.000016   0.000042   0.006251   0.000310
    20  C    0.245233   4.897845  -0.000001  -0.000002  -0.000127  -0.000001
    21  H    0.000016  -0.000001   0.570186  -0.029144  -0.028198  -0.003069
    22  H    0.000042  -0.000002  -0.029144   0.570890  -0.030584  -0.004224
    23  H    0.006251  -0.000127  -0.028198  -0.030584   0.549406   0.005248
    24  H    0.000310  -0.000001  -0.003069  -0.004224   0.005248   0.596740
    25  H    0.008683  -0.000202  -0.002230   0.005396  -0.005096  -0.032644
    26  H   -0.000074   0.000004  -0.000055   0.000365   0.000017   0.007550
    27  H   -0.000000   0.000000   0.000000  -0.000002  -0.000000   0.000003
    28  H   -0.000002  -0.000015   0.000000   0.000000   0.000000   0.000000
    29  H   -0.000002  -0.000016  -0.000000  -0.000000  -0.000000  -0.000000
    30  H   -0.000000   0.000000  -0.000000  -0.000000   0.000000   0.000000
    31  H   -0.008631   0.008710  -0.000000   0.000000   0.000009   0.000003
    32  H   -0.034900   0.365108   0.000000  -0.000000  -0.000025   0.000001
    33  H   -0.034513   0.364938  -0.000000   0.000000   0.000026   0.000001
    34  H   -0.033768   0.388228  -0.000001   0.000000  -0.000043  -0.000001
              25         26         27         28         29         30
     1  C   -0.038572   0.000571  -0.000001  -0.000000   0.000000   0.000000
     2  C    0.365936  -0.011465  -0.000019  -0.000000   0.000000  -0.000000
     3  C   -0.028364  -0.021628   0.000588   0.000002   0.000007  -0.000000
     4  C    0.003687   0.335969   0.013275  -0.000015  -0.000023   0.000004
     5  C   -0.000158  -0.070033  -0.020580  -0.000193  -0.000215  -0.000061
     6  C    0.000003  -0.005587  -0.019992   0.000029   0.000054  -0.000131
     7  O   -0.000000   0.000992   0.241734  -0.000000  -0.000000   0.000000
     8  C   -0.000000   0.000609   0.008050  -0.000155  -0.000168   0.002137
     9  N    0.000000  -0.000001  -0.000032   0.000001   0.000001   0.000001
    10  O   -0.000000   0.000002   0.000132   0.000000  -0.000000   0.000000
    11  O    0.000000   0.000000  -0.000006  -0.000000  -0.000000   0.000002
    12  C   -0.000000  -0.000028  -0.000031   0.001621   0.001518  -0.002856
    13  O    0.000000  -0.000000   0.000001   0.000689   0.000627   0.031189
    14  N    0.000000  -0.000078   0.000015  -0.040508  -0.040245  -0.037839
    15  C    0.000000   0.000003  -0.000000   0.374107   0.374112   0.364318
    16  C   -0.000011   0.003390  -0.000194  -0.004121  -0.003813   0.002715
    17  C    0.000122   0.000114  -0.000002   0.003239   0.003213   0.000365
    18  C   -0.009874   0.006861   0.000014   0.000203   0.000128  -0.000004
    19  O    0.008683  -0.000074  -0.000000  -0.000002  -0.000002  -0.000000
    20  C   -0.000202   0.000004   0.000000  -0.000015  -0.000016   0.000000
    21  H   -0.002230  -0.000055   0.000000   0.000000  -0.000000  -0.000000
    22  H    0.005396   0.000365  -0.000002   0.000000  -0.000000  -0.000000
    23  H   -0.005096   0.000017  -0.000000   0.000000  -0.000000   0.000000
    24  H   -0.032644   0.007550   0.000003   0.000000  -0.000000   0.000000
    25  H    0.571593   0.000013  -0.000000   0.000000  -0.000000  -0.000000
    26  H    0.000013   0.623219   0.014645  -0.000000  -0.000000  -0.000000
    27  H   -0.000000   0.014645   0.328753   0.000000   0.000000  -0.000000
    28  H    0.000000  -0.000000   0.000000   0.561083  -0.042400  -0.021407
    29  H   -0.000000  -0.000000   0.000000  -0.042400   0.561430  -0.021816
    30  H   -0.000000  -0.000000  -0.000000  -0.021407  -0.021816   0.452455
    31  H   -0.000002   0.000022   0.000000   0.000873   0.001029  -0.000033
    32  H    0.000044  -0.000000  -0.000000  -0.000042   0.000126  -0.000000
    33  H   -0.000050  -0.000000  -0.000000   0.000125  -0.000040  -0.000000
    34  H    0.000006  -0.000000  -0.000000  -0.000000  -0.000000   0.000000
              31         32         33         34
     1  C    0.000001  -0.000000  -0.000005   0.000024
     2  C   -0.000164   0.000000   0.000074  -0.000057
     3  C    0.003174  -0.000206  -0.000473   0.000065
     4  C    0.001043  -0.000009  -0.000031   0.000009
     5  C    0.004500   0.000005   0.000011  -0.000001
     6  C   -0.000213   0.000000   0.000000  -0.000000
     7  O    0.000000  -0.000000   0.000000   0.000000
     8  C    0.000026   0.000000   0.000000   0.000000
     9  N    0.000000  -0.000000  -0.000000   0.000000
    10  O   -0.000000  -0.000000   0.000000   0.000000
    11  O    0.000000   0.000000  -0.000000   0.000000
    12  C   -0.000123  -0.000000   0.000000  -0.000000
    13  O   -0.000002   0.000000   0.000000  -0.000000
    14  N   -0.012829  -0.000000  -0.000002  -0.000000
    15  C    0.011857  -0.000015  -0.000014   0.000000
    16  C   -0.027900  -0.000167  -0.000129   0.000006
    17  C    0.336203   0.004615   0.005835   0.000200
    18  C   -0.040409  -0.004724  -0.005387   0.002800
    19  O   -0.008631  -0.034900  -0.034513  -0.033768
    20  C    0.008710   0.365108   0.364938   0.388228
    21  H   -0.000000   0.000000  -0.000000  -0.000001
    22  H    0.000000  -0.000000   0.000000   0.000000
    23  H    0.000009  -0.000025   0.000026  -0.000043
    24  H    0.000003   0.000001   0.000001  -0.000001
    25  H   -0.000002   0.000044  -0.000050   0.000006
    26  H    0.000022  -0.000000  -0.000000  -0.000000
    27  H    0.000000  -0.000000  -0.000000  -0.000000
    28  H    0.000873  -0.000042   0.000125  -0.000000
    29  H    0.001029   0.000126  -0.000040  -0.000000
    30  H   -0.000033  -0.000000  -0.000000   0.000000
    31  H    0.570375   0.002186   0.001737  -0.000170
    32  H    0.002186   0.585410  -0.047200  -0.030793
    33  H    0.001737  -0.047200   0.584351  -0.030300
    34  H   -0.000170  -0.030793  -0.030300   0.523066
 Mulliken charges:
               1
     1  C   -0.441046
     2  C   -0.333005
     3  C    0.134601
     4  C   -0.306243
     5  C    0.120097
     6  C    0.337445
     7  O   -0.610428
     8  C    0.071686
     9  N    0.406794
    10  O   -0.387780
    11  O   -0.373834
    12  C    0.628404
    13  O   -0.513065
    14  N   -0.623063
    15  C   -0.351235
    16  C    0.372901
    17  C   -0.282315
    18  C    0.355059
    19  O   -0.504082
    20  C   -0.223537
    21  H    0.149260
    22  H    0.146998
    23  H    0.161035
    24  H    0.139952
    25  H    0.161721
    26  H    0.114603
    27  H    0.433650
    28  H    0.166884
    29  H    0.166493
    30  H    0.230963
    31  H    0.148726
    32  H    0.160585
    33  H    0.161046
    34  H    0.180730
 Sum of Mulliken charges =  -0.00000
 Mulliken charges with hydrogens summed into heavy atoms:
               1
     1  C    0.016246
     2  C   -0.031332
     3  C    0.134601
     4  C   -0.191640
     5  C    0.120097
     6  C    0.337445
     7  O   -0.176778
     8  C    0.071686
     9  N    0.406794
    10  O   -0.387780
    11  O   -0.373834
    12  C    0.628404
    13  O   -0.513065
    14  N   -0.623063
    15  C    0.213105
    16  C    0.372901
    17  C   -0.133589
    18  C    0.355059
    19  O   -0.504082
    20  C    0.278824
 Electronic spatial extent (au):  <R**2>=           6229.0913
 Charge=              0.0000 electrons
 Dipole moment (field-independent basis, Debye):
[...]
     9  N   -0.000000  -0.000000   0.000000  -0.000122   0.003157  -0.036413
    10  O   -0.000000   0.000000  -0.000000   0.000011   0.000331  -0.001532
    11  O   -0.000000   0.000000  -0.000000   0.000001  -0.000034  -0.000610
    12  C   -0.000000  -0.000000   0.000021   0.000104  -0.029035  -0.018658
    13  O    0.000000   0.000000  -0.000000   0.000001   0.000443   0.004203
    14  N   -0.000000   0.000001  -0.000115   0.008618  -0.030647  -0.040114
    15  C   -0.000000   0.000000   0.000010  -0.000077   0.005896  -0.000565
    16  C    0.000014  -0.000086  -0.027516  -0.022537   0.488166  -0.014600
    17  C   -0.000142   0.010444  -0.059565  -0.085555  -0.045481   0.011945
    18  C   -0.002463  -0.052687   0.487104  -0.004363  -0.044088  -0.000123
    19  O   -0.003255  -0.003683  -0.067610   0.004129   0.000197  -0.000000
    20  C    0.000087  -0.000251   0.005489  -0.000093  -0.000003  -0.000000
    21  H    0.367510  -0.028094   0.004511   0.000016   0.000002  -0.000000
    22  H    0.376612  -0.035444  -0.002617   0.002205  -0.000090  -0.000001
    23  H    0.379535  -0.032082  -0.008215  -0.000183   0.000033   0.000000
    24  H   -0.037152   0.363267  -0.034960  -0.007201   0.000187  -0.000005
    25  H   -0.038468   0.365886  -0.028467   0.002949  -0.000168   0.000002
    26  H    0.000381  -0.010924  -0.021049   0.334638  -0.067907  -0.005371
    27  H    0.000001  -0.000016   0.000509   0.013720  -0.020103  -0.020183
    28  H   -0.000000  -0.000000   0.000001  -0.000009  -0.000160   0.000020
    29  H    0.000000   0.000000   0.000008  -0.000025  -0.000177   0.000057
    30  H    0.000000  -0.000000  -0.000000   0.000004  -0.000061  -0.000118
    31  H    0.000001  -0.000134   0.002867   0.000845   0.004273  -0.000188
    32  H   -0.000004   0.000015  -0.000220  -0.000011   0.000006   0.000000
    33  H   -0.000005   0.000061  -0.000454  -0.000025   0.000009   0.000000
    34  H    0.000026  -0.000057   0.000056   0.000008  -0.000001  -0.000000
               7          8          9         10         11         12
     1  C   -0.000000  -0.000000  -0.000000  -0.000000  -0.000000  -0.000000
     2  C   -0.000002   0.000001  -0.000000   0.000000   0.000000  -0.000000
     3  C    0.000853  -0.000065   0.000000  -0.000000  -0.000000   0.000021
     4  C   -0.002043   0.011704  -0.000122   0.000011   0.000001   0.000104
     5  C   -0.074552  -0.035413   0.003157   0.000331  -0.000034  -0.029035
     6  C    0.342412   0.377545  -0.036413  -0.001532  -0.000610  -0.018658
     7  O    8.180436  -0.073811  -0.003025  -0.001542  -0.000148   0.001760
     8  C   -0.073811   5.502938   0.151451  -0.080198  -0.082699   0.332264
     9  N   -0.003025   0.151451   5.938931   0.293324   0.302968  -0.040539
    10  O   -0.001542  -0.080198   0.293324   8.252348  -0.086023   0.000290
    11  O   -0.000148  -0.082699   0.302968  -0.086023   8.233407   0.002838
    12  C    0.001760   0.332264  -0.040539   0.000290   0.002838   4.363214
    13  O   -0.000009  -0.079265  -0.002354  -0.000155  -0.002555   0.588200
    14  N    0.000016  -0.082569   0.001976  -0.000037   0.000001   0.212000
    15  C    0.000002   0.006685  -0.000053   0.000001   0.000003  -0.035165
    16  C    0.002389  -0.032425   0.000417  -0.000037  -0.000016  -0.013010
    17  C   -0.000061  -0.001154   0.000003  -0.000000  -0.000000   0.003414
    18  C   -0.000006  -0.000014  -0.000000   0.000000  -0.000000   0.000030
    19  O   -0.000000  -0.000000   0.000000   0.000000   0.000000   0.000000
    20  C   -0.000000   0.000000  -0.000000   0.000000   0.000000  -0.000000
    21  H    0.000000   0.000000  -0.000000  -0.000000   0.000000  -0.000000
    22  H   -0.000000  -0.000000   0.000000   0.000000  -0.000000   0.000000
    23  H    0.000000  -0.000000  -0.000000   0.000000  -0.000000   0.000000
    24  H   -0.000000   0.000000  -0.000000   0.000000   0.000000  -0.000000
    25  H   -0.000000  -0.000000   0.000000  -0.000000   0.000000  -0.000000
    26  H    0.001260   0.000533  -0.000001   0.000001   0.000000  -0.000022
    27  H    0.238964   0.007665  -0.000054   0.000131  -0.000004  -0.000037
    28  H   -0.000000  -0.000143   0.000001   0.000000  -0.000000   0.001404
    29  H   -0.000000  -0.000166   0.000001  -0.000000  -0.000000   0.001364
    30  H    0.000000   0.001941   0.000000   0.000000   0.000001  -0.001513
    31  H    0.000000   0.000020   0.000000  -0.000000   0.000000  -0.000119
    32  H   -0.000000   0.000000  -0.000000  -0.000000   0.000000  -0.000000
    33  H    0.000000   0.000000  -0.000000   0.000000  -0.000000   0.000000
    34  H    0.000000   0.000000   0.000000   0.000000   0.000000  -0.000000
              13         14         15         16         17         18
     1  C    0.000000  -0.000000  -0.000000   0.000014  -0.000142  -0.002463
     2  C    0.000000   0.000001   0.000000  -0.000086   0.010444  -0.052687
     3  C   -0.000000  -0.000115   0.000010  -0.027516  -0.059565   0.487104
     4  C    0.000001   0.008618  -0.000077  -0.022537  -0.085555  -0.004363
     5  C    0.000443  -0.030647   0.005896   0.488166  -0.045481  -0.044088
     6  C    0.004203  -0.040114  -0.000565  -0.014600   0.011945  -0.000123
     7  O   -0.000009   0.000016   0.000002   0.002389  -0.000061  -0.000006
     8  C   -0.079265  -0.082569   0.006685  -0.032425  -0.001154  -0.000014
     9  N   -0.002354   0.001976  -0.000053   0.000417   0.000003  -0.000000
    10  O   -0.000155  -0.000037   0.000001  -0.000037  -0.000000   0.000000
    11  O   -0.002555   0.000001   0.000003  -0.000016  -0.000000  -0.000000
    12  C    0.588200   0.212000  -0.035165  -0.013010   0.003414   0.000030
    13  O    8.087480  -0.097464  -0.015422   0.000988  -0.000116   0.000000
    14  N   -0.097464   7.306464   0.285940   0.267501  -0.078848   0.004185
    15  C   -0.015422   0.285940   5.029556  -0.043048  -0.012394   0.000157
    16  C    0.000988   0.267501  -0.043048   4.615600   0.418759   0.021425
    17  C   -0.000116  -0.078848  -0.012394   0.418759   5.415894   0.413697
    18  C    0.000000   0.004185   0.000157   0.021425   0.413697   4.622858
    19  O   -0.000000  -0.000023   0.000002   0.003430  -0.062952   0.291600
    20  C   -0.000000  -0.000006  -0.000049   0.000556  -0.007859  -0.043139
    21  H   -0.000000   0.000000   0.000000  -0.000000   0.000003   0.000053
    22  H   -0.000000   0.000000   0.000000  -0.000005  -0.000014  -0.000141
    23  H    0.000000   0.000000  -0.000000  -0.000016  -0.000000   0.002862
    24  H    0.000000   0.000000  -0.000000   0.000013  -0.000167   0.004837
    25  H    0.000000   0.000000   0.000000  -0.000003   0.000057  -0.008261
    26  H   -0.000000  -0.000075   0.000002   0.003289   0.000197   0.006621
    27  H    0.000001   0.000013  -0.000000  -0.000147   0.000001   0.000008
    28  H    0.000571  -0.039620   0.373601  -0.003676   0.002764   0.000172
    29  H    0.000542  -0.039873   0.373395  -0.003372   0.003260   0.000117
    30  H    0.029034  -0.037218   0.365302   0.002588   0.000343  -0.000004
    31  H   -0.000001  -0.011926   0.011091  -0.028096   0.339377  -0.040128
    32  H    0.000000  -0.000000  -0.000015  -0.000158   0.004521  -0.004836
    33  H    0.000000  -0.000001  -0.000013  -0.000116   0.005651  -0.005450
    34  H   -0.000000  -0.000000   0.000000   0.000004   0.000216   0.002792
              19         20         21         22         23         24
     1  C   -0.003255   0.000087   0.367510   0.376612   0.379535  -0.037152
     2  C   -0.003683  -0.000251  -0.028094  -0.035444  -0.032082   0.363267
     3  C   -0.067610   0.005489   0.004511  -0.002617  -0.008215  -0.034960
     4  C    0.004129  -0.000093   0.000016   0.002205  -0.000183  -0.007201
     5  C    0.000197  -0.000003   0.000002  -0.000090   0.000033   0.000187
     6  C   -0.000000  -0.000000  -0.000000  -0.000001   0.000000  -0.000005
     7  O   -0.000000  -0.000000   0.000000  -0.000000   0.000000  -0.000000
     8  C   -0.000000   0.000000   0.000000  -0.000000  -0.000000   0.000000
     9  N    0.000000  -0.000000  -0.000000   0.000000  -0.000000  -0.000000
    10  O    0.000000   0.000000  -0.000000   0.000000   0.000000   0.000000
    11  O    0.000000   0.000000   0.000000  -0.000000  -0.000000   0.000000
    12  C    0.000000  -0.000000  -0.000000   0.000000   0.000000  -0.000000
    13  O   -0.000000  -0.000000  -0.000000  -0.000000   0.000000   0.000000
    14  N   -0.000023  -0.000006   0.000000   0.000000   0.000000   0.000000
    15  C    0.000002  -0.000049   0.000000   0.000000  -0.000000  -0.000000
    16  C    0.003430   0.000556  -0.000000  -0.000005  -0.000016   0.000013
    17  C   -0.062952  -0.007859   0.000003  -0.000014  -0.000000  -0.000167
    18  C    0.291600  -0.043139   0.000053  -0.000141   0.002862   0.004837
    19  O    8.199334   0.241290   0.000028   0.000028   0.006213   0.000277
    20  C    0.241290   4.902863  -0.000001  -0.000003  -0.000115  -0.000001
    21  H    0.000028  -0.000001   0.570184  -0.029542  -0.028497  -0.002882
    22  H    0.000028  -0.000003  -0.029542   0.570697  -0.030701  -0.004187
    23  H    0.006213  -0.000115  -0.028497  -0.030701   0.549579   0.004934
    24  H    0.000277  -0.000001  -0.002882  -0.004187   0.004934   0.599981
    25  H    0.006765  -0.000159  -0.002325   0.005096  -0.004584  -0.034566
    26  H   -0.000074   0.000004  -0.000038   0.000206   0.000015   0.007871
    27  H   -0.000000   0.000000  -0.000000  -0.000001  -0.000000   0.000004
    28  H   -0.000001  -0.000014   0.000000   0.000000   0.000000   0.000000
    29  H   -0.000002  -0.000017  -0.000000  -0.000000  -0.000000  -0.000000
    30  H   -0.000000   0.000000  -0.000000  -0.000000   0.000000   0.000000
    31  H   -0.008507   0.008409  -0.000000   0.000000   0.000007   0.000003
    32  H   -0.033984   0.364207   0.000000   0.000000  -0.000018   0.000001
    33  H   -0.033687   0.364193   0.000000   0.000000   0.000024   0.000001
    34  H   -0.032396   0.386959  -0.000001  -0.000000  -0.000041  -0.000001
              25         26         27         28         29         30
     1  C   -0.038468   0.000381   0.000001  -0.000000   0.000000   0.000000
     2  C    0.365886  -0.010924  -0.000016  -0.000000   0.000000  -0.000000
     3  C   -0.028467  -0.021049   0.000509   0.000001   0.000008  -0.000000
     4  C    0.002949   0.334638   0.013720  -0.000009  -0.000025   0.000004
     5  C   -0.000168  -0.067907  -0.020103  -0.000160  -0.000177  -0.000061
     6  C    0.000002  -0.005371  -0.020183   0.000020   0.000057  -0.000118
     7  O   -0.000000   0.001260   0.238964  -0.000000  -0.000000   0.000000
     8  C   -0.000000   0.000533   0.007665  -0.000143  -0.000166   0.001941
     9  N    0.000000  -0.000001  -0.000054   0.000001   0.000001   0.000000
    10  O   -0.000000   0.000001   0.000131   0.000000  -0.000000   0.000000
    11  O    0.000000   0.000000  -0.000004  -0.000000  -0.000000   0.000001
    12  C   -0.000000  -0.000022  -0.000037   0.001404   0.001364  -0.001513
    13  O    0.000000  -0.000000   0.000001   0.000571   0.000542   0.029034
    14  N    0.000000  -0.000075   0.000013  -0.039620  -0.039873  -0.037218
    15  C    0.000000   0.000002  -0.000000   0.373601   0.373395   0.365302
    16  C   -0.000003   0.003289  -0.000147  -0.003676  -0.003372   0.002588
    17  C    0.000057   0.000197   0.000001   0.002764   0.003260   0.000343
    18  C   -0.008261   0.006621   0.000008   0.000172   0.000117  -0.000004
    19  O    0.006765  -0.000074  -0.000000  -0.000001  -0.000002  -0.000000
    20  C   -0.000159   0.000004   0.000000  -0.000014  -0.000017   0.000000
    21  H   -0.002325  -0.000038  -0.000000   0.000000  -0.000000  -0.000000
    22  H    0.005096   0.000206  -0.000001   0.000000  -0.000000  -0.000000
    23  H   -0.004584   0.000015  -0.000000   0.000000  -0.000000   0.000000
    24  H   -0.034566   0.007871   0.000004   0.000000  -0.000000   0.000000
    25  H    0.574717   0.000034  -0.000001   0.000000  -0.000000  -0.000000
    26  H    0.000034   0.617759   0.013716   0.000000  -0.000000  -0.000000
    27  H   -0.000001   0.013716   0.334425  -0.000000   0.000000  -0.000000
    28  H    0.000000   0.000000  -0.000000   0.561563  -0.043246  -0.021479
    29  H   -0.000000  -0.000000   0.000000  -0.043246   0.561776  -0.021554
    30  H   -0.000000  -0.000000  -0.000000  -0.021479  -0.021554   0.453744
    31  H   -0.000001   0.000020   0.000000   0.001117   0.001012  -0.000043
    32  H    0.000031  -0.000000   0.000000  -0.000042   0.000129  -0.000000
    33  H   -0.000041  -0.000000  -0.000000   0.000117  -0.000039  -0.000000
    34  H    0.000008  -0.000000  -0.000000  -0.000000  -0.000000   0.000000
              31         32         33         34
     1  C    0.000001  -0.000004  -0.000005   0.000026
     2  C   -0.000134   0.000015   0.000061  -0.000057
     3  C    0.002867  -0.000220  -0.000454   0.000056
     4  C    0.000845  -0.000011  -0.000025   0.000008
     5  C    0.004273   0.000006   0.000009  -0.000001
     6  C   -0.000188   0.000000   0.000000  -0.000000
     7  O    0.000000  -0.000000   0.000000   0.000000
     8  C    0.000020   0.000000   0.000000   0.000000
     9  N    0.000000  -0.000000  -0.000000   0.000000
    10  O   -0.000000  -0.000000   0.000000   0.000000
    11  O    0.000000   0.000000  -0.000000   0.000000
    12  C   -0.000119  -0.000000   0.000000  -0.000000
    13  O   -0.000001   0.000000   0.000000  -0.000000
    14  N   -0.011926  -0.000000  -0.000001  -0.000000
    15  C    0.011091  -0.000015  -0.000013   0.000000
    16  C   -0.028096  -0.000158  -0.000116   0.000004
    17  C    0.339377   0.004521   0.005651   0.000216
    18  C   -0.040128  -0.004836  -0.005450   0.002792
    19  O   -0.008507  -0.033984  -0.033687  -0.032396
    20  C    0.008409   0.364207   0.364193   0.386959
    21  H   -0.000000   0.000000   0.000000  -0.000001
    22  H    0.000000   0.000000   0.000000  -0.000000
    23  H    0.000007  -0.000018   0.000024  -0.000041
    24  H    0.000003   0.000001   0.000001  -0.000001
    25  H   -0.000001   0.000031  -0.000041   0.000008
    26  H    0.000020  -0.000000  -0.000000  -0.000000
    27  H    0.000000   0.000000  -0.000000  -0.000000
    28  H    0.001117  -0.000042   0.000117  -0.000000
    29  H    0.001012   0.000129  -0.000039  -0.000000
    30  H   -0.000043  -0.000000  -0.000000   0.000000
    31  H    0.566484   0.002236   0.001769  -0.000157
    32  H    0.002236   0.583876  -0.046946  -0.030386
    33  H    0.001769  -0.046946   0.582947  -0.029984
    34  H   -0.000157  -0.030386  -0.029984   0.521298
 Mulliken charges:
               1
     1  C   -0.440526
     2  C   -0.331620
     3  C    0.140424
     4  C   -0.312936
     5  C    0.119687
     6  C    0.339451
     7  O   -0.612893
     8  C    0.075175
     9  N    0.390334
    10  O   -0.376912
    11  O   -0.367131
    12  C    0.631194
    13  O   -0.514120
    14  N   -0.628178
    15  C   -0.344843
    16  C    0.363725
    17  C   -0.276239
    18  C    0.347183
    19  O   -0.507119
    20  C   -0.222347
    21  H    0.149074
    22  H    0.147901
    23  H    0.161251
    24  H    0.139748
    25  H    0.161497
    26  H    0.118913
    27  H    0.431388
    28  H    0.167058
    29  H    0.166812
    30  H    0.229033
    31  H    0.149771
    32  H    0.161598
    33  H    0.161990
    34  H    0.181657
 Sum of Mulliken charges =  -0.00000
 Mulliken charges with hydrogens summed into heavy atoms:
               1
     1  C    0.017700
     2  C   -0.030374
     3  C    0.140424
     4  C   -0.194023
     5  C    0.119687
     6  C    0.339451
     7  O   -0.181505
     8  C    0.075175
     9  N    0.390334
    10  O   -0.376912
    11  O   -0.367131
    12  C    0.631194
    13  O   -0.514120
    14  N   -0.628178
    15  C    0.218061
    16  C    0.363725
    17  C   -0.126468
    18  C    0.347183
    19  O   -0.507119
    20  C    0.282898
 Electronic spatial extent (au):  <R**2>=           6339.4281
 Charge=              0.0000 electrons
 Dipole moment (field-independent basis, Debye):
    X=            -10.5415    Y=              1.0822    Z=             -0.6844  Tot=             10.6190
 Quadrupole moment (field-independent basis, Debye-Ang):
   XX=           -142.5300   YY=           -100.0160   ZZ=           -116.8323
   XY=             -5.1272   XZ=             -0.3999   YZ=              3.2247
 Traceless Quadrupole moment (field-independent basis, Debye-Ang):
   XX=            -22.7372   YY=             19.7767   ZZ=              2.9605
   XY=             -5.1272   XZ=             -0.3999   YZ=              3.2247
 Octapole moment (field-independent basis, Debye-Ang**2):
  XXX=           -178.4488  YYY=              4.0712  ZZZ=              0.2418  XYY=            -44.5915
  XXY=             31.5760  XXZ=             -0.7411  XZZ=              6.8299  YZZ=              1.9458
  YYZ=            -10.8242  XYZ=              5.1534
 Hexadecapole moment (field-independent basis, Debye-Ang**3):
 XXXX=          -6217.0514 YYYY=          -1844.4848 ZZZZ=           -256.0017 XXXY=           -129.2492
 XXXZ=             34.9993 YYYX=            -77.0847 YYYZ=             26.3590 ZZZX=              5.0437
 ZZZY=              3.4517 XXYY=          -1290.7941 XXZZ=          -1030.4702 YYZZ=           -375.8704
 XXYZ=             17.3636 YYXZ=            -14.1221 ZZXY=            -13.7783
 N-N= 1.580735493490D+03 E-N=-5.468213579191D+03  KE= 9.804124404829D+02
 No NMR shielding tensors so no spin-rotation constants.
 Leave Link  601 at Fri Nov  4 18:29:28 2022, MaxMem=   805306368 cpu:               0.9 elap:               0.2
 (Enter /home/wykgroup/appl/g16/l9999.exe)
 1\1\GINC-NODE64\FOpt\RB3LYP\6-31G(d)\C13H14N2O5\WYKGROUP\04-Nov-2022\0
 \\#p b3lyp/6-31g(d) opt SCF=XQC\\Gaussian input prepared by ASE\\0,1\C
 ,-3.2703014239,2.5209180115,-0.410161106\C,-2.4718830346,2.1104865634,
 0.8406710159\C,-1.3544632149,1.1342074812,0.5489443362\C,-0.0341028011
 ,1.5342993642,0.4710606762\C,1.0294773627,0.6553948572,0.1770089644\C,
 2.4060594562,1.083336639,0.1114033252\O,2.7683363035,2.3538824776,0.37
 76443404\C,3.3765083518,0.1731562153,-0.2018876451\N,4.7822415277,0.58
 65085405,-0.2288669983\O,5.0870233217,1.5012307745,-0.9915328791\O,5.5
 51410368,-0.0064485799,0.520036127\C,3.1085820804,-1.2250703156,-0.493
 3261124\O,3.9650654136,-2.0351606541,-0.8208363051\N,1.7452634978,-1.5
 988817754,-0.3900786967\C,1.437951908,-3.0020993538,-0.6646449998\C,0.
 7332751136,-0.7095760941,-0.0689419925\C,-0.6058638103,-1.1401892057,0
 .0163904065\C,-1.6236252493,-0.2406134024,0.3196215833\O,-2.9315055206
 ,-0.5964294938,0.4189157058\C,-3.2970822578,-1.9575502694,0.2268602314
 \H,-4.0604759818,3.2322811075,-0.1450069093\H,-2.6207630461,2.99612222
 16,-1.1537194267\H,-3.7402854425,1.6497310055,-0.876178784\H,-2.043202
 9365,3.0056561084,1.3077059413\H,-3.1573750962,1.6696713492,1.57335339
 87\H,0.1648788672,2.5924598904,0.6345489637\H,2.0118723147,2.852782687
 8,0.7208088166\H,0.9903446716,-3.4778803839,0.214362427\H,0.7524050493
 ,-3.0878225048,-1.5143647792\H,2.3793177014,-3.4920499858,-0.905237589
 2\H,-0.8423479573,-2.178626128,-0.1588271975\H,-3.0481329072,-2.298899
 2449,-0.7856593279\H,-2.8103561655,-2.6089760332,0.9632589363\H,-4.378
 2464638,-1.9958528695,0.3666735524\\Version=ES64L-G16RevB.01\State=1-A
 \HF=-989.3373426\RMSD=4.096e-09\RMSF=4.375e-06\Dipole=-4.1354974,-0.23
 90155,0.5430798\Quadrupole=-16.1715907,13.5165401,2.6550506,5.6017032,
 2.4256389,3.2973341\PG=C01 [X(C13H14N2O5)]\\@


 IBM COMPATIBILITY IS LIKE PREGNANCY. YOU ARE OR
 OR YOU ARE NOT. -- ADAM OSBORNE
 Job cpu time:       0 days  2 hours  2 minutes 33.5 seconds.
 Elapsed time:       0 days  0 hours 17 minutes 36.7 seconds.
 File lengths (MBytes):  RWF=     73 Int=      0 D2E=      0 Chk=     10 Scr=      1
 Normal termination of Gaussian 16 at Fri Nov  4 18:29:28 2022.
