 Entering Gaussian System, Link 0=/home/wykgroup/appl/g16/g16
 Input=calculation/no_transfer_pubchem_sampling_0_b3lyp/60580044_rwf.com
 Output=calculation/no_transfer_pubchem_sampling_0_b3lyp/60580044_rwf.log
 Initial command:
 /home/wykgroup/appl/g16/l1.exe "/userdata/scratch/wykgroup/khs/calculation/no_transfer_pubchem_sampling_0_b3lyp/60580044_rwf/Gau-31195.inp" -scrdir="/userdata/scratch/wykgroup/khs/calculation/no_transfer_pubchem_sampling_0_b3lyp/60580044_rwf/"
 Entering Link 1 = /home/wykgroup/appl/g16/l1.exe PID=     31196.
  
 Copyright (c) 1988-2017, Gaussian, Inc.  All Rights Reserved.
  
 This is part of the Gaussian(R) 16 program.  It is based on
 the Gaussian(R) 09 system (copyright 2009, Gaussian, Inc.),
 the Gaussian(R) 03 system (copyright 2003, Gaussian, Inc.),
 the Gaussian(R) 98 system (copyright 1998, Gaussian, Inc.),
 the Gaussian(R) 94 system (copyright 1995, Gaussian, Inc.),
 the Gaussian 92(TM) system (copyright 1992, Gaussian, Inc.),
 the Gaussian 90(TM) system (copyright 1990, Gaussian, Inc.),
 the Gaussian 88(TM) system (copyright 1988, Gaussian, Inc.),
 the Gaussian 86(TM) system (copyright 1986, Carnegie Mellon
 University), and the Gaussian 82(TM) system (copyright 1983,
 Carnegie Mellon University). Gaussian is a federally registered
 trademark of Gaussian, Inc.
  
 This software contains proprietary and confidential information,
 including trade secrets, belonging to Gaussian, Inc.
  
 This software is provided under written license and may be
 used, copied, transmitted, or stored only in accord with that
 written license.
  
 The following legend is applicable only to US Government
 contracts under FAR:
  
                    RESTRICTED RIGHTS LEGEND
  
 Use, reproduction and disclosure by the US Government is
 subject to restrictions as set forth in subparagraphs (a)
 and (c) of the Commercial Computer Software - Restricted
 Rights clause in FAR 52.227-19.
  
 Gaussian, Inc.
 340 Quinnipiac St., Bldg. 40, Wallingford CT 06492
  
  
 ---------------------------------------------------------------
 Warning -- This program may not be used in any manner that
 competes with the business of Gaussian, Inc. or will provide
 assistance to any competitor of Gaussian, Inc.  The licensee
 of this program is prohibited from giving any competitor of
 Gaussian, Inc. access to this program.  By using this program,
 the user acknowledges that Gaussian, Inc. is engaged in the
 business of creating and licensing software in the field of
 computational chemistry and represents and warrants to the
 licensee that it is not a competitor of Gaussian, Inc. and that
 it will not use this program in any manner prohibited above.
 ---------------------------------------------------------------
  

 Cite this work as:
 Gaussian 16, Revision B.01,
 M. J. Frisch, G. W. Trucks, H. B. Schlegel, G. E. Scuseria, 
 M. A. Robb, J. R. Cheeseman, G. Scalmani, V. Barone, 
 G. A. Petersson, H. Nakatsuji, X. Li, M. Caricato, A. V. Marenich, 
 J. Bloino, B. G. Janesko, R. Gomperts, B. Mennucci, H. P. Hratchian, 
 J. V. Ortiz, A. F. Izmaylov, J. L. Sonnenberg, D. Williams-Young, 
 F. Ding, F. Lipparini, F. Egidi, J. Goings, B. Peng, A. Petrone, 
 T. Henderson, D. Ranasinghe, V. G. Zakrzewski, J. Gao, N. Rega, 
 G. Zheng, W. Liang, M. Hada, M. Ehara, K. Toyota, R. Fukuda, 
 J. Hasegawa, M. Ishida, T. Nakajima, Y. Honda, O. Kitao, H. Nakai, 
 T. Vreven, K. Throssell, J. A. Montgomery, Jr., J. E. Peralta, 
 F. Ogliaro, M. J. Bearpark, J. J. Heyd, E. N. Brothers, K. N. Kudin, 
 V. N. Staroverov, T. A. Keith, R. Kobayashi, J. Normand, 
 K. Raghavachari, A. P. Rendell, J. C. Burant, S. S. Iyengar, 
 J. Tomasi, M. Cossi, J. M. Millam, M. Klene, C. Adamo, R. Cammi, 
 J. W. Ochterski, R. L. Martin, K. Morokuma, O. Farkas, 
 J. B. Foresman, and D. J. Fox, Gaussian, Inc., Wallingford CT, 2016.
 
 ******************************************
 Gaussian 16:  ES64L-G16RevB.01 20-Dec-2017
                 5-Nov-2022 
 ******************************************
 %chk=calculation/no_transfer_pubchem_sampling_0_b3lyp/60580044_rwf.chk
 %rwf=calculation/no_transfer_pubchem_sampling_0_b3lyp/60580044_rwf.rwf
 %nprocshared=14
 Will use up to   14 processors via shared memory.
 %mem=3GB
 -------------------------------------------------------------------
 #p b3lyp/6-31g(d) 6D 10F nosymm GFInput td=(50-50,nstate=2) SCF=XQC
 -------------------------------------------------------------------
 1/38=1,172=1/1;
 2/12=2,15=1,17=6,18=5,40=1/2;
 3/5=1,6=6,7=1,8=22,11=9,24=10,25=1,30=1,74=-5/1,2,3,8;
 4//1;
 5/5=2,8=3,13=1,38=5/2,8;
 8/6=1,10=2,108=2/1;
 9/41=2,42=1,48=2,70=2/14;
 6/7=2,8=2,9=2,10=2/1;
 99/5=1,9=1/99;
 Leave Link    1 at Sat Nov  5 11:02:27 2022, MaxMem=   402653184 cpu:               1.8 elap:               0.3
 (Enter /home/wykgroup/appl/g16/l101.exe)
 ------------------------------
 Gaussian input prepared by ASE
 ------------------------------
 Symbolic Z-matrix:
 Charge =  0 Multiplicity = 1
 C                    -1.44744   3.5103   -0.16931 
 C                    -2.49955   2.85633  -1.05177 
 O                    -3.10019   1.71831  -0.39103 
 C                    -2.50935   0.51627  -0.59405 
 O                    -1.56563   0.32297  -1.35797 
 N                    -3.11483  -0.44021   0.15253 
 C                    -2.80255  -1.86937   0.05182 
 C                    -1.61876  -2.25971   0.95584 
 N                    -0.4318   -1.49135   0.62477 
 C                     0.64513  -1.47353   1.4565 
 O                     0.6741   -2.13249   2.49626 
 C                     1.80969  -0.60971   1.04536 
 C                     3.00225  -0.76899   1.76404 
 C                     4.12927  -0.01256   1.46798 
 C                     4.07291   0.92624   0.4324 
 N                     5.22203   1.70844   0.13195 
 C                     5.27466   2.92089  -0.50185 
 C                     6.59824   3.29626  -0.54485 
 C                     7.27569   2.23839   0.10074 
 C                     8.75209   2.09384   0.29921 
 F                     9.35959   3.29476   0.15519 
 F                     9.30637   1.25732  -0.60599 
 F                     9.05684   1.6176    1.52007 
 N                     6.44766   1.28196   0.50839 
 C                     2.89405   1.0961   -0.30003 
 C                     1.76822   0.33711   0.01226 
 C                    -4.04008  -2.72271   0.38831 
 C                    -5.1228   -2.85464  -0.70514 
 C                    -5.8795   -1.54917  -0.99711 
 C                    -6.11267  -3.96546  -0.31861 
 H                    -0.60922   2.82977   0.00994 
 H                    -1.05902   4.41083  -0.6591 
 H                    -1.87351   3.80116   0.79627 
 H                    -3.33713   3.5324   -1.24122 
 H                    -2.07801   2.52769  -2.00397 
 H                    -3.86751  -0.14212   0.75708 
 H                    -2.51226  -2.05142  -0.99062 
 H                    -1.86736  -2.09521   2.01118 
 H                    -1.42391  -3.3356    0.84202 
 H                    -0.44273  -0.97282  -0.24576 
 H                     3.0183   -1.49575   2.569 
 H                     5.05201  -0.13606   2.02191 
 H                     4.38203   3.42675  -0.83535 
 H                     7.01779   4.19934  -0.96075 
 H                     2.85238   1.79913  -1.12549 
 H                     0.86401   0.50328  -0.56634 
 H                    -3.67915  -3.7312    0.62555 
 H                    -4.49559  -2.34747   1.31856 
 H                    -4.61546  -3.16584  -1.63101 
 H                    -6.65513  -1.7176   -1.7532 
 H                    -6.38105  -1.17702  -0.09299 
 H                    -5.2211   -0.75817  -1.36652 
 H                    -6.86789  -4.1078   -1.09989 
 H                    -5.6032   -4.92398  -0.1649 
 H                    -6.64094  -3.71546   0.6108 
 
 ITRead=  0  0  0  0  0  0  0  0  0  0  0  0  0  0  0  0  0  0  0  0
 ITRead=  0  0  0  0  0  0  0  0  0  0  0  0  0  0  0  0  0  0  0  0
 ITRead=  0  0  0  0  0  0  0  0  0  0  0  0  0  0  0
 MicOpt= -1 -1 -1 -1 -1 -1 -1 -1 -1 -1 -1 -1 -1 -1 -1 -1 -1 -1 -1 -1
 MicOpt= -1 -1 -1 -1 -1 -1 -1 -1 -1 -1 -1 -1 -1 -1 -1 -1 -1 -1 -1 -1
 MicOpt= -1 -1 -1 -1 -1 -1 -1 -1 -1 -1 -1 -1 -1 -1 -1
 NAtoms=     55 NQM=       55 NQMF=       0 NMMI=      0 NMMIF=      0
                NMic=       0 NMicF=      0.
                    Isotopes and Nuclear Properties:
 (Nuclear quadrupole moments (NQMom) in fm**2, nuclear magnetic moments (NMagM)
  in nuclear magnetons)

  Atom         1           2           3           4           5           6           7           8           9          10
 IAtWgt=          12          12          16          12          16          14          12          12          14          12
 AtmWgt=  12.0000000  12.0000000  15.9949146  12.0000000  15.9949146  14.0030740  12.0000000  12.0000000  14.0030740  12.0000000
 NucSpn=           0           0           0           0           0           2           0           0           2           0
 AtZEff=  -0.0000000  -0.0000000  -0.0000000  -0.0000000  -0.0000000  -0.0000000  -0.0000000  -0.0000000  -0.0000000  -0.0000000
 NQMom=    0.0000000   0.0000000   0.0000000   0.0000000   0.0000000   2.0440000   0.0000000   0.0000000   2.0440000   0.0000000
 NMagM=    0.0000000   0.0000000   0.0000000   0.0000000   0.0000000   0.4037610   0.0000000   0.0000000   0.4037610   0.0000000
 AtZNuc=   6.0000000   6.0000000   8.0000000   6.0000000   8.0000000   7.0000000   6.0000000   6.0000000   7.0000000   6.0000000

  Atom        11          12          13          14          15          16          17          18          19          20
 IAtWgt=          16          12          12          12          12          14          12          12          12          12
 AtmWgt=  15.9949146  12.0000000  12.0000000  12.0000000  12.0000000  14.0030740  12.0000000  12.0000000  12.0000000  12.0000000
 NucSpn=           0           0           0           0           0           2           0           0           0           0
 AtZEff=  -0.0000000  -0.0000000  -0.0000000  -0.0000000  -0.0000000  -0.0000000  -0.0000000  -0.0000000  -0.0000000  -0.0000000
 NQMom=    0.0000000   0.0000000   0.0000000   0.0000000   0.0000000   2.0440000   0.0000000   0.0000000   0.0000000   0.0000000
 NMagM=    0.0000000   0.0000000   0.0000000   0.0000000   0.0000000   0.4037610   0.0000000   0.0000000   0.0000000   0.0000000
 AtZNuc=   8.0000000   6.0000000   6.0000000   6.0000000   6.0000000   7.0000000   6.0000000   6.0000000   6.0000000   6.0000000

  Atom        21          22          23          24          25          26          27          28          29          30
 IAtWgt=          19          19          19          14          12          12          12          12          12          12
 AtmWgt=  18.9984032  18.9984032  18.9984032  14.0030740  12.0000000  12.0000000  12.0000000  12.0000000  12.0000000  12.0000000
 NucSpn=           1           1           1           2           0           0           0           0           0           0
 AtZEff=  -0.0000000  -0.0000000  -0.0000000  -0.0000000  -0.0000000  -0.0000000  -0.0000000  -0.0000000  -0.0000000  -0.0000000
 NQMom=    0.0000000   0.0000000   0.0000000   2.0440000   0.0000000   0.0000000   0.0000000   0.0000000   0.0000000   0.0000000
 NMagM=    2.6288670   2.6288670   2.6288670   0.4037610   0.0000000   0.0000000   0.0000000   0.0000000   0.0000000   0.0000000
 AtZNuc=   9.0000000   9.0000000   9.0000000   7.0000000   6.0000000   6.0000000   6.0000000   6.0000000   6.0000000   6.0000000

  Atom        31          32          33          34          35          36          37          38          39          40
 IAtWgt=           1           1           1           1           1           1           1           1           1           1
 AtmWgt=   1.0078250   1.0078250   1.0078250   1.0078250   1.0078250   1.0078250   1.0078250   1.0078250   1.0078250   1.0078250
 NucSpn=           1           1           1           1           1           1           1           1           1           1
 AtZEff=  -0.0000000  -0.0000000  -0.0000000  -0.0000000  -0.0000000  -0.0000000  -0.0000000  -0.0000000  -0.0000000  -0.0000000
 NQMom=    0.0000000   0.0000000   0.0000000   0.0000000   0.0000000   0.0000000   0.0000000   0.0000000   0.0000000   0.0000000
 NMagM=    2.7928460   2.7928460   2.7928460   2.7928460   2.7928460   2.7928460   2.7928460   2.7928460   2.7928460   2.7928460
 AtZNuc=   1.0000000   1.0000000   1.0000000   1.0000000   1.0000000   1.0000000   1.0000000   1.0000000   1.0000000   1.0000000

  Atom        41          42          43          44          45          46          47          48          49          50
 IAtWgt=           1           1           1           1           1           1           1           1           1           1
 AtmWgt=   1.0078250   1.0078250   1.0078250   1.0078250   1.0078250   1.0078250   1.0078250   1.0078250   1.0078250   1.0078250
 NucSpn=           1           1           1           1           1           1           1           1           1           1
 AtZEff=  -0.0000000  -0.0000000  -0.0000000  -0.0000000  -0.0000000  -0.0000000  -0.0000000  -0.0000000  -0.0000000  -0.0000000
 NQMom=    0.0000000   0.0000000   0.0000000   0.0000000   0.0000000   0.0000000   0.0000000   0.0000000   0.0000000   0.0000000
 NMagM=    2.7928460   2.7928460   2.7928460   2.7928460   2.7928460   2.7928460   2.7928460   2.7928460   2.7928460   2.7928460
 AtZNuc=   1.0000000   1.0000000   1.0000000   1.0000000   1.0000000   1.0000000   1.0000000   1.0000000   1.0000000   1.0000000

  Atom        51          52          53          54          55
 IAtWgt=           1           1           1           1           1
 AtmWgt=   1.0078250   1.0078250   1.0078250   1.0078250   1.0078250
 NucSpn=           1           1           1           1           1
 AtZEff=  -0.0000000  -0.0000000  -0.0000000  -0.0000000  -0.0000000
 NQMom=    0.0000000   0.0000000   0.0000000   0.0000000   0.0000000
 NMagM=    2.7928460   2.7928460   2.7928460   2.7928460   2.7928460
 AtZNuc=   1.0000000   1.0000000   1.0000000   1.0000000   1.0000000
 Leave Link  101 at Sat Nov  5 11:02:27 2022, MaxMem=   402653184 cpu:               1.5 elap:               0.3
 (Enter /home/wykgroup/appl/g16/l202.exe)
 Symmetry turned off by external request.
 Stoichiometry    C20H25F3N4O3
 Framework group  C1[X(C20H25F3N4O3)]
 Deg. of freedom   159
 Full point group                 C1      NOp   1
                          Input orientation:                          
 ---------------------------------------------------------------------
 Center     Atomic      Atomic             Coordinates (Angstroms)
 Number     Number       Type             X           Y           Z
 ---------------------------------------------------------------------
      1          6           0       -1.447436    3.510301   -0.169309
      2          6           0       -2.499549    2.856334   -1.051774
      3          8           0       -3.100195    1.718312   -0.391025
      4          6           0       -2.509350    0.516265   -0.594047
      5          8           0       -1.565625    0.322968   -1.357973
      6          7           0       -3.114828   -0.440208    0.152526
      7          6           0       -2.802550   -1.869369    0.051823
      8          6           0       -1.618764   -2.259709    0.955836
      9          7           0       -0.431801   -1.491347    0.624772
     10          6           0        0.645133   -1.473534    1.456501
     11          8           0        0.674099   -2.132489    2.496258
     12          6           0        1.809693   -0.609710    1.045359
     13          6           0        3.002245   -0.768986    1.764044
     14          6           0        4.129273   -0.012559    1.467983
     15          6           0        4.072913    0.926241    0.432403
     16          7           0        5.222031    1.708440    0.131948
     17          6           0        5.274661    2.920887   -0.501845
     18          6           0        6.598238    3.296262   -0.544849
     19          6           0        7.275695    2.238387    0.100739
     20          6           0        8.752087    2.093844    0.299215
     21          9           0        9.359589    3.294761    0.155195
     22          9           0        9.306372    1.257317   -0.605994
     23          9           0        9.056842    1.617600    1.520067
     24          7           0        6.447660    1.281958    0.508387
     25          6           0        2.894047    1.096101   -0.300031
     26          6           0        1.768221    0.337111    0.012256
     27          6           0       -4.040079   -2.722712    0.388312
     28          6           0       -5.122796   -2.854642   -0.705145
     29          6           0       -5.879499   -1.549173   -0.997110
     30          6           0       -6.112672   -3.965464   -0.318612
     31          1           0       -0.609219    2.829771    0.009937
     32          1           0       -1.059024    4.410826   -0.659101
     33          1           0       -1.873509    3.801159    0.796267
     34          1           0       -3.337135    3.532400   -1.241222
     35          1           0       -2.078012    2.527691   -2.003970
     36          1           0       -3.867512   -0.142119    0.757080
     37          1           0       -2.512256   -2.051417   -0.990624
     38          1           0       -1.867358   -2.095215    2.011178
     39          1           0       -1.423909   -3.335599    0.842016
     40          1           0       -0.442725   -0.972823   -0.245756
     41          1           0        3.018296   -1.495750    2.568998
     42          1           0        5.052012   -0.136061    2.021914
     43          1           0        4.382028    3.426752   -0.835346
     44          1           0        7.017794    4.199338   -0.960753
     45          1           0        2.852377    1.799127   -1.125495
     46          1           0        0.864008    0.503283   -0.566336
     47          1           0       -3.679150   -3.731204    0.625548
     48          1           0       -4.495590   -2.347474    1.318558
     49          1           0       -4.615463   -3.165844   -1.631006
     50          1           0       -6.655133   -1.717600   -1.753205
     51          1           0       -6.381054   -1.177018   -0.092989
     52          1           0       -5.221099   -0.758169   -1.366520
     53          1           0       -6.867892   -4.107801   -1.099890
     54          1           0       -5.603197   -4.923981   -0.164898
     55          1           0       -6.640936   -3.715463    0.610796
 ---------------------------------------------------------------------
 Rotational constants (GHZ):           0.3647299           0.0447746           0.0412543
 Leave Link  202 at Sat Nov  5 11:02:27 2022, MaxMem=   402653184 cpu:               0.8 elap:               0.1
 (Enter /home/wykgroup/appl/g16/l301.exe)
 Standard basis: 6-31G(d) (6D, 10F)
 Ernie: Thresh=  0.10000D-02 Tol=  0.10000D-05 Strict=F.
 AO basis set in the form of general basis input (Overlap normalization):
      1 0
 S   6 1.00       0.000000000000
      0.3047524880D+04  0.1834737132D-02
      0.4573695180D+03  0.1403732281D-01
      0.1039486850D+03  0.6884262226D-01
      0.2921015530D+02  0.2321844432D+00
      0.9286662960D+01  0.4679413484D+00
      0.3163926960D+01  0.3623119853D+00
 SP   3 1.00       0.000000000000
      0.7868272350D+01 -0.1193324198D+00  0.6899906659D-01
      0.1881288540D+01 -0.1608541517D+00  0.3164239610D+00
      0.5442492580D+00  0.1143456438D+01  0.7443082909D+00
 SP   1 1.00       0.000000000000
      0.1687144782D+00  0.1000000000D+01  0.1000000000D+01
 D   1 1.00       0.000000000000
      0.8000000000D+00  0.1000000000D+01
 ****
      2 0
 S   6 1.00       0.000000000000
      0.3047524880D+04  0.1834737132D-02
      0.4573695180D+03  0.1403732281D-01
      0.1039486850D+03  0.6884262226D-01
      0.2921015530D+02  0.2321844432D+00
      0.9286662960D+01  0.4679413484D+00
      0.3163926960D+01  0.3623119853D+00
 SP   3 1.00       0.000000000000
      0.7868272350D+01 -0.1193324198D+00  0.6899906659D-01
      0.1881288540D+01 -0.1608541517D+00  0.3164239610D+00
      0.5442492580D+00  0.1143456438D+01  0.7443082909D+00
 SP   1 1.00       0.000000000000
      0.1687144782D+00  0.1000000000D+01  0.1000000000D+01
 D   1 1.00       0.000000000000
      0.8000000000D+00  0.1000000000D+01
 ****
      3 0
 S   6 1.00       0.000000000000
      0.5484671660D+04  0.1831074430D-02
      0.8252349460D+03  0.1395017220D-01
      0.1880469580D+03  0.6844507810D-01
      0.5296450000D+02  0.2327143360D+00
      0.1689757040D+02  0.4701928980D+00
      0.5799635340D+01  0.3585208530D+00
 SP   3 1.00       0.000000000000
      0.1553961625D+02 -0.1107775495D+00  0.7087426823D-01
      0.3599933586D+01 -0.1480262627D+00  0.3397528391D+00
      0.1013761750D+01  0.1130767015D+01  0.7271585773D+00
 SP   1 1.00       0.000000000000
      0.2700058226D+00  0.1000000000D+01  0.1000000000D+01
 D   1 1.00       0.000000000000
      0.8000000000D+00  0.1000000000D+01
 ****
      4 0
 S   6 1.00       0.000000000000
      0.3047524880D+04  0.1834737132D-02
      0.4573695180D+03  0.1403732281D-01
      0.1039486850D+03  0.6884262226D-01
      0.2921015530D+02  0.2321844432D+00
      0.9286662960D+01  0.4679413484D+00
      0.3163926960D+01  0.3623119853D+00
 SP   3 1.00       0.000000000000
      0.7868272350D+01 -0.1193324198D+00  0.6899906659D-01
      0.1881288540D+01 -0.1608541517D+00  0.3164239610D+00
      0.5442492580D+00  0.1143456438D+01  0.7443082909D+00
 SP   1 1.00       0.000000000000
      0.1687144782D+00  0.1000000000D+01  0.1000000000D+01
 D   1 1.00       0.000000000000
      0.8000000000D+00  0.1000000000D+01
 ****
      5 0
 S   6 1.00       0.000000000000
      0.5484671660D+04  0.1831074430D-02
      0.8252349460D+03  0.1395017220D-01
      0.1880469580D+03  0.6844507810D-01
      0.5296450000D+02  0.2327143360D+00
      0.1689757040D+02  0.4701928980D+00
      0.5799635340D+01  0.3585208530D+00
 SP   3 1.00       0.000000000000
      0.1553961625D+02 -0.1107775495D+00  0.7087426823D-01
      0.3599933586D+01 -0.1480262627D+00  0.3397528391D+00
      0.1013761750D+01  0.1130767015D+01  0.7271585773D+00
 SP   1 1.00       0.000000000000
      0.2700058226D+00  0.1000000000D+01  0.1000000000D+01
 D   1 1.00       0.000000000000
      0.8000000000D+00  0.1000000000D+01
 ****
      6 0
 S   6 1.00       0.000000000000
      0.4173511460D+04  0.1834772160D-02
      0.6274579110D+03  0.1399462700D-01
      0.1429020930D+03  0.6858655181D-01
      0.4023432930D+02  0.2322408730D+00
      0.1282021290D+02  0.4690699481D+00
      0.4390437010D+01  0.3604551991D+00
 SP   3 1.00       0.000000000000
      0.1162636186D+02 -0.1149611817D+00  0.6757974388D-01
      0.2716279807D+01 -0.1691174786D+00  0.3239072959D+00
      0.7722183966D+00  0.1145851947D+01  0.7408951398D+00
 SP   1 1.00       0.000000000000
      0.2120314975D+00  0.1000000000D+01  0.1000000000D+01
 D   1 1.00       0.000000000000
      0.8000000000D+00  0.1000000000D+01
 ****
      7 0
 S   6 1.00       0.000000000000
      0.3047524880D+04  0.1834737132D-02
      0.4573695180D+03  0.1403732281D-01
      0.1039486850D+03  0.6884262226D-01
      0.2921015530D+02  0.2321844432D+00
      0.9286662960D+01  0.4679413484D+00
      0.3163926960D+01  0.3623119853D+00
 SP   3 1.00       0.000000000000
      0.7868272350D+01 -0.1193324198D+00  0.6899906659D-01
      0.1881288540D+01 -0.1608541517D+00  0.3164239610D+00
      0.5442492580D+00  0.1143456438D+01  0.7443082909D+00
 SP   1 1.00       0.000000000000
      0.1687144782D+00  0.1000000000D+01  0.1000000000D+01
 D   1 1.00       0.000000000000
      0.8000000000D+00  0.1000000000D+01
 ****
      8 0
 S   6 1.00       0.000000000000
      0.3047524880D+04  0.1834737132D-02
      0.4573695180D+03  0.1403732281D-01
      0.1039486850D+03  0.6884262226D-01
      0.2921015530D+02  0.2321844432D+00
      0.9286662960D+01  0.4679413484D+00
      0.3163926960D+01  0.3623119853D+00
 SP   3 1.00       0.000000000000
      0.7868272350D+01 -0.1193324198D+00  0.6899906659D-01
      0.1881288540D+01 -0.1608541517D+00  0.3164239610D+00
      0.5442492580D+00  0.1143456438D+01  0.7443082909D+00
 SP   1 1.00       0.000000000000
      0.1687144782D+00  0.1000000000D+01  0.1000000000D+01
 D   1 1.00       0.000000000000
      0.8000000000D+00  0.1000000000D+01
 ****
      9 0
 S   6 1.00       0.000000000000
      0.4173511460D+04  0.1834772160D-02
      0.6274579110D+03  0.1399462700D-01
      0.1429020930D+03  0.6858655181D-01
      0.4023432930D+02  0.2322408730D+00
      0.1282021290D+02  0.4690699481D+00
      0.4390437010D+01  0.3604551991D+00
 SP   3 1.00       0.000000000000
      0.1162636186D+02 -0.1149611817D+00  0.6757974388D-01
      0.2716279807D+01 -0.1691174786D+00  0.3239072959D+00
      0.7722183966D+00  0.1145851947D+01  0.7408951398D+00
 SP   1 1.00       0.000000000000
      0.2120314975D+00  0.1000000000D+01  0.1000000000D+01
 D   1 1.00       0.000000000000
      0.8000000000D+00  0.1000000000D+01
 ****
     10 0
 S   6 1.00       0.000000000000
      0.3047524880D+04  0.1834737132D-02
      0.4573695180D+03  0.1403732281D-01
      0.1039486850D+03  0.6884262226D-01
      0.2921015530D+02  0.2321844432D+00
      0.9286662960D+01  0.4679413484D+00
      0.3163926960D+01  0.3623119853D+00
 SP   3 1.00       0.000000000000
      0.7868272350D+01 -0.1193324198D+00  0.6899906659D-01
      0.1881288540D+01 -0.1608541517D+00  0.3164239610D+00
      0.5442492580D+00  0.1143456438D+01  0.7443082909D+00
 SP   1 1.00       0.000000000000
      0.1687144782D+00  0.1000000000D+01  0.1000000000D+01
 D   1 1.00       0.000000000000
      0.8000000000D+00  0.1000000000D+01
 ****
     11 0
 S   6 1.00       0.000000000000
      0.5484671660D+04  0.1831074430D-02
      0.8252349460D+03  0.1395017220D-01
      0.1880469580D+03  0.6844507810D-01
      0.5296450000D+02  0.2327143360D+00
      0.1689757040D+02  0.4701928980D+00
      0.5799635340D+01  0.3585208530D+00
 SP   3 1.00       0.000000000000
      0.1553961625D+02 -0.1107775495D+00  0.7087426823D-01
      0.3599933586D+01 -0.1480262627D+00  0.3397528391D+00
      0.1013761750D+01  0.1130767015D+01  0.7271585773D+00
 SP   1 1.00       0.000000000000
      0.2700058226D+00  0.1000000000D+01  0.1000000000D+01
 D   1 1.00       0.000000000000
      0.8000000000D+00  0.1000000000D+01
 ****
     12 0
 S   6 1.00       0.000000000000
      0.3047524880D+04  0.1834737132D-02
      0.4573695180D+03  0.1403732281D-01
      0.1039486850D+03  0.6884262226D-01
      0.2921015530D+02  0.2321844432D+00
      0.9286662960D+01  0.4679413484D+00
      0.3163926960D+01  0.3623119853D+00
 SP   3 1.00       0.000000000000
      0.7868272350D+01 -0.1193324198D+00  0.6899906659D-01
      0.1881288540D+01 -0.1608541517D+00  0.3164239610D+00
      0.5442492580D+00  0.1143456438D+01  0.7443082909D+00
 SP   1 1.00       0.000000000000
      0.1687144782D+00  0.1000000000D+01  0.1000000000D+01
 D   1 1.00       0.000000000000
      0.8000000000D+00  0.1000000000D+01
 ****
     13 0
 S   6 1.00       0.000000000000
      0.3047524880D+04  0.1834737132D-02
      0.4573695180D+03  0.1403732281D-01
      0.1039486850D+03  0.6884262226D-01
      0.2921015530D+02  0.2321844432D+00
      0.9286662960D+01  0.4679413484D+00
      0.3163926960D+01  0.3623119853D+00
 SP   3 1.00       0.000000000000
      0.7868272350D+01 -0.1193324198D+00  0.6899906659D-01
      0.1881288540D+01 -0.1608541517D+00  0.3164239610D+00
      0.5442492580D+00  0.1143456438D+01  0.7443082909D+00
 SP   1 1.00       0.000000000000
      0.1687144782D+00  0.1000000000D+01  0.1000000000D+01
 D   1 1.00       0.000000000000
      0.8000000000D+00  0.1000000000D+01
 ****
     14 0
 S   6 1.00       0.000000000000
      0.3047524880D+04  0.1834737132D-02
      0.4573695180D+03  0.1403732281D-01
      0.1039486850D+03  0.6884262226D-01
      0.2921015530D+02  0.2321844432D+00
      0.9286662960D+01  0.4679413484D+00
      0.3163926960D+01  0.3623119853D+00
 SP   3 1.00       0.000000000000
      0.7868272350D+01 -0.1193324198D+00  0.6899906659D-01
      0.1881288540D+01 -0.1608541517D+00  0.3164239610D+00
      0.5442492580D+00  0.1143456438D+01  0.7443082909D+00
 SP   1 1.00       0.000000000000
      0.1687144782D+00  0.1000000000D+01  0.1000000000D+01
 D   1 1.00       0.000000000000
      0.8000000000D+00  0.1000000000D+01
 ****
     15 0
 S   6 1.00       0.000000000000
      0.3047524880D+04  0.1834737132D-02
      0.4573695180D+03  0.1403732281D-01
      0.1039486850D+03  0.6884262226D-01
      0.2921015530D+02  0.2321844432D+00
      0.9286662960D+01  0.4679413484D+00
      0.3163926960D+01  0.3623119853D+00
 SP   3 1.00       0.000000000000
      0.7868272350D+01 -0.1193324198D+00  0.6899906659D-01
      0.1881288540D+01 -0.1608541517D+00  0.3164239610D+00
      0.5442492580D+00  0.1143456438D+01  0.7443082909D+00
 SP   1 1.00       0.000000000000
      0.1687144782D+00  0.1000000000D+01  0.1000000000D+01
 D   1 1.00       0.000000000000
      0.8000000000D+00  0.1000000000D+01
 ****
     16 0
 S   6 1.00       0.000000000000
      0.4173511460D+04  0.1834772160D-02
      0.6274579110D+03  0.1399462700D-01
      0.1429020930D+03  0.6858655181D-01
      0.4023432930D+02  0.2322408730D+00
      0.1282021290D+02  0.4690699481D+00
      0.4390437010D+01  0.3604551991D+00
 SP   3 1.00       0.000000000000
      0.1162636186D+02 -0.1149611817D+00  0.6757974388D-01
      0.2716279807D+01 -0.1691174786D+00  0.3239072959D+00
      0.7722183966D+00  0.1145851947D+01  0.7408951398D+00
 SP   1 1.00       0.000000000000
      0.2120314975D+00  0.1000000000D+01  0.1000000000D+01
 D   1 1.00       0.000000000000
      0.8000000000D+00  0.1000000000D+01
 ****
     17 0
 S   6 1.00       0.000000000000
      0.3047524880D+04  0.1834737132D-02
      0.4573695180D+03  0.1403732281D-01
      0.1039486850D+03  0.6884262226D-01
      0.2921015530D+02  0.2321844432D+00
      0.9286662960D+01  0.4679413484D+00
      0.3163926960D+01  0.3623119853D+00
 SP   3 1.00       0.000000000000
      0.7868272350D+01 -0.1193324198D+00  0.6899906659D-01
      0.1881288540D+01 -0.1608541517D+00  0.3164239610D+00
      0.5442492580D+00  0.1143456438D+01  0.7443082909D+00
 SP   1 1.00       0.000000000000
      0.1687144782D+00  0.1000000000D+01  0.1000000000D+01
 D   1 1.00       0.000000000000
      0.8000000000D+00  0.1000000000D+01
 ****
     18 0
 S   6 1.00       0.000000000000
      0.3047524880D+04  0.1834737132D-02
      0.4573695180D+03  0.1403732281D-01
      0.1039486850D+03  0.6884262226D-01
      0.2921015530D+02  0.2321844432D+00
      0.9286662960D+01  0.4679413484D+00
      0.3163926960D+01  0.3623119853D+00
 SP   3 1.00       0.000000000000
      0.7868272350D+01 -0.1193324198D+00  0.6899906659D-01
      0.1881288540D+01 -0.1608541517D+00  0.3164239610D+00
      0.5442492580D+00  0.1143456438D+01  0.7443082909D+00
 SP   1 1.00       0.000000000000
      0.1687144782D+00  0.1000000000D+01  0.1000000000D+01
 D   1 1.00       0.000000000000
      0.8000000000D+00  0.1000000000D+01
 ****
     19 0
 S   6 1.00       0.000000000000
      0.3047524880D+04  0.1834737132D-02
      0.4573695180D+03  0.1403732281D-01
      0.1039486850D+03  0.6884262226D-01
      0.2921015530D+02  0.2321844432D+00
      0.9286662960D+01  0.4679413484D+00
      0.3163926960D+01  0.3623119853D+00
 SP   3 1.00       0.000000000000
      0.7868272350D+01 -0.1193324198D+00  0.6899906659D-01
      0.1881288540D+01 -0.1608541517D+00  0.3164239610D+00
      0.5442492580D+00  0.1143456438D+01  0.7443082909D+00
 SP   1 1.00       0.000000000000
      0.1687144782D+00  0.1000000000D+01  0.1000000000D+01
 D   1 1.00       0.000000000000
      0.8000000000D+00  0.1000000000D+01
 ****
     20 0
 S   6 1.00       0.000000000000
      0.3047524880D+04  0.1834737132D-02
      0.4573695180D+03  0.1403732281D-01
      0.1039486850D+03  0.6884262226D-01
      0.2921015530D+02  0.2321844432D+00
      0.9286662960D+01  0.4679413484D+00
      0.3163926960D+01  0.3623119853D+00
 SP   3 1.00       0.000000000000
      0.7868272350D+01 -0.1193324198D+00  0.6899906659D-01
      0.1881288540D+01 -0.1608541517D+00  0.3164239610D+00
      0.5442492580D+00  0.1143456438D+01  0.7443082909D+00
 SP   1 1.00       0.000000000000
      0.1687144782D+00  0.1000000000D+01  0.1000000000D+01
 D   1 1.00       0.000000000000
      0.8000000000D+00  0.1000000000D+01
 ****
     21 0
 S   6 1.00       0.000000000000
      0.7001713090D+04  0.1819616901D-02
      0.1051366090D+04  0.1391607961D-01
      0.2392856900D+03  0.6840532453D-01
      0.6739744530D+02  0.2331857601D+00
      0.2151995730D+02  0.4712674392D+00
      0.7403101300D+01  0.3566185462D+00
 SP   3 1.00       0.000000000000
      0.2084795280D+02 -0.1085069751D+00  0.7162872424D-01
      0.4808308340D+01 -0.1464516581D+00  0.3459121027D+00
      0.1344069860D+01  0.1128688581D+01  0.7224699564D+00
 SP   1 1.00       0.000000000000
      0.3581513930D+00  0.1000000000D+01  0.1000000000D+01
 D   1 1.00       0.000000000000
      0.8000000000D+00  0.1000000000D+01
 ****
     22 0
 S   6 1.00       0.000000000000
      0.7001713090D+04  0.1819616901D-02
      0.1051366090D+04  0.1391607961D-01
      0.2392856900D+03  0.6840532453D-01
      0.6739744530D+02  0.2331857601D+00
      0.2151995730D+02  0.4712674392D+00
      0.7403101300D+01  0.3566185462D+00
 SP   3 1.00       0.000000000000
      0.2084795280D+02 -0.1085069751D+00  0.7162872424D-01
      0.4808308340D+01 -0.1464516581D+00  0.3459121027D+00
      0.1344069860D+01  0.1128688581D+01  0.7224699564D+00
 SP   1 1.00       0.000000000000
      0.3581513930D+00  0.1000000000D+01  0.1000000000D+01
 D   1 1.00       0.000000000000
      0.8000000000D+00  0.1000000000D+01
 ****
     23 0
 S   6 1.00       0.000000000000
      0.7001713090D+04  0.1819616901D-02
      0.1051366090D+04  0.1391607961D-01
      0.2392856900D+03  0.6840532453D-01
      0.6739744530D+02  0.2331857601D+00
      0.2151995730D+02  0.4712674392D+00
      0.7403101300D+01  0.3566185462D+00
 SP   3 1.00       0.000000000000
      0.2084795280D+02 -0.1085069751D+00  0.7162872424D-01
      0.4808308340D+01 -0.1464516581D+00  0.3459121027D+00
      0.1344069860D+01  0.1128688581D+01  0.7224699564D+00
 SP   1 1.00       0.000000000000
      0.3581513930D+00  0.1000000000D+01  0.1000000000D+01
 D   1 1.00       0.000000000000
      0.8000000000D+00  0.1000000000D+01
 ****
     24 0
 S   6 1.00       0.000000000000
      0.4173511460D+04  0.1834772160D-02
      0.6274579110D+03  0.1399462700D-01
      0.1429020930D+03  0.6858655181D-01
      0.4023432930D+02  0.2322408730D+00
      0.1282021290D+02  0.4690699481D+00
      0.4390437010D+01  0.3604551991D+00
 SP   3 1.00       0.000000000000
      0.1162636186D+02 -0.1149611817D+00  0.6757974388D-01
      0.2716279807D+01 -0.1691174786D+00  0.3239072959D+00
      0.7722183966D+00  0.1145851947D+01  0.7408951398D+00
 SP   1 1.00       0.000000000000
      0.2120314975D+00  0.1000000000D+01  0.1000000000D+01
 D   1 1.00       0.000000000000
      0.8000000000D+00  0.1000000000D+01
 ****
     25 0
 S   6 1.00       0.000000000000
      0.3047524880D+04  0.1834737132D-02
      0.4573695180D+03  0.1403732281D-01
      0.1039486850D+03  0.6884262226D-01
      0.2921015530D+02  0.2321844432D+00
      0.9286662960D+01  0.4679413484D+00
      0.3163926960D+01  0.3623119853D+00
 SP   3 1.00       0.000000000000
      0.7868272350D+01 -0.1193324198D+00  0.6899906659D-01
      0.1881288540D+01 -0.1608541517D+00  0.3164239610D+00
      0.5442492580D+00  0.1143456438D+01  0.7443082909D+00
 SP   1 1.00       0.000000000000
      0.1687144782D+00  0.1000000000D+01  0.1000000000D+01
 D   1 1.00       0.000000000000
      0.8000000000D+00  0.1000000000D+01
 ****
     26 0
 S   6 1.00       0.000000000000
      0.3047524880D+04  0.1834737132D-02
      0.4573695180D+03  0.1403732281D-01
      0.1039486850D+03  0.6884262226D-01
      0.2921015530D+02  0.2321844432D+00
      0.9286662960D+01  0.4679413484D+00
      0.3163926960D+01  0.3623119853D+00
 SP   3 1.00       0.000000000000
      0.7868272350D+01 -0.1193324198D+00  0.6899906659D-01
      0.1881288540D+01 -0.1608541517D+00  0.3164239610D+00
      0.5442492580D+00  0.1143456438D+01  0.7443082909D+00
 SP   1 1.00       0.000000000000
      0.1687144782D+00  0.1000000000D+01  0.1000000000D+01
 D   1 1.00       0.000000000000
      0.8000000000D+00  0.1000000000D+01
 ****
     27 0
 S   6 1.00       0.000000000000
      0.3047524880D+04  0.1834737132D-02
      0.4573695180D+03  0.1403732281D-01
      0.1039486850D+03  0.6884262226D-01
      0.2921015530D+02  0.2321844432D+00
      0.9286662960D+01  0.4679413484D+00
      0.3163926960D+01  0.3623119853D+00
 SP   3 1.00       0.000000000000
      0.7868272350D+01 -0.1193324198D+00  0.6899906659D-01
      0.1881288540D+01 -0.1608541517D+00  0.3164239610D+00
      0.5442492580D+00  0.1143456438D+01  0.7443082909D+00
 SP   1 1.00       0.000000000000
      0.1687144782D+00  0.1000000000D+01  0.1000000000D+01
 D   1 1.00       0.000000000000
      0.8000000000D+00  0.1000000000D+01
 ****
     28 0
 S   6 1.00       0.000000000000
      0.3047524880D+04  0.1834737132D-02
      0.4573695180D+03  0.1403732281D-01
      0.1039486850D+03  0.6884262226D-01
      0.2921015530D+02  0.2321844432D+00
      0.9286662960D+01  0.4679413484D+00
      0.3163926960D+01  0.3623119853D+00
 SP   3 1.00       0.000000000000
      0.7868272350D+01 -0.1193324198D+00  0.6899906659D-01
      0.1881288540D+01 -0.1608541517D+00  0.3164239610D+00
      0.5442492580D+00  0.1143456438D+01  0.7443082909D+00
 SP   1 1.00       0.000000000000
      0.1687144782D+00  0.1000000000D+01  0.1000000000D+01
 D   1 1.00       0.000000000000
      0.8000000000D+00  0.1000000000D+01
 ****
     29 0
 S   6 1.00       0.000000000000
      0.3047524880D+04  0.1834737132D-02
      0.4573695180D+03  0.1403732281D-01
      0.1039486850D+03  0.6884262226D-01
      0.2921015530D+02  0.2321844432D+00
      0.9286662960D+01  0.4679413484D+00
      0.3163926960D+01  0.3623119853D+00
 SP   3 1.00       0.000000000000
      0.7868272350D+01 -0.1193324198D+00  0.6899906659D-01
      0.1881288540D+01 -0.1608541517D+00  0.3164239610D+00
      0.5442492580D+00  0.1143456438D+01  0.7443082909D+00
 SP   1 1.00       0.000000000000
      0.1687144782D+00  0.1000000000D+01  0.1000000000D+01
 D   1 1.00       0.000000000000
      0.8000000000D+00  0.1000000000D+01
 ****
     30 0
 S   6 1.00       0.000000000000
      0.3047524880D+04  0.1834737132D-02
      0.4573695180D+03  0.1403732281D-01
      0.1039486850D+03  0.6884262226D-01
      0.2921015530D+02  0.2321844432D+00
      0.9286662960D+01  0.4679413484D+00
      0.3163926960D+01  0.3623119853D+00
 SP   3 1.00       0.000000000000
      0.7868272350D+01 -0.1193324198D+00  0.6899906659D-01
      0.1881288540D+01 -0.1608541517D+00  0.3164239610D+00
      0.5442492580D+00  0.1143456438D+01  0.7443082909D+00
 SP   1 1.00       0.000000000000
      0.1687144782D+00  0.1000000000D+01  0.1000000000D+01
 D   1 1.00       0.000000000000
      0.8000000000D+00  0.1000000000D+01
 ****
     31 0
 S   3 1.00       0.000000000000
      0.1873113696D+02  0.3349460434D-01
      0.2825394365D+01  0.2347269535D+00
      0.6401216923D+00  0.8137573261D+00
 S   1 1.00       0.000000000000
      0.1612777588D+00  0.1000000000D+01
 ****
     32 0
 S   3 1.00       0.000000000000
      0.1873113696D+02  0.3349460434D-01
      0.2825394365D+01  0.2347269535D+00
      0.6401216923D+00  0.8137573261D+00
 S   1 1.00       0.000000000000
      0.1612777588D+00  0.1000000000D+01
 ****
     33 0
 S   3 1.00       0.000000000000
      0.1873113696D+02  0.3349460434D-01
      0.2825394365D+01  0.2347269535D+00
      0.6401216923D+00  0.8137573261D+00
 S   1 1.00       0.000000000000
      0.1612777588D+00  0.1000000000D+01
 ****
     34 0
 S   3 1.00       0.000000000000
      0.1873113696D+02  0.3349460434D-01
      0.2825394365D+01  0.2347269535D+00
      0.6401216923D+00  0.8137573261D+00
 S   1 1.00       0.000000000000
      0.1612777588D+00  0.1000000000D+01
 ****
     35 0
 S   3 1.00       0.000000000000
      0.1873113696D+02  0.3349460434D-01
      0.2825394365D+01  0.2347269535D+00
      0.6401216923D+00  0.8137573261D+00
 S   1 1.00       0.000000000000
      0.1612777588D+00  0.1000000000D+01
 ****
     36 0
 S   3 1.00       0.000000000000
      0.1873113696D+02  0.3349460434D-01
      0.2825394365D+01  0.2347269535D+00
      0.6401216923D+00  0.8137573261D+00
 S   1 1.00       0.000000000000
      0.1612777588D+00  0.1000000000D+01
 ****
     37 0
 S   3 1.00       0.000000000000
      0.1873113696D+02  0.3349460434D-01
      0.2825394365D+01  0.2347269535D+00
      0.6401216923D+00  0.8137573261D+00
 S   1 1.00       0.000000000000
      0.1612777588D+00  0.1000000000D+01
 ****
     38 0
 S   3 1.00       0.000000000000
      0.1873113696D+02  0.3349460434D-01
      0.2825394365D+01  0.2347269535D+00
      0.6401216923D+00  0.8137573261D+00
 S   1 1.00       0.000000000000
      0.1612777588D+00  0.1000000000D+01
 ****
     39 0
 S   3 1.00       0.000000000000
      0.1873113696D+02  0.3349460434D-01
      0.2825394365D+01  0.2347269535D+00
      0.6401216923D+00  0.8137573261D+00
 S   1 1.00       0.000000000000
      0.1612777588D+00  0.1000000000D+01
 ****
     40 0
 S   3 1.00       0.000000000000
      0.1873113696D+02  0.3349460434D-01
      0.2825394365D+01  0.2347269535D+00
      0.6401216923D+00  0.8137573261D+00
 S   1 1.00       0.000000000000
      0.1612777588D+00  0.1000000000D+01
 ****
     41 0
 S   3 1.00       0.000000000000
      0.1873113696D+02  0.3349460434D-01
      0.2825394365D+01  0.2347269535D+00
      0.6401216923D+00  0.8137573261D+00
 S   1 1.00       0.000000000000
      0.1612777588D+00  0.1000000000D+01
 ****
     42 0
 S   3 1.00       0.000000000000
      0.1873113696D+02  0.3349460434D-01
      0.2825394365D+01  0.2347269535D+00
      0.6401216923D+00  0.8137573261D+00
 S   1 1.00       0.000000000000
      0.1612777588D+00  0.1000000000D+01
 ****
     43 0
 S   3 1.00       0.000000000000
      0.1873113696D+02  0.3349460434D-01
      0.2825394365D+01  0.2347269535D+00
      0.6401216923D+00  0.8137573261D+00
 S   1 1.00       0.000000000000
      0.1612777588D+00  0.1000000000D+01
 ****
     44 0
 S   3 1.00       0.000000000000
      0.1873113696D+02  0.3349460434D-01
      0.2825394365D+01  0.2347269535D+00
      0.6401216923D+00  0.8137573261D+00
 S   1 1.00       0.000000000000
      0.1612777588D+00  0.1000000000D+01
 ****
     45 0
 S   3 1.00       0.000000000000
      0.1873113696D+02  0.3349460434D-01
      0.2825394365D+01  0.2347269535D+00
      0.6401216923D+00  0.8137573261D+00
 S   1 1.00       0.000000000000
      0.1612777588D+00  0.1000000000D+01
 ****
     46 0
 S   3 1.00       0.000000000000
      0.1873113696D+02  0.3349460434D-01
      0.2825394365D+01  0.2347269535D+00
      0.6401216923D+00  0.8137573261D+00
 S   1 1.00       0.000000000000
      0.1612777588D+00  0.1000000000D+01
 ****
     47 0
 S   3 1.00       0.000000000000
      0.1873113696D+02  0.3349460434D-01
      0.2825394365D+01  0.2347269535D+00
      0.6401216923D+00  0.8137573261D+00
 S   1 1.00       0.000000000000
      0.1612777588D+00  0.1000000000D+01
 ****
     48 0
 S   3 1.00       0.000000000000
      0.1873113696D+02  0.3349460434D-01
      0.2825394365D+01  0.2347269535D+00
      0.6401216923D+00  0.8137573261D+00
 S   1 1.00       0.000000000000
      0.1612777588D+00  0.1000000000D+01
 ****
     49 0
 S   3 1.00       0.000000000000
      0.1873113696D+02  0.3349460434D-01
      0.2825394365D+01  0.2347269535D+00
      0.6401216923D+00  0.8137573261D+00
 S   1 1.00       0.000000000000
      0.1612777588D+00  0.1000000000D+01
 ****
     50 0
 S   3 1.00       0.000000000000
      0.1873113696D+02  0.3349460434D-01
      0.2825394365D+01  0.2347269535D+00
      0.6401216923D+00  0.8137573261D+00
 S   1 1.00       0.000000000000
      0.1612777588D+00  0.1000000000D+01
 ****
     51 0
 S   3 1.00       0.000000000000
      0.1873113696D+02  0.3349460434D-01
      0.2825394365D+01  0.2347269535D+00
      0.6401216923D+00  0.8137573261D+00
 S   1 1.00       0.000000000000
      0.1612777588D+00  0.1000000000D+01
 ****
     52 0
 S   3 1.00       0.000000000000
      0.1873113696D+02  0.3349460434D-01
      0.2825394365D+01  0.2347269535D+00
      0.6401216923D+00  0.8137573261D+00
 S   1 1.00       0.000000000000
      0.1612777588D+00  0.1000000000D+01
 ****
     53 0
 S   3 1.00       0.000000000000
      0.1873113696D+02  0.3349460434D-01
      0.2825394365D+01  0.2347269535D+00
      0.6401216923D+00  0.8137573261D+00
 S   1 1.00       0.000000000000
      0.1612777588D+00  0.1000000000D+01
 ****
     54 0
 S   3 1.00       0.000000000000
      0.1873113696D+02  0.3349460434D-01
      0.2825394365D+01  0.2347269535D+00
      0.6401216923D+00  0.8137573261D+00
 S   1 1.00       0.000000000000
      0.1612777588D+00  0.1000000000D+01
 ****
     55 0
 S   3 1.00       0.000000000000
      0.1873113696D+02  0.3349460434D-01
      0.2825394365D+01  0.2347269535D+00
      0.6401216923D+00  0.8137573261D+00
 S   1 1.00       0.000000000000
      0.1612777588D+00  0.1000000000D+01
 ****

   500 basis functions,   940 primitive gaussians,   500 cartesian basis functions
   112 alpha electrons      112 beta electrons
       nuclear repulsion energy      2836.9722850290 Hartrees.
 IExCor=  402 DFT=T Ex+Corr=B3LYP ExCW=0 ScaHFX=  0.200000
 ScaDFX=  0.800000  0.720000  1.000000  0.810000 ScalE2=  1.000000  1.000000
 IRadAn=      5 IRanWt=     -1 IRanGd=            0 ICorTp=0 IEmpDi=  4
 NAtoms=   55 NActive=   55 NUniq=   55 SFac= 1.00D+00 NAtFMM=   60 NAOKFM=F Big=F
 Integral buffers will be    131072 words long.
 Regular integral format.
 Two-electron integral symmetry is turned off.
 Leave Link  301 at Sat Nov  5 11:02:27 2022, MaxMem=   402653184 cpu:               0.9 elap:               0.2
 (Enter /home/wykgroup/appl/g16/l302.exe)
 NPDir=0 NMtPBC=     1 NCelOv=     1 NCel=       1 NClECP=     1 NCelD=      1
         NCelK=      1 NCelE2=     1 NClLst=     1 CellRange=     0.0.
 One-electron integrals computed using PRISM.
 NBasis=   500 RedAO= T EigKep=  3.89D-04  NBF=   500
 NBsUse=   500 1.00D-06 EigRej= -1.00D+00 NBFU=   500
 Precomputing XC quadrature grid using
 IXCGrd= 4 IRadAn=           5 IRanWt=          -1 IRanGd=           0 AccXCQ= 0.00D+00.
 Generated NRdTot=       0 NPtTot=           0 NUsed=           0 NTot=          32
 NSgBfM=   473   472   472   473   473 MxSgAt=    55 MxSgA2=    55.
 Leave Link  302 at Sat Nov  5 11:02:29 2022, MaxMem=   402653184 cpu:              17.3 elap:               2.0
 (Enter /home/wykgroup/appl/g16/l303.exe)
 DipDrv:  MaxL=1.
 Leave Link  303 at Sat Nov  5 11:02:30 2022, MaxMem=   402653184 cpu:               2.0 elap:               0.3
 (Enter /home/wykgroup/appl/g16/l308.exe)
 Leave Link  308 at Sat Nov  5 11:02:30 2022, MaxMem=   402653184 cpu:               1.7 elap:               0.3
 (Enter /home/wykgroup/appl/g16/l401.exe)
 ExpMin= 1.61D-01 ExpMax= 7.00D+03 ExpMxC= 1.05D+03 IAcc=3 IRadAn=         5 AccDes= 0.00D+00
 Harris functional with IExCor=  402 and IRadAn=       5 diagonalized for initial guess.
 HarFok:  IExCor=  402 AccDes= 0.00D+00 IRadAn=         5 IDoV= 1 UseB2=F ITyADJ=14
 ICtDFT=  3500011 ScaDFX=  1.000000  1.000000  1.000000  1.000000
 FoFCou: FMM=F IPFlag=           0 FMFlag=      100000 FMFlg1=           0
         NFxFlg=           0 DoJE=T BraDBF=F KetDBF=T FulRan=T
         wScrn=  0.000000 ICntrl=       500 IOpCl=  0 I1Cent=   200000004 NGrid=           0
         NMat0=    1 NMatS0=      1 NMatT0=    0 NMatD0=    1 NMtDS0=    0 NMtDT0=    0
 Symmetry not used in FoFCou.
 Harris En= -1521.40812896456    
 JPrj=0 DoOrth=F DoCkMO=F.
 Leave Link  401 at Sat Nov  5 11:02:36 2022, MaxMem=   402653184 cpu:              47.9 elap:               5.9
 (Enter /home/wykgroup/appl/g16/l502.exe)
 Two-electron integral symmetry not used.
 Closed shell SCF:
 Using DIIS extrapolation, IDIIS=  1040.
 NGot=   402653184 LenX=   402141813 LenY=   401891313
 Requested convergence on RMS density matrix=1.00D-08 within  32 cycles.
 Requested convergence on MAX density matrix=1.00D-06.
 Requested convergence on             energy=1.00D-06.
 No special actions if energy rises.
 Fock matrices will be formed incrementally for  20 cycles.
 Integral accuracy reduced to 1.0D-05 until final iterations.

 Cycle   1  Pass 0  IDiag  1:
 FoFJK:  IHMeth= 1 ICntrl=       0 DoSepK=F KAlg= 0 I1Cent=           0 FoldK=F
 IRaf= 580000000 NMat=       1 IRICut=       1 DoRegI=T DoRafI=F ISym2E= 0 IDoP0=0 IntGTp=1.
 FoFCou: FMM=F IPFlag=           0 FMFlag=      100000 FMFlg1=           0
         NFxFlg=           0 DoJE=F BraDBF=F KetDBF=F FulRan=T
         wScrn=  0.000000 ICntrl=         0 IOpCl=  0 I1Cent=           0 NGrid=           0
         NMat0=    1 NMatS0=      1 NMatT0=    0 NMatD0=    1 NMtDS0=    0 NMtDT0=    0
 Symmetry not used in FoFCou.
 E= -1520.70209188483    
 DIIS: error= 4.43D-02 at cycle   1 NSaved=   1.
 NSaved= 1 IEnMin= 1 EnMin= -1520.70209188483     IErMin= 1 ErrMin= 4.43D-02
 ErrMax= 4.43D-02  0.00D+00 EMaxC= 1.00D-01 BMatC= 8.06D-01 BMatP= 8.06D-01
 IDIUse=3 WtCom= 5.57D-01 WtEn= 4.43D-01
 Coeff-Com:  0.100D+01
 Coeff-En:   0.100D+01
 Coeff:      0.100D+01
 Gap=     0.223 Goal=   None    Shift=    0.000
 GapD=    0.223 DampG=1.000 DampE=0.500 DampFc=0.5000 IDamp=-1.
 Damping current iteration by 5.00D-01
 RMSDP=4.15D-03 MaxDP=1.96D-01              OVMax= 3.43D-01

 Cycle   2  Pass 0  IDiag  1:
 RMSU=  2.06D-03    CP:  9.84D-01
 E= -1520.94969177283     Delta-E=       -0.247599887998 Rises=F Damp=T
 DIIS: error= 7.55D-03 at cycle   2 NSaved=   2.
 NSaved= 2 IEnMin= 2 EnMin= -1520.94969177283     IErMin= 2 ErrMin= 7.55D-03
 ErrMax= 7.55D-03  0.00D+00 EMaxC= 1.00D-01 BMatC= 9.88D-02 BMatP= 8.06D-01
 IDIUse=3 WtCom= 9.25D-01 WtEn= 7.55D-02
 Coeff-Com:  0.177D+00 0.823D+00
 Coeff-En:   0.277D+00 0.723D+00
 Coeff:      0.185D+00 0.815D+00
 Gap=     0.256 Goal=   None    Shift=    0.000
 RMSDP=1.26D-03 MaxDP=9.20D-02 DE=-2.48D-01 OVMax= 2.07D-01

 Cycle   3  Pass 0  IDiag  1:
 RMSU=  1.13D-03    CP:  9.75D-01  7.41D-01
 E= -1521.34824897599     Delta-E=       -0.398557203165 Rises=F Damp=F
 DIIS: error= 9.83D-03 at cycle   3 NSaved=   3.
 NSaved= 3 IEnMin= 3 EnMin= -1521.34824897599     IErMin= 2 ErrMin= 7.55D-03
 ErrMax= 9.83D-03  0.00D+00 EMaxC= 1.00D-01 BMatC= 9.73D-02 BMatP= 9.88D-02
 IDIUse=3 WtCom= 9.02D-01 WtEn= 9.83D-02
 Coeff-Com:  0.481D-01 0.494D+00 0.458D+00
 Coeff-En:   0.000D+00 0.000D+00 0.100D+01
 Coeff:      0.434D-01 0.445D+00 0.511D+00
 Gap=     0.191 Goal=   None    Shift=    0.000
 RMSDP=8.65D-04 MaxDP=6.13D-02 DE=-3.99D-01 OVMax= 1.14D-01

 Cycle   4  Pass 0  IDiag  1:
 RMSU=  5.07D-04    CP:  9.79D-01  8.72D-01  4.34D-01
 E= -1521.41450607149     Delta-E=       -0.066257095502 Rises=F Damp=F
 DIIS: error= 5.20D-03 at cycle   4 NSaved=   4.
 NSaved= 4 IEnMin= 4 EnMin= -1521.41450607149     IErMin= 4 ErrMin= 5.20D-03
 ErrMax= 5.20D-03  0.00D+00 EMaxC= 1.00D-01 BMatC= 2.10D-02 BMatP= 9.73D-02
 IDIUse=3 WtCom= 9.48D-01 WtEn= 5.20D-02
 Coeff-Com:  0.256D-02 0.111D+00 0.326D+00 0.561D+00
 Coeff-En:   0.000D+00 0.000D+00 0.209D+00 0.791D+00
 Coeff:      0.243D-02 0.105D+00 0.320D+00 0.573D+00
 Gap=     0.199 Goal=   None    Shift=    0.000
 RMSDP=3.30D-04 MaxDP=2.60D-02 DE=-6.63D-02 OVMax= 4.93D-02

 Cycle   5  Pass 0  IDiag  1:
 RMSU=  1.38D-04    CP:  9.78D-01  8.16D-01  6.03D-01  6.08D-01
 E= -1521.43085789621     Delta-E=       -0.016351824722 Rises=F Damp=F
 DIIS: error= 1.47D-03 at cycle   5 NSaved=   5.
 NSaved= 5 IEnMin= 5 EnMin= -1521.43085789621     IErMin= 5 ErrMin= 1.47D-03
 ErrMax= 1.47D-03  0.00D+00 EMaxC= 1.00D-01 BMatC= 1.38D-03 BMatP= 2.10D-02
 IDIUse=3 WtCom= 9.85D-01 WtEn= 1.47D-02
 Coeff-Com: -0.184D-02 0.187D-01 0.135D+00 0.324D+00 0.524D+00
 Coeff-En:   0.000D+00 0.000D+00 0.000D+00 0.000D+00 0.100D+01
 Coeff:     -0.181D-02 0.184D-01 0.133D+00 0.319D+00 0.531D+00
 Gap=     0.188 Goal=   None    Shift=    0.000
 RMSDP=8.68D-05 MaxDP=5.99D-03 DE=-1.64D-02 OVMax= 1.20D-02

 Cycle   6  Pass 0  IDiag  1:
 RMSU=  4.59D-05    CP:  9.78D-01  8.30D-01  5.96D-01  6.52D-01  5.39D-01
 E= -1521.43190499654     Delta-E=       -0.001047100321 Rises=F Damp=F
 DIIS: error= 3.98D-04 at cycle   6 NSaved=   6.
 NSaved= 6 IEnMin= 6 EnMin= -1521.43190499654     IErMin= 6 ErrMin= 3.98D-04
 ErrMax= 3.98D-04  0.00D+00 EMaxC= 1.00D-01 BMatC= 1.42D-04 BMatP= 1.38D-03
 IDIUse=3 WtCom= 9.96D-01 WtEn= 3.98D-03
 Coeff-Com: -0.120D-02 0.210D-02 0.500D-01 0.136D+00 0.313D+00 0.500D+00
 Coeff-En:   0.000D+00 0.000D+00 0.000D+00 0.000D+00 0.269D-01 0.973D+00
 Coeff:     -0.119D-02 0.209D-02 0.498D-01 0.135D+00 0.312D+00 0.502D+00
 Gap=     0.188 Goal=   None    Shift=    0.000
 RMSDP=2.83D-05 MaxDP=1.87D-03 DE=-1.05D-03 OVMax= 2.72D-03

 Cycle   7  Pass 0  IDiag  1:
 RMSU=  1.78D-05    CP:  9.78D-01  8.28D-01  5.98D-01  6.53D-01  6.03D-01
                    CP:  5.70D-01
 E= -1521.43200311138     Delta-E=       -0.000098114848 Rises=F Damp=F
 DIIS: error= 1.59D-04 at cycle   7 NSaved=   7.
 NSaved= 7 IEnMin= 7 EnMin= -1521.43200311138     IErMin= 7 ErrMin= 1.59D-04
 ErrMax= 1.59D-04  0.00D+00 EMaxC= 1.00D-01 BMatC= 2.33D-05 BMatP= 1.42D-04
 IDIUse=3 WtCom= 9.98D-01 WtEn= 1.59D-03
 Coeff-Com: -0.573D-03-0.844D-03 0.164D-01 0.495D-01 0.146D+00 0.333D+00
 Coeff-Com:  0.457D+00
 Coeff-En:   0.000D+00 0.000D+00 0.000D+00 0.000D+00 0.000D+00 0.120D+00
 Coeff-En:   0.880D+00
 Coeff:     -0.572D-03-0.843D-03 0.164D-01 0.494D-01 0.146D+00 0.333D+00
 Coeff:      0.457D+00
 Gap=     0.188 Goal=   None    Shift=    0.000
 RMSDP=9.82D-06 MaxDP=6.12D-04 DE=-9.81D-05 OVMax= 9.55D-04

 Initial convergence to 1.0D-05 achieved.  Increase integral accuracy.
 Cycle   8  Pass 1  IDiag  1:
 E= -1521.43201868726     Delta-E=       -0.000015575876 Rises=F Damp=F
 DIIS: error= 6.77D-05 at cycle   1 NSaved=   1.
 NSaved= 1 IEnMin= 1 EnMin= -1521.43201868726     IErMin= 1 ErrMin= 6.77D-05
 ErrMax= 6.77D-05  0.00D+00 EMaxC= 1.00D-01 BMatC= 2.03D-06 BMatP= 2.03D-06
 IDIUse=1 WtCom= 1.00D+00 WtEn= 0.00D+00
 Coeff-Com:  0.100D+01
 Coeff:      0.100D+01
 Gap=     0.188 Goal=   None    Shift=    0.000
 RMSDP=9.82D-06 MaxDP=6.12D-04 DE=-1.56D-05 OVMax= 4.67D-04

 Cycle   9  Pass 1  IDiag  1:
 RMSU=  3.11D-05    CP:  1.00D+00
 E= -1521.43201788495     Delta-E=        0.000000802304 Rises=F Damp=F
 DIIS: error= 5.20D-05 at cycle   2 NSaved=   2.
 NSaved= 2 IEnMin= 1 EnMin= -1521.43201868726     IErMin= 2 ErrMin= 5.20D-05
 ErrMax= 5.20D-05  0.00D+00 EMaxC= 1.00D-01 BMatC= 3.19D-06 BMatP= 2.03D-06
 IDIUse=1 WtCom= 1.00D+00 WtEn= 0.00D+00
 Coeff-Com:  0.569D+00 0.431D+00
 Coeff:      0.569D+00 0.431D+00
 Gap=     0.188 Goal=   None    Shift=    0.000
 RMSDP=4.60D-06 MaxDP=3.33D-04 DE= 8.02D-07 OVMax= 4.71D-04

 Cycle  10  Pass 1  IDiag  1:
 RMSU=  4.57D-06    CP:  1.00D+00  9.83D-01
 E= -1521.43202014416     Delta-E=       -0.000002259205 Rises=F Damp=F
 DIIS: error= 2.50D-05 at cycle   3 NSaved=   3.
 NSaved= 3 IEnMin= 3 EnMin= -1521.43202014416     IErMin= 3 ErrMin= 2.50D-05
 ErrMax= 2.50D-05  0.00D+00 EMaxC= 1.00D-01 BMatC= 4.96D-07 BMatP= 2.03D-06
 IDIUse=1 WtCom= 1.00D+00 WtEn= 0.00D+00
 Coeff-Com:  0.103D+00 0.280D+00 0.617D+00
 Coeff:      0.103D+00 0.280D+00 0.617D+00
 Gap=     0.188 Goal=   None    Shift=    0.000
 RMSDP=1.72D-06 MaxDP=1.13D-04 DE=-2.26D-06 OVMax= 1.72D-04

 Cycle  11  Pass 1  IDiag  1:
 RMSU=  9.83D-07    CP:  1.00D+00  9.95D-01  7.03D-01
 E= -1521.43202050148     Delta-E=       -0.000000357321 Rises=F Damp=F
 DIIS: error= 1.10D-05 at cycle   4 NSaved=   4.
 NSaved= 4 IEnMin= 4 EnMin= -1521.43202050148     IErMin= 4 ErrMin= 1.10D-05
 ErrMax= 1.10D-05  0.00D+00 EMaxC= 1.00D-01 BMatC= 7.25D-08 BMatP= 4.96D-07
 IDIUse=1 WtCom= 1.00D+00 WtEn= 0.00D+00
 Coeff-Com:  0.164D-02 0.127D+00 0.385D+00 0.487D+00
 Coeff:      0.164D-02 0.127D+00 0.385D+00 0.487D+00
 Gap=     0.188 Goal=   None    Shift=    0.000
 RMSDP=5.47D-07 MaxDP=3.21D-05 DE=-3.57D-07 OVMax= 5.11D-05

 Cycle  12  Pass 1  IDiag  1:
 RMSU=  1.74D-07    CP:  1.00D+00  9.96D-01  7.41D-01  5.04D-01
 E= -1521.43202056520     Delta-E=       -0.000000063715 Rises=F Damp=F
 DIIS: error= 1.13D-06 at cycle   5 NSaved=   5.
 NSaved= 5 IEnMin= 5 EnMin= -1521.43202056520     IErMin= 5 ErrMin= 1.13D-06
 ErrMax= 1.13D-06  0.00D+00 EMaxC= 1.00D-01 BMatC= 2.18D-09 BMatP= 7.25D-08
 IDIUse=1 WtCom= 1.00D+00 WtEn= 0.00D+00
 Coeff-Com: -0.178D-02 0.663D-01 0.208D+00 0.286D+00 0.442D+00
 Coeff:     -0.178D-02 0.663D-01 0.208D+00 0.286D+00 0.442D+00
 Gap=     0.188 Goal=   None    Shift=    0.000
 RMSDP=1.00D-07 MaxDP=5.94D-06 DE=-6.37D-08 OVMax= 8.72D-06

 Cycle  13  Pass 1  IDiag  1:
 RMSU=  5.04D-08    CP:  1.00D+00  9.96D-01  7.37D-01  5.12D-01  5.21D-01
 E= -1521.43202056696     Delta-E=       -0.000000001763 Rises=F Damp=F
 DIIS: error= 4.79D-07 at cycle   6 NSaved=   6.
 NSaved= 6 IEnMin= 6 EnMin= -1521.43202056696     IErMin= 6 ErrMin= 4.79D-07
 ErrMax= 4.79D-07  0.00D+00 EMaxC= 1.00D-01 BMatC= 1.23D-10 BMatP= 2.18D-09
 IDIUse=1 WtCom= 1.00D+00 WtEn= 0.00D+00
 Coeff-Com: -0.117D-02 0.318D-01 0.100D+00 0.141D+00 0.261D+00 0.468D+00
 Coeff:     -0.117D-02 0.318D-01 0.100D+00 0.141D+00 0.261D+00 0.468D+00
 Gap=     0.188 Goal=   None    Shift=    0.000
 RMSDP=2.42D-08 MaxDP=1.97D-06 DE=-1.76D-09 OVMax= 2.86D-06

 Cycle  14  Pass 1  IDiag  1:
 RMSU=  1.73D-08    CP:  1.00D+00  9.96D-01  7.37D-01  5.15D-01  5.37D-01
                    CP:  6.77D-01
 E= -1521.43202056704     Delta-E=       -0.000000000085 Rises=F Damp=F
 DIIS: error= 1.37D-07 at cycle   7 NSaved=   7.
 NSaved= 7 IEnMin= 7 EnMin= -1521.43202056704     IErMin= 7 ErrMin= 1.37D-07
 ErrMax= 1.37D-07  0.00D+00 EMaxC= 1.00D-01 BMatC= 1.05D-11 BMatP= 1.23D-10
 IDIUse=1 WtCom= 1.00D+00 WtEn= 0.00D+00
 Coeff-Com: -0.512D-03 0.124D-01 0.387D-01 0.550D-01 0.108D+00 0.272D+00
 Coeff-Com:  0.514D+00
 Coeff:     -0.512D-03 0.124D-01 0.387D-01 0.550D-01 0.108D+00 0.272D+00
 Coeff:      0.514D+00
 Gap=     0.188 Goal=   None    Shift=    0.000
 RMSDP=6.65D-09 MaxDP=4.68D-07 DE=-8.55D-11 OVMax= 6.05D-07

 SCF Done:  E(RB3LYP) =  -1521.43202057     A.U. after   14 cycles
            NFock= 14  Conv=0.67D-08     -V/T= 2.0089
 KE= 1.508031522698D+03 PE=-9.228661700732D+03 EE= 3.362225872438D+03
 Leave Link  502 at Sat Nov  5 11:03:44 2022, MaxMem=   402653184 cpu:             674.3 elap:              68.1
 (Enter /home/wykgroup/appl/g16/l508.exe)
 QCSCF skips out because SCF is already converged.
 Leave Link  508 at Sat Nov  5 11:03:44 2022, MaxMem=   402653184 cpu:               0.3 elap:               0.1
 (Enter /home/wykgroup/appl/g16/l801.exe)
 DoSCS=F DFT=T ScalE2(SS,OS)=  1.000000  1.000000
 ExpMin= 1.61D-01 ExpMax= 7.00D+03 ExpMxC= 1.05D+03 IAcc=3 IRadAn=         5 AccDes= 0.00D+00
 HarFok:  IExCor=  205 AccDes= 0.00D+00 IRadAn=         5 IDoV=-2 UseB2=F ITyADJ=14
 ICtDFT= 12500011 ScaDFX=  1.000000  1.000000  1.000000  1.000000
 GSVD:  LWork=       -1140 too small for GESVD, short by        4950 words or        4950 for optimal perf.
 Largest valence mixing into a core orbital is  6.84D-05
 Largest core mixing into a valence orbital is  1.43D-05
 Range of M.O.s used for correlation:    31   500
 NBasis=   500 NAE=   112 NBE=   112 NFC=    30 NFV=     0
 NROrb=    470 NOA=    82 NOB=    82 NVA=   388 NVB=   388

 **** Warning!!: The largest alpha MO coefficient is  0.12137905D+02

 Leave Link  801 at Sat Nov  5 11:03:46 2022, MaxMem=   402653184 cpu:              10.0 elap:               1.2
 (Enter /home/wykgroup/appl/g16/l914.exe)
 RHF ground state
 Two-electron integral symmetry not used.
 MDV=   402653184 DFT=T DoStab=F Mixed=T DoRPA=T DoScal=F NonHer=T
 Making orbital integer symmetry assigments:
    16 initial guesses have been made.
 Convergence on wavefunction:    0.001000000000000
 Davidson Disk Diagonalization:  ConvIn= 1.00D-03 SkipCon=T Conv= 1.00D-03.
 Max sub-space:  2000 roots to seek:    16 dimension of matrix:        63632
 Iteration     1 Dimension    16 NMult     0 NNew     16
 CISAX will form    16 AO SS matrices at one time.
 NMat=    16 NSing=     8 JSym2X= 0.
 FoFJK:  IHMeth= 1 ICntrl=       0 DoSepK=F KAlg= 0 I1Cent=           0 FoldK=F
 IRaf= 580000000 NMat=      32 IRICut=       1 DoRegI=T DoRafI=F ISym2E= 0 IDoP0=0 IntGTp=1.
 FoFCou: FMM=F IPFlag=           0 FMFlag=      100000 FMFlg1=           0
         NFxFlg=           0 DoJE=F BraDBF=F KetDBF=F FulRan=T
         wScrn=  0.000000 ICntrl=         0 IOpCl=  0 I1Cent=           0 NGrid=           0
         NMat0=   32 NMatS0=      8 NMatT0=    8 NMatD0=   32 NMtDS0=    0 NMtDT0=    0
 Symmetry not used in FoFCou.
 New state      1 was old state      2
 New state      2 was old state      4
 New state      3 was old state      6
 New state      4 was old state      3
 New state      5 was old state      8
 New state      6 was old state     14
 New state      7 was old state     10
 New state      8 was old state     13
 Excitation Energies [eV] at current iteration:
 Root      1 :     3.747346897086214
 Root      2 :     4.258685349666833
 Root      3 :     4.410726320894617
 Root      4 :     4.477228218317121
 Root      5 :     4.542361746073794
 Root      6 :     4.749676668870239
 Root      7 :     4.829149167991318
 Root      8 :     4.985121251616110
 Root      9 :     5.215661041233616
 Root     10 :     5.387447756544527
 Root     11 :     5.401784323119362
 Root     12 :     5.531734125091332
 Root     13 :     5.551265663735712
 Root     14 :     5.656067040544344
 Root     15 :     6.033653205696228
 Root     16 :     7.063996694101931
 Vector   3 SDiff=4.75D+00 TDiff=3.67D+00 assumed to be triplet.
 Vector   7 SDiff=4.91D+00 TDiff=3.61D+00 assumed to be triplet.
 Iteration     2 Dimension    24 NMult    16 NNew      8
 CISAX will form     8 AO SS matrices at one time.
 NMat=     8 NSing=     2 JSym2X= 0.
 Root      1 not converged, maximum delta is    0.174302111329899
 Root      2 not converged, maximum delta is    0.233886877748324
 New state      3 was old state      4
 Root      3 not converged, maximum delta is    0.120696634512506
 New state      4 was old state      8
 Root      4 not converged, maximum delta is    0.128578509017188
 Excitation Energies [eV] at current iteration:
 Root      1 :     3.365443921502069   Change is   -0.381902975584145
 Root      2 :     3.964951269831520   Change is   -0.293734079835313
 Root      3 :     4.348122966579755   Change is   -0.129105251737366
 Root      4 :     4.889801101219952   Change is   -0.095320150396157
 Iteration     3 Dimension    32 NMult    24 NNew      8
 CISAX will form     8 AO SS matrices at one time.
 NMat=     8 NSing=     4 JSym2X= 0.
 Root      1 not converged, maximum delta is    0.095701397488796
 Root      2 not converged, maximum delta is    0.045596750390819
 Root      3 not converged, maximum delta is    0.027722392674921
 Root      4 not converged, maximum delta is    0.146380900542604
 Excitation Energies [eV] at current iteration:
 Root      1 :     3.292531257620688   Change is   -0.072912663881382
 Root      2 :     3.943291361222716   Change is   -0.021659908608805
 Root      3 :     4.317547523176257   Change is   -0.030575443403498
 Root      4 :     4.823610227076706   Change is   -0.066190874143245
 Iteration     4 Dimension    40 NMult    32 NNew      8
 CISAX will form     8 AO SS matrices at one time.
 NMat=     8 NSing=     4 JSym2X= 0.
 Root      1 not converged, maximum delta is    0.007820845450921
 Root      2 not converged, maximum delta is    0.055027376671088
 Root      3 not converged, maximum delta is    0.008559237422815
 Root      4 not converged, maximum delta is    0.210406285022446
 Excitation Energies [eV] at current iteration:
 Root      1 :     3.288426753526424   Change is   -0.004104504094264
 Root      2 :     3.938204676449378   Change is   -0.005086684773338
 Root      3 :     4.313587352137562   Change is   -0.003960171038695
 Root      4 :     4.759417671140104   Change is   -0.064192555936603
 Iteration     5 Dimension    48 NMult    40 NNew      8
 CISAX will form     8 AO SS matrices at one time.
 NMat=     8 NSing=     4 JSym2X= 0.
 Root      1 not converged, maximum delta is    0.003142211010500
 Root      2 not converged, maximum delta is    0.019337002614598
 Root      3 not converged, maximum delta is    0.005487342225389
 Root      4 not converged, maximum delta is    0.118650871837136
 Excitation Energies [eV] at current iteration:
 Root      1 :     3.288045003558605   Change is   -0.000381749967819
 Root      2 :     3.937243534461804   Change is   -0.000961141987574
 Root      3 :     4.312790199337543   Change is   -0.000797152800019
 Root      4 :     4.704461216524332   Change is   -0.054956454615772
 Iteration     6 Dimension    56 NMult    48 NNew      8
 CISAX will form     8 AO SS matrices at one time.
 NMat=     8 NSing=     4 JSym2X= 0.
 Root      1 not converged, maximum delta is    0.001460120373415
 Root      2 not converged, maximum delta is    0.002910899330950
 Root      3 not converged, maximum delta is    0.001164808462262
 Root      4 not converged, maximum delta is    0.049582888077509
 Excitation Energies [eV] at current iteration:
 Root      1 :     3.287993832882918   Change is   -0.000051170675687
 Root      2 :     3.937124820569001   Change is   -0.000118713892803
 Root      3 :     4.312666260494989   Change is   -0.000123938842554
 Root      4 :     4.692191338655459   Change is   -0.012269877868873
 Iteration     7 Dimension    64 NMult    56 NNew      8
 CISAX will form     8 AO SS matrices at one time.
 NMat=     8 NSing=     4 JSym2X= 0.
 Root      1 has converged.
 Root      2 not converged, maximum delta is    0.002371055867679
 Root      3 has converged.
 Root      4 not converged, maximum delta is    0.010999370019788
 Excitation Energies [eV] at current iteration:
 Root      1 :     3.287988631908251   Change is   -0.000005200974667
 Root      2 :     3.937108644739754   Change is   -0.000016175829247
 Root      3 :     4.312651159148251   Change is   -0.000015101346739
 Root      4 :     4.690558213322369   Change is   -0.001633125333090
 Iteration     8 Dimension    68 NMult    64 NNew      4
 CISAX will form     4 AO SS matrices at one time.
 NMat=     4 NSing=     2 JSym2X= 0.
 Root      1 has converged.
 Root      2 not converged, maximum delta is    0.001222331094118
 Root      3 has converged.
 Root      4 not converged, maximum delta is    0.002601501388101
 Excitation Energies [eV] at current iteration:
 Root      1 :     3.287988389846699   Change is   -0.000000242061551
 Root      2 :     3.937104604282729   Change is   -0.000004040457025
 Root      3 :     4.312650764218565   Change is   -0.000000394929686
 Root      4 :     4.690275847911954   Change is   -0.000282365410415
 Iteration     9 Dimension    72 NMult    68 NNew      4
 CISAX will form     4 AO SS matrices at one time.
 NMat=     4 NSing=     2 JSym2X= 0.
 Root      1 has converged.
 Root      2 has converged.
 Root      3 has converged.
 Root      4 has converged.
 Excitation Energies [eV] at current iteration:
 Root      1 :     3.287988304569625   Change is   -0.000000085277074
 Root      2 :     3.937103383476404   Change is   -0.000001220806326
 Root      3 :     4.312650689962334   Change is   -0.000000074256230
 Root      4 :     4.690235438347074   Change is   -0.000040409564881
 Convergence achieved on expansion vectors.
 ***********************************************************************
 Excited states from <AA,BB:AA,BB> singles matrix:
 ***********************************************************************
 
 1PDM for each excited state written to RWF  633
 Ground to excited state transition densities written to RWF  633
 Ground to excited state transition electric dipole moments (Au):
       state          X           Y           Z        Dip. S.      Osc.
         1         0.0000     -0.0000     -0.0000      0.0000      0.0000
         2         0.0000      0.0000      0.0000      0.0000      0.0000
         3        -0.1329     -0.0467      0.0665      0.0243      0.0026
         4         2.1291      1.1022     -0.2613      5.8163      0.6683
 Ground to excited state transition velocity dipole moments (Au):
       state          X           Y           Z        Dip. S.      Osc.
         1        -0.0000     -0.0000      0.0000      0.0000      0.0000
         2         0.0000     -0.0000     -0.0000      0.0000      0.0000
         3         0.0237      0.0027     -0.0111      0.0007      0.0029
         4        -0.3579     -0.1878      0.0470      0.1655      0.6403
 Ground to excited state transition magnetic dipole moments (Au):
       state          X           Y           Z
         1        -0.0000      0.0000     -0.0000
         2         0.0000      0.0000     -0.0000
         3         0.0654      0.2756     -0.3637
         4         0.4187     -0.8700     -1.1052
 Ground to excited state transition velocity quadrupole moments (Au):
       state          XX          YY          ZZ          XY          XZ          YZ
         1        -0.0000     -0.0000      0.0000     -0.0000      0.0000     -0.0000
         2         0.0000      0.0000     -0.0000     -0.0000      0.0000      0.0000
         3         0.3308      0.0425     -0.0596      0.0707      0.0174      0.0312
         4        -4.2890     -0.3459      0.1356     -1.5933      0.2215     -0.0568
 <0|del|b> * <b|rxdel|0> + <0|del|b> * <b|delr+rdel|0>
 Rotatory Strengths (R) in cgs (10**-40 erg-esu-cm/Gauss)
       state          XX          YY          ZZ    R(velocity)    E-M Angle
         1        -0.0000      0.0000     -0.0000      0.0000       90.00
         2         0.0000      0.0000     -0.0000      0.0000       90.00
         3         8.7922     15.8083      3.5797      9.3934       58.54
         4       160.4292   -218.6107    -99.2503    -52.4773       93.68
 1/2[<0|r|b>*<b|rxdel|0> + (<0|rxdel|b>*<b|r|0>)*]
 Rotatory Strengths (R) in cgs (10**-40 erg-esu-cm/Gauss)
       state          XX          YY          ZZ     R(length)
         1         0.0000      0.0000     -0.0000      0.0000
         2        -0.0000     -0.0000      0.0000     -0.0000
         3         6.1401      9.0970     17.1104     10.7825
         4      -630.4337    678.1591   -204.2304    -52.1683
  1/2[<0|del|b>*<b|r|0> + (<0|r|b>*<b|del|0>)*] (Au)
       state          X           Y           Z        Dip. S.   Osc.(frdel)
         1        -0.0000      0.0000     -0.0000      0.0000      0.0000
         2         0.0000     -0.0000     -0.0000     -0.0000     -0.0000
         3        -0.0031     -0.0001     -0.0007      0.0040      0.0027
         4        -0.7619     -0.2070     -0.0123      0.9812      0.6541

 Excitation energies and oscillator strengths:
 
 Excited state symmetry could not be determined.
 Excited State   1:      Triplet-?Sym    3.2880 eV  377.08 nm  f=0.0000  <S**2>=2.000
     105 ->113         0.11153
     108 ->114        -0.11110
     109 ->114        -0.21698
     112 ->113         0.62509
 This state for optimization and/or second-order correction.
 Total Energy, E(TD-HF/TD-DFT) =  -1521.31118922    
 Copying the excited state density for this state as the 1-particle RhoCI density.
 
 Excited state symmetry could not be determined.
 Excited State   2:      Triplet-?Sym    3.9371 eV  314.91 nm  f=0.0000  <S**2>=2.000
     111 ->113         0.64404
     111 ->115         0.22484
     111 ->119         0.12031
 
 Excited state symmetry could not be determined.
 Excited State   3:      Singlet-?Sym    4.3127 eV  287.49 nm  f=0.0026  <S**2>=0.000
     110 ->113         0.37407
     110 ->115         0.10817
     111 ->113         0.55587
     111 ->115         0.13111
     112 ->113        -0.10845
 
 Excited state symmetry could not be determined.
 Excited State   4:      Singlet-?Sym    4.6902 eV  264.35 nm  f=0.6683  <S**2>=0.000
     111 ->113         0.19092
     112 ->113         0.66289
 SavETr:  write IOETrn=   770 NScale= 10 NData=  16 NLR=1 NState=    4 LETran=      82.
 Leave Link  914 at Sat Nov  5 11:12:52 2022, MaxMem=   402653184 cpu:            5523.8 elap:             546.1
 (Enter /home/wykgroup/appl/g16/l601.exe)
 Copying SCF densities to generalized density rwf, IOpCl= 0 IROHF=0.

 **********************************************************************

            Population analysis using the SCF Density.

 **********************************************************************

 Alpha  occ. eigenvalues --  -24.71855 -24.71489 -24.71211 -19.19991 -19.13942
 Alpha  occ. eigenvalues --  -19.10244 -14.43833 -14.37700 -14.36747 -14.34947
 Alpha  occ. eigenvalues --  -10.42883 -10.35049 -10.28010 -10.25454 -10.25063
 Alpha  occ. eigenvalues --  -10.24842 -10.24013 -10.23088 -10.22489 -10.20870
 Alpha  occ. eigenvalues --  -10.20635 -10.20563 -10.20475 -10.20338 -10.20297
 Alpha  occ. eigenvalues --  -10.19927 -10.19665 -10.19407 -10.18510 -10.18486
 Alpha  occ. eigenvalues --   -1.29343  -1.20782  -1.20345  -1.11601  -1.07177
 Alpha  occ. eigenvalues --   -1.02508  -1.02148  -0.94964  -0.91146  -0.89081
 Alpha  occ. eigenvalues --   -0.84506  -0.82615  -0.80539  -0.78827  -0.76939
 Alpha  occ. eigenvalues --   -0.76057  -0.75655  -0.71460  -0.69434  -0.69238
 Alpha  occ. eigenvalues --   -0.67345  -0.64906  -0.63665  -0.62302  -0.60754
 Alpha  occ. eigenvalues --   -0.60663  -0.59881  -0.58048  -0.57379  -0.57196
 Alpha  occ. eigenvalues --   -0.56763  -0.55985  -0.55311  -0.54128  -0.52246
 Alpha  occ. eigenvalues --   -0.51457  -0.49223  -0.48356  -0.47543  -0.46880
 Alpha  occ. eigenvalues --   -0.46552  -0.46368  -0.45986  -0.45333  -0.44838
 Alpha  occ. eigenvalues --   -0.44751  -0.44576  -0.44256  -0.43982  -0.43209
 Alpha  occ. eigenvalues --   -0.43135  -0.43058  -0.41928  -0.41379  -0.41013
 Alpha  occ. eigenvalues --   -0.40644  -0.40332  -0.39774  -0.39595  -0.39113
 Alpha  occ. eigenvalues --   -0.38870  -0.38864  -0.37990  -0.37841  -0.37383
 Alpha  occ. eigenvalues --   -0.37190  -0.35906  -0.35552  -0.35264  -0.34158
 Alpha  occ. eigenvalues --   -0.34042  -0.33659  -0.30995  -0.30867  -0.29886
 Alpha  occ. eigenvalues --   -0.29598  -0.26980  -0.26852  -0.26267  -0.24867
 Alpha  occ. eigenvalues --   -0.24279  -0.23606
 Alpha virt. eigenvalues --   -0.04848  -0.01361   0.00523   0.02977   0.03967
 Alpha virt. eigenvalues --    0.06148   0.07389   0.07974   0.08130   0.09605
 Alpha virt. eigenvalues --    0.10129   0.10483   0.11417   0.12171   0.12903
 Alpha virt. eigenvalues --    0.13028   0.13672   0.13728   0.14238   0.14549
 Alpha virt. eigenvalues --    0.14742   0.14865   0.15419   0.15932   0.16243
 Alpha virt. eigenvalues --    0.16596   0.16890   0.17040   0.17480   0.17861
 Alpha virt. eigenvalues --    0.18103   0.18320   0.19356   0.19605   0.20454
 Alpha virt. eigenvalues --    0.21219   0.21840   0.22307   0.22399   0.22659
 Alpha virt. eigenvalues --    0.23110   0.23206   0.23948   0.24842   0.24999
 Alpha virt. eigenvalues --    0.26475   0.26864   0.27592   0.28491   0.28768
 Alpha virt. eigenvalues --    0.30800   0.32240   0.32851   0.34002   0.34982
 Alpha virt. eigenvalues --    0.35733   0.39034   0.39368   0.40370   0.44523
 Alpha virt. eigenvalues --    0.46048   0.47354   0.47665   0.48438   0.49246
 Alpha virt. eigenvalues --    0.49548   0.50056   0.50521   0.50686   0.51197
 Alpha virt. eigenvalues --    0.51594   0.51957   0.52663   0.53129   0.53454
 Alpha virt. eigenvalues --    0.53990   0.54186   0.54631   0.55055   0.55970
 Alpha virt. eigenvalues --    0.56377   0.56736   0.57217   0.57571   0.58137
 Alpha virt. eigenvalues --    0.58283   0.58729   0.59001   0.60313   0.60744
 Alpha virt. eigenvalues --    0.61512   0.61658   0.62401   0.62896   0.64000
 Alpha virt. eigenvalues --    0.64546   0.65417   0.65698   0.66437   0.66763
 Alpha virt. eigenvalues --    0.67111   0.67608   0.69101   0.70195   0.70821
 Alpha virt. eigenvalues --    0.71127   0.71440   0.72008   0.72902   0.75339
 Alpha virt. eigenvalues --    0.76350   0.77037   0.78069   0.78597   0.79139
 Alpha virt. eigenvalues --    0.79715   0.80012   0.80340   0.81532   0.82321
 Alpha virt. eigenvalues --    0.82432   0.83028   0.83564   0.84455   0.84814
 Alpha virt. eigenvalues --    0.85607   0.86008   0.86336   0.86773   0.87093
 Alpha virt. eigenvalues --    0.87556   0.88390   0.89002   0.89435   0.90072
 Alpha virt. eigenvalues --    0.90442   0.90646   0.90833   0.91061   0.91615
 Alpha virt. eigenvalues --    0.92303   0.92782   0.93828   0.94926   0.95562
 Alpha virt. eigenvalues --    0.96212   0.96360   0.96541   0.97140   0.98719
 Alpha virt. eigenvalues --    0.99341   0.99971   1.00738   1.01790   1.02625
 Alpha virt. eigenvalues --    1.03203   1.04080   1.05033   1.05470   1.06337
 Alpha virt. eigenvalues --    1.07195   1.08151   1.08597   1.09539   1.10379
 Alpha virt. eigenvalues --    1.10751   1.11635   1.12513   1.13922   1.15101
 Alpha virt. eigenvalues --    1.16266   1.18195   1.18702   1.20583   1.22582
 Alpha virt. eigenvalues --    1.23098   1.23341   1.25788   1.26829   1.27372
 Alpha virt. eigenvalues --    1.27470   1.29416   1.30170   1.32776   1.33162
 Alpha virt. eigenvalues --    1.33691   1.34043   1.34591   1.35079   1.35676
 Alpha virt. eigenvalues --    1.36027   1.37656   1.38199   1.38969   1.39176
 Alpha virt. eigenvalues --    1.40520   1.41088   1.41926   1.42661   1.43523
 Alpha virt. eigenvalues --    1.44271   1.45127   1.46556   1.46896   1.47739
 Alpha virt. eigenvalues --    1.48776   1.49167   1.50010   1.50575   1.50731
 Alpha virt. eigenvalues --    1.51362   1.52971   1.53751   1.56845   1.59637
 Alpha virt. eigenvalues --    1.60524   1.63171   1.63408   1.65549   1.67075
 Alpha virt. eigenvalues --    1.67627   1.68367   1.69807   1.71781   1.72248
 Alpha virt. eigenvalues --    1.73814   1.74395   1.75469   1.76542   1.76921
 Alpha virt. eigenvalues --    1.78560   1.79482   1.80007   1.80237   1.82154
 Alpha virt. eigenvalues --    1.83080   1.83162   1.83657   1.84273   1.84707
 Alpha virt. eigenvalues --    1.85103   1.85938   1.86211   1.86766   1.88265
 Alpha virt. eigenvalues --    1.89281   1.89871   1.91003   1.91553   1.91886
 Alpha virt. eigenvalues --    1.93476   1.94062   1.94798   1.95481   1.95687
 Alpha virt. eigenvalues --    1.96462   1.98015   1.98307   1.98516   1.99138
 Alpha virt. eigenvalues --    1.99421   2.00799   2.02368   2.03178   2.03368
 Alpha virt. eigenvalues --    2.04691   2.05081   2.05513   2.06508   2.07264
 Alpha virt. eigenvalues --    2.07484   2.07612   2.08613   2.08743   2.09847
 Alpha virt. eigenvalues --    2.10055   2.11201   2.12041   2.12407   2.12848
 Alpha virt. eigenvalues --    2.13740   2.14722   2.15454   2.18104   2.18407
 Alpha virt. eigenvalues --    2.18748   2.20160   2.21647   2.21842   2.23563
 Alpha virt. eigenvalues --    2.23930   2.25295   2.25597   2.25660   2.26819
 Alpha virt. eigenvalues --    2.28995   2.29071   2.29839   2.30281   2.31520
 Alpha virt. eigenvalues --    2.32110   2.32779   2.33136   2.36453   2.39471
 Alpha virt. eigenvalues --    2.39656   2.40075   2.41605   2.42147   2.46583
 Alpha virt. eigenvalues --    2.47000   2.49381   2.49900   2.50899   2.52085
 Alpha virt. eigenvalues --    2.53791   2.54862   2.56097   2.57672   2.58972
 Alpha virt. eigenvalues --    2.60478   2.61674   2.62097   2.63393   2.64658
 Alpha virt. eigenvalues --    2.66422   2.66957   2.69870   2.71103   2.71451
 Alpha virt. eigenvalues --    2.71733   2.72593   2.74626   2.75191   2.76685
 Alpha virt. eigenvalues --    2.78535   2.79765   2.81062   2.82007   2.82762
 Alpha virt. eigenvalues --    2.83059   2.88035   2.89740   2.93107   2.97170
 Alpha virt. eigenvalues --    2.98467   3.00539   3.01998   3.04350   3.06590
 Alpha virt. eigenvalues --    3.08789   3.13512   3.14663   3.15726   3.18287
 Alpha virt. eigenvalues --    3.20026   3.29657   3.44774   3.88789   3.98050
 Alpha virt. eigenvalues --    4.02733   4.06116   4.07397   4.08331   4.10934
 Alpha virt. eigenvalues --    4.11084   4.13051   4.14072   4.17206   4.20427
 Alpha virt. eigenvalues --    4.21756   4.27300   4.28309   4.32005   4.33518
 Alpha virt. eigenvalues --    4.35394   4.38505   4.40033   4.42732   4.44532
 Alpha virt. eigenvalues --    4.46530   4.55104   4.56194   4.58232   4.63605
 Alpha virt. eigenvalues --    4.65108   4.76016   5.52177
          Condensed to atoms (all electrons):
 Mulliken charges:
               1
     1  C   -0.461816
     2  C   -0.045035
     3  O   -0.491284
     4  C    0.816220
     5  O   -0.548601
     6  N   -0.612475
     7  C   -0.002222
     8  C   -0.070385
     9  N   -0.671308
    10  C    0.570907
    11  O   -0.539064
    12  C    0.081472
    13  C   -0.174276
    14  C   -0.154175
    15  C    0.339236
    16  N   -0.362481
    17  C    0.085824
    18  C   -0.272483
    19  C    0.175573
    20  C    0.820595
    21  F   -0.275417
    22  F   -0.259218
    23  F   -0.258625
    24  N   -0.339866
    25  C   -0.179386
    26  C   -0.220909
    27  C   -0.287925
    28  C   -0.068616
    29  C   -0.452341
    30  C   -0.445100
    31  H    0.169427
    32  H    0.151517
    33  H    0.162865
    34  H    0.156459
    35  H    0.176265
    36  H    0.340469
    37  H    0.167467
    38  H    0.164313
    39  H    0.154838
    40  H    0.377092
    41  H    0.173327
    42  H    0.177909
    43  H    0.174045
    44  H    0.160949
    45  H    0.141423
    46  H    0.169820
    47  H    0.151140
    48  H    0.132170
    49  H    0.130561
    50  H    0.147538
    51  H    0.133451
    52  H    0.155537
    53  H    0.147043
    54  H    0.145109
    55  H    0.142447
 Sum of Mulliken charges =  -0.00000
 Mulliken charges with hydrogens summed into heavy atoms:
               1
     1  C    0.021994
     2  C    0.287688
     3  O   -0.491284
     4  C    0.816220
     5  O   -0.548601
     6  N   -0.272006
     7  C    0.165245
     8  C    0.248766
     9  N   -0.294216
    10  C    0.570907
    11  O   -0.539064
    12  C    0.081472
    13  C   -0.000950
    14  C    0.023735
    15  C    0.339236
    16  N   -0.362481
    17  C    0.259869
    18  C   -0.111534
    19  C    0.175573
    20  C    0.820595
    21  F   -0.275417
    22  F   -0.259218
    23  F   -0.258625
    24  N   -0.339866
    25  C   -0.037963
    26  C   -0.051089
    27  C   -0.004615
    28  C    0.061945
    29  C   -0.015815
    30  C   -0.010500
 Electronic spatial extent (au):  <R**2>=          25563.5782
 Charge=              0.0000 electrons
 Dipole moment (field-independent basis, Debye):
    X=             -7.9993    Y=              2.7061    Z=             -2.7467  Tot=              8.8801
 Quadrupole moment (field-independent basis, Debye-Ang):
   XX=           -203.4100   YY=           -159.1096   ZZ=           -181.4494
   XY=              7.6059   XZ=             -8.5757   YZ=             -0.1933
 Traceless Quadrupole moment (field-independent basis, Debye-Ang):
   XX=            -22.0870   YY=             22.2134   ZZ=             -0.1264
   XY=              7.6059   XZ=             -8.5757   YZ=             -0.1933
 Octapole moment (field-independent basis, Debye-Ang**2):
  XXX=          -1129.8998  YYY=            -64.7390  ZZZ=           -107.4321  XYY=           -214.0135
  XXY=            -93.0472  XXZ=            -57.6231  XZZ=           -215.1774  YZZ=            -17.7021
  YYZ=            -71.3049  XYZ=            -19.1062
 Hexadecapole moment (field-independent basis, Debye-Ang**3):
 XXXX=         -29169.3938 YYYY=          -4715.8163 ZZZZ=          -1174.4638 XXXY=          -3847.4456
 XXXZ=           -995.2031 YYYX=          -3289.4850 YYYZ=            204.3620 ZZZX=           -722.4541
 ZZZY=            302.6758 XXYY=          -4834.6805 XXZZ=          -4334.7572 YYZZ=          -1036.0034
 XXYZ=            -75.9538 YYXZ=           -305.8515 ZZXY=          -1141.7792
 N-N= 2.836972285029D+03 E-N=-9.228661692434D+03  KE= 1.508031522698D+03
 Leave Link  601 at Sat Nov  5 11:12:52 2022, MaxMem=   402653184 cpu:               1.8 elap:               0.2
 (Enter /home/wykgroup/appl/g16/l9999.exe)
 Electronic transition elements 
                 1             2             3             4 
      1  -0.152131D+04 -0.152129D+04 -0.152127D+04 -0.152126D+04
      2   0.000000D+00  0.000000D+00 -0.132861D+00  0.212910D+01
      3   0.000000D+00  0.000000D+00 -0.466840D-01  0.110222D+01
      4   0.000000D+00  0.000000D+00  0.665325D-01 -0.261314D+00
      5   0.000000D+00  0.000000D+00  0.236599D-01 -0.357859D+00
      6   0.000000D+00  0.000000D+00  0.271920D-02 -0.187809D+00
      7   0.000000D+00  0.000000D+00 -0.110544D-01  0.469899D-01
      8   0.000000D+00  0.000000D+00  0.653515D-01  0.418718D+00
      9   0.000000D+00  0.000000D+00  0.275555D+00 -0.870049D+00
     10   0.000000D+00  0.000000D+00 -0.363669D+00 -0.110519D+01
     11   0.000000D+00  0.000000D+00  0.330804D+00 -0.428902D+01
     12   0.000000D+00  0.000000D+00  0.424800D-01 -0.345932D+00
     13   0.000000D+00  0.000000D+00 -0.595955D-01  0.135621D+00
     14   0.000000D+00  0.000000D+00  0.706638D-01 -0.159330D+01
     15   0.000000D+00  0.000000D+00  0.174035D-01  0.221526D+00
     16   0.000000D+00  0.000000D+00  0.312042D-01 -0.568331D-01
 1\1\GINC-NODE02\SP\RB3LYP TD-FC\6-31G(d)\C20H25F3N4O3\WYKGROUP\05-Nov-
 2022\0\\#p b3lyp/6-31g(d) 6D 10F nosymm GFInput td=(50-50,nstate=2) SC
 F=XQC\\Gaussian input prepared by ASE\\0,1\C,0,-1.447436353,3.51030117
 01,-0.1693089039\C,0,-2.4995485433,2.8563339728,-1.0517742095\O,0,-3.1
 001945771,1.7183119738,-0.3910253956\C,0,-2.5093495824,0.5162653816,-0
 .5940468951\O,0,-1.5656252504,0.3229677423,-1.3579731464\N,0,-3.114828
 2696,-0.4402075153,0.1525258571\C,0,-2.8025497567,-1.869368822,0.05182
 25202\C,0,-1.6187635798,-2.2597090203,0.9558363625\N,0,-0.4318007144,-
 1.4913472457,0.624772495\C,0,0.6451332322,-1.4735335512,1.4565008792\O
 ,0,0.6740993402,-2.1324886994,2.4962583687\C,0,1.8096932008,-0.6097101
 158,1.0453593014\C,0,3.0022453039,-0.7689855349,1.7640440604\C,0,4.129
 2726423,-0.012558938,1.4679828814\C,0,4.0729131199,0.9262412285,0.4324
 028991\N,0,5.2220305178,1.7084401227,0.1319482298\C,0,5.274661336,2.92
 08872791,-0.5018454612\C,0,6.5982381842,3.296262487,-0.5448488154\C,0,
 7.2756946095,2.2383868944,0.1007391586\C,0,8.7520870092,2.093843847,0.
 2992145258\F,0,9.3595893987,3.2947613753,0.1551947311\F,0,9.3063717664
 ,1.257317354,-0.6059938239\F,0,9.0568415048,1.6176002779,1.5200673273\
 N,0,6.4476596457,1.2819579372,0.5083872133\C,0,2.8940466391,1.09610122
 72,-0.3000306725\C,0,1.7682212728,0.3371114531,0.0122556596\C,0,-4.040
 0787472,-2.7227124623,0.3883115058\C,0,-5.122796327,-2.8546415249,-0.7
 051446712\C,0,-5.8794986343,-1.5491727008,-0.9971096071\C,0,-6.1126723
 528,-3.9654641749,-0.3186124767\H,0,-0.6092190097,2.8297708545,0.00993
 70766\H,0,-1.0590243836,4.4108258287,-0.6591010597\H,0,-1.8735090278,3
 .8011588775,0.7962667831\H,0,-3.337134605,3.5324002138,-1.2412223029\H
 ,0,-2.0780124065,2.5276909782,-2.0039704936\H,0,-3.8675124419,-0.14211
 91728,0.7570796992\H,0,-2.5122564381,-2.0514168118,-0.9906243906\H,0,-
 1.8673583916,-2.0952149871,2.0111780774\H,0,-1.4239087689,-3.335599180
 9,0.8420160685\H,0,-0.4427250813,-0.9728232936,-0.2457557387\H,0,3.018
 2961451,-1.4957500477,2.5689984506\H,0,5.0520123824,-0.1360613892,2.02
 19138028\H,0,4.3820283384,3.4267524381,-0.8353462525\H,0,7.0177940709,
 4.1993378949,-0.9607525727\H,0,2.8523771066,1.7991274869,-1.1254946967
 \H,0,0.8640076155,0.5032827518,-0.5663359052\H,0,-3.6791501989,-3.7312
 04433,0.6255484419\H,0,-4.495590452,-2.3474736857,1.3185579515\H,0,-4.
 6154628579,-3.1658440177,-1.6310063034\H,0,-6.6551325468,-1.7175996492
 ,-1.7532045916\H,0,-6.3810538058,-1.1770181946,-0.0929894883\H,0,-5.22
 10988609,-0.7581691959,-1.366520287\H,0,-6.8678915784,-4.1078011906,-1
 .0998895931\H,0,-5.6031968277,-4.9239805852,-0.1648976805\H,0,-6.64093
 60114,-3.7154629078,0.6107961073\\Version=ES64L-G16RevB.01\HF=-1521.43
 20206\RMSD=6.653e-09\PG=C01 [X(C20H25F3N4O3)]\\@


 IF IT HAPPENS, IT MUST BE POSSIBLE.

 -- THE UNNAMED LAW FROM PAUL DICKSON'S 
    "THE OFFICIAL RULES"
 Job cpu time:       0 days  1 hours 44 minutes 46.7 seconds.
 Elapsed time:       0 days  0 hours 10 minutes 25.3 seconds.
 File lengths (MBytes):  RWF=   1582 Int=      0 D2E=      0 Chk=     54 Scr=      1
 Normal termination of Gaussian 16 at Sat Nov  5 11:12:52 2022.
