 Entering Gaussian System, Link 0=/home/wykgroup/appl/g16/g16
 Input=calculation/no_transfer_pubchem_sampling_0_b3lyp/66874476_rwf.com
 Output=calculation/no_transfer_pubchem_sampling_0_b3lyp/66874476_rwf.log
 Initial command:
 /home/wykgroup/appl/g16/l1.exe "/userdata/scratch/wykgroup/khs/calculation/no_transfer_pubchem_sampling_0_b3lyp/66874476_rwf/Gau-32217.inp" -scrdir="/userdata/scratch/wykgroup/khs/calculation/no_transfer_pubchem_sampling_0_b3lyp/66874476_rwf/"
 Entering Link 1 = /home/wykgroup/appl/g16/l1.exe PID=     32218.
  
 Copyright (c) 1988-2017, Gaussian, Inc.  All Rights Reserved.
  
 This is part of the Gaussian(R) 16 program.  It is based on
 the Gaussian(R) 09 system (copyright 2009, Gaussian, Inc.),
 the Gaussian(R) 03 system (copyright 2003, Gaussian, Inc.),
 the Gaussian(R) 98 system (copyright 1998, Gaussian, Inc.),
 the Gaussian(R) 94 system (copyright 1995, Gaussian, Inc.),
 the Gaussian 92(TM) system (copyright 1992, Gaussian, Inc.),
 the Gaussian 90(TM) system (copyright 1990, Gaussian, Inc.),
 the Gaussian 88(TM) system (copyright 1988, Gaussian, Inc.),
 the Gaussian 86(TM) system (copyright 1986, Carnegie Mellon
 University), and the Gaussian 82(TM) system (copyright 1983,
 Carnegie Mellon University). Gaussian is a federally registered
 trademark of Gaussian, Inc.
  
 This software contains proprietary and confidential information,
 including trade secrets, belonging to Gaussian, Inc.
  
 This software is provided under written license and may be
 used, copied, transmitted, or stored only in accord with that
 written license.
  
 The following legend is applicable only to US Government
 contracts under FAR:
  
                    RESTRICTED RIGHTS LEGEND
  
 Use, reproduction and disclosure by the US Government is
 subject to restrictions as set forth in subparagraphs (a)
 and (c) of the Commercial Computer Software - Restricted
 Rights clause in FAR 52.227-19.
  
 Gaussian, Inc.
 340 Quinnipiac St., Bldg. 40, Wallingford CT 06492
  
  
 ---------------------------------------------------------------
 Warning -- This program may not be used in any manner that
 competes with the business of Gaussian, Inc. or will provide
 assistance to any competitor of Gaussian, Inc.  The licensee
 of this program is prohibited from giving any competitor of
 Gaussian, Inc. access to this program.  By using this program,
 the user acknowledges that Gaussian, Inc. is engaged in the
 business of creating and licensing software in the field of
 computational chemistry and represents and warrants to the
 licensee that it is not a competitor of Gaussian, Inc. and that
 it will not use this program in any manner prohibited above.
 ---------------------------------------------------------------
  

 Cite this work as:
 Gaussian 16, Revision B.01,
 M. J. Frisch, G. W. Trucks, H. B. Schlegel, G. E. Scuseria, 
 M. A. Robb, J. R. Cheeseman, G. Scalmani, V. Barone, 
 G. A. Petersson, H. Nakatsuji, X. Li, M. Caricato, A. V. Marenich, 
 J. Bloino, B. G. Janesko, R. Gomperts, B. Mennucci, H. P. Hratchian, 
 J. V. Ortiz, A. F. Izmaylov, J. L. Sonnenberg, D. Williams-Young, 
 F. Ding, F. Lipparini, F. Egidi, J. Goings, B. Peng, A. Petrone, 
 T. Henderson, D. Ranasinghe, V. G. Zakrzewski, J. Gao, N. Rega, 
 G. Zheng, W. Liang, M. Hada, M. Ehara, K. Toyota, R. Fukuda, 
 J. Hasegawa, M. Ishida, T. Nakajima, Y. Honda, O. Kitao, H. Nakai, 
 T. Vreven, K. Throssell, J. A. Montgomery, Jr., J. E. Peralta, 
 F. Ogliaro, M. J. Bearpark, J. J. Heyd, E. N. Brothers, K. N. Kudin, 
 V. N. Staroverov, T. A. Keith, R. Kobayashi, J. Normand, 
 K. Raghavachari, A. P. Rendell, J. C. Burant, S. S. Iyengar, 
 J. Tomasi, M. Cossi, J. M. Millam, M. Klene, C. Adamo, R. Cammi, 
 J. W. Ochterski, R. L. Martin, K. Morokuma, O. Farkas, 
 J. B. Foresman, and D. J. Fox, Gaussian, Inc., Wallingford CT, 2016.
 
 ******************************************
 Gaussian 16:  ES64L-G16RevB.01 20-Dec-2017
                 5-Nov-2022 
 ******************************************
 %chk=calculation/no_transfer_pubchem_sampling_0_b3lyp/66874476_rwf.chk
 %rwf=calculation/no_transfer_pubchem_sampling_0_b3lyp/66874476_rwf.rwf
 %nprocshared=14
 Will use up to   14 processors via shared memory.
 %mem=3GB
 -------------------------------------------------------------------
 #p b3lyp/6-31g(d) 6D 10F nosymm GFInput td=(50-50,nstate=2) SCF=XQC
 -------------------------------------------------------------------
 1/38=1,172=1/1;
 2/12=2,15=1,17=6,18=5,40=1/2;
 3/5=1,6=6,7=1,8=22,11=9,24=10,25=1,30=1,74=-5/1,2,3,8;
 4//1;
 5/5=2,8=3,13=1,38=5/2,8;
 8/6=1,10=2,108=2/1;
 9/41=2,42=1,48=2,70=2/14;
 6/7=2,8=2,9=2,10=2/1;
 99/5=1,9=1/99;
 Leave Link    1 at Sat Nov  5 11:10:57 2022, MaxMem=   402653184 cpu:               6.9 elap:               0.6
 (Enter /home/wykgroup/appl/g16/l101.exe)
 ------------------------------
 Gaussian input prepared by ASE
 ------------------------------
 Symbolic Z-matrix:
 Charge =  0 Multiplicity = 1
 O                     0.88198   0.0431    2.41406 
 C                     0.63487   0.09252   1.02815 
 C                     1.9983    0.09459   0.34465 
 C                     3.02241   0.90063   0.85966 
 C                     4.26452   0.95361   0.2294 
 C                     4.49971   0.20166  -0.92415 
 C                     3.48576  -0.60618  -1.43771 
 C                     2.24091  -0.66084  -0.80615 
 C                    -0.20818   1.33341   0.66986 
 C                    -0.82178   1.20973  -0.72588 
 C                    -1.77257  -0.01044  -0.77387 
 C                    -3.25602   0.37193  -0.61134 
 C                    -4.13431  -0.84036  -0.40103 
 C                    -3.64969  -1.91286   0.24884 
 C                    -2.2691   -1.9436    0.73112 
 C                    -1.38521  -1.03401   0.28075 
 O                    -0.06218  -1.11421   0.63975 
 H                     0.01986   0.06179   2.86203 
 H                     2.84571   1.47205   1.7653 
 H                     5.05168   1.57878   0.64281 
 H                     5.46863   0.24218  -1.41485 
 H                     3.66178  -1.20247  -2.32923 
 H                     1.46048  -1.30616  -1.1934 
 H                     0.42635   2.21946   0.76359 
 H                    -1.01199   1.4311    1.41474 
 H                    -0.01823   1.10121  -1.46265 
 H                    -1.36638   2.12492  -0.98571 
 H                    -1.66406  -0.51228  -1.75007 
 H                    -3.36441   1.05052   0.25505 
 H                    -3.5774    0.94727  -1.48765 
 H                    -5.1715   -0.80043  -0.7239 
 H                    -4.28435  -2.77205   0.45369 
 H                    -1.94558  -2.71458   1.42413 
 
 ITRead=  0  0  0  0  0  0  0  0  0  0  0  0  0  0  0  0  0  0  0  0
 ITRead=  0  0  0  0  0  0  0  0  0  0  0  0  0
 MicOpt= -1 -1 -1 -1 -1 -1 -1 -1 -1 -1 -1 -1 -1 -1 -1 -1 -1 -1 -1 -1
 MicOpt= -1 -1 -1 -1 -1 -1 -1 -1 -1 -1 -1 -1 -1
 NAtoms=     33 NQM=       33 NQMF=       0 NMMI=      0 NMMIF=      0
                NMic=       0 NMicF=      0.
                    Isotopes and Nuclear Properties:
 (Nuclear quadrupole moments (NQMom) in fm**2, nuclear magnetic moments (NMagM)
  in nuclear magnetons)

  Atom         1           2           3           4           5           6           7           8           9          10
 IAtWgt=          16          12          12          12          12          12          12          12          12          12
 AtmWgt=  15.9949146  12.0000000  12.0000000  12.0000000  12.0000000  12.0000000  12.0000000  12.0000000  12.0000000  12.0000000
 NucSpn=           0           0           0           0           0           0           0           0           0           0
 AtZEff=  -0.0000000  -0.0000000  -0.0000000  -0.0000000  -0.0000000  -0.0000000  -0.0000000  -0.0000000  -0.0000000  -0.0000000
 NQMom=    0.0000000   0.0000000   0.0000000   0.0000000   0.0000000   0.0000000   0.0000000   0.0000000   0.0000000   0.0000000
 NMagM=    0.0000000   0.0000000   0.0000000   0.0000000   0.0000000   0.0000000   0.0000000   0.0000000   0.0000000   0.0000000
 AtZNuc=   8.0000000   6.0000000   6.0000000   6.0000000   6.0000000   6.0000000   6.0000000   6.0000000   6.0000000   6.0000000

  Atom        11          12          13          14          15          16          17          18          19          20
 IAtWgt=          12          12          12          12          12          12          16           1           1           1
 AtmWgt=  12.0000000  12.0000000  12.0000000  12.0000000  12.0000000  12.0000000  15.9949146   1.0078250   1.0078250   1.0078250
 NucSpn=           0           0           0           0           0           0           0           1           1           1
 AtZEff=  -0.0000000  -0.0000000  -0.0000000  -0.0000000  -0.0000000  -0.0000000  -0.0000000  -0.0000000  -0.0000000  -0.0000000
 NQMom=    0.0000000   0.0000000   0.0000000   0.0000000   0.0000000   0.0000000   0.0000000   0.0000000   0.0000000   0.0000000
 NMagM=    0.0000000   0.0000000   0.0000000   0.0000000   0.0000000   0.0000000   0.0000000   2.7928460   2.7928460   2.7928460
 AtZNuc=   6.0000000   6.0000000   6.0000000   6.0000000   6.0000000   6.0000000   8.0000000   1.0000000   1.0000000   1.0000000

  Atom        21          22          23          24          25          26          27          28          29          30
 IAtWgt=           1           1           1           1           1           1           1           1           1           1
 AtmWgt=   1.0078250   1.0078250   1.0078250   1.0078250   1.0078250   1.0078250   1.0078250   1.0078250   1.0078250   1.0078250
 NucSpn=           1           1           1           1           1           1           1           1           1           1
 AtZEff=  -0.0000000  -0.0000000  -0.0000000  -0.0000000  -0.0000000  -0.0000000  -0.0000000  -0.0000000  -0.0000000  -0.0000000
 NQMom=    0.0000000   0.0000000   0.0000000   0.0000000   0.0000000   0.0000000   0.0000000   0.0000000   0.0000000   0.0000000
 NMagM=    2.7928460   2.7928460   2.7928460   2.7928460   2.7928460   2.7928460   2.7928460   2.7928460   2.7928460   2.7928460
 AtZNuc=   1.0000000   1.0000000   1.0000000   1.0000000   1.0000000   1.0000000   1.0000000   1.0000000   1.0000000   1.0000000

  Atom        31          32          33
 IAtWgt=           1           1           1
 AtmWgt=   1.0078250   1.0078250   1.0078250
 NucSpn=           1           1           1
 AtZEff=  -0.0000000  -0.0000000  -0.0000000
 NQMom=    0.0000000   0.0000000   0.0000000
 NMagM=    2.7928460   2.7928460   2.7928460
 AtZNuc=   1.0000000   1.0000000   1.0000000
 Leave Link  101 at Sat Nov  5 11:10:57 2022, MaxMem=   402653184 cpu:               1.8 elap:               0.2
 (Enter /home/wykgroup/appl/g16/l202.exe)
                          Input orientation:                          
 ---------------------------------------------------------------------
 Center     Atomic      Atomic             Coordinates (Angstroms)
 Number     Number       Type             X           Y           Z
 ---------------------------------------------------------------------
      1          8           0        0.881979    0.043101    2.414062
      2          6           0        0.634871    0.092518    1.028151
      3          6           0        1.998296    0.094586    0.344647
      4          6           0        3.022407    0.900628    0.859658
      5          6           0        4.264522    0.953613    0.229402
      6          6           0        4.499709    0.201664   -0.924147
      7          6           0        3.485758   -0.606180   -1.437706
      8          6           0        2.240913   -0.660836   -0.806155
      9          6           0       -0.208178    1.333415    0.669860
     10          6           0       -0.821781    1.209728   -0.725880
     11          6           0       -1.772574   -0.010441   -0.773873
     12          6           0       -3.256024    0.371932   -0.611339
     13          6           0       -4.134310   -0.840364   -0.401029
     14          6           0       -3.649689   -1.912861    0.248842
     15          6           0       -2.269102   -1.943602    0.731118
     16          6           0       -1.385213   -1.034008    0.280753
     17          8           0       -0.062182   -1.114212    0.639746
     18          1           0        0.019862    0.061794    2.862032
     19          1           0        2.845715    1.472053    1.765303
     20          1           0        5.051681    1.578777    0.642807
     21          1           0        5.468632    0.242182   -1.414845
     22          1           0        3.661779   -1.202469   -2.329228
     23          1           0        1.460483   -1.306161   -1.193402
     24          1           0        0.426352    2.219462    0.763594
     25          1           0       -1.011990    1.431095    1.414741
     26          1           0       -0.018231    1.101210   -1.462651
     27          1           0       -1.366381    2.124922   -0.985710
     28          1           0       -1.664056   -0.512281   -1.750074
     29          1           0       -3.364406    1.050518    0.255054
     30          1           0       -3.577403    0.947268   -1.487650
     31          1           0       -5.171504   -0.800428   -0.723896
     32          1           0       -4.284349   -2.772045    0.453687
     33          1           0       -1.945585   -2.714578    1.424131
 ---------------------------------------------------------------------
                    Distance matrix (angstroms):
                    1          2          3          4          5
     1  O    0.000000
     2  C    1.408635   0.000000
     3  C    2.351869   1.525159   0.000000
     4  C    2.780819   2.526214   1.401336   0.000000
     5  C    4.128361   3.814951   2.426312   1.393872   0.000000
     6  C    4.925115   4.331323   2.806844   2.419284   1.396931
     7  C    4.694396   3.833561   2.424954   2.786225   2.412194
     8  C    3.565392   2.551781   1.397809   2.413262   2.788156
     9  C    2.428083   1.542377   2.551271   3.264966   4.510354
    10  C    3.758065   2.539019   3.215961   4.169803   5.181567
    11  C    4.148788   3.008934   3.934664   5.146874   6.195360
    12  C    5.136560   4.231438   5.347776   6.470089   7.589717
    13  C    5.819656   5.065364   6.248121   7.472548   8.611398
    14  C    5.389803   4.794405   5.994894   7.266751   8.417350
    15  C    4.087616   3.559083   4.744919   6.008846   7.164762
    16  C    3.294135   2.430721   3.567343   4.848202   5.989389
    17  O    2.319269   1.446700   2.407041   3.690885   4.812967
    18  H    0.971737   1.934503   3.201953   3.705188   5.073778
    19  H    2.513772   2.708199   2.152626   1.085329   2.154248
    20  H    4.783519   4.676074   3.408062   2.150550   1.086901
    21  H    5.978088   5.418106   3.893691   3.404546   2.158602
    22  H    5.637156   4.702250   3.405751   3.873088   3.399791
    23  H    3.894736   2.751952   2.148705   3.394788   3.872155
    24  H    2.769149   2.153453   2.676120   2.913426   4.076675
    25  H    2.551918   2.157172   3.463117   4.106808   5.429051
    26  H    4.118115   2.765519   2.888944   3.831296   4.607255
    27  H    4.576849   3.491606   4.148875   4.915866   5.878395
    28  H    4.912308   3.656417   4.262507   5.547067   6.419907
    29  H    4.869084   4.184454   5.447972   6.417117   7.629586
    30  H    5.993910   4.980272   5.930666   7.004965   8.027708
    31  H    6.870442   6.130335   7.304030   8.517124   9.644896
    32  H    6.201537   5.721403   6.906597   8.187919   9.328130
    33  H    4.071839   3.833450   4.960935   6.170031   7.310843
                    6          7          8          9         10
     6  C    0.000000
     7  C    1.394436   0.000000
     8  C    2.420742   1.396956   0.000000
     9  C    5.097639   4.674294   3.486215   0.000000
    10  C    5.419757   4.728542   3.589644   1.529673   0.000000
    11  C    6.277668   5.333446   4.065973   2.517469   1.547619
    12  C    7.763906   6.862304   5.596505   3.443151   2.576929
    13  C    8.712392   7.693827   6.390604   4.613744   3.909125
    14  C    8.500577   7.447581   6.113900   4.749690   4.324085
    15  C    7.291014   6.293720   4.934464   3.871692   3.763120
    16  C    6.132779   5.182904   3.803868   2.672360   2.522919
    17  O    4.998814   4.142678   2.756886   2.452162   2.800469
    18  H    5.867176   5.562947   4.348661   2.544531   3.859952
    19  H    3.403341   3.871431   3.395202   3.247380   4.441321
    20  H    2.157883   3.399219   3.875019   5.265648   6.042107
    21  H    1.086847   2.156856   3.406481   6.145156   6.401571
    22  H    2.155916   1.086902   2.152204   5.513783   5.337764
    23  H    3.403371   2.156710   1.084194   3.636418   3.428849
    24  H    4.848940   4.710620   3.748713   1.093844   2.189961
    25  H    6.112343   5.702341   4.459812   1.100229   2.160427
    26  H    4.637990   3.897915   2.939306   2.153509   1.095582
    27  H    6.173631   5.586275   4.561277   2.169984   1.096212
    28  H    6.259703   5.160134   4.020178   3.373760   2.173412
    29  H    7.997211   7.248092   5.956047   3.195915   2.729931
    30  H    8.131003   7.232147   6.074803   4.019408   2.870999
    31  H    9.725053   8.688811   7.414187   5.579466   4.791745
    32  H    9.375556   8.285101   6.973051   5.789361   5.406965
    33  H    7.453905   6.491143   5.169022   4.469201   4.613639
                   11         12         13         14         15
    11  C    0.000000
    12  C    1.540535   0.000000
    13  C    2.530925   1.511713   0.000000
    14  C    2.861591   2.472885   1.344410   0.000000
    15  C    2.499729   2.852700   2.444972   1.462721   0.000000
    16  C    1.519860   2.504482   2.838989   2.429249   1.345901
    17  O    2.478321   3.738244   4.211940   3.696059   2.359393
    18  H    4.054362   4.784551   5.358974   4.918702   3.715073
    19  H    5.474833   6.640024   7.665573   7.479811   6.236794
    20  H    7.148640   8.488069   9.556373   9.384060   8.124581
    21  H    7.273907   8.762538   9.716801   9.516083   8.321979
    22  H    5.776873   7.299717   8.039159   7.785156   6.714935
    23  H    3.508213   5.039864   5.669791   5.344343   4.244987
    24  H    3.488774   4.343236   5.614136   5.827107   4.959600
    25  H    2.728836   3.203517   4.266782   4.415747   3.665549
    26  H    2.188128   3.426351   4.673206   5.020091   4.376062
    27  H    2.183951   2.604588   4.098317   4.800136   4.507248
    28  H    1.102991   2.147769   2.833675   3.146431   2.927639
    29  H    2.172154   1.105832   2.144442   2.977086   3.223520
    30  H    2.164277   1.096457   2.164837   3.346785   3.871913
    31  H    3.489885   2.248591   1.087018   2.121236   3.442069
    32  H    3.929678   3.475101   2.117651   1.087636   2.196475
    33  H    3.489056   3.922618   3.410925   2.219916   1.085972
                   16         17         18         19         20
    16  C    0.000000
    17  O    1.373215   0.000000
    18  H    3.136562   2.515607   0.000000
    19  H    5.136631   4.051112   3.343215   0.000000
    20  H    6.956388   5.779602   5.704858   2.477433   0.000000
    21  H    7.174879   6.054011   6.929164   4.301816   2.488829
    22  H    5.684409   4.763452   6.466151   4.958248   4.301181
    23  H    3.216393   2.390771   4.515888   4.288506   4.958956
    24  H    3.754993   3.371556   3.037138   2.723115   4.671052
    25  H    2.738970   2.825127   2.243737   3.873817   6.114393
    26  H    3.076890   3.054521   4.448002   4.331212   5.510447
    27  H    3.403398   3.851628   4.580751   5.073072   6.643934
    28  H    2.115233   2.939314   4.943346   6.052561   7.429639
    29  H    2.874564   3.967207   4.384881   6.405009   8.441559
    30  H    3.443603   4.596988   5.713503   7.218972   8.910598
    31  H    3.924268   5.297466   6.368091   8.696900  10.584989
    32  H    3.384622   4.539793   5.688322   8.400626  10.301790
    33  H    2.108470   2.592997   3.693073   6.371878   8.246520
                   21         22         23         24         25
    21  H    0.000000
    22  H    2.487535   0.000000
    23  H    4.302518   2.479225   0.000000
    24  H    5.837791   5.634105   4.162845   0.000000
    25  H    7.170671   6.541948   4.517533   1.764750   0.000000
    26  H    5.553906   4.427230   2.838050   2.530673   3.061987
    27  H    7.102553   6.177294   4.450464   2.506570   2.523718
    28  H    7.180308   5.401509   3.271524   4.260370   3.770671
    29  H    9.025770   7.818039   5.561611   3.999361   2.650202
    30  H    9.073764   7.598380   5.526737   4.766197   3.903756
    31  H   10.713399   8.986969   6.667792   6.532102   5.182183
    32  H   10.377745   8.564410   6.153438   6.870363   5.412794
    33  H    8.471884   6.914962   4.520665   5.514267   4.249505
                   26         27         28         29         30
    26  H    0.000000
    27  H    1.758683   0.000000
    28  H    2.322651   2.761830   0.000000
    29  H    3.761644   2.585719   3.058443   0.000000
    30  H    3.562588   2.554884   2.420754   1.758706   0.000000
    31  H    5.542401   4.806785   3.665823   2.765854   2.485743
    32  H    6.072414   5.879344   4.102320   3.936717   4.254628
    33  H    5.158337   5.437239   3.873622   4.189958   4.954838
                   31         32         33
    31  H    0.000000
    32  H    2.461914   0.000000
    33  H    4.322562   2.532761   0.000000
 Symmetry turned off by external request.
 Stoichiometry    C15H16O2
 Framework group  C1[X(C15H16O2)]
 Deg. of freedom    93
 Full point group                 C1      NOp   1
 Rotational constants (GHZ):           1.1966565           0.2729263           0.2674038
 Leave Link  202 at Sat Nov  5 11:10:57 2022, MaxMem=   402653184 cpu:               0.9 elap:               0.1
 (Enter /home/wykgroup/appl/g16/l301.exe)
 Standard basis: 6-31G(d) (6D, 10F)
 Ernie: Thresh=  0.10000D-02 Tol=  0.10000D-05 Strict=F.
 AO basis set in the form of general basis input (Overlap normalization):
      1 0
 S   6 1.00       0.000000000000
      0.5484671660D+04  0.1831074430D-02
      0.8252349460D+03  0.1395017220D-01
      0.1880469580D+03  0.6844507810D-01
      0.5296450000D+02  0.2327143360D+00
      0.1689757040D+02  0.4701928980D+00
      0.5799635340D+01  0.3585208530D+00
 SP   3 1.00       0.000000000000
      0.1553961625D+02 -0.1107775495D+00  0.7087426823D-01
      0.3599933586D+01 -0.1480262627D+00  0.3397528391D+00
      0.1013761750D+01  0.1130767015D+01  0.7271585773D+00
 SP   1 1.00       0.000000000000
      0.2700058226D+00  0.1000000000D+01  0.1000000000D+01
 D   1 1.00       0.000000000000
      0.8000000000D+00  0.1000000000D+01
 ****
      2 0
 S   6 1.00       0.000000000000
      0.3047524880D+04  0.1834737132D-02
      0.4573695180D+03  0.1403732281D-01
      0.1039486850D+03  0.6884262226D-01
      0.2921015530D+02  0.2321844432D+00
      0.9286662960D+01  0.4679413484D+00
      0.3163926960D+01  0.3623119853D+00
 SP   3 1.00       0.000000000000
      0.7868272350D+01 -0.1193324198D+00  0.6899906659D-01
      0.1881288540D+01 -0.1608541517D+00  0.3164239610D+00
      0.5442492580D+00  0.1143456438D+01  0.7443082909D+00
 SP   1 1.00       0.000000000000
      0.1687144782D+00  0.1000000000D+01  0.1000000000D+01
 D   1 1.00       0.000000000000
      0.8000000000D+00  0.1000000000D+01
 ****
      3 0
 S   6 1.00       0.000000000000
      0.3047524880D+04  0.1834737132D-02
      0.4573695180D+03  0.1403732281D-01
      0.1039486850D+03  0.6884262226D-01
      0.2921015530D+02  0.2321844432D+00
      0.9286662960D+01  0.4679413484D+00
      0.3163926960D+01  0.3623119853D+00
 SP   3 1.00       0.000000000000
      0.7868272350D+01 -0.1193324198D+00  0.6899906659D-01
      0.1881288540D+01 -0.1608541517D+00  0.3164239610D+00
      0.5442492580D+00  0.1143456438D+01  0.7443082909D+00
 SP   1 1.00       0.000000000000
      0.1687144782D+00  0.1000000000D+01  0.1000000000D+01
 D   1 1.00       0.000000000000
      0.8000000000D+00  0.1000000000D+01
 ****
      4 0
 S   6 1.00       0.000000000000
      0.3047524880D+04  0.1834737132D-02
      0.4573695180D+03  0.1403732281D-01
      0.1039486850D+03  0.6884262226D-01
      0.2921015530D+02  0.2321844432D+00
      0.9286662960D+01  0.4679413484D+00
      0.3163926960D+01  0.3623119853D+00
 SP   3 1.00       0.000000000000
      0.7868272350D+01 -0.1193324198D+00  0.6899906659D-01
      0.1881288540D+01 -0.1608541517D+00  0.3164239610D+00
      0.5442492580D+00  0.1143456438D+01  0.7443082909D+00
 SP   1 1.00       0.000000000000
      0.1687144782D+00  0.1000000000D+01  0.1000000000D+01
 D   1 1.00       0.000000000000
      0.8000000000D+00  0.1000000000D+01
 ****
      5 0
 S   6 1.00       0.000000000000
      0.3047524880D+04  0.1834737132D-02
      0.4573695180D+03  0.1403732281D-01
      0.1039486850D+03  0.6884262226D-01
      0.2921015530D+02  0.2321844432D+00
      0.9286662960D+01  0.4679413484D+00
      0.3163926960D+01  0.3623119853D+00
 SP   3 1.00       0.000000000000
      0.7868272350D+01 -0.1193324198D+00  0.6899906659D-01
      0.1881288540D+01 -0.1608541517D+00  0.3164239610D+00
      0.5442492580D+00  0.1143456438D+01  0.7443082909D+00
 SP   1 1.00       0.000000000000
      0.1687144782D+00  0.1000000000D+01  0.1000000000D+01
 D   1 1.00       0.000000000000
      0.8000000000D+00  0.1000000000D+01
 ****
      6 0
 S   6 1.00       0.000000000000
      0.3047524880D+04  0.1834737132D-02
      0.4573695180D+03  0.1403732281D-01
      0.1039486850D+03  0.6884262226D-01
      0.2921015530D+02  0.2321844432D+00
      0.9286662960D+01  0.4679413484D+00
      0.3163926960D+01  0.3623119853D+00
 SP   3 1.00       0.000000000000
      0.7868272350D+01 -0.1193324198D+00  0.6899906659D-01
      0.1881288540D+01 -0.1608541517D+00  0.3164239610D+00
      0.5442492580D+00  0.1143456438D+01  0.7443082909D+00
 SP   1 1.00       0.000000000000
      0.1687144782D+00  0.1000000000D+01  0.1000000000D+01
 D   1 1.00       0.000000000000
      0.8000000000D+00  0.1000000000D+01
 ****
      7 0
 S   6 1.00       0.000000000000
      0.3047524880D+04  0.1834737132D-02
      0.4573695180D+03  0.1403732281D-01
      0.1039486850D+03  0.6884262226D-01
      0.2921015530D+02  0.2321844432D+00
      0.9286662960D+01  0.4679413484D+00
      0.3163926960D+01  0.3623119853D+00
 SP   3 1.00       0.000000000000
      0.7868272350D+01 -0.1193324198D+00  0.6899906659D-01
      0.1881288540D+01 -0.1608541517D+00  0.3164239610D+00
      0.5442492580D+00  0.1143456438D+01  0.7443082909D+00
 SP   1 1.00       0.000000000000
      0.1687144782D+00  0.1000000000D+01  0.1000000000D+01
 D   1 1.00       0.000000000000
      0.8000000000D+00  0.1000000000D+01
 ****
      8 0
 S   6 1.00       0.000000000000
      0.3047524880D+04  0.1834737132D-02
      0.4573695180D+03  0.1403732281D-01
      0.1039486850D+03  0.6884262226D-01
      0.2921015530D+02  0.2321844432D+00
      0.9286662960D+01  0.4679413484D+00
      0.3163926960D+01  0.3623119853D+00
 SP   3 1.00       0.000000000000
      0.7868272350D+01 -0.1193324198D+00  0.6899906659D-01
      0.1881288540D+01 -0.1608541517D+00  0.3164239610D+00
      0.5442492580D+00  0.1143456438D+01  0.7443082909D+00
 SP   1 1.00       0.000000000000
      0.1687144782D+00  0.1000000000D+01  0.1000000000D+01
 D   1 1.00       0.000000000000
      0.8000000000D+00  0.1000000000D+01
 ****
      9 0
 S   6 1.00       0.000000000000
      0.3047524880D+04  0.1834737132D-02
      0.4573695180D+03  0.1403732281D-01
      0.1039486850D+03  0.6884262226D-01
      0.2921015530D+02  0.2321844432D+00
      0.9286662960D+01  0.4679413484D+00
      0.3163926960D+01  0.3623119853D+00
 SP   3 1.00       0.000000000000
      0.7868272350D+01 -0.1193324198D+00  0.6899906659D-01
      0.1881288540D+01 -0.1608541517D+00  0.3164239610D+00
      0.5442492580D+00  0.1143456438D+01  0.7443082909D+00
 SP   1 1.00       0.000000000000
      0.1687144782D+00  0.1000000000D+01  0.1000000000D+01
 D   1 1.00       0.000000000000
      0.8000000000D+00  0.1000000000D+01
 ****
     10 0
 S   6 1.00       0.000000000000
      0.3047524880D+04  0.1834737132D-02
      0.4573695180D+03  0.1403732281D-01
      0.1039486850D+03  0.6884262226D-01
      0.2921015530D+02  0.2321844432D+00
      0.9286662960D+01  0.4679413484D+00
      0.3163926960D+01  0.3623119853D+00
 SP   3 1.00       0.000000000000
      0.7868272350D+01 -0.1193324198D+00  0.6899906659D-01
      0.1881288540D+01 -0.1608541517D+00  0.3164239610D+00
      0.5442492580D+00  0.1143456438D+01  0.7443082909D+00
 SP   1 1.00       0.000000000000
      0.1687144782D+00  0.1000000000D+01  0.1000000000D+01
 D   1 1.00       0.000000000000
      0.8000000000D+00  0.1000000000D+01
 ****
     11 0
 S   6 1.00       0.000000000000
      0.3047524880D+04  0.1834737132D-02
      0.4573695180D+03  0.1403732281D-01
      0.1039486850D+03  0.6884262226D-01
      0.2921015530D+02  0.2321844432D+00
      0.9286662960D+01  0.4679413484D+00
      0.3163926960D+01  0.3623119853D+00
 SP   3 1.00       0.000000000000
      0.7868272350D+01 -0.1193324198D+00  0.6899906659D-01
      0.1881288540D+01 -0.1608541517D+00  0.3164239610D+00
      0.5442492580D+00  0.1143456438D+01  0.7443082909D+00
 SP   1 1.00       0.000000000000
      0.1687144782D+00  0.1000000000D+01  0.1000000000D+01
 D   1 1.00       0.000000000000
      0.8000000000D+00  0.1000000000D+01
 ****
     12 0
 S   6 1.00       0.000000000000
      0.3047524880D+04  0.1834737132D-02
      0.4573695180D+03  0.1403732281D-01
      0.1039486850D+03  0.6884262226D-01
      0.2921015530D+02  0.2321844432D+00
      0.9286662960D+01  0.4679413484D+00
      0.3163926960D+01  0.3623119853D+00
 SP   3 1.00       0.000000000000
      0.7868272350D+01 -0.1193324198D+00  0.6899906659D-01
      0.1881288540D+01 -0.1608541517D+00  0.3164239610D+00
      0.5442492580D+00  0.1143456438D+01  0.7443082909D+00
 SP   1 1.00       0.000000000000
      0.1687144782D+00  0.1000000000D+01  0.1000000000D+01
 D   1 1.00       0.000000000000
      0.8000000000D+00  0.1000000000D+01
 ****
     13 0
 S   6 1.00       0.000000000000
      0.3047524880D+04  0.1834737132D-02
      0.4573695180D+03  0.1403732281D-01
      0.1039486850D+03  0.6884262226D-01
      0.2921015530D+02  0.2321844432D+00
      0.9286662960D+01  0.4679413484D+00
      0.3163926960D+01  0.3623119853D+00
 SP   3 1.00       0.000000000000
      0.7868272350D+01 -0.1193324198D+00  0.6899906659D-01
      0.1881288540D+01 -0.1608541517D+00  0.3164239610D+00
      0.5442492580D+00  0.1143456438D+01  0.7443082909D+00
 SP   1 1.00       0.000000000000
      0.1687144782D+00  0.1000000000D+01  0.1000000000D+01
 D   1 1.00       0.000000000000
      0.8000000000D+00  0.1000000000D+01
 ****
     14 0
 S   6 1.00       0.000000000000
      0.3047524880D+04  0.1834737132D-02
      0.4573695180D+03  0.1403732281D-01
      0.1039486850D+03  0.6884262226D-01
      0.2921015530D+02  0.2321844432D+00
      0.9286662960D+01  0.4679413484D+00
      0.3163926960D+01  0.3623119853D+00
 SP   3 1.00       0.000000000000
      0.7868272350D+01 -0.1193324198D+00  0.6899906659D-01
      0.1881288540D+01 -0.1608541517D+00  0.3164239610D+00
      0.5442492580D+00  0.1143456438D+01  0.7443082909D+00
 SP   1 1.00       0.000000000000
      0.1687144782D+00  0.1000000000D+01  0.1000000000D+01
 D   1 1.00       0.000000000000
      0.8000000000D+00  0.1000000000D+01
 ****
     15 0
 S   6 1.00       0.000000000000
      0.3047524880D+04  0.1834737132D-02
      0.4573695180D+03  0.1403732281D-01
      0.1039486850D+03  0.6884262226D-01
      0.2921015530D+02  0.2321844432D+00
      0.9286662960D+01  0.4679413484D+00
      0.3163926960D+01  0.3623119853D+00
 SP   3 1.00       0.000000000000
      0.7868272350D+01 -0.1193324198D+00  0.6899906659D-01
      0.1881288540D+01 -0.1608541517D+00  0.3164239610D+00
      0.5442492580D+00  0.1143456438D+01  0.7443082909D+00
 SP   1 1.00       0.000000000000
      0.1687144782D+00  0.1000000000D+01  0.1000000000D+01
 D   1 1.00       0.000000000000
      0.8000000000D+00  0.1000000000D+01
 ****
     16 0
 S   6 1.00       0.000000000000
      0.3047524880D+04  0.1834737132D-02
      0.4573695180D+03  0.1403732281D-01
      0.1039486850D+03  0.6884262226D-01
      0.2921015530D+02  0.2321844432D+00
      0.9286662960D+01  0.4679413484D+00
      0.3163926960D+01  0.3623119853D+00
 SP   3 1.00       0.000000000000
      0.7868272350D+01 -0.1193324198D+00  0.6899906659D-01
      0.1881288540D+01 -0.1608541517D+00  0.3164239610D+00
      0.5442492580D+00  0.1143456438D+01  0.7443082909D+00
 SP   1 1.00       0.000000000000
      0.1687144782D+00  0.1000000000D+01  0.1000000000D+01
 D   1 1.00       0.000000000000
      0.8000000000D+00  0.1000000000D+01
 ****
     17 0
 S   6 1.00       0.000000000000
      0.5484671660D+04  0.1831074430D-02
      0.8252349460D+03  0.1395017220D-01
      0.1880469580D+03  0.6844507810D-01
      0.5296450000D+02  0.2327143360D+00
      0.1689757040D+02  0.4701928980D+00
      0.5799635340D+01  0.3585208530D+00
 SP   3 1.00       0.000000000000
      0.1553961625D+02 -0.1107775495D+00  0.7087426823D-01
      0.3599933586D+01 -0.1480262627D+00  0.3397528391D+00
      0.1013761750D+01  0.1130767015D+01  0.7271585773D+00
 SP   1 1.00       0.000000000000
      0.2700058226D+00  0.1000000000D+01  0.1000000000D+01
 D   1 1.00       0.000000000000
      0.8000000000D+00  0.1000000000D+01
 ****
     18 0
 S   3 1.00       0.000000000000
      0.1873113696D+02  0.3349460434D-01
      0.2825394365D+01  0.2347269535D+00
      0.6401216923D+00  0.8137573261D+00
 S   1 1.00       0.000000000000
      0.1612777588D+00  0.1000000000D+01
 ****
     19 0
 S   3 1.00       0.000000000000
      0.1873113696D+02  0.3349460434D-01
      0.2825394365D+01  0.2347269535D+00
      0.6401216923D+00  0.8137573261D+00
 S   1 1.00       0.000000000000
      0.1612777588D+00  0.1000000000D+01
 ****
     20 0
 S   3 1.00       0.000000000000
      0.1873113696D+02  0.3349460434D-01
      0.2825394365D+01  0.2347269535D+00
      0.6401216923D+00  0.8137573261D+00
 S   1 1.00       0.000000000000
      0.1612777588D+00  0.1000000000D+01
 ****
     21 0
 S   3 1.00       0.000000000000
      0.1873113696D+02  0.3349460434D-01
      0.2825394365D+01  0.2347269535D+00
      0.6401216923D+00  0.8137573261D+00
 S   1 1.00       0.000000000000
      0.1612777588D+00  0.1000000000D+01
 ****
     22 0
 S   3 1.00       0.000000000000
      0.1873113696D+02  0.3349460434D-01
      0.2825394365D+01  0.2347269535D+00
      0.6401216923D+00  0.8137573261D+00
 S   1 1.00       0.000000000000
      0.1612777588D+00  0.1000000000D+01
 ****
     23 0
 S   3 1.00       0.000000000000
      0.1873113696D+02  0.3349460434D-01
      0.2825394365D+01  0.2347269535D+00
      0.6401216923D+00  0.8137573261D+00
 S   1 1.00       0.000000000000
      0.1612777588D+00  0.1000000000D+01
 ****
     24 0
 S   3 1.00       0.000000000000
      0.1873113696D+02  0.3349460434D-01
      0.2825394365D+01  0.2347269535D+00
      0.6401216923D+00  0.8137573261D+00
 S   1 1.00       0.000000000000
      0.1612777588D+00  0.1000000000D+01
 ****
     25 0
 S   3 1.00       0.000000000000
      0.1873113696D+02  0.3349460434D-01
      0.2825394365D+01  0.2347269535D+00
      0.6401216923D+00  0.8137573261D+00
 S   1 1.00       0.000000000000
      0.1612777588D+00  0.1000000000D+01
 ****
     26 0
 S   3 1.00       0.000000000000
      0.1873113696D+02  0.3349460434D-01
      0.2825394365D+01  0.2347269535D+00
      0.6401216923D+00  0.8137573261D+00
 S   1 1.00       0.000000000000
      0.1612777588D+00  0.1000000000D+01
 ****
     27 0
 S   3 1.00       0.000000000000
      0.1873113696D+02  0.3349460434D-01
      0.2825394365D+01  0.2347269535D+00
      0.6401216923D+00  0.8137573261D+00
 S   1 1.00       0.000000000000
      0.1612777588D+00  0.1000000000D+01
 ****
     28 0
 S   3 1.00       0.000000000000
      0.1873113696D+02  0.3349460434D-01
      0.2825394365D+01  0.2347269535D+00
      0.6401216923D+00  0.8137573261D+00
 S   1 1.00       0.000000000000
      0.1612777588D+00  0.1000000000D+01
 ****
     29 0
 S   3 1.00       0.000000000000
      0.1873113696D+02  0.3349460434D-01
      0.2825394365D+01  0.2347269535D+00
      0.6401216923D+00  0.8137573261D+00
 S   1 1.00       0.000000000000
      0.1612777588D+00  0.1000000000D+01
 ****
     30 0
 S   3 1.00       0.000000000000
      0.1873113696D+02  0.3349460434D-01
      0.2825394365D+01  0.2347269535D+00
      0.6401216923D+00  0.8137573261D+00
 S   1 1.00       0.000000000000
      0.1612777588D+00  0.1000000000D+01
 ****
     31 0
 S   3 1.00       0.000000000000
      0.1873113696D+02  0.3349460434D-01
      0.2825394365D+01  0.2347269535D+00
      0.6401216923D+00  0.8137573261D+00
 S   1 1.00       0.000000000000
      0.1612777588D+00  0.1000000000D+01
 ****
     32 0
 S   3 1.00       0.000000000000
      0.1873113696D+02  0.3349460434D-01
      0.2825394365D+01  0.2347269535D+00
      0.6401216923D+00  0.8137573261D+00
 S   1 1.00       0.000000000000
      0.1612777588D+00  0.1000000000D+01
 ****
     33 0
 S   3 1.00       0.000000000000
      0.1873113696D+02  0.3349460434D-01
      0.2825394365D+01  0.2347269535D+00
      0.6401216923D+00  0.8137573261D+00
 S   1 1.00       0.000000000000
      0.1612777588D+00  0.1000000000D+01
 ****

   287 basis functions,   540 primitive gaussians,   287 cartesian basis functions
    61 alpha electrons       61 beta electrons
       nuclear repulsion energy      1195.4392681324 Hartrees.
 IExCor=  402 DFT=T Ex+Corr=B3LYP ExCW=0 ScaHFX=  0.200000
 ScaDFX=  0.800000  0.720000  1.000000  0.810000 ScalE2=  1.000000  1.000000
 IRadAn=      5 IRanWt=     -1 IRanGd=            0 ICorTp=0 IEmpDi=  4
 NAtoms=   33 NActive=   33 NUniq=   33 SFac= 1.00D+00 NAtFMM=   60 NAOKFM=F Big=F
 Integral buffers will be    131072 words long.
 Regular integral format.
 Two-electron integral symmetry is turned off.
 Leave Link  301 at Sat Nov  5 11:10:57 2022, MaxMem=   402653184 cpu:               1.1 elap:               0.1
 (Enter /home/wykgroup/appl/g16/l302.exe)
 NPDir=0 NMtPBC=     1 NCelOv=     1 NCel=       1 NClECP=     1 NCelD=      1
         NCelK=      1 NCelE2=     1 NClLst=     1 CellRange=     0.0.
 One-electron integrals computed using PRISM.
 NBasis=   287 RedAO= T EigKep=  4.58D-04  NBF=   287
 NBsUse=   287 1.00D-06 EigRej= -1.00D+00 NBFU=   287
 Precomputing XC quadrature grid using
 IXCGrd= 4 IRadAn=           5 IRanWt=          -1 IRanGd=           0 AccXCQ= 0.00D+00.
 Generated NRdTot=       0 NPtTot=           0 NUsed=           0 NTot=          32
 NSgBfM=   286   286   286   286   286 MxSgAt=    33 MxSgA2=    33.
 Leave Link  302 at Sat Nov  5 11:10:58 2022, MaxMem=   402653184 cpu:               6.6 elap:               0.6
 (Enter /home/wykgroup/appl/g16/l303.exe)
 DipDrv:  MaxL=1.
 Leave Link  303 at Sat Nov  5 11:10:58 2022, MaxMem=   402653184 cpu:               1.3 elap:               0.1
 (Enter /home/wykgroup/appl/g16/l308.exe)
 Leave Link  308 at Sat Nov  5 11:10:58 2022, MaxMem=   402653184 cpu:               1.7 elap:               0.2
 (Enter /home/wykgroup/appl/g16/l401.exe)
 ExpMin= 1.61D-01 ExpMax= 5.48D+03 ExpMxC= 8.25D+02 IAcc=3 IRadAn=         5 AccDes= 0.00D+00
 Harris functional with IExCor=  402 and IRadAn=       5 diagonalized for initial guess.
 HarFok:  IExCor=  402 AccDes= 0.00D+00 IRadAn=         5 IDoV= 1 UseB2=F ITyADJ=14
 ICtDFT=  3500011 ScaDFX=  1.000000  1.000000  1.000000  1.000000
 FoFCou: FMM=F IPFlag=           0 FMFlag=      100000 FMFlg1=           0
         NFxFlg=           0 DoJE=T BraDBF=F KetDBF=T FulRan=T
         wScrn=  0.000000 ICntrl=       500 IOpCl=  0 I1Cent=   200000004 NGrid=           0
         NMat0=    1 NMatS0=      1 NMatT0=    0 NMatD0=    1 NMtDS0=    0 NMtDT0=    0
 Symmetry not used in FoFCou.
 Harris En= -731.679707956024    
 JPrj=0 DoOrth=F DoCkMO=F.
 Leave Link  401 at Sat Nov  5 11:10:59 2022, MaxMem=   402653184 cpu:              16.1 elap:               1.3
 (Enter /home/wykgroup/appl/g16/l502.exe)
 Two-electron integral symmetry not used.
 Closed shell SCF:
 Using DIIS extrapolation, IDIIS=  1040.
 NGot=   402653184 LenX=   402481804 LenY=   402398994
 Requested convergence on RMS density matrix=1.00D-08 within  32 cycles.
 Requested convergence on MAX density matrix=1.00D-06.
 Requested convergence on             energy=1.00D-06.
 No special actions if energy rises.
 Fock matrices will be formed incrementally for  20 cycles.
 Integral accuracy reduced to 1.0D-05 until final iterations.

 Cycle   1  Pass 0  IDiag  1:
 FoFJK:  IHMeth= 1 ICntrl=       0 DoSepK=F KAlg= 0 I1Cent=           0 FoldK=F
 IRaf= 850000000 NMat=       1 IRICut=       1 DoRegI=T DoRafI=F ISym2E= 0 IDoP0=0 IntGTp=1.
 FoFCou: FMM=F IPFlag=           0 FMFlag=      100000 FMFlg1=           0
         NFxFlg=           0 DoJE=F BraDBF=F KetDBF=F FulRan=T
         wScrn=  0.000000 ICntrl=         0 IOpCl=  0 I1Cent=           0 NGrid=           0
         NMat0=    1 NMatS0=      1 NMatT0=    0 NMatD0=    1 NMtDS0=    0 NMtDT0=    0
 Symmetry not used in FoFCou.
 E= -731.210384309806    
 DIIS: error= 2.60D-02 at cycle   1 NSaved=   1.
 NSaved= 1 IEnMin= 1 EnMin= -731.210384309806     IErMin= 1 ErrMin= 2.60D-02
 ErrMax= 2.60D-02  0.00D+00 EMaxC= 1.00D-01 BMatC= 4.18D-01 BMatP= 4.18D-01
 IDIUse=3 WtCom= 7.40D-01 WtEn= 2.60D-01
 Coeff-Com:  0.100D+01
 Coeff-En:   0.100D+01
 Coeff:      0.100D+01
 Gap=     0.171 Goal=   None    Shift=    0.000
 GapD=    0.171 DampG=1.000 DampE=0.500 DampFc=0.5000 IDamp=-1.
 Damping current iteration by 5.00D-01
 RMSDP=5.12D-03 MaxDP=1.34D-01              OVMax= 2.47D-01

 Cycle   2  Pass 0  IDiag  1:
 RMSU=  2.53D-03    CP:  9.79D-01
 E= -731.398507148012     Delta-E=       -0.188122838206 Rises=F Damp=T
 DIIS: error= 5.51D-03 at cycle   2 NSaved=   2.
 NSaved= 2 IEnMin= 2 EnMin= -731.398507148012     IErMin= 2 ErrMin= 5.51D-03
 ErrMax= 5.51D-03  0.00D+00 EMaxC= 1.00D-01 BMatC= 2.77D-02 BMatP= 4.18D-01
 IDIUse=3 WtCom= 9.45D-01 WtEn= 5.51D-02
 Coeff-Com:  0.695D-01 0.931D+00
 Coeff-En:   0.111D+00 0.889D+00
 Coeff:      0.718D-01 0.928D+00
 Gap=     0.179 Goal=   None    Shift=    0.000
 RMSDP=1.35D-03 MaxDP=4.37D-02 DE=-1.88D-01 OVMax= 2.30D-01

 Cycle   3  Pass 0  IDiag  1:
 RMSU=  1.30D-03    CP:  9.72D-01  8.67D-01
 E= -731.615514174834     Delta-E=       -0.217007026821 Rises=F Damp=F
 DIIS: error= 6.00D-03 at cycle   3 NSaved=   3.
 NSaved= 3 IEnMin= 3 EnMin= -731.615514174834     IErMin= 2 ErrMin= 5.51D-03
 ErrMax= 6.00D-03  0.00D+00 EMaxC= 1.00D-01 BMatC= 2.31D-02 BMatP= 2.77D-02
 IDIUse=3 WtCom= 9.40D-01 WtEn= 6.00D-02
 Coeff-Com: -0.973D-02 0.474D+00 0.536D+00
 Coeff-En:   0.000D+00 0.000D+00 0.100D+01
 Coeff:     -0.915D-02 0.446D+00 0.563D+00
 Gap=     0.180 Goal=   None    Shift=    0.000
 RMSDP=9.46D-04 MaxDP=3.57D-02 DE=-2.17D-01 OVMax= 1.08D-01

 Cycle   4  Pass 0  IDiag  1:
 RMSU=  6.99D-04    CP:  9.73D-01  9.13D-01  5.19D-01
 E= -731.629288233281     Delta-E=       -0.013774058448 Rises=F Damp=F
 DIIS: error= 3.82D-03 at cycle   4 NSaved=   4.
 NSaved= 4 IEnMin= 4 EnMin= -731.629288233281     IErMin= 4 ErrMin= 3.82D-03
 ErrMax= 3.82D-03  0.00D+00 EMaxC= 1.00D-01 BMatC= 9.00D-03 BMatP= 2.31D-02
 IDIUse=3 WtCom= 9.62D-01 WtEn= 3.82D-02
 Coeff-Com: -0.153D-01 0.122D+00 0.389D+00 0.504D+00
 Coeff-En:   0.000D+00 0.000D+00 0.320D+00 0.680D+00
 Coeff:     -0.147D-01 0.118D+00 0.387D+00 0.510D+00
 Gap=     0.179 Goal=   None    Shift=    0.000
 RMSDP=4.25D-04 MaxDP=1.35D-02 DE=-1.38D-02 OVMax= 4.72D-02

 Cycle   5  Pass 0  IDiag  1:
 RMSU=  1.46D-04    CP:  9.73D-01  9.08D-01  6.76D-01  5.11D-01
 E= -731.637976647496     Delta-E=       -0.008688414214 Rises=F Damp=F
 DIIS: error= 7.55D-04 at cycle   5 NSaved=   5.
 NSaved= 5 IEnMin= 5 EnMin= -731.637976647496     IErMin= 5 ErrMin= 7.55D-04
 ErrMax= 7.55D-04  0.00D+00 EMaxC= 1.00D-01 BMatC= 2.99D-04 BMatP= 9.00D-03
 IDIUse=3 WtCom= 9.92D-01 WtEn= 7.55D-03
 Coeff-Com: -0.585D-02 0.241D-01 0.150D+00 0.251D+00 0.581D+00
 Coeff-En:   0.000D+00 0.000D+00 0.000D+00 0.000D+00 0.100D+01
 Coeff:     -0.580D-02 0.240D-01 0.149D+00 0.249D+00 0.584D+00
 Gap=     0.180 Goal=   None    Shift=    0.000
 RMSDP=7.40D-05 MaxDP=2.37D-03 DE=-8.69D-03 OVMax= 5.75D-03

 Cycle   6  Pass 0  IDiag  1:
 RMSU=  4.93D-05    CP:  9.72D-01  9.12D-01  6.74D-01  5.48D-01  6.77D-01
 E= -731.638220302591     Delta-E=       -0.000243655095 Rises=F Damp=F
 DIIS: error= 3.08D-04 at cycle   6 NSaved=   6.
 NSaved= 6 IEnMin= 6 EnMin= -731.638220302591     IErMin= 6 ErrMin= 3.08D-04
 ErrMax= 3.08D-04  0.00D+00 EMaxC= 1.00D-01 BMatC= 3.97D-05 BMatP= 2.99D-04
 IDIUse=3 WtCom= 9.97D-01 WtEn= 3.08D-03
 Coeff-Com: -0.193D-02 0.284D-02 0.490D-01 0.926D-01 0.331D+00 0.527D+00
 Coeff-En:   0.000D+00 0.000D+00 0.000D+00 0.000D+00 0.774D-01 0.923D+00
 Coeff:     -0.192D-02 0.283D-02 0.488D-01 0.924D-01 0.330D+00 0.528D+00
 Gap=     0.180 Goal=   None    Shift=    0.000
 RMSDP=2.48D-05 MaxDP=7.03D-04 DE=-2.44D-04 OVMax= 2.29D-03

 Cycle   7  Pass 0  IDiag  1:
 RMSU=  1.22D-05    CP:  9.72D-01  9.11D-01  6.78D-01  5.51D-01  7.08D-01
                    CP:  5.91D-01
 E= -731.638256352221     Delta-E=       -0.000036049630 Rises=F Damp=F
 DIIS: error= 5.99D-05 at cycle   7 NSaved=   7.
 NSaved= 7 IEnMin= 7 EnMin= -731.638256352221     IErMin= 7 ErrMin= 5.99D-05
 ErrMax= 5.99D-05  0.00D+00 EMaxC= 1.00D-01 BMatC= 1.69D-06 BMatP= 3.97D-05
 IDIUse=1 WtCom= 1.00D+00 WtEn= 0.00D+00
 Coeff-Com: -0.689D-03 0.326D-03 0.185D-01 0.359D-01 0.146D+00 0.272D+00
 Coeff-Com:  0.528D+00
 Coeff:     -0.689D-03 0.326D-03 0.185D-01 0.359D-01 0.146D+00 0.272D+00
 Coeff:      0.528D+00
 Gap=     0.180 Goal=   None    Shift=    0.000
 RMSDP=6.68D-06 MaxDP=1.86D-04 DE=-3.60D-05 OVMax= 5.99D-04

 Initial convergence to 1.0D-05 achieved.  Increase integral accuracy.
 Cycle   8  Pass 1  IDiag  1:
 E= -731.638274758157     Delta-E=       -0.000018405937 Rises=F Damp=F
 DIIS: error= 3.87D-05 at cycle   1 NSaved=   1.
 NSaved= 1 IEnMin= 1 EnMin= -731.638274758157     IErMin= 1 ErrMin= 3.87D-05
 ErrMax= 3.87D-05  0.00D+00 EMaxC= 1.00D-01 BMatC= 4.76D-07 BMatP= 4.76D-07
 IDIUse=1 WtCom= 1.00D+00 WtEn= 0.00D+00
 Coeff-Com:  0.100D+01
 Coeff:      0.100D+01
 Gap=     0.180 Goal=   None    Shift=    0.000
 RMSDP=6.68D-06 MaxDP=1.86D-04 DE=-1.84D-05 OVMax= 5.47D-04

 Cycle   9  Pass 1  IDiag  1:
 RMSU=  1.96D-05    CP:  1.00D+00
 E= -731.638274396980     Delta-E=        0.000000361178 Rises=F Damp=F
 DIIS: error= 6.40D-05 at cycle   2 NSaved=   2.
 NSaved= 2 IEnMin= 1 EnMin= -731.638274758157     IErMin= 1 ErrMin= 3.87D-05
 ErrMax= 6.40D-05  0.00D+00 EMaxC= 1.00D-01 BMatC= 7.13D-07 BMatP= 4.76D-07
 IDIUse=1 WtCom= 1.00D+00 WtEn= 0.00D+00
 Coeff-Com:  0.561D+00 0.439D+00
 Coeff:      0.561D+00 0.439D+00
 Gap=     0.180 Goal=   None    Shift=    0.000
 RMSDP=4.28D-06 MaxDP=1.21D-04 DE= 3.61D-07 OVMax= 4.87D-04

 Cycle  10  Pass 1  IDiag  1:
 RMSU=  4.17D-06    CP:  1.00D+00  9.52D-01
 E= -731.638275121222     Delta-E=       -0.000000724242 Rises=F Damp=F
 DIIS: error= 2.10D-05 at cycle   3 NSaved=   3.
 NSaved= 3 IEnMin= 3 EnMin= -731.638275121222     IErMin= 3 ErrMin= 2.10D-05
 ErrMax= 2.10D-05  0.00D+00 EMaxC= 1.00D-01 BMatC= 6.93D-08 BMatP= 4.76D-07
 IDIUse=1 WtCom= 1.00D+00 WtEn= 0.00D+00
 Coeff-Com:  0.346D-01 0.238D+00 0.727D+00
 Coeff:      0.346D-01 0.238D+00 0.727D+00
 Gap=     0.180 Goal=   None    Shift=    0.000
 RMSDP=1.17D-06 MaxDP=3.53D-05 DE=-7.24D-07 OVMax= 1.33D-04

 Cycle  11  Pass 1  IDiag  1:
 RMSU=  5.51D-07    CP:  1.00D+00  9.71D-01  7.68D-01
 E= -731.638275192719     Delta-E=       -0.000000071497 Rises=F Damp=F
 DIIS: error= 3.84D-06 at cycle   4 NSaved=   4.
 NSaved= 4 IEnMin= 4 EnMin= -731.638275192719     IErMin= 4 ErrMin= 3.84D-06
 ErrMax= 3.84D-06  0.00D+00 EMaxC= 1.00D-01 BMatC= 7.70D-09 BMatP= 6.93D-08
 IDIUse=1 WtCom= 1.00D+00 WtEn= 0.00D+00
 Coeff-Com: -0.495D-03 0.128D+00 0.441D+00 0.431D+00
 Coeff:     -0.495D-03 0.128D+00 0.441D+00 0.431D+00
 Gap=     0.180 Goal=   None    Shift=    0.000
 RMSDP=3.49D-07 MaxDP=1.09D-05 DE=-7.15D-08 OVMax= 3.95D-05

 Cycle  12  Pass 1  IDiag  1:
 RMSU=  1.48D-07    CP:  1.00D+00  9.71D-01  7.81D-01  4.35D-01
 E= -731.638275199925     Delta-E=       -0.000000007206 Rises=F Damp=F
 DIIS: error= 7.28D-07 at cycle   5 NSaved=   5.
 NSaved= 5 IEnMin= 5 EnMin= -731.638275199925     IErMin= 5 ErrMin= 7.28D-07
 ErrMax= 7.28D-07  0.00D+00 EMaxC= 1.00D-01 BMatC= 4.05D-10 BMatP= 7.70D-09
 IDIUse=1 WtCom= 1.00D+00 WtEn= 0.00D+00
 Coeff-Com: -0.195D-02 0.694D-01 0.244D+00 0.274D+00 0.414D+00
 Coeff:     -0.195D-02 0.694D-01 0.244D+00 0.274D+00 0.414D+00
 Gap=     0.180 Goal=   None    Shift=    0.000
 RMSDP=9.06D-08 MaxDP=3.38D-06 DE=-7.21D-09 OVMax= 1.06D-05

 Cycle  13  Pass 1  IDiag  1:
 RMSU=  4.65D-08    CP:  1.00D+00  9.71D-01  7.79D-01  4.68D-01  4.95D-01
 E= -731.638275200322     Delta-E=       -0.000000000397 Rises=F Damp=F
 DIIS: error= 1.05D-07 at cycle   6 NSaved=   6.
 NSaved= 6 IEnMin= 6 EnMin= -731.638275200322     IErMin= 6 ErrMin= 1.05D-07
 ErrMax= 1.05D-07  0.00D+00 EMaxC= 1.00D-01 BMatC= 9.99D-12 BMatP= 4.05D-10
 IDIUse=1 WtCom= 1.00D+00 WtEn= 0.00D+00
 Coeff-Com: -0.897D-03 0.229D-01 0.818D-01 0.993D-01 0.190D+00 0.607D+00
 Coeff:     -0.897D-03 0.229D-01 0.818D-01 0.993D-01 0.190D+00 0.607D+00
 Gap=     0.180 Goal=   None    Shift=    0.000
 RMSDP=1.55D-08 MaxDP=4.97D-07 DE=-3.97D-10 OVMax= 1.36D-06

 Cycle  14  Pass 1  IDiag  1:
 RMSU=  1.26D-08    CP:  1.00D+00  9.71D-01  7.79D-01  4.68D-01  5.26D-01
                    CP:  8.33D-01
 E= -731.638275200338     Delta-E=       -0.000000000015 Rises=F Damp=F
 DIIS: error= 3.04D-08 at cycle   7 NSaved=   7.
 NSaved= 7 IEnMin= 7 EnMin= -731.638275200338     IErMin= 7 ErrMin= 3.04D-08
 ErrMax= 3.04D-08  0.00D+00 EMaxC= 1.00D-01 BMatC= 9.44D-13 BMatP= 9.99D-12
 IDIUse=1 WtCom= 1.00D+00 WtEn= 0.00D+00
 Coeff-Com: -0.198D-03 0.347D-02 0.128D-01 0.186D-01 0.365D-01 0.265D+00
 Coeff-Com:  0.663D+00
 Coeff:     -0.198D-03 0.347D-02 0.128D-01 0.186D-01 0.365D-01 0.265D+00
 Coeff:      0.663D+00
 Gap=     0.180 Goal=   None    Shift=    0.000
 RMSDP=4.92D-09 MaxDP=1.24D-07 DE=-1.55D-11 OVMax= 3.62D-07

 SCF Done:  E(RB3LYP) =  -731.638275200     A.U. after   14 cycles
            NFock= 14  Conv=0.49D-08     -V/T= 2.0095
 KE= 7.247454368498D+02 PE=-4.090955671429D+03 EE= 1.439132691246D+03
 Leave Link  502 at Sat Nov  5 11:11:20 2022, MaxMem=   402653184 cpu:             263.8 elap:              20.4
 (Enter /home/wykgroup/appl/g16/l508.exe)
 QCSCF skips out because SCF is already converged.
 Leave Link  508 at Sat Nov  5 11:11:20 2022, MaxMem=   402653184 cpu:               0.4 elap:               0.1
 (Enter /home/wykgroup/appl/g16/l801.exe)
 DoSCS=F DFT=T ScalE2(SS,OS)=  1.000000  1.000000
 ExpMin= 1.61D-01 ExpMax= 5.48D+03 ExpMxC= 8.25D+02 IAcc=3 IRadAn=         5 AccDes= 0.00D+00
 HarFok:  IExCor=  205 AccDes= 0.00D+00 IRadAn=         5 IDoV=-2 UseB2=F ITyADJ=14
 ICtDFT= 12500011 ScaDFX=  1.000000  1.000000  1.000000  1.000000
 Largest valence mixing into a core orbital is  6.30D-05
 Largest core mixing into a valence orbital is  1.27D-05
 Range of M.O.s used for correlation:    18   287
 NBasis=   287 NAE=    61 NBE=    61 NFC=    17 NFV=     0
 NROrb=    270 NOA=    44 NOB=    44 NVA=   226 NVB=   226
 Leave Link  801 at Sat Nov  5 11:11:20 2022, MaxMem=   402653184 cpu:               4.9 elap:               0.4
 (Enter /home/wykgroup/appl/g16/l914.exe)
 RHF ground state
 Two-electron integral symmetry not used.
 MDV=   402653184 DFT=T DoStab=F Mixed=T DoRPA=T DoScal=F NonHer=T
 Making orbital integer symmetry assigments:
    16 initial guesses have been made.
 Convergence on wavefunction:    0.001000000000000
 Davidson Disk Diagonalization:  ConvIn= 1.00D-03 SkipCon=T Conv= 1.00D-03.
 Max sub-space:  2000 roots to seek:    16 dimension of matrix:        19888
 Iteration     1 Dimension    16 NMult     0 NNew     16
 CISAX will form    16 AO SS matrices at one time.
 NMat=    16 NSing=     8 JSym2X= 0.
 FoFJK:  IHMeth= 1 ICntrl=       0 DoSepK=F KAlg= 0 I1Cent=           0 FoldK=F
 IRaf= 850000000 NMat=      32 IRICut=      40 DoRegI=T DoRafI=T ISym2E= 0 IDoP0=0 IntGTp=1.
 FoFCou: FMM=F IPFlag=           0 FMFlag=      100000 FMFlg1=           0
         NFxFlg=           0 DoJE=F BraDBF=F KetDBF=F FulRan=T
         wScrn=  0.000000 ICntrl=         0 IOpCl=  0 I1Cent=           0 NGrid=           0
         NMat0=   32 NMatS0=      8 NMatT0=    8 NMatD0=   32 NMtDS0=    0 NMtDT0=    0
 Symmetry not used in FoFCou.
 Raff kept on since  81.13% of shell-pairs survive, threshold=   0.20 IRatSp=81.
 New state      1 was old state      2
 New state      2 was old state     12
 New state      3 was old state      4
 New state      4 was old state      3
 New state      5 was old state     14
 New state      6 was old state      5
 New state      7 was old state      6
 New state      8 was old state     16
 Excitation Energies [eV] at current iteration:
 Root      1 :     2.889445413303379
 Root      2 :     4.477134007635246
 Root      3 :     4.683520969516040
 Root      4 :     4.697646763418518
 Root      5 :     4.789709156257893
 Root      6 :     4.862162274068162
 Root      7 :     4.866145198952951
 Root      8 :     5.166362510164227
 Root      9 :     5.509285008622832
 Root     10 :     5.538047872181919
 Root     11 :     5.727419226523336
 Root     12 :     5.738672708202740
 Root     13 :     5.785251516197460
 Root     14 :     5.822548441155988
 Root     15 :     7.638989253341836
 Root     16 :     8.476497373203140
 Vector   3 SDiff=1.17D+01 TDiff=1.20D+01 assumed to be singlet.
 Vector   7 SDiff=1.17D+01 TDiff=1.20D+01 assumed to be singlet.
 Iteration     2 Dimension    24 NMult    16 NNew      8
 CISAX will form     8 AO SS matrices at one time.
 NMat=     8 NSing=     4 JSym2X= 0.
 Root      1 not converged, maximum delta is    0.080793149755133
 Root      2 not converged, maximum delta is    0.455638476456700
 New state      3 was old state      4
 Root      3 not converged, maximum delta is    0.030950626913793
 New state      4 was old state      6
 Root      4 not converged, maximum delta is    0.197711646545903
 Excitation Energies [eV] at current iteration:
 Root      1 :     2.457389638846486   Change is   -0.432055774456893
 Root      2 :     3.883357587690985   Change is   -0.593776419944261
 Root      3 :     4.683223900034738   Change is   -0.014422863383780
 Root      4 :     4.828198875414433   Change is   -0.033963398653729
 Iteration     3 Dimension    32 NMult    24 NNew      8
 CISAX will form     8 AO SS matrices at one time.
 NMat=     8 NSing=     4 JSym2X= 0.
 Root      1 not converged, maximum delta is    0.010184443892547
 Root      2 not converged, maximum delta is    0.093747069919196
 New state      3 was old state      4
 Root      3 not converged, maximum delta is    0.497004835030356
 New state      4 was old state      3
 Root      4 not converged, maximum delta is    0.094631162284565
 Excitation Energies [eV] at current iteration:
 Root      1 :     2.441822801710492   Change is   -0.015566837135993
 Root      2 :     3.764195325174528   Change is   -0.119162262516457
 Root      3 :     4.610821280466983   Change is   -0.217377594947450
 Root      4 :     4.683970272679773   Change is    0.000746372645034
 Iteration     4 Dimension    40 NMult    32 NNew      8
 CISAX will form     8 AO SS matrices at one time.
 NMat=     8 NSing=     4 JSym2X= 0.
 Root      1 not converged, maximum delta is    0.005140182704915
 Root      2 not converged, maximum delta is    0.009053800867102
 Root      3 not converged, maximum delta is    0.051648410937923
 Root      4 not converged, maximum delta is    0.033133023499813
 Excitation Energies [eV] at current iteration:
 Root      1 :     2.441118578462475   Change is   -0.000704223248018
 Root      2 :     3.758064061632046   Change is   -0.006131263542483
 Root      3 :     4.559064775566634   Change is   -0.051756504900349
 Root      4 :     4.683364551717630   Change is   -0.000605720962143
 Iteration     5 Dimension    48 NMult    40 NNew      8
 CISAX will form     8 AO SS matrices at one time.
 NMat=     8 NSing=     4 JSym2X= 0.
 Root      1 not converged, maximum delta is    0.001378347264341
 Root      2 not converged, maximum delta is    0.001512523247997
 Root      3 not converged, maximum delta is    0.008614303053364
 Root      4 not converged, maximum delta is    0.002969570683972
 Excitation Energies [eV] at current iteration:
 Root      1 :     2.441065596959045   Change is   -0.000052981503430
 Root      2 :     3.757759651087587   Change is   -0.000304410544459
 Root      3 :     4.550686515910755   Change is   -0.008378259655880
 Root      4 :     4.683308289295903   Change is   -0.000056262421727
 Iteration     6 Dimension    56 NMult    48 NNew      8
 CISAX will form     8 AO SS matrices at one time.
 NMat=     8 NSing=     4 JSym2X= 0.
 Root      1 has converged.
 Root      2 has converged.
 Root      3 not converged, maximum delta is    0.001347129143497
 Root      4 has converged.
 Excitation Energies [eV] at current iteration:
 Root      1 :     2.441063086929578   Change is   -0.000002510029467
 Root      2 :     3.757744777274223   Change is   -0.000014873813364
 Root      3 :     4.549971436348242   Change is   -0.000715079562512
 Root      4 :     4.683302627781156   Change is   -0.000005661514747
 Iteration     7 Dimension    58 NMult    56 NNew      2
 CISAX will form     2 AO SS matrices at one time.
 NMat=     2 NSing=     2 JSym2X= 0.
 Root      1 has converged.
 Root      2 has converged.
 Root      3 has converged.
 Root      4 has converged.
 Excitation Energies [eV] at current iteration:
 Root      1 :     2.441063086929678   Change is    0.000000000000101
 Root      2 :     3.757744777274223   Change is    0.000000000000000
 Root      3 :     4.549884494807604   Change is   -0.000086941540638
 Root      4 :     4.683302067711039   Change is   -0.000000560070118
 Convergence achieved on expansion vectors.
 ***********************************************************************
 Excited states from <AA,BB:AA,BB> singles matrix:
 ***********************************************************************
 
 1PDM for each excited state written to RWF  633
 Ground to excited state transition densities written to RWF  633
 Ground to excited state transition electric dipole moments (Au):
       state          X           Y           Z        Dip. S.      Osc.
         1        -0.0000     -0.0000      0.0000      0.0000      0.0000
         2        -0.0000     -0.0000     -0.0000      0.0000      0.0000
         3         1.4197      0.1156      0.1411      2.0488      0.2284
         4         0.0393      0.0188      0.0294      0.0028      0.0003
 Ground to excited state transition velocity dipole moments (Au):
       state          X           Y           Z        Dip. S.      Osc.
         1         0.0000      0.0000     -0.0000      0.0000      0.0000
         2         0.0000      0.0000      0.0000      0.0000      0.0000
         3        -0.2375     -0.0135     -0.0286      0.0574      0.2288
         4        -0.0077     -0.0044     -0.0082      0.0001      0.0006
 Ground to excited state transition magnetic dipole moments (Au):
       state          X           Y           Z
         1         0.0000     -0.0000     -0.0000
         2        -0.0000     -0.0000      0.0000
         3         0.3089     -0.8865     -1.7192
         4        -0.0471      0.0719      0.0604
 Ground to excited state transition velocity quadrupole moments (Au):
       state          XX          YY          ZZ          XY          XZ          YZ
         1         0.0000     -0.0000     -0.0000      0.0000      0.0000      0.0000
         2         0.0000      0.0000      0.0000      0.0000     -0.0000     -0.0000
         3         1.4666     -0.0070     -0.1011      0.1429      0.2136     -0.0098
         4        -0.1221      0.0250     -0.0343     -0.0023     -0.0236     -0.0095
 <0|del|b> * <b|rxdel|0> + <0|del|b> * <b|delr+rdel|0>
 Rotatory Strengths (R) in cgs (10**-40 erg-esu-cm/Gauss)
       state          XX          YY          ZZ    R(velocity)    E-M Angle
         1        -0.0000      0.0000      0.0000      0.0000       90.00
         2         0.0000     -0.0000     -0.0000      0.0000       90.00
         3       126.5875    -37.7371   -140.8502    -17.3333       91.50
         4        -1.8465     -0.1655      0.1584     -0.6179      110.77
 1/2[<0|r|b>*<b|rxdel|0> + (<0|rxdel|b>*<b|r|0>)*]
 Rotatory Strengths (R) in cgs (10**-40 erg-esu-cm/Gauss)
       state          XX          YY          ZZ     R(length)
         1         0.0000     -0.0000      0.0000     -0.0000
         2        -0.0000     -0.0000      0.0000      0.0000
         3      -310.1156     72.4486    171.5470    -22.0400
         4         1.3093     -0.9541     -1.2542     -0.2997
  1/2[<0|del|b>*<b|r|0> + (<0|r|b>*<b|del|0>)*] (Au)
       state          X           Y           Z        Dip. S.   Osc.(frdel)
         1        -0.0000     -0.0000     -0.0000      0.0000      0.0000
         2        -0.0000     -0.0000     -0.0000      0.0000      0.0000
         3        -0.3372     -0.0016     -0.0040      0.3427      0.2285
         4        -0.0003     -0.0001     -0.0002      0.0006      0.0004

 Excitation energies and oscillator strengths:
 
 Excited state symmetry could not be determined.
 Excited State   1:      Triplet-?Sym    2.4411 eV  507.91 nm  f=0.0000  <S**2>=2.000
      61 -> 62         0.70284
      61 <- 62         0.13588
 This state for optimization and/or second-order correction.
 Total Energy, E(TD-HF/TD-DFT) =  -731.548567783    
 Copying the excited state density for this state as the 1-particle RhoCI density.
 
 Excited state symmetry could not be determined.
 Excited State   2:      Triplet-?Sym    3.7577 eV  329.94 nm  f=0.0000  <S**2>=2.000
      59 -> 64         0.46074
      60 -> 63         0.52855
 
 Excited state symmetry could not be determined.
 Excited State   3:      Singlet-?Sym    4.5499 eV  272.50 nm  f=0.2284  <S**2>=0.000
      61 -> 62         0.70199
 
 Excited state symmetry could not be determined.
 Excited State   4:      Singlet-?Sym    4.6833 eV  264.74 nm  f=0.0003  <S**2>=0.000
      61 -> 63         0.70379
 SavETr:  write IOETrn=   770 NScale= 10 NData=  16 NLR=1 NState=    4 LETran=      82.
 Leave Link  914 at Sat Nov  5 11:14:01 2022, MaxMem=   402653184 cpu:            2132.7 elap:             160.5
 (Enter /home/wykgroup/appl/g16/l601.exe)
 Copying SCF densities to generalized density rwf, IOpCl= 0 IROHF=0.

 **********************************************************************

            Population analysis using the SCF Density.

 **********************************************************************

 Alpha  occ. eigenvalues --  -19.16871 -19.15542 -10.30096 -10.23801 -10.19909
 Alpha  occ. eigenvalues --  -10.19513 -10.19276 -10.19182 -10.19029 -10.18747
 Alpha  occ. eigenvalues --  -10.18689 -10.18660 -10.18537 -10.18511 -10.18227
 Alpha  occ. eigenvalues --  -10.17927 -10.17321  -1.07661  -1.01438  -0.85160
 Alpha  occ. eigenvalues --   -0.83984  -0.80189  -0.76389  -0.74086  -0.73391
 Alpha  occ. eigenvalues --   -0.72678  -0.66040  -0.64347  -0.60773  -0.60179
 Alpha  occ. eigenvalues --   -0.58848  -0.55721  -0.52852  -0.51670  -0.50047
 Alpha  occ. eigenvalues --   -0.49687  -0.47953  -0.45810  -0.45141  -0.43903
 Alpha  occ. eigenvalues --   -0.43226  -0.42674  -0.41690  -0.40937  -0.39953
 Alpha  occ. eigenvalues --   -0.39526  -0.37403  -0.37162  -0.36271  -0.35729
 Alpha  occ. eigenvalues --   -0.35507  -0.34193  -0.33828  -0.33481  -0.31794
 Alpha  occ. eigenvalues --   -0.30183  -0.28598  -0.27952  -0.24616  -0.24410
 Alpha  occ. eigenvalues --   -0.19460
 Alpha virt. eigenvalues --   -0.01492  -0.00221   0.00341   0.07041   0.07978
 Alpha virt. eigenvalues --    0.09920   0.10189   0.11160   0.11621   0.13576
 Alpha virt. eigenvalues --    0.14569   0.15111   0.15362   0.16234   0.16361
 Alpha virt. eigenvalues --    0.16924   0.17569   0.18580   0.18807   0.19358
 Alpha virt. eigenvalues --    0.20269   0.21287   0.21534   0.22616   0.23619
 Alpha virt. eigenvalues --    0.25130   0.25684   0.27008   0.28879   0.30751
 Alpha virt. eigenvalues --    0.30999   0.31695   0.33258   0.35099   0.35814
 Alpha virt. eigenvalues --    0.37315   0.42508   0.46001   0.47459   0.50564
 Alpha virt. eigenvalues --    0.51448   0.53227   0.53559   0.54170   0.54791
 Alpha virt. eigenvalues --    0.55968   0.56344   0.57315   0.58168   0.59469
 Alpha virt. eigenvalues --    0.59718   0.59771   0.61141   0.61375   0.61551
 Alpha virt. eigenvalues --    0.61945   0.62278   0.62676   0.63385   0.63604
 Alpha virt. eigenvalues --    0.65528   0.66477   0.66544   0.67139   0.67757
 Alpha virt. eigenvalues --    0.69898   0.71718   0.73081   0.74691   0.76631
 Alpha virt. eigenvalues --    0.77136   0.78589   0.79326   0.82274   0.82695
 Alpha virt. eigenvalues --    0.83520   0.84166   0.84392   0.84922   0.85370
 Alpha virt. eigenvalues --    0.86590   0.87027   0.87958   0.88966   0.89753
 Alpha virt. eigenvalues --    0.90562   0.91405   0.91995   0.92999   0.93401
 Alpha virt. eigenvalues --    0.94576   0.96192   0.97019   0.97577   0.98660
 Alpha virt. eigenvalues --    1.01106   1.01400   1.04398   1.06050   1.07241
 Alpha virt. eigenvalues --    1.09331   1.11294   1.11953   1.12312   1.13999
 Alpha virt. eigenvalues --    1.16641   1.19337   1.20115   1.20878   1.22444
 Alpha virt. eigenvalues --    1.24414   1.25516   1.29461   1.35476   1.38109
 Alpha virt. eigenvalues --    1.39158   1.41915   1.43241   1.43885   1.45371
 Alpha virt. eigenvalues --    1.46497   1.48438   1.49196   1.49720   1.51369
 Alpha virt. eigenvalues --    1.52025   1.52468   1.55323   1.59387   1.62449
 Alpha virt. eigenvalues --    1.65144   1.69700   1.70570   1.72090   1.75410
 Alpha virt. eigenvalues --    1.77341   1.77798   1.78487   1.81081   1.82154
 Alpha virt. eigenvalues --    1.82729   1.86507   1.87397   1.88811   1.89528
 Alpha virt. eigenvalues --    1.90728   1.92164   1.94185   1.94641   1.96474
 Alpha virt. eigenvalues --    1.97579   1.98207   1.98952   2.00878   2.01837
 Alpha virt. eigenvalues --    2.03469   2.05041   2.06378   2.06813   2.08664
 Alpha virt. eigenvalues --    2.11062   2.12806   2.14372   2.15650   2.16640
 Alpha virt. eigenvalues --    2.18983   2.19637   2.20710   2.21565   2.23872
 Alpha virt. eigenvalues --    2.27976   2.29464   2.31058   2.31570   2.34468
 Alpha virt. eigenvalues --    2.35141   2.35865   2.38187   2.39787   2.43726
 Alpha virt. eigenvalues --    2.46946   2.49912   2.52332   2.53484   2.55493
 Alpha virt. eigenvalues --    2.56751   2.57456   2.60318   2.61112   2.63292
 Alpha virt. eigenvalues --    2.64901   2.65312   2.66955   2.72088   2.73155
 Alpha virt. eigenvalues --    2.74750   2.74850   2.77272   2.77433   2.80706
 Alpha virt. eigenvalues --    2.86497   2.87915   2.93803   3.01082   3.06263
 Alpha virt. eigenvalues --    3.09723   3.14324   3.24247   3.41751   3.92788
 Alpha virt. eigenvalues --    4.09572   4.10982   4.12742   4.16153   4.17077
 Alpha virt. eigenvalues --    4.20544   4.25022   4.33904   4.34812   4.40674
 Alpha virt. eigenvalues --    4.46171   4.49464   4.54271   4.65666   4.73426
 Alpha virt. eigenvalues --    4.81038
          Condensed to atoms (all electrons):
               1          2          3          4          5          6
     1  O    8.313144   0.248273  -0.067767   0.000557   0.000407  -0.000001
     2  C    0.248273   4.631225   0.338315  -0.046069   0.005277   0.000292
     3  C   -0.067767   0.338315   4.822346   0.517399  -0.014781  -0.035016
     4  C    0.000557  -0.046069   0.517399   4.979755   0.511762  -0.034476
     5  C    0.000407   0.005277  -0.014781   0.511762   4.887241   0.544759
     6  C   -0.000001   0.000292  -0.035016  -0.034476   0.544759   4.851573
     7  C   -0.000045   0.006025  -0.017339  -0.045193  -0.025824   0.549139
     8  C    0.002303  -0.048843   0.534337  -0.052289  -0.045607  -0.033801
     9  C   -0.052503   0.357704  -0.069117  -0.007804   0.000004   0.000007
    10  C    0.003804  -0.029124  -0.007519   0.000292   0.000009   0.000009
    11  C    0.000114  -0.020582   0.000323  -0.000036   0.000001   0.000000
    12  C    0.000014   0.000476  -0.000005   0.000000  -0.000000   0.000000
    13  C   -0.000001   0.000040  -0.000000  -0.000000   0.000000  -0.000000
    14  C   -0.000002  -0.000117   0.000005  -0.000000   0.000000   0.000000
    15  C   -0.000158   0.000927  -0.000297   0.000007  -0.000000  -0.000000
    16  C    0.002207  -0.014391  -0.000336  -0.000062   0.000001  -0.000000
    17  O   -0.060037   0.189184  -0.048041   0.003319  -0.000061  -0.000003
    18  H    0.223435  -0.017042   0.009026  -0.000043   0.000007   0.000000
    19  H    0.009091  -0.009193  -0.042814   0.355662  -0.045128   0.004653
    20  H   -0.000004  -0.000161   0.003563  -0.039585   0.357516  -0.043669
    21  H    0.000000   0.000009   0.000665   0.004648  -0.043267   0.359130
    22  H    0.000000  -0.000162   0.003505   0.000884   0.004582  -0.043453
    23  H    0.000216  -0.013755  -0.038711   0.006339   0.000250   0.004579
    24  H    0.001667  -0.025316  -0.005141   0.004249  -0.000034  -0.000005
    25  H   -0.002342  -0.031709   0.005752   0.000169   0.000003  -0.000000
    26  H    0.000052  -0.007456   0.007347   0.000199  -0.000050  -0.000029
    27  H   -0.000064   0.003267  -0.000030  -0.000011  -0.000001  -0.000000
    28  H    0.000002   0.000263   0.000109   0.000002  -0.000000   0.000000
    29  H   -0.000001   0.000054   0.000003  -0.000000  -0.000000  -0.000000
    30  H   -0.000000  -0.000035  -0.000000   0.000000   0.000000  -0.000000
    31  H    0.000000   0.000000   0.000000  -0.000000   0.000000   0.000000
    32  H    0.000000   0.000000  -0.000000   0.000000  -0.000000  -0.000000
    33  H    0.000005  -0.000111  -0.000018  -0.000000   0.000000  -0.000000
               7          8          9         10         11         12
     1  O   -0.000045   0.002303  -0.052503   0.003804   0.000114   0.000014
     2  C    0.006025  -0.048843   0.357704  -0.029124  -0.020582   0.000476
     3  C   -0.017339   0.534337  -0.069117  -0.007519   0.000323  -0.000005
     4  C   -0.045193  -0.052289  -0.007804   0.000292  -0.000036   0.000000
     5  C   -0.025824  -0.045607   0.000004   0.000009   0.000001  -0.000000
     6  C    0.549139  -0.033801   0.000007   0.000009   0.000000   0.000000
     7  C    4.892357   0.502290  -0.000041  -0.000090   0.000007   0.000000
     8  C    0.502290   4.983932   0.000431  -0.001512   0.000357   0.000004
     9  C   -0.000041   0.000431   5.229164   0.322888  -0.035596  -0.003590
    10  C   -0.000090  -0.001512   0.322888   5.124974   0.328411  -0.035287
    11  C    0.000007   0.000357  -0.035596   0.328411   5.106105   0.352597
    12  C    0.000000   0.000004  -0.003590  -0.035287   0.352597   5.088995
    13  C    0.000000  -0.000000  -0.000006   0.003743  -0.027175   0.356581
    14  C    0.000000   0.000000   0.000036   0.000739  -0.017000  -0.036788
    15  C   -0.000001  -0.000059   0.000549   0.005661  -0.080522  -0.024367
    16  C   -0.000008   0.000033  -0.003710  -0.042947   0.362659  -0.016992
    17  O    0.000657  -0.001770  -0.060175   0.002856  -0.054637   0.002131
    18  H    0.000004  -0.000197  -0.006992  -0.000268   0.000285  -0.000020
    19  H    0.000296   0.006053   0.000454   0.000088  -0.000002  -0.000000
    20  H    0.004618   0.000857   0.000000   0.000000  -0.000000   0.000000
    21  H   -0.043105   0.004619   0.000000   0.000000   0.000000  -0.000000
    22  H    0.358046  -0.040060   0.000001   0.000000  -0.000000  -0.000000
    23  H   -0.045934   0.352804   0.000532  -0.000215   0.000206   0.000012
    24  H   -0.000025  -0.000012   0.357755  -0.025250   0.004165  -0.000027
    25  H    0.000002  -0.000068   0.347637  -0.041203  -0.004833   0.002101
    26  H    0.000059   0.005727  -0.038543   0.360844  -0.022966   0.004122
    27  H    0.000002   0.000029  -0.024181   0.364034  -0.038972  -0.007876
    28  H    0.000006  -0.000085   0.003897  -0.039612   0.355915  -0.042863
    29  H    0.000000   0.000000   0.000747  -0.006199  -0.042352   0.354784
    30  H    0.000000   0.000000   0.000034  -0.003275  -0.028973   0.357749
    31  H   -0.000000  -0.000000   0.000000  -0.000114   0.003138  -0.048974
    32  H    0.000000   0.000000  -0.000000   0.000003  -0.000275   0.006764
    33  H   -0.000000   0.000003   0.000150  -0.000195   0.007266  -0.000274
              13         14         15         16         17         18
     1  O   -0.000001  -0.000002  -0.000158   0.002207  -0.060037   0.223435
     2  C    0.000040  -0.000117   0.000927  -0.014391   0.189184  -0.017042
     3  C   -0.000000   0.000005  -0.000297  -0.000336  -0.048041   0.009026
     4  C   -0.000000  -0.000000   0.000007  -0.000062   0.003319  -0.000043
     5  C    0.000000   0.000000  -0.000000   0.000001  -0.000061   0.000007
     6  C   -0.000000   0.000000  -0.000000  -0.000000  -0.000003   0.000000
     7  C    0.000000   0.000000  -0.000001  -0.000008   0.000657   0.000004
     8  C   -0.000000   0.000000  -0.000059   0.000033  -0.001770  -0.000197
     9  C   -0.000006   0.000036   0.000549  -0.003710  -0.060175  -0.006992
    10  C    0.003743   0.000739   0.005661  -0.042947   0.002856  -0.000268
    11  C   -0.027175  -0.017000  -0.080522   0.362659  -0.054637   0.000285
    12  C    0.356581  -0.036788  -0.024367  -0.016992   0.002131  -0.000020
    13  C    4.966183   0.663097  -0.036881  -0.037840   0.000253  -0.000003
    14  C    0.663097   4.820707   0.409611  -0.015897   0.002826   0.000011
    15  C   -0.036881   0.409611   5.051528   0.630998  -0.051364  -0.000180
    16  C   -0.037840  -0.015897   0.630998   4.622333   0.230600   0.002538
    17  O    0.000253   0.002826  -0.051364   0.230600   8.375946   0.001229
    18  H   -0.000003   0.000011  -0.000180   0.002538   0.001229   0.387342
    19  H   -0.000000   0.000000   0.000000  -0.000007   0.000152  -0.000398
    20  H    0.000000  -0.000000   0.000000   0.000000   0.000000  -0.000000
    21  H    0.000000   0.000000   0.000000  -0.000000   0.000000   0.000000
    22  H    0.000000  -0.000000   0.000000  -0.000000  -0.000001  -0.000000
    23  H   -0.000000  -0.000001  -0.000080  -0.000322   0.014402  -0.000017
    24  H    0.000003  -0.000001  -0.000005   0.000745   0.003040  -0.000375
    25  H   -0.000316   0.000028  -0.000622   0.002764  -0.001567   0.007473
    26  H   -0.000149   0.000001  -0.000270  -0.002040   0.000294   0.000012
    27  H    0.000419  -0.000037  -0.000024   0.003042   0.000000  -0.000006
    28  H    0.004415   0.003201  -0.006134  -0.045970   0.001256   0.000003
    29  H   -0.041626  -0.007347   0.004863  -0.000961  -0.000065   0.000008
    30  H   -0.027226   0.002902   0.000778   0.003514  -0.000058   0.000000
    31  H    0.360297  -0.033069   0.004663   0.000558   0.000002  -0.000000
    32  H   -0.049556   0.362139  -0.044430   0.004620  -0.000054  -0.000000
    33  H    0.005475  -0.043742   0.344372  -0.038062  -0.001465   0.000088
              19         20         21         22         23         24
     1  O    0.009091  -0.000004   0.000000   0.000000   0.000216   0.001667
     2  C   -0.009193  -0.000161   0.000009  -0.000162  -0.013755  -0.025316
     3  C   -0.042814   0.003563   0.000665   0.003505  -0.038711  -0.005141
     4  C    0.355662  -0.039585   0.004648   0.000884   0.006339   0.004249
     5  C   -0.045128   0.357516  -0.043267   0.004582   0.000250  -0.000034
     6  C    0.004653  -0.043669   0.359130  -0.043453   0.004579  -0.000005
     7  C    0.000296   0.004618  -0.043105   0.358046  -0.045934  -0.000025
     8  C    0.006053   0.000857   0.004619  -0.040060   0.352804  -0.000012
     9  C    0.000454   0.000000   0.000000   0.000001   0.000532   0.357755
    10  C    0.000088   0.000000   0.000000   0.000000  -0.000215  -0.025250
    11  C   -0.000002  -0.000000   0.000000  -0.000000   0.000206   0.004165
    12  C   -0.000000   0.000000  -0.000000  -0.000000   0.000012  -0.000027
    13  C   -0.000000   0.000000   0.000000   0.000000  -0.000000   0.000003
    14  C    0.000000  -0.000000   0.000000  -0.000000  -0.000001  -0.000001
    15  C    0.000000   0.000000   0.000000   0.000000  -0.000080  -0.000005
    16  C   -0.000007   0.000000  -0.000000  -0.000000  -0.000322   0.000745
    17  O    0.000152   0.000000   0.000000  -0.000001   0.014402   0.003040
    18  H   -0.000398  -0.000000   0.000000  -0.000000  -0.000017  -0.000375
    19  H    0.581848  -0.005454  -0.000169   0.000017  -0.000168   0.001611
    20  H   -0.005454   0.598413  -0.005528  -0.000188   0.000018   0.000003
    21  H   -0.000169  -0.005528   0.600029  -0.005584  -0.000167  -0.000000
    22  H    0.000017  -0.000188  -0.005584   0.597936  -0.005116   0.000000
    23  H   -0.000168   0.000018  -0.000167  -0.005116   0.580769  -0.000030
    24  H    0.001611   0.000003  -0.000000   0.000000  -0.000030   0.559670
    25  H   -0.000098  -0.000000   0.000000  -0.000000  -0.000010  -0.031378
    26  H   -0.000004  -0.000000  -0.000000  -0.000007   0.000379  -0.002799
    27  H    0.000001   0.000000  -0.000000   0.000000   0.000019  -0.002583
    28  H   -0.000000   0.000000  -0.000000  -0.000000   0.000625  -0.000148
    29  H   -0.000000  -0.000000   0.000000  -0.000000   0.000001  -0.000098
    30  H    0.000000  -0.000000  -0.000000   0.000000  -0.000000  -0.000003
    31  H   -0.000000  -0.000000  -0.000000  -0.000000  -0.000000  -0.000000
    32  H    0.000000   0.000000  -0.000000   0.000000   0.000000   0.000000
    33  H   -0.000000   0.000000  -0.000000  -0.000000   0.000003  -0.000000
              25         26         27         28         29         30
     1  O   -0.002342   0.000052  -0.000064   0.000002  -0.000001  -0.000000
     2  C   -0.031709  -0.007456   0.003267   0.000263   0.000054  -0.000035
     3  C    0.005752   0.007347  -0.000030   0.000109   0.000003  -0.000000
     4  C    0.000169   0.000199  -0.000011   0.000002  -0.000000   0.000000
     5  C    0.000003  -0.000050  -0.000001  -0.000000  -0.000000   0.000000
     6  C   -0.000000  -0.000029  -0.000000   0.000000  -0.000000  -0.000000
     7  C    0.000002   0.000059   0.000002   0.000006   0.000000   0.000000
     8  C   -0.000068   0.005727   0.000029  -0.000085   0.000000   0.000000
     9  C    0.347637  -0.038543  -0.024181   0.003897   0.000747   0.000034
    10  C   -0.041203   0.360844   0.364034  -0.039612  -0.006199  -0.003275
    11  C   -0.004833  -0.022966  -0.038972   0.355915  -0.042352  -0.028973
    12  C    0.002101   0.004122  -0.007876  -0.042863   0.354784   0.357749
    13  C   -0.000316  -0.000149   0.000419   0.004415  -0.041626  -0.027226
    14  C    0.000028   0.000001  -0.000037   0.003201  -0.007347   0.002902
    15  C   -0.000622  -0.000270  -0.000024  -0.006134   0.004863   0.000778
    16  C    0.002764  -0.002040   0.003042  -0.045970  -0.000961   0.003514
    17  O   -0.001567   0.000294   0.000000   0.001256  -0.000065  -0.000058
    18  H    0.007473   0.000012  -0.000006   0.000003   0.000008   0.000000
    19  H   -0.000098  -0.000004   0.000001  -0.000000  -0.000000   0.000000
    20  H   -0.000000  -0.000000   0.000000   0.000000  -0.000000  -0.000000
    21  H    0.000000  -0.000000  -0.000000  -0.000000   0.000000  -0.000000
    22  H   -0.000000  -0.000007   0.000000  -0.000000  -0.000000   0.000000
    23  H   -0.000010   0.000379   0.000019   0.000625   0.000001  -0.000000
    24  H   -0.031378  -0.002799  -0.002583  -0.000148  -0.000098  -0.000003
    25  H    0.608173   0.005849  -0.003616   0.000251   0.003878  -0.000028
    26  H    0.005849   0.574487  -0.033714  -0.007383   0.000066  -0.000030
    27  H   -0.003616  -0.033714   0.587154   0.002847   0.002239   0.003411
    28  H    0.000251  -0.007383   0.002847   0.617367   0.007459  -0.006385
    29  H    0.003878   0.000066   0.002239   0.007459   0.617695  -0.037192
    30  H   -0.000028  -0.000030   0.003411  -0.006385  -0.037192   0.597462
    31  H    0.000003   0.000002  -0.000007   0.000082   0.002545  -0.003832
    32  H   -0.000000  -0.000000  -0.000000   0.000017  -0.000149  -0.000161
    33  H   -0.000014   0.000002   0.000004  -0.000153   0.000016   0.000013
              31         32         33
     1  O    0.000000   0.000000   0.000005
     2  C    0.000000   0.000000  -0.000111
     3  C    0.000000  -0.000000  -0.000018
     4  C   -0.000000   0.000000  -0.000000
     5  C    0.000000  -0.000000   0.000000
     6  C    0.000000  -0.000000  -0.000000
     7  C   -0.000000   0.000000  -0.000000
     8  C   -0.000000   0.000000   0.000003
     9  C    0.000000  -0.000000   0.000150
    10  C   -0.000114   0.000003  -0.000195
    11  C    0.003138  -0.000275   0.007266
    12  C   -0.048974   0.006764  -0.000274
    13  C    0.360297  -0.049556   0.005475
    14  C   -0.033069   0.362139  -0.043742
    15  C    0.004663  -0.044430   0.344372
    16  C    0.000558   0.004620  -0.038062
    17  O    0.000002  -0.000054  -0.001465
    18  H   -0.000000  -0.000000   0.000088
    19  H   -0.000000   0.000000  -0.000000
    20  H   -0.000000   0.000000   0.000000
    21  H   -0.000000  -0.000000  -0.000000
    22  H   -0.000000   0.000000  -0.000000
    23  H   -0.000000   0.000000   0.000003
    24  H   -0.000000   0.000000  -0.000000
    25  H    0.000003  -0.000000  -0.000014
    26  H    0.000002  -0.000000   0.000002
    27  H   -0.000007  -0.000000   0.000004
    28  H    0.000082   0.000017  -0.000153
    29  H    0.002545  -0.000149   0.000016
    30  H   -0.003832  -0.000161   0.000013
    31  H    0.596591  -0.007432  -0.000148
    32  H   -0.007432   0.608981  -0.005263
    33  H   -0.000148  -0.005263   0.601216
 Mulliken charges:
               1
     1  O   -0.622369
     2  C    0.482735
     3  C    0.104238
     4  C   -0.159673
     5  C   -0.137064
     6  C   -0.123688
     7  C   -0.135904
     8  C   -0.169476
     9  C   -0.319733
    10  C   -0.285546
    11  C   -0.147628
    12  C   -0.309269
    13  C   -0.139725
    14  C   -0.111305
    15  C   -0.208562
    16  C    0.352933
    17  O   -0.548851
    18  H    0.394081
    19  H    0.143508
    20  H    0.129601
    21  H    0.128721
    22  H    0.129599
    23  H    0.143373
    24  H    0.160324
    25  H    0.133720
    26  H    0.155996
    27  H    0.144655
    28  H    0.151015
    29  H    0.141634
    30  H    0.141334
    31  H    0.125696
    32  H    0.124798
    33  H    0.130833
 Sum of Mulliken charges =  -0.00000
 Mulliken charges with hydrogens summed into heavy atoms:
               1
     1  O   -0.228288
     2  C    0.482735
     3  C    0.104238
     4  C   -0.016165
     5  C   -0.007464
     6  C    0.005032
     7  C   -0.006305
     8  C   -0.026103
     9  C   -0.025689
    10  C    0.015105
    11  C    0.003387
    12  C   -0.026301
    13  C   -0.014029
    14  C    0.013493
    15  C   -0.077729
    16  C    0.352933
    17  O   -0.548851
 Electronic spatial extent (au):  <R**2>=           4373.7853
 Charge=             -0.0000 electrons
 Dipole moment (field-independent basis, Debye):
    X=             -1.1171    Y=              1.8430    Z=             -0.6897  Tot=              2.2628
 Quadrupole moment (field-independent basis, Debye-Ang):
   XX=            -94.6016   YY=            -98.7412   ZZ=            -96.8437
   XY=              1.5489   XZ=             -4.2495   YZ=              2.6383
 Traceless Quadrupole moment (field-independent basis, Debye-Ang):
   XX=              2.1273   YY=             -2.0124   ZZ=             -0.1149
   XY=              1.5489   XZ=             -4.2495   YZ=              2.6383
 Octapole moment (field-independent basis, Debye-Ang**2):
  XXX=            -21.1790  YYY=             37.6690  ZZZ=            -20.2139  XYY=            -20.8993
  XXY=             22.7609  XXZ=            -25.4975  XZZ=            -19.8481  YZZ=             12.9081
  YYZ=             -2.9009  XYZ=             13.9738
 Hexadecapole moment (field-independent basis, Debye-Ang**3):
 XXXX=          -4242.4824 YYYY=           -757.9588 ZZZZ=           -658.9545 XXXY=           -238.8389
 XXXZ=              5.4378 YYYX=           -299.6842 YYYZ=            -11.1652 ZZZX=            -11.0836
 ZZZY=              9.6739 XXYY=           -860.1975 XXZZ=           -866.8326 YYZZ=           -239.0537
 XXYZ=             19.5696 YYXZ=              0.4803 ZZXY=           -118.7852
 N-N= 1.195439268132D+03 E-N=-4.090955684537D+03  KE= 7.247454368498D+02
 Leave Link  601 at Sat Nov  5 11:14:01 2022, MaxMem=   402653184 cpu:               1.3 elap:               0.2
 (Enter /home/wykgroup/appl/g16/l9999.exe)
 Electronic transition elements 
                 1             2             3             4 
      1  -0.731549D+03 -0.731500D+03 -0.731471D+03 -0.731466D+03
      2   0.000000D+00  0.000000D+00  0.141968D+01  0.392852D-01
      3   0.000000D+00  0.000000D+00  0.115564D+00  0.187692D-01
      4   0.000000D+00  0.000000D+00  0.141106D+00  0.293628D-01
      5   0.000000D+00  0.000000D+00 -0.237484D+00 -0.769915D-02
      6   0.000000D+00  0.000000D+00 -0.134827D-01 -0.439479D-02
      7   0.000000D+00  0.000000D+00 -0.285662D-01 -0.824604D-02
      8   0.000000D+00  0.000000D+00  0.308895D+00 -0.471298D-01
      9   0.000000D+00  0.000000D+00 -0.886517D+00  0.718802D-01
     10   0.000000D+00  0.000000D+00 -0.171916D+01  0.604023D-01
     11   0.000000D+00  0.000000D+00  0.146657D+01 -0.122061D+00
     12   0.000000D+00  0.000000D+00 -0.696099D-02  0.250371D-01
     13   0.000000D+00  0.000000D+00 -0.101082D+00 -0.343439D-01
     14   0.000000D+00  0.000000D+00  0.142865D+00 -0.226875D-02
     15   0.000000D+00  0.000000D+00  0.213634D+00 -0.235578D-01
     16   0.000000D+00  0.000000D+00 -0.977418D-02 -0.953109D-02
 1\1\GINC-NODE04\SP\RB3LYP TD-FC\6-31G(d)\C15H16O2\WYKGROUP\05-Nov-2022
 \0\\#p b3lyp/6-31g(d) 6D 10F nosymm GFInput td=(50-50,nstate=2) SCF=XQ
 C\\Gaussian input prepared by ASE\\0,1\O,0,0.88197885,0.0431013705,2.4
 140615216\C,0,0.6348710413,0.0925181175,1.0281510326\C,0,1.9982958656,
 0.0945860878,0.3446474414\C,0,3.0224069255,0.9006279107,0.8596584136\C
 ,0,4.2645218286,0.9536130314,0.2294018247\C,0,4.4997094986,0.201664036
 2,-0.9241473246\C,0,3.48575825,-0.6061803424,-1.4377064965\C,0,2.24091
 25717,-0.6608356229,-0.8061545494\C,0,-0.2081776053,1.3334146389,0.669
 8601193\C,0,-0.8217807884,1.209728361,-0.7258801518\C,0,-1.7725743735,
 -0.010440788,-0.7738726849\C,0,-3.2560238839,0.3719317212,-0.611339346
 3\C,0,-4.1343099261,-0.8403636975,-0.4010291005\C,0,-3.649688888,-1.91
 28606274,0.2488417922\C,0,-2.2691024823,-1.9436015017,0.7311177667\C,0
 ,-1.3852127945,-1.0340079908,0.2807528006\O,0,-0.0621816192,-1.1142124
 877,0.6397462013\H,0,0.0198619457,0.0617944839,2.8620324579\H,0,2.8457
 148712,1.4720531939,1.7653032561\H,0,5.0516809075,1.5787773491,0.64280
 73089\H,0,5.4686315126,0.2421821612,-1.4148450649\H,0,3.6617786024,-1.
 2024693513,-2.3292284682\H,0,1.4604827146,-1.3061614964,-1.1934021383\
 H,0,0.4263524123,2.2194618006,0.7635936353\H,0,-1.0119899071,1.4310950
 371,1.4147413916\H,0,-0.0182309377,1.1012099034,-1.4626508076\H,0,-1.3
 663806707,2.1249220296,-0.9857097467\H,0,-1.6640561161,-0.5122814688,-
 1.7500743799\H,0,-3.3644057481,1.0505184235,0.2550544076\H,0,-3.577403
 4393,0.9472684857,-1.48764995\H,0,-5.1715035684,-0.8004282838,-0.72389
 5798\H,0,-4.284348534,-2.7720451929,0.4536871219\H,0,-1.9455845153,-2.
 7145782919,1.4241305144\\Version=ES64L-G16RevB.01\HF=-731.6382752\RMSD
 =4.918e-09\PG=C01 [X(C15H16O2)]\\@


 BE CAREFUL NOT TO BECOME TOO GOOD OF A SONGBIRD OR 
 THEY'LL THROW YOU INTO A CAGE.

                                    -- SNOOPY TO WOODSTOCK
 Job cpu time:       0 days  0 hours 40 minutes 41.0 seconds.
 Elapsed time:       0 days  0 hours  3 minutes  4.9 seconds.
 File lengths (MBytes):  RWF=    552 Int=      0 D2E=      0 Chk=     19 Scr=      1
 Normal termination of Gaussian 16 at Sat Nov  5 11:14:01 2022.
