 Entering Gaussian System, Link 0=/home/wykgroup/appl/g16/g16
 Input=calculation/no_transfer_pubchem_sampling_0_b3lyp/72840705_rwf.com
 Output=calculation/no_transfer_pubchem_sampling_0_b3lyp/72840705_rwf.log
 Initial command:
 /home/wykgroup/appl/g16/l1.exe "/userdata/scratch/wykgroup/khs/calculation/no_transfer_pubchem_sampling_0_b3lyp/72840705_rwf/Gau-30600.inp" -scrdir="/userdata/scratch/wykgroup/khs/calculation/no_transfer_pubchem_sampling_0_b3lyp/72840705_rwf/"
 Entering Link 1 = /home/wykgroup/appl/g16/l1.exe PID=     30601.
  
 Copyright (c) 1988-2017, Gaussian, Inc.  All Rights Reserved.
  
 This is part of the Gaussian(R) 16 program.  It is based on
 the Gaussian(R) 09 system (copyright 2009, Gaussian, Inc.),
 the Gaussian(R) 03 system (copyright 2003, Gaussian, Inc.),
 the Gaussian(R) 98 system (copyright 1998, Gaussian, Inc.),
 the Gaussian(R) 94 system (copyright 1995, Gaussian, Inc.),
 the Gaussian 92(TM) system (copyright 1992, Gaussian, Inc.),
 the Gaussian 90(TM) system (copyright 1990, Gaussian, Inc.),
 the Gaussian 88(TM) system (copyright 1988, Gaussian, Inc.),
 the Gaussian 86(TM) system (copyright 1986, Carnegie Mellon
 University), and the Gaussian 82(TM) system (copyright 1983,
 Carnegie Mellon University). Gaussian is a federally registered
 trademark of Gaussian, Inc.
  
 This software contains proprietary and confidential information,
 including trade secrets, belonging to Gaussian, Inc.
  
 This software is provided under written license and may be
 used, copied, transmitted, or stored only in accord with that
 written license.
  
 The following legend is applicable only to US Government
 contracts under FAR:
  
                    RESTRICTED RIGHTS LEGEND
  
 Use, reproduction and disclosure by the US Government is
 subject to restrictions as set forth in subparagraphs (a)
 and (c) of the Commercial Computer Software - Restricted
 Rights clause in FAR 52.227-19.
  
 Gaussian, Inc.
 340 Quinnipiac St., Bldg. 40, Wallingford CT 06492
  
  
 ---------------------------------------------------------------
 Warning -- This program may not be used in any manner that
 competes with the business of Gaussian, Inc. or will provide
 assistance to any competitor of Gaussian, Inc.  The licensee
 of this program is prohibited from giving any competitor of
 Gaussian, Inc. access to this program.  By using this program,
 the user acknowledges that Gaussian, Inc. is engaged in the
 business of creating and licensing software in the field of
 computational chemistry and represents and warrants to the
 licensee that it is not a competitor of Gaussian, Inc. and that
 it will not use this program in any manner prohibited above.
 ---------------------------------------------------------------
  

 Cite this work as:
 Gaussian 16, Revision B.01,
 M. J. Frisch, G. W. Trucks, H. B. Schlegel, G. E. Scuseria, 
 M. A. Robb, J. R. Cheeseman, G. Scalmani, V. Barone, 
 G. A. Petersson, H. Nakatsuji, X. Li, M. Caricato, A. V. Marenich, 
 J. Bloino, B. G. Janesko, R. Gomperts, B. Mennucci, H. P. Hratchian, 
 J. V. Ortiz, A. F. Izmaylov, J. L. Sonnenberg, D. Williams-Young, 
 F. Ding, F. Lipparini, F. Egidi, J. Goings, B. Peng, A. Petrone, 
 T. Henderson, D. Ranasinghe, V. G. Zakrzewski, J. Gao, N. Rega, 
 G. Zheng, W. Liang, M. Hada, M. Ehara, K. Toyota, R. Fukuda, 
 J. Hasegawa, M. Ishida, T. Nakajima, Y. Honda, O. Kitao, H. Nakai, 
 T. Vreven, K. Throssell, J. A. Montgomery, Jr., J. E. Peralta, 
 F. Ogliaro, M. J. Bearpark, J. J. Heyd, E. N. Brothers, K. N. Kudin, 
 V. N. Staroverov, T. A. Keith, R. Kobayashi, J. Normand, 
 K. Raghavachari, A. P. Rendell, J. C. Burant, S. S. Iyengar, 
 J. Tomasi, M. Cossi, J. M. Millam, M. Klene, C. Adamo, R. Cammi, 
 J. W. Ochterski, R. L. Martin, K. Morokuma, O. Farkas, 
 J. B. Foresman, and D. J. Fox, Gaussian, Inc., Wallingford CT, 2016.
 
 ******************************************
 Gaussian 16:  ES64L-G16RevB.01 20-Dec-2017
                 5-Nov-2022 
 ******************************************
 %chk=calculation/no_transfer_pubchem_sampling_0_b3lyp/72840705_rwf.chk
 %rwf=calculation/no_transfer_pubchem_sampling_0_b3lyp/72840705_rwf.rwf
 %nprocshared=14
 Will use up to   14 processors via shared memory.
 %mem=3GB
 -------------------------------------------------------------------
 #p b3lyp/6-31g(d) 6D 10F nosymm GFInput td=(50-50,nstate=2) SCF=XQC
 -------------------------------------------------------------------
 1/38=1,172=1/1;
 2/12=2,15=1,17=6,18=5,40=1/2;
 3/5=1,6=6,7=1,8=22,11=9,24=10,25=1,30=1,74=-5/1,2,3,8;
 4//1;
 5/5=2,8=3,13=1,38=5/2,8;
 8/6=1,10=2,108=2/1;
 9/41=2,42=1,48=2,70=2/14;
 6/7=2,8=2,9=2,10=2/1;
 99/5=1,9=1/99;
 Leave Link    1 at Sat Nov  5 11:12:34 2022, MaxMem=   402653184 cpu:               2.7 elap:               0.3
 (Enter /home/wykgroup/appl/g16/l101.exe)
 ------------------------------
 Gaussian input prepared by ASE
 ------------------------------
 Symbolic Z-matrix:
 Charge =  0 Multiplicity = 1
 C                    -4.58553   3.49766  -0.44989 
 N                    -4.0145    2.18676  -0.19767 
 C                    -3.53396   2.05369   1.17883 
 C                    -3.24462   0.56438   1.4973 
 N                    -2.92621  -0.24273   0.32032 
 C                    -1.64937   0.04943  -0.37106 
 C                    -0.5007    0.31153   0.62277 
 C                     0.84551   0.53431  -0.08241 
 N                     1.14966  -0.52479  -1.04223 
 C                     2.41971  -0.95863  -1.34733 
 O                     2.68348  -1.58575  -2.36671 
 C                     3.51547  -0.69518  -0.33638 
 C                     3.85024  -1.68115   0.56782 
 C                     4.9262   -1.45622   1.46082 
 N                     5.65222  -0.35702   1.49442 
 C                     5.35382   0.62133   0.58884 
 C                     6.13903   1.80477   0.59984 
 C                     5.89211   2.81868  -0.2976 
 C                     4.85129   2.69381  -1.25044 
 C                     4.06873   1.56124  -1.2844 
 C                     4.29254   0.50042  -0.36596 
 C                     0.08867  -0.77817  -2.01221 
 C                    -1.27155  -1.09174  -1.36101 
 C                    -1.45968  -2.56268  -0.88069 
 C                    -1.10635  -3.04414   0.54084 
 C                     0.37047  -3.15314   0.92429 
 O                     1.16264  -3.88541  -0.00813 
 C                    -4.10909  -0.24697  -0.56085 
 C                    -4.9077    1.08667  -0.53971 
 H                    -3.84255   4.27079  -0.22185 
 H                    -4.85837   3.58839  -1.50718 
 H                    -5.48769   3.70659   0.15886 
 H                    -2.63042   2.66859   1.28612 
 H                    -4.27219   2.43985   1.91216 
 H                    -4.1376    0.11255   1.94814 
 H                    -2.45575   0.48189   2.24859 
 H                    -1.74612   0.96638  -0.98023 
 H                    -0.70209   1.21799   1.20404 
 H                    -0.41653  -0.51175   1.33708 
 H                     0.81727   1.50276  -0.60937 
 H                     1.64624   0.59239   0.65695 
 H                     3.3043   -2.62015   0.58677 
 H                     5.18844  -2.22945   2.18289 
 H                     6.93556   1.86906   1.33459 
 H                     6.50066   3.71889  -0.28367 
 H                     4.67549   3.49556  -1.96246 
 H                     3.28581   1.45928  -2.03111 
 H                    -0.0249    0.11191  -2.65418 
 H                     0.41804  -1.5982   -2.6504 
 H                    -1.96503  -1.01102  -2.20956 
 H                    -2.52623  -2.78711  -1.00147 
 H                    -0.93559  -3.20467  -1.60051 
 H                    -1.62317  -2.42342   1.28161 
 H                    -1.54743  -4.04873   0.64301 
 H                     0.84271  -2.17136   0.96688 
 H                     0.44519  -3.59535   1.9319 
 H                     0.82362  -4.79361  -0.04525 
 H                    -4.77702  -1.06769  -0.26212 
 H                    -3.78692  -0.4564   -1.58254 
 H                    -5.76308   1.01767   0.16361 
 H                    -5.33717   1.27739  -1.52975 
 
 ITRead=  0  0  0  0  0  0  0  0  0  0  0  0  0  0  0  0  0  0  0  0
 ITRead=  0  0  0  0  0  0  0  0  0  0  0  0  0  0  0  0  0  0  0  0
 ITRead=  0  0  0  0  0  0  0  0  0  0  0  0  0  0  0  0  0  0  0  0
 ITRead=  0
 MicOpt= -1 -1 -1 -1 -1 -1 -1 -1 -1 -1 -1 -1 -1 -1 -1 -1 -1 -1 -1 -1
 MicOpt= -1 -1 -1 -1 -1 -1 -1 -1 -1 -1 -1 -1 -1 -1 -1 -1 -1 -1 -1 -1
 MicOpt= -1 -1 -1 -1 -1 -1 -1 -1 -1 -1 -1 -1 -1 -1 -1 -1 -1 -1 -1 -1
 MicOpt= -1
 NAtoms=     61 NQM=       61 NQMF=       0 NMMI=      0 NMMIF=      0
                NMic=       0 NMicF=      0.
                    Isotopes and Nuclear Properties:
 (Nuclear quadrupole moments (NQMom) in fm**2, nuclear magnetic moments (NMagM)
  in nuclear magnetons)

  Atom         1           2           3           4           5           6           7           8           9          10
 IAtWgt=          12          14          12          12          14          12          12          12          14          12
 AtmWgt=  12.0000000  14.0030740  12.0000000  12.0000000  14.0030740  12.0000000  12.0000000  12.0000000  14.0030740  12.0000000
 NucSpn=           0           2           0           0           2           0           0           0           2           0
 AtZEff=  -0.0000000  -0.0000000  -0.0000000  -0.0000000  -0.0000000  -0.0000000  -0.0000000  -0.0000000  -0.0000000  -0.0000000
 NQMom=    0.0000000   2.0440000   0.0000000   0.0000000   2.0440000   0.0000000   0.0000000   0.0000000   2.0440000   0.0000000
 NMagM=    0.0000000   0.4037610   0.0000000   0.0000000   0.4037610   0.0000000   0.0000000   0.0000000   0.4037610   0.0000000
 AtZNuc=   6.0000000   7.0000000   6.0000000   6.0000000   7.0000000   6.0000000   6.0000000   6.0000000   7.0000000   6.0000000

  Atom        11          12          13          14          15          16          17          18          19          20
 IAtWgt=          16          12          12          12          14          12          12          12          12          12
 AtmWgt=  15.9949146  12.0000000  12.0000000  12.0000000  14.0030740  12.0000000  12.0000000  12.0000000  12.0000000  12.0000000
 NucSpn=           0           0           0           0           2           0           0           0           0           0
 AtZEff=  -0.0000000  -0.0000000  -0.0000000  -0.0000000  -0.0000000  -0.0000000  -0.0000000  -0.0000000  -0.0000000  -0.0000000
 NQMom=    0.0000000   0.0000000   0.0000000   0.0000000   2.0440000   0.0000000   0.0000000   0.0000000   0.0000000   0.0000000
 NMagM=    0.0000000   0.0000000   0.0000000   0.0000000   0.4037610   0.0000000   0.0000000   0.0000000   0.0000000   0.0000000
 AtZNuc=   8.0000000   6.0000000   6.0000000   6.0000000   7.0000000   6.0000000   6.0000000   6.0000000   6.0000000   6.0000000

  Atom        21          22          23          24          25          26          27          28          29          30
 IAtWgt=          12          12          12          12          12          12          16          12          12           1
 AtmWgt=  12.0000000  12.0000000  12.0000000  12.0000000  12.0000000  12.0000000  15.9949146  12.0000000  12.0000000   1.0078250
 NucSpn=           0           0           0           0           0           0           0           0           0           1
 AtZEff=  -0.0000000  -0.0000000  -0.0000000  -0.0000000  -0.0000000  -0.0000000  -0.0000000  -0.0000000  -0.0000000  -0.0000000
 NQMom=    0.0000000   0.0000000   0.0000000   0.0000000   0.0000000   0.0000000   0.0000000   0.0000000   0.0000000   0.0000000
 NMagM=    0.0000000   0.0000000   0.0000000   0.0000000   0.0000000   0.0000000   0.0000000   0.0000000   0.0000000   2.7928460
 AtZNuc=   6.0000000   6.0000000   6.0000000   6.0000000   6.0000000   6.0000000   8.0000000   6.0000000   6.0000000   1.0000000

  Atom        31          32          33          34          35          36          37          38          39          40
 IAtWgt=           1           1           1           1           1           1           1           1           1           1
 AtmWgt=   1.0078250   1.0078250   1.0078250   1.0078250   1.0078250   1.0078250   1.0078250   1.0078250   1.0078250   1.0078250
 NucSpn=           1           1           1           1           1           1           1           1           1           1
 AtZEff=  -0.0000000  -0.0000000  -0.0000000  -0.0000000  -0.0000000  -0.0000000  -0.0000000  -0.0000000  -0.0000000  -0.0000000
 NQMom=    0.0000000   0.0000000   0.0000000   0.0000000   0.0000000   0.0000000   0.0000000   0.0000000   0.0000000   0.0000000
 NMagM=    2.7928460   2.7928460   2.7928460   2.7928460   2.7928460   2.7928460   2.7928460   2.7928460   2.7928460   2.7928460
 AtZNuc=   1.0000000   1.0000000   1.0000000   1.0000000   1.0000000   1.0000000   1.0000000   1.0000000   1.0000000   1.0000000

  Atom        41          42          43          44          45          46          47          48          49          50
 IAtWgt=           1           1           1           1           1           1           1           1           1           1
 AtmWgt=   1.0078250   1.0078250   1.0078250   1.0078250   1.0078250   1.0078250   1.0078250   1.0078250   1.0078250   1.0078250
 NucSpn=           1           1           1           1           1           1           1           1           1           1
 AtZEff=  -0.0000000  -0.0000000  -0.0000000  -0.0000000  -0.0000000  -0.0000000  -0.0000000  -0.0000000  -0.0000000  -0.0000000
 NQMom=    0.0000000   0.0000000   0.0000000   0.0000000   0.0000000   0.0000000   0.0000000   0.0000000   0.0000000   0.0000000
 NMagM=    2.7928460   2.7928460   2.7928460   2.7928460   2.7928460   2.7928460   2.7928460   2.7928460   2.7928460   2.7928460
 AtZNuc=   1.0000000   1.0000000   1.0000000   1.0000000   1.0000000   1.0000000   1.0000000   1.0000000   1.0000000   1.0000000

  Atom        51          52          53          54          55          56          57          58          59          60
 IAtWgt=           1           1           1           1           1           1           1           1           1           1
 AtmWgt=   1.0078250   1.0078250   1.0078250   1.0078250   1.0078250   1.0078250   1.0078250   1.0078250   1.0078250   1.0078250
 NucSpn=           1           1           1           1           1           1           1           1           1           1
 AtZEff=  -0.0000000  -0.0000000  -0.0000000  -0.0000000  -0.0000000  -0.0000000  -0.0000000  -0.0000000  -0.0000000  -0.0000000
 NQMom=    0.0000000   0.0000000   0.0000000   0.0000000   0.0000000   0.0000000   0.0000000   0.0000000   0.0000000   0.0000000
 NMagM=    2.7928460   2.7928460   2.7928460   2.7928460   2.7928460   2.7928460   2.7928460   2.7928460   2.7928460   2.7928460
 AtZNuc=   1.0000000   1.0000000   1.0000000   1.0000000   1.0000000   1.0000000   1.0000000   1.0000000   1.0000000   1.0000000

  Atom        61
 IAtWgt=           1
 AtmWgt=   1.0078250
 NucSpn=           1
 AtZEff=  -0.0000000
 NQMom=    0.0000000
 NMagM=    2.7928460
 AtZNuc=   1.0000000
 Leave Link  101 at Sat Nov  5 11:12:34 2022, MaxMem=   402653184 cpu:               1.3 elap:               0.1
 (Enter /home/wykgroup/appl/g16/l202.exe)
 Symmetry turned off by external request.
 Stoichiometry    C23H32N4O2
 Framework group  C1[X(C23H32N4O2)]
 Deg. of freedom   177
 Full point group                 C1      NOp   1
                          Input orientation:                          
 ---------------------------------------------------------------------
 Center     Atomic      Atomic             Coordinates (Angstroms)
 Number     Number       Type             X           Y           Z
 ---------------------------------------------------------------------
      1          6           0       -4.585532    3.497664   -0.449890
      2          7           0       -4.014497    2.186759   -0.197668
      3          6           0       -3.533957    2.053692    1.178828
      4          6           0       -3.244620    0.564384    1.497296
      5          7           0       -2.926210   -0.242727    0.320318
      6          6           0       -1.649373    0.049427   -0.371057
      7          6           0       -0.500703    0.311531    0.622774
      8          6           0        0.845505    0.534312   -0.082406
      9          7           0        1.149662   -0.524792   -1.042231
     10          6           0        2.419706   -0.958626   -1.347326
     11          8           0        2.683483   -1.585750   -2.366713
     12          6           0        3.515471   -0.695180   -0.336378
     13          6           0        3.850245   -1.681150    0.567824
     14          6           0        4.926197   -1.456219    1.460819
     15          7           0        5.652221   -0.357024    1.494419
     16          6           0        5.353816    0.621335    0.588842
     17          6           0        6.139030    1.804765    0.599842
     18          6           0        5.892112    2.818683   -0.297605
     19          6           0        4.851294    2.693809   -1.250443
     20          6           0        4.068730    1.561243   -1.284404
     21          6           0        4.292537    0.500419   -0.365956
     22          6           0        0.088671   -0.778170   -2.012208
     23          6           0       -1.271547   -1.091740   -1.361013
     24          6           0       -1.459682   -2.562679   -0.880694
     25          6           0       -1.106348   -3.044140    0.540839
     26          6           0        0.370473   -3.153145    0.924290
     27          8           0        1.162639   -3.885415   -0.008131
     28          6           0       -4.109094   -0.246968   -0.560847
     29          6           0       -4.907696    1.086669   -0.539707
     30          1           0       -3.842546    4.270788   -0.221850
     31          1           0       -4.858367    3.588388   -1.507182
     32          1           0       -5.487687    3.706592    0.158862
     33          1           0       -2.630425    2.668591    1.286119
     34          1           0       -4.272189    2.439845    1.912156
     35          1           0       -4.137604    0.112547    1.948143
     36          1           0       -2.455750    0.481892    2.248589
     37          1           0       -1.746122    0.966379   -0.980234
     38          1           0       -0.702085    1.217995    1.204045
     39          1           0       -0.416528   -0.511746    1.337080
     40          1           0        0.817269    1.502757   -0.609369
     41          1           0        1.646242    0.592387    0.656954
     42          1           0        3.304302   -2.620146    0.586770
     43          1           0        5.188436   -2.229449    2.182893
     44          1           0        6.935561    1.869060    1.334594
     45          1           0        6.500658    3.718891   -0.283669
     46          1           0        4.675488    3.495562   -1.962461
     47          1           0        3.285809    1.459282   -2.031112
     48          1           0       -0.024903    0.111912   -2.654178
     49          1           0        0.418044   -1.598199   -2.650396
     50          1           0       -1.965032   -1.011021   -2.209556
     51          1           0       -2.526228   -2.787111   -1.001473
     52          1           0       -0.935592   -3.204667   -1.600515
     53          1           0       -1.623171   -2.423421    1.281614
     54          1           0       -1.547433   -4.048725    0.643006
     55          1           0        0.842711   -2.171359    0.966880
     56          1           0        0.445192   -3.595353    1.931901
     57          1           0        0.823620   -4.793610   -0.045249
     58          1           0       -4.777024   -1.067691   -0.262125
     59          1           0       -3.786917   -0.456397   -1.582542
     60          1           0       -5.763083    1.017667    0.163610
     61          1           0       -5.337174    1.277392   -1.529748
 ---------------------------------------------------------------------
 Rotational constants (GHZ):           0.2686655           0.0945632           0.0799600
 Leave Link  202 at Sat Nov  5 11:12:34 2022, MaxMem=   402653184 cpu:               0.1 elap:               0.0
 (Enter /home/wykgroup/appl/g16/l301.exe)
 Standard basis: 6-31G(d) (6D, 10F)
 Ernie: Thresh=  0.10000D-02 Tol=  0.10000D-05 Strict=F.
 AO basis set in the form of general basis input (Overlap normalization):
      1 0
 S   6 1.00       0.000000000000
      0.3047524880D+04  0.1834737132D-02
      0.4573695180D+03  0.1403732281D-01
      0.1039486850D+03  0.6884262226D-01
      0.2921015530D+02  0.2321844432D+00
      0.9286662960D+01  0.4679413484D+00
      0.3163926960D+01  0.3623119853D+00
 SP   3 1.00       0.000000000000
      0.7868272350D+01 -0.1193324198D+00  0.6899906659D-01
      0.1881288540D+01 -0.1608541517D+00  0.3164239610D+00
      0.5442492580D+00  0.1143456438D+01  0.7443082909D+00
 SP   1 1.00       0.000000000000
      0.1687144782D+00  0.1000000000D+01  0.1000000000D+01
 D   1 1.00       0.000000000000
      0.8000000000D+00  0.1000000000D+01
 ****
      2 0
 S   6 1.00       0.000000000000
      0.4173511460D+04  0.1834772160D-02
      0.6274579110D+03  0.1399462700D-01
      0.1429020930D+03  0.6858655181D-01
      0.4023432930D+02  0.2322408730D+00
      0.1282021290D+02  0.4690699481D+00
      0.4390437010D+01  0.3604551991D+00
 SP   3 1.00       0.000000000000
      0.1162636186D+02 -0.1149611817D+00  0.6757974388D-01
      0.2716279807D+01 -0.1691174786D+00  0.3239072959D+00
      0.7722183966D+00  0.1145851947D+01  0.7408951398D+00
 SP   1 1.00       0.000000000000
      0.2120314975D+00  0.1000000000D+01  0.1000000000D+01
 D   1 1.00       0.000000000000
      0.8000000000D+00  0.1000000000D+01
 ****
      3 0
 S   6 1.00       0.000000000000
      0.3047524880D+04  0.1834737132D-02
      0.4573695180D+03  0.1403732281D-01
      0.1039486850D+03  0.6884262226D-01
      0.2921015530D+02  0.2321844432D+00
      0.9286662960D+01  0.4679413484D+00
      0.3163926960D+01  0.3623119853D+00
 SP   3 1.00       0.000000000000
      0.7868272350D+01 -0.1193324198D+00  0.6899906659D-01
      0.1881288540D+01 -0.1608541517D+00  0.3164239610D+00
      0.5442492580D+00  0.1143456438D+01  0.7443082909D+00
 SP   1 1.00       0.000000000000
      0.1687144782D+00  0.1000000000D+01  0.1000000000D+01
 D   1 1.00       0.000000000000
      0.8000000000D+00  0.1000000000D+01
 ****
      4 0
 S   6 1.00       0.000000000000
      0.3047524880D+04  0.1834737132D-02
      0.4573695180D+03  0.1403732281D-01
      0.1039486850D+03  0.6884262226D-01
      0.2921015530D+02  0.2321844432D+00
      0.9286662960D+01  0.4679413484D+00
      0.3163926960D+01  0.3623119853D+00
 SP   3 1.00       0.000000000000
      0.7868272350D+01 -0.1193324198D+00  0.6899906659D-01
      0.1881288540D+01 -0.1608541517D+00  0.3164239610D+00
      0.5442492580D+00  0.1143456438D+01  0.7443082909D+00
 SP   1 1.00       0.000000000000
      0.1687144782D+00  0.1000000000D+01  0.1000000000D+01
 D   1 1.00       0.000000000000
      0.8000000000D+00  0.1000000000D+01
 ****
      5 0
 S   6 1.00       0.000000000000
      0.4173511460D+04  0.1834772160D-02
      0.6274579110D+03  0.1399462700D-01
      0.1429020930D+03  0.6858655181D-01
      0.4023432930D+02  0.2322408730D+00
      0.1282021290D+02  0.4690699481D+00
      0.4390437010D+01  0.3604551991D+00
 SP   3 1.00       0.000000000000
      0.1162636186D+02 -0.1149611817D+00  0.6757974388D-01
      0.2716279807D+01 -0.1691174786D+00  0.3239072959D+00
      0.7722183966D+00  0.1145851947D+01  0.7408951398D+00
 SP   1 1.00       0.000000000000
      0.2120314975D+00  0.1000000000D+01  0.1000000000D+01
 D   1 1.00       0.000000000000
      0.8000000000D+00  0.1000000000D+01
 ****
      6 0
 S   6 1.00       0.000000000000
      0.3047524880D+04  0.1834737132D-02
      0.4573695180D+03  0.1403732281D-01
      0.1039486850D+03  0.6884262226D-01
      0.2921015530D+02  0.2321844432D+00
      0.9286662960D+01  0.4679413484D+00
      0.3163926960D+01  0.3623119853D+00
 SP   3 1.00       0.000000000000
      0.7868272350D+01 -0.1193324198D+00  0.6899906659D-01
      0.1881288540D+01 -0.1608541517D+00  0.3164239610D+00
      0.5442492580D+00  0.1143456438D+01  0.7443082909D+00
 SP   1 1.00       0.000000000000
      0.1687144782D+00  0.1000000000D+01  0.1000000000D+01
 D   1 1.00       0.000000000000
      0.8000000000D+00  0.1000000000D+01
 ****
      7 0
 S   6 1.00       0.000000000000
      0.3047524880D+04  0.1834737132D-02
      0.4573695180D+03  0.1403732281D-01
      0.1039486850D+03  0.6884262226D-01
      0.2921015530D+02  0.2321844432D+00
      0.9286662960D+01  0.4679413484D+00
      0.3163926960D+01  0.3623119853D+00
 SP   3 1.00       0.000000000000
      0.7868272350D+01 -0.1193324198D+00  0.6899906659D-01
      0.1881288540D+01 -0.1608541517D+00  0.3164239610D+00
      0.5442492580D+00  0.1143456438D+01  0.7443082909D+00
 SP   1 1.00       0.000000000000
      0.1687144782D+00  0.1000000000D+01  0.1000000000D+01
 D   1 1.00       0.000000000000
      0.8000000000D+00  0.1000000000D+01
 ****
      8 0
 S   6 1.00       0.000000000000
      0.3047524880D+04  0.1834737132D-02
      0.4573695180D+03  0.1403732281D-01
      0.1039486850D+03  0.6884262226D-01
      0.2921015530D+02  0.2321844432D+00
      0.9286662960D+01  0.4679413484D+00
      0.3163926960D+01  0.3623119853D+00
 SP   3 1.00       0.000000000000
      0.7868272350D+01 -0.1193324198D+00  0.6899906659D-01
      0.1881288540D+01 -0.1608541517D+00  0.3164239610D+00
      0.5442492580D+00  0.1143456438D+01  0.7443082909D+00
 SP   1 1.00       0.000000000000
      0.1687144782D+00  0.1000000000D+01  0.1000000000D+01
 D   1 1.00       0.000000000000
      0.8000000000D+00  0.1000000000D+01
 ****
      9 0
 S   6 1.00       0.000000000000
      0.4173511460D+04  0.1834772160D-02
      0.6274579110D+03  0.1399462700D-01
      0.1429020930D+03  0.6858655181D-01
      0.4023432930D+02  0.2322408730D+00
      0.1282021290D+02  0.4690699481D+00
      0.4390437010D+01  0.3604551991D+00
 SP   3 1.00       0.000000000000
      0.1162636186D+02 -0.1149611817D+00  0.6757974388D-01
      0.2716279807D+01 -0.1691174786D+00  0.3239072959D+00
      0.7722183966D+00  0.1145851947D+01  0.7408951398D+00
 SP   1 1.00       0.000000000000
      0.2120314975D+00  0.1000000000D+01  0.1000000000D+01
 D   1 1.00       0.000000000000
      0.8000000000D+00  0.1000000000D+01
 ****
     10 0
 S   6 1.00       0.000000000000
      0.3047524880D+04  0.1834737132D-02
      0.4573695180D+03  0.1403732281D-01
      0.1039486850D+03  0.6884262226D-01
      0.2921015530D+02  0.2321844432D+00
      0.9286662960D+01  0.4679413484D+00
      0.3163926960D+01  0.3623119853D+00
 SP   3 1.00       0.000000000000
      0.7868272350D+01 -0.1193324198D+00  0.6899906659D-01
      0.1881288540D+01 -0.1608541517D+00  0.3164239610D+00
      0.5442492580D+00  0.1143456438D+01  0.7443082909D+00
 SP   1 1.00       0.000000000000
      0.1687144782D+00  0.1000000000D+01  0.1000000000D+01
 D   1 1.00       0.000000000000
      0.8000000000D+00  0.1000000000D+01
 ****
     11 0
 S   6 1.00       0.000000000000
      0.5484671660D+04  0.1831074430D-02
      0.8252349460D+03  0.1395017220D-01
      0.1880469580D+03  0.6844507810D-01
      0.5296450000D+02  0.2327143360D+00
      0.1689757040D+02  0.4701928980D+00
      0.5799635340D+01  0.3585208530D+00
 SP   3 1.00       0.000000000000
      0.1553961625D+02 -0.1107775495D+00  0.7087426823D-01
      0.3599933586D+01 -0.1480262627D+00  0.3397528391D+00
      0.1013761750D+01  0.1130767015D+01  0.7271585773D+00
 SP   1 1.00       0.000000000000
      0.2700058226D+00  0.1000000000D+01  0.1000000000D+01
 D   1 1.00       0.000000000000
      0.8000000000D+00  0.1000000000D+01
 ****
     12 0
 S   6 1.00       0.000000000000
      0.3047524880D+04  0.1834737132D-02
      0.4573695180D+03  0.1403732281D-01
      0.1039486850D+03  0.6884262226D-01
      0.2921015530D+02  0.2321844432D+00
      0.9286662960D+01  0.4679413484D+00
      0.3163926960D+01  0.3623119853D+00
 SP   3 1.00       0.000000000000
      0.7868272350D+01 -0.1193324198D+00  0.6899906659D-01
      0.1881288540D+01 -0.1608541517D+00  0.3164239610D+00
      0.5442492580D+00  0.1143456438D+01  0.7443082909D+00
 SP   1 1.00       0.000000000000
      0.1687144782D+00  0.1000000000D+01  0.1000000000D+01
 D   1 1.00       0.000000000000
      0.8000000000D+00  0.1000000000D+01
 ****
     13 0
 S   6 1.00       0.000000000000
      0.3047524880D+04  0.1834737132D-02
      0.4573695180D+03  0.1403732281D-01
      0.1039486850D+03  0.6884262226D-01
      0.2921015530D+02  0.2321844432D+00
      0.9286662960D+01  0.4679413484D+00
      0.3163926960D+01  0.3623119853D+00
 SP   3 1.00       0.000000000000
      0.7868272350D+01 -0.1193324198D+00  0.6899906659D-01
      0.1881288540D+01 -0.1608541517D+00  0.3164239610D+00
      0.5442492580D+00  0.1143456438D+01  0.7443082909D+00
 SP   1 1.00       0.000000000000
      0.1687144782D+00  0.1000000000D+01  0.1000000000D+01
 D   1 1.00       0.000000000000
      0.8000000000D+00  0.1000000000D+01
 ****
     14 0
 S   6 1.00       0.000000000000
      0.3047524880D+04  0.1834737132D-02
      0.4573695180D+03  0.1403732281D-01
      0.1039486850D+03  0.6884262226D-01
      0.2921015530D+02  0.2321844432D+00
      0.9286662960D+01  0.4679413484D+00
      0.3163926960D+01  0.3623119853D+00
 SP   3 1.00       0.000000000000
      0.7868272350D+01 -0.1193324198D+00  0.6899906659D-01
      0.1881288540D+01 -0.1608541517D+00  0.3164239610D+00
      0.5442492580D+00  0.1143456438D+01  0.7443082909D+00
 SP   1 1.00       0.000000000000
      0.1687144782D+00  0.1000000000D+01  0.1000000000D+01
 D   1 1.00       0.000000000000
      0.8000000000D+00  0.1000000000D+01
 ****
     15 0
 S   6 1.00       0.000000000000
      0.4173511460D+04  0.1834772160D-02
      0.6274579110D+03  0.1399462700D-01
      0.1429020930D+03  0.6858655181D-01
      0.4023432930D+02  0.2322408730D+00
      0.1282021290D+02  0.4690699481D+00
      0.4390437010D+01  0.3604551991D+00
 SP   3 1.00       0.000000000000
      0.1162636186D+02 -0.1149611817D+00  0.6757974388D-01
      0.2716279807D+01 -0.1691174786D+00  0.3239072959D+00
      0.7722183966D+00  0.1145851947D+01  0.7408951398D+00
 SP   1 1.00       0.000000000000
      0.2120314975D+00  0.1000000000D+01  0.1000000000D+01
 D   1 1.00       0.000000000000
      0.8000000000D+00  0.1000000000D+01
 ****
     16 0
 S   6 1.00       0.000000000000
      0.3047524880D+04  0.1834737132D-02
      0.4573695180D+03  0.1403732281D-01
      0.1039486850D+03  0.6884262226D-01
      0.2921015530D+02  0.2321844432D+00
      0.9286662960D+01  0.4679413484D+00
      0.3163926960D+01  0.3623119853D+00
 SP   3 1.00       0.000000000000
      0.7868272350D+01 -0.1193324198D+00  0.6899906659D-01
      0.1881288540D+01 -0.1608541517D+00  0.3164239610D+00
      0.5442492580D+00  0.1143456438D+01  0.7443082909D+00
 SP   1 1.00       0.000000000000
      0.1687144782D+00  0.1000000000D+01  0.1000000000D+01
 D   1 1.00       0.000000000000
      0.8000000000D+00  0.1000000000D+01
 ****
     17 0
 S   6 1.00       0.000000000000
      0.3047524880D+04  0.1834737132D-02
      0.4573695180D+03  0.1403732281D-01
      0.1039486850D+03  0.6884262226D-01
      0.2921015530D+02  0.2321844432D+00
      0.9286662960D+01  0.4679413484D+00
      0.3163926960D+01  0.3623119853D+00
 SP   3 1.00       0.000000000000
      0.7868272350D+01 -0.1193324198D+00  0.6899906659D-01
      0.1881288540D+01 -0.1608541517D+00  0.3164239610D+00
      0.5442492580D+00  0.1143456438D+01  0.7443082909D+00
 SP   1 1.00       0.000000000000
      0.1687144782D+00  0.1000000000D+01  0.1000000000D+01
 D   1 1.00       0.000000000000
      0.8000000000D+00  0.1000000000D+01
 ****
     18 0
 S   6 1.00       0.000000000000
      0.3047524880D+04  0.1834737132D-02
      0.4573695180D+03  0.1403732281D-01
      0.1039486850D+03  0.6884262226D-01
      0.2921015530D+02  0.2321844432D+00
      0.9286662960D+01  0.4679413484D+00
      0.3163926960D+01  0.3623119853D+00
 SP   3 1.00       0.000000000000
      0.7868272350D+01 -0.1193324198D+00  0.6899906659D-01
      0.1881288540D+01 -0.1608541517D+00  0.3164239610D+00
      0.5442492580D+00  0.1143456438D+01  0.7443082909D+00
 SP   1 1.00       0.000000000000
      0.1687144782D+00  0.1000000000D+01  0.1000000000D+01
 D   1 1.00       0.000000000000
      0.8000000000D+00  0.1000000000D+01
 ****
     19 0
 S   6 1.00       0.000000000000
      0.3047524880D+04  0.1834737132D-02
      0.4573695180D+03  0.1403732281D-01
      0.1039486850D+03  0.6884262226D-01
      0.2921015530D+02  0.2321844432D+00
      0.9286662960D+01  0.4679413484D+00
      0.3163926960D+01  0.3623119853D+00
 SP   3 1.00       0.000000000000
      0.7868272350D+01 -0.1193324198D+00  0.6899906659D-01
      0.1881288540D+01 -0.1608541517D+00  0.3164239610D+00
      0.5442492580D+00  0.1143456438D+01  0.7443082909D+00
 SP   1 1.00       0.000000000000
      0.1687144782D+00  0.1000000000D+01  0.1000000000D+01
 D   1 1.00       0.000000000000
      0.8000000000D+00  0.1000000000D+01
 ****
     20 0
 S   6 1.00       0.000000000000
      0.3047524880D+04  0.1834737132D-02
      0.4573695180D+03  0.1403732281D-01
      0.1039486850D+03  0.6884262226D-01
      0.2921015530D+02  0.2321844432D+00
      0.9286662960D+01  0.4679413484D+00
      0.3163926960D+01  0.3623119853D+00
 SP   3 1.00       0.000000000000
      0.7868272350D+01 -0.1193324198D+00  0.6899906659D-01
      0.1881288540D+01 -0.1608541517D+00  0.3164239610D+00
      0.5442492580D+00  0.1143456438D+01  0.7443082909D+00
 SP   1 1.00       0.000000000000
      0.1687144782D+00  0.1000000000D+01  0.1000000000D+01
 D   1 1.00       0.000000000000
      0.8000000000D+00  0.1000000000D+01
 ****
     21 0
 S   6 1.00       0.000000000000
      0.3047524880D+04  0.1834737132D-02
      0.4573695180D+03  0.1403732281D-01
      0.1039486850D+03  0.6884262226D-01
      0.2921015530D+02  0.2321844432D+00
      0.9286662960D+01  0.4679413484D+00
      0.3163926960D+01  0.3623119853D+00
 SP   3 1.00       0.000000000000
      0.7868272350D+01 -0.1193324198D+00  0.6899906659D-01
      0.1881288540D+01 -0.1608541517D+00  0.3164239610D+00
      0.5442492580D+00  0.1143456438D+01  0.7443082909D+00
 SP   1 1.00       0.000000000000
      0.1687144782D+00  0.1000000000D+01  0.1000000000D+01
 D   1 1.00       0.000000000000
      0.8000000000D+00  0.1000000000D+01
 ****
     22 0
 S   6 1.00       0.000000000000
      0.3047524880D+04  0.1834737132D-02
      0.4573695180D+03  0.1403732281D-01
      0.1039486850D+03  0.6884262226D-01
      0.2921015530D+02  0.2321844432D+00
      0.9286662960D+01  0.4679413484D+00
      0.3163926960D+01  0.3623119853D+00
 SP   3 1.00       0.000000000000
      0.7868272350D+01 -0.1193324198D+00  0.6899906659D-01
      0.1881288540D+01 -0.1608541517D+00  0.3164239610D+00
      0.5442492580D+00  0.1143456438D+01  0.7443082909D+00
 SP   1 1.00       0.000000000000
      0.1687144782D+00  0.1000000000D+01  0.1000000000D+01
 D   1 1.00       0.000000000000
      0.8000000000D+00  0.1000000000D+01
 ****
     23 0
 S   6 1.00       0.000000000000
      0.3047524880D+04  0.1834737132D-02
      0.4573695180D+03  0.1403732281D-01
      0.1039486850D+03  0.6884262226D-01
      0.2921015530D+02  0.2321844432D+00
      0.9286662960D+01  0.4679413484D+00
      0.3163926960D+01  0.3623119853D+00
 SP   3 1.00       0.000000000000
      0.7868272350D+01 -0.1193324198D+00  0.6899906659D-01
      0.1881288540D+01 -0.1608541517D+00  0.3164239610D+00
      0.5442492580D+00  0.1143456438D+01  0.7443082909D+00
 SP   1 1.00       0.000000000000
      0.1687144782D+00  0.1000000000D+01  0.1000000000D+01
 D   1 1.00       0.000000000000
      0.8000000000D+00  0.1000000000D+01
 ****
     24 0
 S   6 1.00       0.000000000000
      0.3047524880D+04  0.1834737132D-02
      0.4573695180D+03  0.1403732281D-01
      0.1039486850D+03  0.6884262226D-01
      0.2921015530D+02  0.2321844432D+00
      0.9286662960D+01  0.4679413484D+00
      0.3163926960D+01  0.3623119853D+00
 SP   3 1.00       0.000000000000
      0.7868272350D+01 -0.1193324198D+00  0.6899906659D-01
      0.1881288540D+01 -0.1608541517D+00  0.3164239610D+00
      0.5442492580D+00  0.1143456438D+01  0.7443082909D+00
 SP   1 1.00       0.000000000000
      0.1687144782D+00  0.1000000000D+01  0.1000000000D+01
 D   1 1.00       0.000000000000
      0.8000000000D+00  0.1000000000D+01
 ****
     25 0
 S   6 1.00       0.000000000000
      0.3047524880D+04  0.1834737132D-02
      0.4573695180D+03  0.1403732281D-01
      0.1039486850D+03  0.6884262226D-01
      0.2921015530D+02  0.2321844432D+00
      0.9286662960D+01  0.4679413484D+00
      0.3163926960D+01  0.3623119853D+00
 SP   3 1.00       0.000000000000
      0.7868272350D+01 -0.1193324198D+00  0.6899906659D-01
      0.1881288540D+01 -0.1608541517D+00  0.3164239610D+00
      0.5442492580D+00  0.1143456438D+01  0.7443082909D+00
 SP   1 1.00       0.000000000000
      0.1687144782D+00  0.1000000000D+01  0.1000000000D+01
 D   1 1.00       0.000000000000
      0.8000000000D+00  0.1000000000D+01
 ****
     26 0
 S   6 1.00       0.000000000000
      0.3047524880D+04  0.1834737132D-02
      0.4573695180D+03  0.1403732281D-01
      0.1039486850D+03  0.6884262226D-01
      0.2921015530D+02  0.2321844432D+00
      0.9286662960D+01  0.4679413484D+00
      0.3163926960D+01  0.3623119853D+00
 SP   3 1.00       0.000000000000
      0.7868272350D+01 -0.1193324198D+00  0.6899906659D-01
      0.1881288540D+01 -0.1608541517D+00  0.3164239610D+00
      0.5442492580D+00  0.1143456438D+01  0.7443082909D+00
 SP   1 1.00       0.000000000000
      0.1687144782D+00  0.1000000000D+01  0.1000000000D+01
 D   1 1.00       0.000000000000
      0.8000000000D+00  0.1000000000D+01
 ****
     27 0
 S   6 1.00       0.000000000000
      0.5484671660D+04  0.1831074430D-02
      0.8252349460D+03  0.1395017220D-01
      0.1880469580D+03  0.6844507810D-01
      0.5296450000D+02  0.2327143360D+00
      0.1689757040D+02  0.4701928980D+00
      0.5799635340D+01  0.3585208530D+00
 SP   3 1.00       0.000000000000
      0.1553961625D+02 -0.1107775495D+00  0.7087426823D-01
      0.3599933586D+01 -0.1480262627D+00  0.3397528391D+00
      0.1013761750D+01  0.1130767015D+01  0.7271585773D+00
 SP   1 1.00       0.000000000000
      0.2700058226D+00  0.1000000000D+01  0.1000000000D+01
 D   1 1.00       0.000000000000
      0.8000000000D+00  0.1000000000D+01
 ****
     28 0
 S   6 1.00       0.000000000000
      0.3047524880D+04  0.1834737132D-02
      0.4573695180D+03  0.1403732281D-01
      0.1039486850D+03  0.6884262226D-01
      0.2921015530D+02  0.2321844432D+00
      0.9286662960D+01  0.4679413484D+00
      0.3163926960D+01  0.3623119853D+00
 SP   3 1.00       0.000000000000
      0.7868272350D+01 -0.1193324198D+00  0.6899906659D-01
      0.1881288540D+01 -0.1608541517D+00  0.3164239610D+00
      0.5442492580D+00  0.1143456438D+01  0.7443082909D+00
 SP   1 1.00       0.000000000000
      0.1687144782D+00  0.1000000000D+01  0.1000000000D+01
 D   1 1.00       0.000000000000
      0.8000000000D+00  0.1000000000D+01
 ****
     29 0
 S   6 1.00       0.000000000000
      0.3047524880D+04  0.1834737132D-02
      0.4573695180D+03  0.1403732281D-01
      0.1039486850D+03  0.6884262226D-01
      0.2921015530D+02  0.2321844432D+00
      0.9286662960D+01  0.4679413484D+00
      0.3163926960D+01  0.3623119853D+00
 SP   3 1.00       0.000000000000
      0.7868272350D+01 -0.1193324198D+00  0.6899906659D-01
      0.1881288540D+01 -0.1608541517D+00  0.3164239610D+00
      0.5442492580D+00  0.1143456438D+01  0.7443082909D+00
 SP   1 1.00       0.000000000000
      0.1687144782D+00  0.1000000000D+01  0.1000000000D+01
 D   1 1.00       0.000000000000
      0.8000000000D+00  0.1000000000D+01
 ****
     30 0
 S   3 1.00       0.000000000000
      0.1873113696D+02  0.3349460434D-01
      0.2825394365D+01  0.2347269535D+00
      0.6401216923D+00  0.8137573261D+00
 S   1 1.00       0.000000000000
      0.1612777588D+00  0.1000000000D+01
 ****
     31 0
 S   3 1.00       0.000000000000
      0.1873113696D+02  0.3349460434D-01
      0.2825394365D+01  0.2347269535D+00
      0.6401216923D+00  0.8137573261D+00
 S   1 1.00       0.000000000000
      0.1612777588D+00  0.1000000000D+01
 ****
     32 0
 S   3 1.00       0.000000000000
      0.1873113696D+02  0.3349460434D-01
      0.2825394365D+01  0.2347269535D+00
      0.6401216923D+00  0.8137573261D+00
 S   1 1.00       0.000000000000
      0.1612777588D+00  0.1000000000D+01
 ****
     33 0
 S   3 1.00       0.000000000000
      0.1873113696D+02  0.3349460434D-01
      0.2825394365D+01  0.2347269535D+00
      0.6401216923D+00  0.8137573261D+00
 S   1 1.00       0.000000000000
      0.1612777588D+00  0.1000000000D+01
 ****
     34 0
 S   3 1.00       0.000000000000
      0.1873113696D+02  0.3349460434D-01
      0.2825394365D+01  0.2347269535D+00
      0.6401216923D+00  0.8137573261D+00
 S   1 1.00       0.000000000000
      0.1612777588D+00  0.1000000000D+01
 ****
     35 0
 S   3 1.00       0.000000000000
      0.1873113696D+02  0.3349460434D-01
      0.2825394365D+01  0.2347269535D+00
      0.6401216923D+00  0.8137573261D+00
 S   1 1.00       0.000000000000
      0.1612777588D+00  0.1000000000D+01
 ****
     36 0
 S   3 1.00       0.000000000000
      0.1873113696D+02  0.3349460434D-01
      0.2825394365D+01  0.2347269535D+00
      0.6401216923D+00  0.8137573261D+00
 S   1 1.00       0.000000000000
      0.1612777588D+00  0.1000000000D+01
 ****
     37 0
 S   3 1.00       0.000000000000
      0.1873113696D+02  0.3349460434D-01
      0.2825394365D+01  0.2347269535D+00
      0.6401216923D+00  0.8137573261D+00
 S   1 1.00       0.000000000000
      0.1612777588D+00  0.1000000000D+01
 ****
     38 0
 S   3 1.00       0.000000000000
      0.1873113696D+02  0.3349460434D-01
      0.2825394365D+01  0.2347269535D+00
      0.6401216923D+00  0.8137573261D+00
 S   1 1.00       0.000000000000
      0.1612777588D+00  0.1000000000D+01
 ****
     39 0
 S   3 1.00       0.000000000000
      0.1873113696D+02  0.3349460434D-01
      0.2825394365D+01  0.2347269535D+00
      0.6401216923D+00  0.8137573261D+00
 S   1 1.00       0.000000000000
      0.1612777588D+00  0.1000000000D+01
 ****
     40 0
 S   3 1.00       0.000000000000
      0.1873113696D+02  0.3349460434D-01
      0.2825394365D+01  0.2347269535D+00
      0.6401216923D+00  0.8137573261D+00
 S   1 1.00       0.000000000000
      0.1612777588D+00  0.1000000000D+01
 ****
     41 0
 S   3 1.00       0.000000000000
      0.1873113696D+02  0.3349460434D-01
      0.2825394365D+01  0.2347269535D+00
      0.6401216923D+00  0.8137573261D+00
 S   1 1.00       0.000000000000
      0.1612777588D+00  0.1000000000D+01
 ****
     42 0
 S   3 1.00       0.000000000000
      0.1873113696D+02  0.3349460434D-01
      0.2825394365D+01  0.2347269535D+00
      0.6401216923D+00  0.8137573261D+00
 S   1 1.00       0.000000000000
      0.1612777588D+00  0.1000000000D+01
 ****
     43 0
 S   3 1.00       0.000000000000
      0.1873113696D+02  0.3349460434D-01
      0.2825394365D+01  0.2347269535D+00
      0.6401216923D+00  0.8137573261D+00
 S   1 1.00       0.000000000000
      0.1612777588D+00  0.1000000000D+01
 ****
     44 0
 S   3 1.00       0.000000000000
      0.1873113696D+02  0.3349460434D-01
      0.2825394365D+01  0.2347269535D+00
      0.6401216923D+00  0.8137573261D+00
 S   1 1.00       0.000000000000
      0.1612777588D+00  0.1000000000D+01
 ****
     45 0
 S   3 1.00       0.000000000000
      0.1873113696D+02  0.3349460434D-01
      0.2825394365D+01  0.2347269535D+00
      0.6401216923D+00  0.8137573261D+00
 S   1 1.00       0.000000000000
      0.1612777588D+00  0.1000000000D+01
 ****
     46 0
 S   3 1.00       0.000000000000
      0.1873113696D+02  0.3349460434D-01
      0.2825394365D+01  0.2347269535D+00
      0.6401216923D+00  0.8137573261D+00
 S   1 1.00       0.000000000000
      0.1612777588D+00  0.1000000000D+01
 ****
     47 0
 S   3 1.00       0.000000000000
      0.1873113696D+02  0.3349460434D-01
      0.2825394365D+01  0.2347269535D+00
      0.6401216923D+00  0.8137573261D+00
 S   1 1.00       0.000000000000
      0.1612777588D+00  0.1000000000D+01
 ****
     48 0
 S   3 1.00       0.000000000000
      0.1873113696D+02  0.3349460434D-01
      0.2825394365D+01  0.2347269535D+00
      0.6401216923D+00  0.8137573261D+00
 S   1 1.00       0.000000000000
      0.1612777588D+00  0.1000000000D+01
 ****
     49 0
 S   3 1.00       0.000000000000
      0.1873113696D+02  0.3349460434D-01
      0.2825394365D+01  0.2347269535D+00
      0.6401216923D+00  0.8137573261D+00
 S   1 1.00       0.000000000000
      0.1612777588D+00  0.1000000000D+01
 ****
     50 0
 S   3 1.00       0.000000000000
      0.1873113696D+02  0.3349460434D-01
      0.2825394365D+01  0.2347269535D+00
      0.6401216923D+00  0.8137573261D+00
 S   1 1.00       0.000000000000
      0.1612777588D+00  0.1000000000D+01
 ****
     51 0
 S   3 1.00       0.000000000000
      0.1873113696D+02  0.3349460434D-01
      0.2825394365D+01  0.2347269535D+00
      0.6401216923D+00  0.8137573261D+00
 S   1 1.00       0.000000000000
      0.1612777588D+00  0.1000000000D+01
 ****
     52 0
 S   3 1.00       0.000000000000
      0.1873113696D+02  0.3349460434D-01
      0.2825394365D+01  0.2347269535D+00
      0.6401216923D+00  0.8137573261D+00
 S   1 1.00       0.000000000000
      0.1612777588D+00  0.1000000000D+01
 ****
     53 0
 S   3 1.00       0.000000000000
      0.1873113696D+02  0.3349460434D-01
      0.2825394365D+01  0.2347269535D+00
      0.6401216923D+00  0.8137573261D+00
 S   1 1.00       0.000000000000
      0.1612777588D+00  0.1000000000D+01
 ****
     54 0
 S   3 1.00       0.000000000000
      0.1873113696D+02  0.3349460434D-01
      0.2825394365D+01  0.2347269535D+00
      0.6401216923D+00  0.8137573261D+00
 S   1 1.00       0.000000000000
      0.1612777588D+00  0.1000000000D+01
 ****
     55 0
 S   3 1.00       0.000000000000
      0.1873113696D+02  0.3349460434D-01
      0.2825394365D+01  0.2347269535D+00
      0.6401216923D+00  0.8137573261D+00
 S   1 1.00       0.000000000000
      0.1612777588D+00  0.1000000000D+01
 ****
     56 0
 S   3 1.00       0.000000000000
      0.1873113696D+02  0.3349460434D-01
      0.2825394365D+01  0.2347269535D+00
      0.6401216923D+00  0.8137573261D+00
 S   1 1.00       0.000000000000
      0.1612777588D+00  0.1000000000D+01
 ****
     57 0
 S   3 1.00       0.000000000000
      0.1873113696D+02  0.3349460434D-01
      0.2825394365D+01  0.2347269535D+00
      0.6401216923D+00  0.8137573261D+00
 S   1 1.00       0.000000000000
      0.1612777588D+00  0.1000000000D+01
 ****
     58 0
 S   3 1.00       0.000000000000
      0.1873113696D+02  0.3349460434D-01
      0.2825394365D+01  0.2347269535D+00
      0.6401216923D+00  0.8137573261D+00
 S   1 1.00       0.000000000000
      0.1612777588D+00  0.1000000000D+01
 ****
     59 0
 S   3 1.00       0.000000000000
      0.1873113696D+02  0.3349460434D-01
      0.2825394365D+01  0.2347269535D+00
      0.6401216923D+00  0.8137573261D+00
 S   1 1.00       0.000000000000
      0.1612777588D+00  0.1000000000D+01
 ****
     60 0
 S   3 1.00       0.000000000000
      0.1873113696D+02  0.3349460434D-01
      0.2825394365D+01  0.2347269535D+00
      0.6401216923D+00  0.8137573261D+00
 S   1 1.00       0.000000000000
      0.1612777588D+00  0.1000000000D+01
 ****
     61 0
 S   3 1.00       0.000000000000
      0.1873113696D+02  0.3349460434D-01
      0.2825394365D+01  0.2347269535D+00
      0.6401216923D+00  0.8137573261D+00
 S   1 1.00       0.000000000000
      0.1612777588D+00  0.1000000000D+01
 ****

   499 basis functions,   940 primitive gaussians,   499 cartesian basis functions
   107 alpha electrons      107 beta electrons
       nuclear repulsion energy      2905.4030060610 Hartrees.
 IExCor=  402 DFT=T Ex+Corr=B3LYP ExCW=0 ScaHFX=  0.200000
 ScaDFX=  0.800000  0.720000  1.000000  0.810000 ScalE2=  1.000000  1.000000
 IRadAn=      5 IRanWt=     -1 IRanGd=            0 ICorTp=0 IEmpDi=  4
 NAtoms=   61 NActive=   61 NUniq=   61 SFac= 1.00D+00 NAtFMM=   60 NAOKFM=T Big=T
 Integral buffers will be    131072 words long.
 Regular integral format.
 Two-electron integral symmetry is turned off.
 Leave Link  301 at Sat Nov  5 11:12:34 2022, MaxMem=   402653184 cpu:               0.8 elap:               0.1
 (Enter /home/wykgroup/appl/g16/l302.exe)
 NPDir=0 NMtPBC=     1 NCelOv=     1 NCel=       1 NClECP=     1 NCelD=      1
         NCelK=      1 NCelE2=     1 NClLst=     1 CellRange=     0.0.
 One-electron integrals computed using PRISM.
 NBasis=   499 RedAO= T EigKep=  3.83D-04  NBF=   499
 NBsUse=   499 1.00D-06 EigRej= -1.00D+00 NBFU=   499
 Precomputing XC quadrature grid using
 IXCGrd= 4 IRadAn=           5 IRanWt=          -1 IRanGd=           0 AccXCQ= 0.00D+00.
 Generated NRdTot=       0 NPtTot=           0 NUsed=           0 NTot=          32
 NSgBfM=   493   493   493   493   493 MxSgAt=    61 MxSgA2=    61.
 Leave Link  302 at Sat Nov  5 11:12:35 2022, MaxMem=   402653184 cpu:              10.8 elap:               0.8
 (Enter /home/wykgroup/appl/g16/l303.exe)
 DipDrv:  MaxL=1.
 Leave Link  303 at Sat Nov  5 11:12:35 2022, MaxMem=   402653184 cpu:               0.7 elap:               0.1
 (Enter /home/wykgroup/appl/g16/l308.exe)
 Leave Link  308 at Sat Nov  5 11:12:36 2022, MaxMem=   402653184 cpu:               0.9 elap:               0.1
 (Enter /home/wykgroup/appl/g16/l401.exe)
 ExpMin= 1.61D-01 ExpMax= 5.48D+03 ExpMxC= 8.25D+02 IAcc=3 IRadAn=         5 AccDes= 0.00D+00
 Harris functional with IExCor=  402 and IRadAn=       5 diagonalized for initial guess.
 HarFok:  IExCor=  402 AccDes= 0.00D+00 IRadAn=         5 IDoV= 1 UseB2=F ITyADJ=14
 ICtDFT=  3500011 ScaDFX=  1.000000  1.000000  1.000000  1.000000
 FoFCou: FMM=F IPFlag=           0 FMFlag=      100000 FMFlg1=        2001
         NFxFlg=           0 DoJE=T BraDBF=F KetDBF=T FulRan=T
         wScrn=  0.000000 ICntrl=       500 IOpCl=  0 I1Cent=   200000004 NGrid=           0
         NMat0=    1 NMatS0=      1 NMatT0=    0 NMatD0=    1 NMtDS0=    0 NMtDT0=    0
 Symmetry not used in FoFCou.
 Harris En= -1265.09273181192    
 JPrj=0 DoOrth=F DoCkMO=F.
 Leave Link  401 at Sat Nov  5 11:12:40 2022, MaxMem=   402653184 cpu:              46.4 elap:               4.1
 (Enter /home/wykgroup/appl/g16/l502.exe)
 Two-electron integral symmetry not used.
 Closed shell SCF:
 Using DIIS extrapolation, IDIIS=  1040.
 NGot=   402653184 LenX=   402143644 LenY=   401894144
 Requested convergence on RMS density matrix=1.00D-08 within  32 cycles.
 Requested convergence on MAX density matrix=1.00D-06.
 Requested convergence on             energy=1.00D-06.
 No special actions if energy rises.
 Fock matrices will be formed incrementally for  20 cycles.
 Integral accuracy reduced to 1.0D-05 until final iterations.

 Cycle   1  Pass 0  IDiag  1:
 FoFJK:  IHMeth= 1 ICntrl=       0 DoSepK=F KAlg= 0 I1Cent=           0 FoldK=F
 IRaf= 990000000 NMat=       1 IRICut=       1 DoRegI=T DoRafI=F ISym2E= 0 IDoP0=0 IntGTp=1.
 FoFCou: FMM=T IPFlag=           0 FMFlag=      100000 FMFlg1=        2001
         NFxFlg=           0 DoJE=F BraDBF=F KetDBF=F FulRan=T
         wScrn=  0.000000 ICntrl=         0 IOpCl=  0 I1Cent=           0 NGrid=           0
         NMat0=    1 NMatS0=      1 NMatT0=    0 NMatD0=    1 NMtDS0=    0 NMtDT0=    0
 Symmetry not used in FoFCou.
 FMM levels:  10  Number of levels for PrismC:   9
 E= -1264.48629438930    
 DIIS: error= 2.36D-02 at cycle   1 NSaved=   1.
 NSaved= 1 IEnMin= 1 EnMin= -1264.48629438930     IErMin= 1 ErrMin= 2.36D-02
 ErrMax= 2.36D-02  0.00D+00 EMaxC= 1.00D-01 BMatC= 6.46D-01 BMatP= 6.46D-01
 IDIUse=3 WtCom= 7.64D-01 WtEn= 2.36D-01
 Coeff-Com:  0.100D+01
 Coeff-En:   0.100D+01
 Coeff:      0.100D+01
 Gap=     0.134 Goal=   None    Shift=    0.000
 GapD=    0.134 DampG=1.000 DampE=0.500 DampFc=0.5000 IDamp=-1.
 Damping current iteration by 5.00D-01
 RMSDP=4.21D-03 MaxDP=2.06D-01              OVMax= 3.07D-01

 Cycle   2  Pass 0  IDiag  1:
 RMSU=  2.08D-03    CP:  9.79D-01
 E= -1264.73146756613     Delta-E=       -0.245173176823 Rises=F Damp=T
 DIIS: error= 8.03D-03 at cycle   2 NSaved=   2.
 NSaved= 2 IEnMin= 2 EnMin= -1264.73146756613     IErMin= 2 ErrMin= 8.03D-03
 ErrMax= 8.03D-03  0.00D+00 EMaxC= 1.00D-01 BMatC= 8.07D-02 BMatP= 6.46D-01
 IDIUse=3 WtCom= 9.20D-01 WtEn= 8.03D-02
 Coeff-Com:  0.142D+00 0.858D+00
 Coeff-En:   0.209D+00 0.791D+00
 Coeff:      0.147D+00 0.853D+00
 Gap=     0.237 Goal=   None    Shift=    0.000
 RMSDP=1.27D-03 MaxDP=1.01D-01 DE=-2.45D-01 OVMax= 1.52D-01

 Cycle   3  Pass 0  IDiag  1:
 RMSU=  1.20D-03    CP:  9.68D-01  8.20D-01
 E= -1265.04885225648     Delta-E=       -0.317384690350 Rises=F Damp=F
 DIIS: error= 1.30D-02 at cycle   3 NSaved=   3.
 NSaved= 3 IEnMin= 3 EnMin= -1265.04885225648     IErMin= 2 ErrMin= 8.03D-03
 ErrMax= 1.30D-02  0.00D+00 EMaxC= 1.00D-01 BMatC= 1.03D-01 BMatP= 8.07D-02
 IDIUse=2 WtCom= 0.00D+00 WtEn= 1.00D+00
 Coeff-En:   0.000D+00 0.000D+00 0.100D+01
 Coeff:      0.000D+00 0.000D+00 0.100D+01
 Gap=     0.130 Goal=   None    Shift=    0.000
 RMSDP=2.32D-03 MaxDP=2.46D-01 DE=-3.17D-01 OVMax= 4.13D-01

 Cycle   4  Pass 0  IDiag  1:
 RMSU=  1.46D-03    CP:  9.73D-01  1.20D+00 -3.61D-01
 E= -1264.46643976451     Delta-E=        0.582412491967 Rises=F Damp=F
 DIIS: error= 3.63D-02 at cycle   4 NSaved=   4.
 NSaved= 4 IEnMin= 3 EnMin= -1265.04885225648     IErMin= 2 ErrMin= 8.03D-03
 ErrMax= 3.63D-02  0.00D+00 EMaxC= 1.00D-01 BMatC= 8.04D-01 BMatP= 8.07D-02
 IDIUse=2 WtCom= 0.00D+00 WtEn= 1.00D+00
 Coeff-En:   0.000D+00 0.000D+00 0.831D+00 0.169D+00
 Coeff:      0.000D+00 0.000D+00 0.831D+00 0.169D+00
 Gap=     0.141 Goal=   None    Shift=    0.000
 RMSDP=1.33D-03 MaxDP=1.57D-01 DE= 5.82D-01 OVMax= 1.87D-01

 Cycle   5  Pass 0  IDiag  1:
 RMSU=  3.32D-04    CP:  9.72D-01  9.63D-01  3.22D-01  4.03D-01
 E= -1265.07761575034     Delta-E=       -0.611175985832 Rises=F Damp=F
 DIIS: error= 1.12D-02 at cycle   5 NSaved=   5.
 NSaved= 5 IEnMin= 5 EnMin= -1265.07761575034     IErMin= 2 ErrMin= 8.03D-03
 ErrMax= 1.12D-02  0.00D+00 EMaxC= 1.00D-01 BMatC= 7.12D-02 BMatP= 8.07D-02
 IDIUse=3 WtCom= 8.88D-01 WtEn= 1.12D-01
 Coeff-Com:  0.791D-02 0.254D-01 0.375D+00-0.696D-01 0.661D+00
 Coeff-En:   0.000D+00 0.000D+00 0.426D+00 0.000D+00 0.574D+00
 Coeff:      0.702D-02 0.226D-01 0.381D+00-0.618D-01 0.652D+00
 Gap=     0.157 Goal=   None    Shift=    0.000
 RMSDP=5.02D-04 MaxDP=4.58D-02 DE=-6.11D-01 OVMax= 6.21D-02

 Cycle   6  Pass 0  IDiag  1:
 RMSU=  1.23D-04    CP:  9.70D-01  8.85D-01  6.08D-01  2.08D-01  6.59D-01
 E= -1265.13421837420     Delta-E=       -0.056602623853 Rises=F Damp=F
 DIIS: error= 1.05D-03 at cycle   6 NSaved=   6.
 NSaved= 6 IEnMin= 6 EnMin= -1265.13421837420     IErMin= 6 ErrMin= 1.05D-03
 ErrMax= 1.05D-03  0.00D+00 EMaxC= 1.00D-01 BMatC= 7.87D-04 BMatP= 7.12D-02
 IDIUse=3 WtCom= 9.89D-01 WtEn= 1.05D-02
 Coeff-Com:  0.389D-02 0.478D-02 0.207D+00-0.505D-01 0.408D+00 0.427D+00
 Coeff-En:   0.000D+00 0.000D+00 0.000D+00 0.000D+00 0.000D+00 0.100D+01
 Coeff:      0.385D-02 0.473D-02 0.204D+00-0.500D-01 0.404D+00 0.433D+00
 Gap=     0.156 Goal=   None    Shift=    0.000
 RMSDP=8.05D-05 MaxDP=4.29D-03 DE=-5.66D-02 OVMax= 1.39D-02

 Cycle   7  Pass 0  IDiag  1:
 RMSU=  3.54D-05    CP:  9.70D-01  8.91D-01  6.08D-01  2.13D-01  7.19D-01
                    CP:  4.47D-01
 E= -1265.13491710662     Delta-E=       -0.000698732420 Rises=F Damp=F
 DIIS: error= 4.54D-04 at cycle   7 NSaved=   7.
 NSaved= 7 IEnMin= 7 EnMin= -1265.13491710662     IErMin= 7 ErrMin= 4.54D-04
 ErrMax= 4.54D-04  0.00D+00 EMaxC= 1.00D-01 BMatC= 9.98D-05 BMatP= 7.87D-04
 IDIUse=3 WtCom= 9.95D-01 WtEn= 4.54D-03
 Coeff-Com:  0.200D-02-0.182D-02 0.685D-01-0.183D-01 0.128D+00 0.221D+00
 Coeff-Com:  0.600D+00
 Coeff-En:   0.000D+00 0.000D+00 0.000D+00 0.000D+00 0.000D+00 0.460D-01
 Coeff-En:   0.954D+00
 Coeff:      0.199D-02-0.181D-02 0.682D-01-0.182D-01 0.127D+00 0.221D+00
 Coeff:      0.602D+00
 Gap=     0.156 Goal=   None    Shift=    0.000
 RMSDP=2.73D-05 MaxDP=1.55D-03 DE=-6.99D-04 OVMax= 4.35D-03

 Cycle   8  Pass 0  IDiag  1:
 RMSU=  1.67D-05    CP:  9.70D-01  8.88D-01  6.13D-01  2.09D-01  7.10D-01
                    CP:  5.13D-01  5.30D-01
 E= -1265.13499157718     Delta-E=       -0.000074470565 Rises=F Damp=F
 DIIS: error= 2.41D-04 at cycle   8 NSaved=   8.
 NSaved= 8 IEnMin= 8 EnMin= -1265.13499157718     IErMin= 8 ErrMin= 2.41D-04
 ErrMax= 2.41D-04  0.00D+00 EMaxC= 1.00D-01 BMatC= 2.42D-05 BMatP= 9.98D-05
 IDIUse=3 WtCom= 9.98D-01 WtEn= 2.41D-03
 Coeff-Com:  0.956D-03-0.249D-02 0.123D-01-0.290D-02 0.122D-01 0.674D-01
 Coeff-Com:  0.409D+00 0.503D+00
 Coeff-En:   0.000D+00 0.000D+00 0.000D+00 0.000D+00 0.000D+00 0.000D+00
 Coeff-En:   0.147D+00 0.853D+00
 Coeff:      0.954D-03-0.248D-02 0.122D-01-0.290D-02 0.122D-01 0.673D-01
 Coeff:      0.409D+00 0.504D+00
 Gap=     0.157 Goal=   None    Shift=    0.000
 RMSDP=1.18D-05 MaxDP=6.37D-04 DE=-7.45D-05 OVMax= 1.76D-03

 Cycle   9  Pass 0  IDiag  1:
 RMSU=  4.27D-06    CP:  9.70D-01  8.87D-01  6.16D-01  2.08D-01  7.08D-01
                    CP:  4.91D-01  6.82D-01  5.25D-01
 E= -1265.13501541620     Delta-E=       -0.000023839016 Rises=F Damp=F
 DIIS: error= 3.00D-05 at cycle   9 NSaved=   9.
 NSaved= 9 IEnMin= 9 EnMin= -1265.13501541620     IErMin= 9 ErrMin= 3.00D-05
 ErrMax= 3.00D-05  0.00D+00 EMaxC= 1.00D-01 BMatC= 7.41D-07 BMatP= 2.42D-05
 IDIUse=1 WtCom= 1.00D+00 WtEn= 0.00D+00
 Coeff-Com:  0.419D-03-0.122D-02 0.308D-02-0.428D-03-0.213D-03 0.230D-01
 Coeff-Com:  0.167D+00 0.258D+00 0.550D+00
 Coeff:      0.419D-03-0.122D-02 0.308D-02-0.428D-03-0.213D-03 0.230D-01
 Coeff:      0.167D+00 0.258D+00 0.550D+00
 Gap=     0.156 Goal=   None    Shift=    0.000
 RMSDP=2.23D-06 MaxDP=1.37D-04 DE=-2.38D-05 OVMax= 2.34D-04

 Initial convergence to 1.0D-05 achieved.  Increase integral accuracy.
 Cycle  10  Pass 1  IDiag  1:
 E= -1265.13501217184     Delta-E=        0.000003244353 Rises=F Damp=F
 DIIS: error= 1.44D-04 at cycle   1 NSaved=   1.
 NSaved= 1 IEnMin= 1 EnMin= -1265.13501217184     IErMin= 1 ErrMin= 1.44D-04
 ErrMax= 1.44D-04  0.00D+00 EMaxC= 1.00D-01 BMatC= 4.67D-06 BMatP= 4.67D-06
 IDIUse=3 WtCom= 9.99D-01 WtEn= 1.44D-03
 Coeff-Com:  0.100D+01
 Coeff-En:   0.100D+01
 Coeff:      0.100D+01
 Gap=     0.156 Goal=   None    Shift=    0.000
 RMSDP=2.23D-06 MaxDP=1.37D-04 DE= 3.24D-06 OVMax= 2.63D-04

 Cycle  11  Pass 1  IDiag  1:
 RMSU=  5.68D-05    CP:  1.00D+00
 E= -1265.13501641134     Delta-E=       -0.000004239492 Rises=F Damp=F
 DIIS: error= 1.10D-05 at cycle   2 NSaved=   2.
 NSaved= 2 IEnMin= 2 EnMin= -1265.13501641134     IErMin= 2 ErrMin= 1.10D-05
 ErrMax= 1.10D-05  0.00D+00 EMaxC= 1.00D-01 BMatC= 1.79D-07 BMatP= 4.67D-06
 IDIUse=1 WtCom= 1.00D+00 WtEn= 0.00D+00
 Coeff-Com:  0.483D-01 0.952D+00
 Coeff:      0.483D-01 0.952D+00
 Gap=     0.156 Goal=   None    Shift=    0.000
 RMSDP=2.41D-06 MaxDP=1.21D-04 DE=-4.24D-06 OVMax= 2.46D-04

 Cycle  12  Pass 1  IDiag  1:
 RMSU=  2.33D-06    CP:  1.00D+00  1.01D+00
 E= -1265.13501610766     Delta-E=        0.000000303673 Rises=F Damp=F
 DIIS: error= 2.07D-05 at cycle   3 NSaved=   3.
 NSaved= 3 IEnMin= 2 EnMin= -1265.13501641134     IErMin= 2 ErrMin= 1.10D-05
 ErrMax= 2.07D-05  0.00D+00 EMaxC= 1.00D-01 BMatC= 4.89D-07 BMatP= 1.79D-07
 IDIUse=1 WtCom= 1.00D+00 WtEn= 0.00D+00
 Coeff-Com: -0.491D-02 0.626D+00 0.379D+00
 Coeff:     -0.491D-02 0.626D+00 0.379D+00
 Gap=     0.156 Goal=   None    Shift=    0.000
 RMSDP=1.52D-06 MaxDP=8.05D-05 DE= 3.04D-07 OVMax= 1.69D-04

 Cycle  13  Pass 1  IDiag  1:
 RMSU=  3.16D-07    CP:  1.00D+00  1.01D+00  3.65D-01
 E= -1265.13501657655     Delta-E=       -0.000000468885 Rises=F Damp=F
 DIIS: error= 3.33D-06 at cycle   4 NSaved=   4.
 NSaved= 4 IEnMin= 4 EnMin= -1265.13501657655     IErMin= 4 ErrMin= 3.33D-06
 ErrMax= 3.33D-06  0.00D+00 EMaxC= 1.00D-01 BMatC= 8.40D-09 BMatP= 1.79D-07
 IDIUse=1 WtCom= 1.00D+00 WtEn= 0.00D+00
 Coeff-Com: -0.398D-02 0.397D+00 0.248D+00 0.358D+00
 Coeff:     -0.398D-02 0.397D+00 0.248D+00 0.358D+00
 Gap=     0.156 Goal=   None    Shift=    0.000
 RMSDP=1.85D-07 MaxDP=1.61D-05 DE=-4.69D-07 OVMax= 1.81D-05

 Cycle  14  Pass 1  IDiag  1:
 RMSU=  1.10D-07    CP:  1.00D+00  1.01D+00  3.88D-01  5.64D-01
 E= -1265.13501658360     Delta-E=       -0.000000007055 Rises=F Damp=F
 DIIS: error= 4.88D-07 at cycle   5 NSaved=   5.
 NSaved= 5 IEnMin= 5 EnMin= -1265.13501658360     IErMin= 5 ErrMin= 4.88D-07
 ErrMax= 4.88D-07  0.00D+00 EMaxC= 1.00D-01 BMatC= 2.42D-10 BMatP= 8.40D-09
 IDIUse=1 WtCom= 1.00D+00 WtEn= 0.00D+00
 Coeff-Com: -0.195D-02 0.186D+00 0.117D+00 0.201D+00 0.499D+00
 Coeff:     -0.195D-02 0.186D+00 0.117D+00 0.201D+00 0.499D+00
 Gap=     0.156 Goal=   None    Shift=    0.000
 RMSDP=3.79D-08 MaxDP=3.73D-06 DE=-7.05D-09 OVMax= 4.66D-06

 Cycle  15  Pass 1  IDiag  1:
 RMSU=  3.40D-08    CP:  1.00D+00  1.01D+00  3.88D-01  5.79D-01  8.54D-01
 E= -1265.13501658379     Delta-E=       -0.000000000191 Rises=F Damp=F
 DIIS: error= 1.54D-07 at cycle   6 NSaved=   6.
 NSaved= 6 IEnMin= 6 EnMin= -1265.13501658379     IErMin= 6 ErrMin= 1.54D-07
 ErrMax= 1.54D-07  0.00D+00 EMaxC= 1.00D-01 BMatC= 3.21D-11 BMatP= 2.42D-10
 IDIUse=1 WtCom= 1.00D+00 WtEn= 0.00D+00
 Coeff-Com: -0.473D-03 0.424D-01 0.268D-01 0.559D-01 0.291D+00 0.584D+00
 Coeff:     -0.473D-03 0.424D-01 0.268D-01 0.559D-01 0.291D+00 0.584D+00
 Gap=     0.156 Goal=   None    Shift=    0.000
 RMSDP=1.60D-08 MaxDP=9.84D-07 DE=-1.91D-10 OVMax= 1.83D-06

 Cycle  16  Pass 1  IDiag  1:
 RMSU=  1.12D-08    CP:  1.00D+00  1.01D+00  3.87D-01  5.83D-01  8.97D-01
                    CP:  7.01D-01
 E= -1265.13501658381     Delta-E=       -0.000000000011 Rises=F Damp=F
 DIIS: error= 8.81D-08 at cycle   7 NSaved=   7.
 NSaved= 7 IEnMin= 7 EnMin= -1265.13501658381     IErMin= 7 ErrMin= 8.81D-08
 ErrMax= 8.81D-08  0.00D+00 EMaxC= 1.00D-01 BMatC= 6.29D-12 BMatP= 3.21D-11
 IDIUse=1 WtCom= 1.00D+00 WtEn= 0.00D+00
 Coeff-Com: -0.348D-04 0.156D-02 0.104D-02 0.822D-02 0.118D+00 0.378D+00
 Coeff-Com:  0.494D+00
 Coeff:     -0.348D-04 0.156D-02 0.104D-02 0.822D-02 0.118D+00 0.378D+00
 Coeff:      0.494D+00
 Gap=     0.156 Goal=   None    Shift=    0.000
 RMSDP=6.43D-09 MaxDP=3.63D-07 DE=-1.09D-11 OVMax= 6.13D-07

 SCF Done:  E(RB3LYP) =  -1265.13501658     A.U. after   16 cycles
            NFock= 16  Conv=0.64D-08     -V/T= 2.0096
 KE= 1.253132778579D+03 PE=-8.748845717964D+03 EE= 3.325174916740D+03
 Leave Link  502 at Sat Nov  5 11:13:55 2022, MaxMem=   402653184 cpu:             896.7 elap:              75.1
 (Enter /home/wykgroup/appl/g16/l508.exe)
 QCSCF skips out because SCF is already converged.
 Leave Link  508 at Sat Nov  5 11:13:55 2022, MaxMem=   402653184 cpu:               0.0 elap:               0.0
 (Enter /home/wykgroup/appl/g16/l801.exe)
 DoSCS=F DFT=T ScalE2(SS,OS)=  1.000000  1.000000
 ExpMin= 1.61D-01 ExpMax= 5.48D+03 ExpMxC= 8.25D+02 IAcc=3 IRadAn=         5 AccDes= 0.00D+00
 HarFok:  IExCor=  205 AccDes= 0.00D+00 IRadAn=         5 IDoV=-2 UseB2=F ITyADJ=14
 ICtDFT= 12500011 ScaDFX=  1.000000  1.000000  1.000000  1.000000
 GSVD:  LWork=       -1073 too small for GESVD, short by        4640 words or        4640 for optimal perf.
 Largest valence mixing into a core orbital is  5.80D-05
 Largest core mixing into a valence orbital is  1.39D-05
 Range of M.O.s used for correlation:    30   499
 NBasis=   499 NAE=   107 NBE=   107 NFC=    29 NFV=     0
 NROrb=    470 NOA=    78 NOB=    78 NVA=   392 NVB=   392
 Leave Link  801 at Sat Nov  5 11:13:55 2022, MaxMem=   402653184 cpu:               2.2 elap:               0.2
 (Enter /home/wykgroup/appl/g16/l914.exe)
 RHF ground state
 Two-electron integral symmetry not used.
 MDV=   402653184 DFT=T DoStab=F Mixed=T DoRPA=T DoScal=F NonHer=T
 Making orbital integer symmetry assigments:
    16 initial guesses have been made.
 Convergence on wavefunction:    0.001000000000000
 Davidson Disk Diagonalization:  ConvIn= 1.00D-03 SkipCon=T Conv= 1.00D-03.
 Max sub-space:  2000 roots to seek:    16 dimension of matrix:        61152
 Iteration     1 Dimension    16 NMult     0 NNew     16
 CISAX will form    16 AO SS matrices at one time.
 NMat=    16 NSing=     8 JSym2X= 0.
 FoFJK:  IHMeth= 1 ICntrl=       0 DoSepK=F KAlg= 0 I1Cent=           0 FoldK=F
 IRaf= 990000000 NMat=      32 IRICut=       1 DoRegI=T DoRafI=F ISym2E= 0 IDoP0=0 IntGTp=1.
 FoFCou: FMM=T IPFlag=           0 FMFlag=      100000 FMFlg1=        2001
         NFxFlg=           0 DoJE=F BraDBF=F KetDBF=F FulRan=T
         wScrn=  0.000000 ICntrl=         0 IOpCl=  0 I1Cent=           0 NGrid=           0
         NMat0=   32 NMatS0=      8 NMatT0=    8 NMatD0=   32 NMtDS0=    0 NMtDT0=    0
 Symmetry not used in FoFCou.
 FMM levels:  10  Number of levels for PrismC:   9
 New state      1 was old state      6
 New state      3 was old state      1
 New state      4 was old state     14
 New state      5 was old state     10
 New state      6 was old state      7
 New state      7 was old state      4
 New state      8 was old state      3
 Excitation Energies [eV] at current iteration:
 Root      1 :     3.268847976004900
 Root      2 :     3.888154172155208
 Root      3 :     3.891789192909036
 Root      4 :     3.966717053565361
 Root      5 :     4.027426593730421
 Root      6 :     4.285285605299235
 Root      7 :     4.319272856607069
 Root      8 :     4.319954712463593
 Root      9 :     4.381652408002235
 Root     10 :     4.453933625200307
 Root     11 :     4.915719733686058
 Root     12 :     4.915820897574404
 Root     13 :     5.333948098213122
 Root     14 :     5.337647214994139
 Root     15 :     5.420762066384738
 Root     16 :     5.872977007108124
 Vector   4 SDiff=2.48D+00 TDiff=3.88D+00 assumed to be singlet.
 Vector   8 SDiff=2.61D+00 TDiff=3.61D+00 assumed to be singlet.
 Iteration     2 Dimension    24 NMult    16 NNew      8
 CISAX will form     8 AO SS matrices at one time.
 NMat=     8 NSing=     4 JSym2X= 0.
 Root      1 not converged, maximum delta is    0.189374100592420
 New state      2 was old state      5
 Root      2 not converged, maximum delta is    0.486712221232190
 Root      3 not converged, maximum delta is    0.015775740167700
 New state      4 was old state      6
 Root      4 not converged, maximum delta is    0.170675121562759
 Excitation Energies [eV] at current iteration:
 Root      1 :     2.827263090290100   Change is   -0.441584885714800
 Root      2 :     3.813344152460335   Change is   -0.214082441270086
 Root      3 :     3.889816289637633   Change is   -0.001972903271404
 Root      4 :     4.157603609858899   Change is   -0.127681995440336
 Iteration     3 Dimension    32 NMult    24 NNew      8
 CISAX will form     8 AO SS matrices at one time.
 NMat=     8 NSing=     4 JSym2X= 0.
 Root      1 not converged, maximum delta is    0.040133132199104
 Root      2 not converged, maximum delta is    0.169139565427089
 Root      3 not converged, maximum delta is    0.007860132364377
 Root      4 not converged, maximum delta is    0.060796092191160
 Excitation Energies [eV] at current iteration:
 Root      1 :     2.783731822271260   Change is   -0.043531268018840
 Root      2 :     3.696939083622121   Change is   -0.116405068838214
 Root      3 :     3.889581102703469   Change is   -0.000235186934164
 Root      4 :     4.105294645335996   Change is   -0.052308964522903
 Iteration     4 Dimension    40 NMult    32 NNew      8
 CISAX will form     8 AO SS matrices at one time.
 NMat=     8 NSing=     4 JSym2X= 0.
 Root      1 not converged, maximum delta is    0.003087835220856
 Root      2 not converged, maximum delta is    0.065096515864783
 Root      3 not converged, maximum delta is    0.001788007452899
 Root      4 not converged, maximum delta is    0.021901445896505
 Excitation Energies [eV] at current iteration:
 Root      1 :     2.781470124717961   Change is   -0.002261697553299
 Root      2 :     3.677240897340826   Change is   -0.019698186281294
 Root      3 :     3.889542529933596   Change is   -0.000038572769873
 Root      4 :     4.096544446074688   Change is   -0.008750199261308
 Iteration     5 Dimension    48 NMult    40 NNew      8
 CISAX will form     8 AO SS matrices at one time.
 NMat=     8 NSing=     4 JSym2X= 0.
 Root      1 not converged, maximum delta is    0.001570341491645
 Root      2 not converged, maximum delta is    0.017306861214575
 Root      3 has converged.
 Root      4 not converged, maximum delta is    0.011818168586746
 Excitation Energies [eV] at current iteration:
 Root      1 :     2.781358694937615   Change is   -0.000111429780346
 Root      2 :     3.674247794118380   Change is   -0.002993103222446
 Root      3 :     3.889537073967064   Change is   -0.000005455966533
 Root      4 :     4.094757844086958   Change is   -0.001786601987730
 Iteration     6 Dimension    54 NMult    48 NNew      6
 CISAX will form     6 AO SS matrices at one time.
 NMat=     6 NSing=     2 JSym2X= 0.
 Root      1 has converged.
 Root      2 not converged, maximum delta is    0.012269569234822
 Root      3 has converged.
 Root      4 not converged, maximum delta is    0.002267522210972
 Excitation Energies [eV] at current iteration:
 Root      1 :     2.781350622567869   Change is   -0.000008072369745
 Root      2 :     3.673353261737875   Change is   -0.000894532380505
 Root      3 :     3.889536265930747   Change is   -0.000000808036316
 Root      4 :     4.094415300987681   Change is   -0.000342543099278
 Iteration     7 Dimension    58 NMult    54 NNew      4
 CISAX will form     4 AO SS matrices at one time.
 NMat=     4 NSing=     2 JSym2X= 0.
 Root      1 has converged.
 Root      2 not converged, maximum delta is    0.002593167704912
 Root      3 has converged.
 Root      4 has converged.
 Excitation Energies [eV] at current iteration:
 Root      1 :     2.781350503053325   Change is   -0.000000119514544
 Root      2 :     3.673193815738701   Change is   -0.000159445999175
 Root      3 :     3.889536059393634   Change is   -0.000000206537114
 Root      4 :     4.094360469999954   Change is   -0.000054830987727
 Iteration     8 Dimension    60 NMult    58 NNew      2
 CISAX will form     2 AO SS matrices at one time.
 NMat=     2 NSing=     0 JSym2X= 0.
 Root      1 has converged.
 Root      2 has converged.
 Root      3 has converged.
 Root      4 has converged.
 Excitation Energies [eV] at current iteration:
 Root      1 :     2.781350438372409   Change is   -0.000000064680916
 Root      2 :     3.673163820814161   Change is   -0.000029994924539
 Root      3 :     3.889536059393591   Change is   -0.000000000000042
 Root      4 :     4.094360469999954   Change is    0.000000000000000
 Convergence achieved on expansion vectors.
 ***********************************************************************
 Excited states from <AA,BB:AA,BB> singles matrix:
 ***********************************************************************
 
 1PDM for each excited state written to RWF  633
 Ground to excited state transition densities written to RWF  633
 Ground to excited state transition electric dipole moments (Au):
       state          X           Y           Z        Dip. S.      Osc.
         1         0.0000     -0.0000     -0.0000      0.0000      0.0000
         2        -0.0000      0.0000     -0.0000      0.0000      0.0000
         3         0.0561      0.0187      0.0274      0.0042      0.0004
         4         0.3977      0.1120      0.3103      0.2670      0.0268
 Ground to excited state transition velocity dipole moments (Au):
       state          X           Y           Z        Dip. S.      Osc.
         1        -0.0000      0.0000      0.0000      0.0000      0.0000
         2         0.0000     -0.0000      0.0000      0.0000      0.0000
         3        -0.0080     -0.0044     -0.0035      0.0001      0.0004
         4        -0.0564     -0.0190     -0.0537      0.0064      0.0285
 Ground to excited state transition magnetic dipole moments (Au):
       state          X           Y           Z
         1         0.0000      0.0000     -0.0000
         2         0.0000     -0.0000     -0.0000
         3         0.0104      0.0656     -0.0423
         4         0.1250      0.9166     -0.2870
 Ground to excited state transition velocity quadrupole moments (Au):
       state          XX          YY          ZZ          XY          XZ          YZ
         1        -0.0000      0.0000     -0.0000     -0.0000     -0.0000     -0.0000
         2         0.0000     -0.0000      0.0000     -0.0000      0.0000      0.0000
         3        -0.0530     -0.0068     -0.0013     -0.0315     -0.0302      0.0084
         4        -0.5356     -0.0591     -0.0216     -0.2130     -0.4175      0.0224
 <0|del|b> * <b|rxdel|0> + <0|del|b> * <b|delr+rdel|0>
 Rotatory Strengths (R) in cgs (10**-40 erg-esu-cm/Gauss)
       state          XX          YY          ZZ    R(velocity)    E-M Angle
         1         0.0000      0.0000     -0.0000      0.0000       90.00
         2         0.0000      0.0000     -0.0000      0.0000       90.00
         3        -0.4090     -0.2773     -0.4253     -0.3705      107.04
         4         3.5204    -10.1921    -35.9007    -14.1908       96.70
 1/2[<0|r|b>*<b|rxdel|0> + (<0|rxdel|b>*<b|r|0>)*]
 Rotatory Strengths (R) in cgs (10**-40 erg-esu-cm/Gauss)
       state          XX          YY          ZZ     R(length)
         1        -0.0000      0.0000     -0.0000     -0.0000
         2         0.0000      0.0000     -0.0000      0.0000
         3        -0.4129     -0.8688      0.8194     -0.1541
         4       -35.1481    -72.5787     62.9701    -14.9189
  1/2[<0|del|b>*<b|r|0> + (<0|r|b>*<b|del|0>)*] (Au)
       state          X           Y           Z        Dip. S.   Osc.(frdel)
         1        -0.0000     -0.0000     -0.0000      0.0000      0.0000
         2        -0.0000     -0.0000     -0.0000      0.0000      0.0000
         3        -0.0004     -0.0001     -0.0001      0.0006      0.0004
         4        -0.0224     -0.0021     -0.0167      0.0412      0.0275

 Excitation energies and oscillator strengths:
 
 Excited state symmetry could not be determined.
 Excited State   1:      Triplet-?Sym    2.7814 eV  445.77 nm  f=0.0000  <S**2>=2.000
      99 ->111        -0.11639
     102 ->109         0.16958
     103 ->108        -0.11608
     104 ->108        -0.22432
     105 ->108         0.61756
 This state for optimization and/or second-order correction.
 Total Energy, E(TD-HF/TD-DFT) =  -1265.03280384    
 Copying the excited state density for this state as the 1-particle RhoCI density.
 
 Excited state symmetry could not be determined.
 Excited State   2:      Triplet-?Sym    3.6732 eV  337.54 nm  f=0.0000  <S**2>=2.000
     101 ->108        -0.31533
     102 ->108        -0.10318
     103 ->108         0.53719
     104 ->108         0.19541
     105 ->108         0.15107
 
 Excited state symmetry could not be determined.
 Excited State   3:      Singlet-?Sym    3.8895 eV  318.76 nm  f=0.0004  <S**2>=0.000
     107 ->108         0.70481
 
 Excited state symmetry could not be determined.
 Excited State   4:      Singlet-?Sym    4.0944 eV  302.82 nm  f=0.0268  <S**2>=0.000
     101 ->108        -0.17242
     103 ->108         0.39875
     104 ->108         0.25331
     105 ->108         0.48572
 SavETr:  write IOETrn=   770 NScale= 10 NData=  16 NLR=1 NState=    4 LETran=      82.
 Leave Link  914 at Sat Nov  5 11:22:04 2022, MaxMem=   402653184 cpu:            6030.2 elap:             488.4
 (Enter /home/wykgroup/appl/g16/l601.exe)
 Copying SCF densities to generalized density rwf, IOpCl= 0 IROHF=0.

 **********************************************************************

            Population analysis using the SCF Density.

 **********************************************************************

 Alpha  occ. eigenvalues --  -19.14428 -19.10854 -14.35953 -14.33000 -14.32581
 Alpha  occ. eigenvalues --  -14.32217 -10.28294 -10.22732 -10.22425 -10.22001
 Alpha  occ. eigenvalues --  -10.21893 -10.21660 -10.21296 -10.21201 -10.21091
 Alpha  occ. eigenvalues --  -10.21067 -10.21052 -10.21031 -10.20742 -10.20319
 Alpha  occ. eigenvalues --  -10.19425 -10.19363 -10.19305 -10.19207 -10.19205
 Alpha  occ. eigenvalues --  -10.19116 -10.18671 -10.17958 -10.17891  -1.02841
 Alpha  occ. eigenvalues --   -1.01326  -0.94690  -0.93641  -0.93438  -0.90079
 Alpha  occ. eigenvalues --   -0.84492  -0.81309  -0.80076  -0.77920  -0.75967
 Alpha  occ. eigenvalues --   -0.75330  -0.74649  -0.73804  -0.72193  -0.68640
 Alpha  occ. eigenvalues --   -0.67971  -0.65251  -0.64739  -0.63184  -0.62683
 Alpha  occ. eigenvalues --   -0.62505  -0.60454  -0.59725  -0.56255  -0.54849
 Alpha  occ. eigenvalues --   -0.53038  -0.52742  -0.51698  -0.50979  -0.50432
 Alpha  occ. eigenvalues --   -0.49230  -0.48677  -0.48151  -0.46817  -0.46553
 Alpha  occ. eigenvalues --   -0.46173  -0.45519  -0.45347  -0.44607  -0.44025
 Alpha  occ. eigenvalues --   -0.43240  -0.43044  -0.42886  -0.41988  -0.41868
 Alpha  occ. eigenvalues --   -0.41222  -0.40992  -0.40625  -0.40138  -0.39417
 Alpha  occ. eigenvalues --   -0.39249  -0.38377  -0.38050  -0.37488  -0.37200
 Alpha  occ. eigenvalues --   -0.36311  -0.36258  -0.35650  -0.35410  -0.35334
 Alpha  occ. eigenvalues --   -0.34586  -0.34123  -0.33746  -0.33639  -0.33294
 Alpha  occ. eigenvalues --   -0.31317  -0.31183  -0.30599  -0.30069  -0.26534
 Alpha  occ. eigenvalues --   -0.25638  -0.24706  -0.24128  -0.23541  -0.22275
 Alpha  occ. eigenvalues --   -0.21911  -0.20484
 Alpha virt. eigenvalues --   -0.04837  -0.01111   0.02054   0.02357   0.06000
 Alpha virt. eigenvalues --    0.07034   0.08712   0.08778   0.09401   0.09748
 Alpha virt. eigenvalues --    0.10162   0.10940   0.11860   0.12129   0.12739
 Alpha virt. eigenvalues --    0.12890   0.13561   0.13800   0.14307   0.14522
 Alpha virt. eigenvalues --    0.15143   0.15521   0.15817   0.16165   0.16718
 Alpha virt. eigenvalues --    0.16985   0.17224   0.17492   0.17795   0.18251
 Alpha virt. eigenvalues --    0.18438   0.18693   0.19043   0.19423   0.19656
 Alpha virt. eigenvalues --    0.20116   0.20376   0.20669   0.20900   0.21198
 Alpha virt. eigenvalues --    0.22324   0.22580   0.22788   0.23492   0.23985
 Alpha virt. eigenvalues --    0.24118   0.25244   0.25525   0.26513   0.26556
 Alpha virt. eigenvalues --    0.26888   0.27530   0.27877   0.28652   0.29655
 Alpha virt. eigenvalues --    0.30300   0.30456   0.31541   0.32560   0.33302
 Alpha virt. eigenvalues --    0.33789   0.34738   0.35675   0.37358   0.38513
 Alpha virt. eigenvalues --    0.41614   0.45028   0.46196   0.48298   0.48889
 Alpha virt. eigenvalues --    0.50422   0.50657   0.51089   0.51739   0.52185
 Alpha virt. eigenvalues --    0.52831   0.53133   0.53196   0.53840   0.54737
 Alpha virt. eigenvalues --    0.55138   0.55448   0.55939   0.56382   0.57014
 Alpha virt. eigenvalues --    0.57131   0.57427   0.57834   0.58702   0.59304
 Alpha virt. eigenvalues --    0.59853   0.59858   0.60651   0.60872   0.61297
 Alpha virt. eigenvalues --    0.61641   0.62150   0.62435   0.62775   0.63613
 Alpha virt. eigenvalues --    0.64096   0.64710   0.65171   0.65760   0.66756
 Alpha virt. eigenvalues --    0.67491   0.68076   0.69234   0.69983   0.70245
 Alpha virt. eigenvalues --    0.70514   0.71672   0.72504   0.72905   0.73803
 Alpha virt. eigenvalues --    0.74534   0.75261   0.76077   0.77555   0.78418
 Alpha virt. eigenvalues --    0.79136   0.79272   0.79891   0.80753   0.81205
 Alpha virt. eigenvalues --    0.81596   0.82023   0.82395   0.82748   0.83117
 Alpha virt. eigenvalues --    0.83446   0.84320   0.84614   0.84819   0.85037
 Alpha virt. eigenvalues --    0.85723   0.86052   0.86563   0.86825   0.87362
 Alpha virt. eigenvalues --    0.87829   0.88048   0.88365   0.88866   0.89448
 Alpha virt. eigenvalues --    0.89592   0.90387   0.90563   0.91327   0.92022
 Alpha virt. eigenvalues --    0.92658   0.92830   0.93130   0.93667   0.93926
 Alpha virt. eigenvalues --    0.94487   0.95029   0.95278   0.95941   0.96574
 Alpha virt. eigenvalues --    0.96983   0.97676   0.98280   0.98827   0.99021
 Alpha virt. eigenvalues --    1.00889   1.01507   1.01893   1.02426   1.02621
 Alpha virt. eigenvalues --    1.04122   1.04423   1.05010   1.06557   1.07318
 Alpha virt. eigenvalues --    1.08184   1.09504   1.10040   1.10932   1.11902
 Alpha virt. eigenvalues --    1.12276   1.12702   1.16111   1.17198   1.18284
 Alpha virt. eigenvalues --    1.19530   1.20827   1.21162   1.22445   1.22993
 Alpha virt. eigenvalues --    1.24322   1.24564   1.25552   1.26051   1.27852
 Alpha virt. eigenvalues --    1.29364   1.31402   1.31568   1.34040   1.35862
 Alpha virt. eigenvalues --    1.36442   1.38597   1.39134   1.39814   1.40410
 Alpha virt. eigenvalues --    1.40851   1.41468   1.43450   1.45465   1.45988
 Alpha virt. eigenvalues --    1.46346   1.48020   1.49360   1.49696   1.50651
 Alpha virt. eigenvalues --    1.51157   1.51665   1.52182   1.53957   1.55375
 Alpha virt. eigenvalues --    1.57469   1.57536   1.60225   1.60727   1.63619
 Alpha virt. eigenvalues --    1.63954   1.64913   1.67912   1.68403   1.68787
 Alpha virt. eigenvalues --    1.69635   1.71846   1.72016   1.72899   1.73194
 Alpha virt. eigenvalues --    1.75401   1.77360   1.77990   1.78908   1.79925
 Alpha virt. eigenvalues --    1.80015   1.81751   1.82823   1.83277   1.84314
 Alpha virt. eigenvalues --    1.85118   1.85356   1.85810   1.86865   1.88181
 Alpha virt. eigenvalues --    1.89144   1.89209   1.89857   1.90630   1.91122
 Alpha virt. eigenvalues --    1.91980   1.92739   1.93014   1.93311   1.95261
 Alpha virt. eigenvalues --    1.96235   1.96714   1.97374   1.97944   1.99110
 Alpha virt. eigenvalues --    1.99989   2.00783   2.01079   2.01777   2.02697
 Alpha virt. eigenvalues --    2.02960   2.04156   2.04990   2.05311   2.06248
 Alpha virt. eigenvalues --    2.06736   2.07244   2.08680   2.10151   2.10382
 Alpha virt. eigenvalues --    2.11463   2.13008   2.14403   2.14643   2.15868
 Alpha virt. eigenvalues --    2.16266   2.16419   2.17404   2.18881   2.19775
 Alpha virt. eigenvalues --    2.20761   2.21442   2.22379   2.23125   2.24327
 Alpha virt. eigenvalues --    2.24681   2.25213   2.26346   2.27564   2.28073
 Alpha virt. eigenvalues --    2.29240   2.30066   2.32265   2.32427   2.32472
 Alpha virt. eigenvalues --    2.33442   2.35480   2.36372   2.38087   2.38558
 Alpha virt. eigenvalues --    2.39780   2.40640   2.41467   2.41933   2.42680
 Alpha virt. eigenvalues --    2.44842   2.45020   2.46515   2.48151   2.49186
 Alpha virt. eigenvalues --    2.49581   2.50740   2.52794   2.53342   2.55784
 Alpha virt. eigenvalues --    2.58163   2.59804   2.60076   2.60913   2.61687
 Alpha virt. eigenvalues --    2.62296   2.63834   2.64948   2.66042   2.68478
 Alpha virt. eigenvalues --    2.68930   2.69492   2.70853   2.71512   2.72471
 Alpha virt. eigenvalues --    2.73171   2.73500   2.74440   2.75976   2.77959
 Alpha virt. eigenvalues --    2.78948   2.81001   2.81845   2.85677   2.86159
 Alpha virt. eigenvalues --    2.86650   2.88620   2.89783   2.93410   2.93659
 Alpha virt. eigenvalues --    2.94498   2.97747   2.99877   3.03023   3.11379
 Alpha virt. eigenvalues --    3.18679   3.40223   3.46106   3.80728   4.01820
 Alpha virt. eigenvalues --    4.07306   4.08560   4.10758   4.11931   4.12814
 Alpha virt. eigenvalues --    4.13476   4.17374   4.21095   4.25241   4.25778
 Alpha virt. eigenvalues --    4.26284   4.28687   4.29220   4.33363   4.35458
 Alpha virt. eigenvalues --    4.35621   4.39682   4.43382   4.46865   4.52109
 Alpha virt. eigenvalues --    4.53214   4.56810   4.58633   4.60338   4.64305
 Alpha virt. eigenvalues --    4.70981   4.81848
          Condensed to atoms (all electrons):
 Mulliken charges:
               1
     1  C   -0.291248
     2  N   -0.377592
     3  C   -0.118990
     4  C   -0.176587
     5  N   -0.405516
     6  C    0.068580
     7  C   -0.308164
     8  C   -0.148084
     9  N   -0.422463
    10  C    0.510629
    11  O   -0.494850
    12  C    0.014787
    13  C   -0.198268
    14  C    0.041133
    15  N   -0.495742
    16  C    0.228850
    17  C   -0.140305
    18  C   -0.136491
    19  C   -0.133474
    20  C   -0.199076
    21  C    0.135600
    22  C   -0.149408
    23  C   -0.119628
    24  C   -0.248075
    25  C   -0.290530
    26  C   -0.035783
    27  O   -0.609424
    28  C   -0.133011
    29  C   -0.143183
    30  H    0.149164
    31  H    0.148898
    32  H    0.119340
    33  H    0.138049
    34  H    0.109957
    35  H    0.146291
    36  H    0.150800
    37  H    0.124617
    38  H    0.145150
    39  H    0.156325
    40  H    0.144006
    41  H    0.170963
    42  H    0.184700
    43  H    0.139959
    44  H    0.143973
    45  H    0.133836
    46  H    0.133387
    47  H    0.145308
    48  H    0.133089
    49  H    0.194053
    50  H    0.129652
    51  H    0.134510
    52  H    0.138481
    53  H    0.153990
    54  H    0.117876
    55  H    0.148824
    56  H    0.116332
    57  H    0.388880
    58  H    0.136534
    59  H    0.145858
    60  H    0.112451
    61  H    0.141062
 Sum of Mulliken charges =  -0.00000
 Mulliken charges with hydrogens summed into heavy atoms:
               1
     1  C    0.126154
     2  N   -0.377592
     3  C    0.129016
     4  C    0.120503
     5  N   -0.405516
     6  C    0.193197
     7  C   -0.006689
     8  C    0.166885
     9  N   -0.422463
    10  C    0.510629
    11  O   -0.494850
    12  C    0.014787
    13  C   -0.013568
    14  C    0.181092
    15  N   -0.495742
    16  C    0.228850
    17  C    0.003667
    18  C   -0.002654
    19  C   -0.000088
    20  C   -0.053768
    21  C    0.135600
    22  C    0.177733
    23  C    0.010024
    24  C    0.024915
    25  C   -0.018665
    26  C    0.229373
    27  O   -0.220544
    28  C    0.149382
    29  C    0.110330
 Electronic spatial extent (au):  <R**2>=          14042.7744
 Charge=             -0.0000 electrons
 Dipole moment (field-independent basis, Debye):
    X=             -5.8206    Y=              1.8012    Z=              1.5427  Tot=              6.2852
 Quadrupole moment (field-independent basis, Debye-Ang):
   XX=           -186.1754   YY=           -158.3027   ZZ=           -177.8310
   XY=              9.9567   XZ=              4.4816   YZ=             -8.7686
 Traceless Quadrupole moment (field-independent basis, Debye-Ang):
   XX=            -12.0724   YY=             15.8003   ZZ=             -3.7280
   XY=              9.9567   XZ=              4.4816   YZ=             -8.7686
 Octapole moment (field-independent basis, Debye-Ang**2):
  XXX=           -468.8792  YYY=            -17.1075  ZZZ=             88.9356  XYY=            -92.7117
  XXY=             80.2397  XXZ=             12.9375  XZZ=           -151.7434  YZZ=             22.7872
  YYZ=             36.9721  XYZ=            -31.0929
 Hexadecapole moment (field-independent basis, Debye-Ang**3):
 XXXX=         -14081.0164 YYYY=          -3484.9819 ZZZZ=          -1478.3306 XXXY=            487.1999
 XXXZ=            -39.0647 YYYX=            256.9315 YYYZ=            -33.8118 ZZZX=             40.7900
 ZZZY=             -7.4733 XXYY=          -2735.3903 XXZZ=          -2643.0950 YYZZ=           -901.1849
 XXYZ=            -76.5138 YYXZ=             38.3617 ZZXY=             99.2838
 N-N= 2.905403006061D+03 E-N=-8.748845681349D+03  KE= 1.253132778579D+03
 Leave Link  601 at Sat Nov  5 11:22:04 2022, MaxMem=   402653184 cpu:               0.8 elap:               0.1
 (Enter /home/wykgroup/appl/g16/l9999.exe)
 Electronic transition elements 
                 1             2             3             4 
      1  -0.126503D+04 -0.126500D+04 -0.126499D+04 -0.126498D+04
      2   0.000000D+00  0.000000D+00  0.561182D-01  0.397697D+00
      3   0.000000D+00  0.000000D+00  0.187316D-01  0.111971D+00
      4   0.000000D+00  0.000000D+00  0.273652D-01  0.310276D+00
      5   0.000000D+00  0.000000D+00 -0.795350D-02 -0.564066D-01
      6   0.000000D+00  0.000000D+00 -0.440750D-02 -0.190170D-01
      7   0.000000D+00  0.000000D+00 -0.347474D-02 -0.537386D-01
      8   0.000000D+00  0.000000D+00  0.104039D-01  0.124977D+00
      9   0.000000D+00  0.000000D+00  0.655851D-01  0.916607D+00
     10   0.000000D+00  0.000000D+00 -0.423404D-01 -0.286989D+00
     11   0.000000D+00  0.000000D+00 -0.529527D-01 -0.535617D+00
     12   0.000000D+00  0.000000D+00 -0.680963D-02 -0.590587D-01
     13   0.000000D+00  0.000000D+00 -0.133865D-02 -0.215708D-01
     14   0.000000D+00  0.000000D+00 -0.315401D-01 -0.212984D+00
     15   0.000000D+00  0.000000D+00 -0.301767D-01 -0.417451D+00
     16   0.000000D+00  0.000000D+00  0.840934D-02  0.224195D-01
 1\1\GINC-NODE12\SP\RB3LYP TD-FC\6-31G(d)\C23H32N4O2\WYKGROUP\05-Nov-20
 22\0\\#p b3lyp/6-31g(d) 6D 10F nosymm GFInput td=(50-50,nstate=2) SCF=
 XQC\\Gaussian input prepared by ASE\\0,1\C,0,-4.5855319917,3.497664213
 2,-0.449889517\N,0,-4.0144970291,2.1867592511,-0.1976681544\C,0,-3.533
 9574199,2.053691638,1.1788277134\C,0,-3.2446204155,0.5643843138,1.4972
 962083\N,0,-2.9262104269,-0.2427268816,0.3203183589\C,0,-1.6493734534,
 0.0494273296,-0.3710574434\C,0,-0.5007025452,0.311531321,0.6227742068\
 C,0,0.8455050068,0.5343122053,-0.0824058462\N,0,1.1496620769,-0.524791
 919,-1.0422309645\C,0,2.4197056594,-0.9586260923,-1.3473264474\O,0,2.6
 83482703,-1.5857497421,-2.3667127889\C,0,3.515470617,-0.6951803396,-0.
 3363777048\C,0,3.8502447806,-1.6811497649,0.5678239358\C,0,4.926196796
 4,-1.4562192819,1.4608186834\N,0,5.6522206386,-0.3570238057,1.49441884
 88\C,0,5.3538158301,0.6213345842,0.5888419992\C,0,6.1390298758,1.80476
 50244,0.5998420512\C,0,5.8921120083,2.8186833572,-0.2976048129\C,0,4.8
 512935886,2.6938089206,-1.2504429007\C,0,4.0687296522,1.5612430217,-1.
 2844038829\C,0,4.2925368884,0.5004188439,-0.3659559467\C,0,0.088670721
 9,-0.7781700917,-2.0122078979\C,0,-1.2715467135,-1.0917403656,-1.36101
 29679\C,0,-1.4596820578,-2.5626791175,-0.8806942735\C,0,-1.1063477536,
 -3.0441402148,0.5408385857\C,0,0.3704725838,-3.1531445774,0.9242899573
 \O,0,1.1626394863,-3.885414788,-0.0081311608\C,0,-4.1090944372,-0.2469
 677133,-0.5608474186\C,0,-4.9076959102,1.0866688674,-0.5397072831\H,0,
 -3.8425455185,4.2707878213,-0.2218504458\H,0,-4.8583674671,3.588387938
 4,-1.5071819445\H,0,-5.4876868037,3.7065921505,0.1588617743\H,0,-2.630
 4247625,2.6685906498,1.2861192383\H,0,-4.2721887928,2.4398452036,1.912
 1564219\H,0,-4.1376038903,0.1125468148,1.9481428665\H,0,-2.4557504723,
 0.4818923977,2.2485885363\H,0,-1.7461224918,0.9663792861,-0.9802338544
 \H,0,-0.7020852529,1.2179947762,1.204044971\H,0,-0.4165282401,-0.51174
 61928,1.3370801718\H,0,0.8172686847,1.5027570888,-0.6093689628\H,0,1.6
 462420695,0.5923868651,0.6569536822\H,0,3.3043023776,-2.6201463609,0.5
 867695388\H,0,5.1884364349,-2.2294494624,2.1828926586\H,0,6.9355606717
 ,1.869060022,1.3345943339\H,0,6.5006579413,3.7188911872,-0.2836687551\
 H,0,4.675487923,3.4955617787,-1.9624611772\H,0,3.2858090464,1.45928222
 78,-2.0311115211\H,0,-0.024902738,0.1119120608,-2.654177799\H,0,0.4180
 43685,-1.5981993895,-2.6503957798\H,0,-1.9650316119,-1.0110205928,-2.2
 095561568\H,0,-2.5262281076,-2.7871109127,-1.0014727032\H,0,-0.9355920
 144,-3.2046673654,-1.6005149546\H,0,-1.6231712603,-2.4234213693,1.2816
 137167\H,0,-1.5474329565,-4.048725261,0.6430063566\H,0,0.8427108114,-2
 .1713585928,0.9668798423\H,0,0.4451920326,-3.5953527902,1.9319008908\H
 ,0,0.8236195411,-4.7936103185,-0.0452492429\H,0,-4.7770236454,-1.06769
 06985,-0.262124753\H,0,-3.7869173175,-0.4563967424,-1.5825416792\H,0,-
 5.7630829515,1.0176669787,0.1636102421\H,0,-5.3371736844,1.2773916059,
 -1.5297476508\\Version=ES64L-G16RevB.01\HF=-1265.1350166\RMSD=6.426e-0
 9\PG=C01 [X(C23H32N4O2)]\\@


 The juvenile sea squirt wanders through the sea searching
 for a suitable rock or hunk of coral to cling to and make
 its home for life.  For this task it has a rudimentary
 nervous system.  When it finds its spot and takes root, it
 doesn't need its brain any more so it eats it.
 It's rather like getting tenure.

                               -- source unknown
 Job cpu time:       0 days  1 hours 56 minutes 35.4 seconds.
 Elapsed time:       0 days  0 hours  9 minutes 29.6 seconds.
 File lengths (MBytes):  RWF=   1541 Int=      0 D2E=      0 Chk=     53 Scr=      1
 Normal termination of Gaussian 16 at Sat Nov  5 11:22:04 2022.
