 Entering Gaussian System, Link 0=/home/wykgroup/appl/g16/g16
 Input=./calculation/no_transfer_pubchem_sampling_0_b3lyp/72840705.com
 Output=./calculation/no_transfer_pubchem_sampling_0_b3lyp/72840705.log
 Initial command:
 /home/wykgroup/appl/g16/l1.exe "/userdata/scratch/wykgroup/khs/./calculation/no_transfer_pubchem_sampling_0_b3lyp/72840705/Gau-4052.inp" -scrdir="/userdata/scratch/wykgroup/khs/./calculation/no_transfer_pubchem_sampling_0_b3lyp/72840705/"
 Entering Link 1 = /home/wykgroup/appl/g16/l1.exe PID=      4053.
  
 Copyright (c) 1988-2017, Gaussian, Inc.  All Rights Reserved.
  
 This is part of the Gaussian(R) 16 program.  It is based on
 the Gaussian(R) 09 system (copyright 2009, Gaussian, Inc.),
 the Gaussian(R) 03 system (copyright 2003, Gaussian, Inc.),
 the Gaussian(R) 98 system (copyright 1998, Gaussian, Inc.),
 the Gaussian(R) 94 system (copyright 1995, Gaussian, Inc.),
 the Gaussian 92(TM) system (copyright 1992, Gaussian, Inc.),
 the Gaussian 90(TM) system (copyright 1990, Gaussian, Inc.),
 the Gaussian 88(TM) system (copyright 1988, Gaussian, Inc.),
 the Gaussian 86(TM) system (copyright 1986, Carnegie Mellon
 University), and the Gaussian 82(TM) system (copyright 1983,
 Carnegie Mellon University). Gaussian is a federally registered
 trademark of Gaussian, Inc.
  
 This software contains proprietary and confidential information,
 including trade secrets, belonging to Gaussian, Inc.
  
 This software is provided under written license and may be
 used, copied, transmitted, or stored only in accord with that
 written license.
  
 The following legend is applicable only to US Government
 contracts under FAR:
  
                    RESTRICTED RIGHTS LEGEND
  
 Use, reproduction and disclosure by the US Government is
 subject to restrictions as set forth in subparagraphs (a)
 and (c) of the Commercial Computer Software - Restricted
 Rights clause in FAR 52.227-19.
  
 Gaussian, Inc.
 340 Quinnipiac St., Bldg. 40, Wallingford CT 06492
  
  
 ---------------------------------------------------------------
 Warning -- This program may not be used in any manner that
 competes with the business of Gaussian, Inc. or will provide
 assistance to any competitor of Gaussian, Inc.  The licensee
 of this program is prohibited from giving any competitor of
 Gaussian, Inc. access to this program.  By using this program,
 the user acknowledges that Gaussian, Inc. is engaged in the
 business of creating and licensing software in the field of
 computational chemistry and represents and warrants to the
 licensee that it is not a competitor of Gaussian, Inc. and that
 it will not use this program in any manner prohibited above.
 ---------------------------------------------------------------
  

 Cite this work as:
 Gaussian 16, Revision B.01,
 M. J. Frisch, G. W. Trucks, H. B. Schlegel, G. E. Scuseria, 
 M. A. Robb, J. R. Cheeseman, G. Scalmani, V. Barone, 
 G. A. Petersson, H. Nakatsuji, X. Li, M. Caricato, A. V. Marenich, 
 J. Bloino, B. G. Janesko, R. Gomperts, B. Mennucci, H. P. Hratchian, 
 J. V. Ortiz, A. F. Izmaylov, J. L. Sonnenberg, D. Williams-Young, 
 F. Ding, F. Lipparini, F. Egidi, J. Goings, B. Peng, A. Petrone, 
 T. Henderson, D. Ranasinghe, V. G. Zakrzewski, J. Gao, N. Rega, 
 G. Zheng, W. Liang, M. Hada, M. Ehara, K. Toyota, R. Fukuda, 
 J. Hasegawa, M. Ishida, T. Nakajima, Y. Honda, O. Kitao, H. Nakai, 
 T. Vreven, K. Throssell, J. A. Montgomery, Jr., J. E. Peralta, 
 F. Ogliaro, M. J. Bearpark, J. J. Heyd, E. N. Brothers, K. N. Kudin, 
 V. N. Staroverov, T. A. Keith, R. Kobayashi, J. Normand, 
 K. Raghavachari, A. P. Rendell, J. C. Burant, S. S. Iyengar, 
 J. Tomasi, M. Cossi, J. M. Millam, M. Klene, C. Adamo, R. Cammi, 
 J. W. Ochterski, R. L. Martin, K. Morokuma, O. Farkas, 
 J. B. Foresman, and D. J. Fox, Gaussian, Inc., Wallingford CT, 2016.
 
 ******************************************
 Gaussian 16:  ES64L-G16RevB.01 20-Dec-2017
                 4-Nov-2022 
 ******************************************
 %chk=./calculation/no_transfer_pubchem_sampling_0_b3lyp/72840705.chk
 %nprocshared=7
 Will use up to    7 processors via shared memory.
 %mem=6GB
 -----------------------------
 #p b3lyp/6-31g(d) opt SCF=XQC
 -----------------------------
 1/18=20,19=15,26=3,38=1/1,3;
 2/9=110,12=2,17=6,18=5,40=1/2;
 3/5=1,6=6,7=1,11=2,25=1,30=1,71=1,74=-5/1,2,3;
 4//1;
 5/5=2,8=3,13=1,38=5/2,8;
 6/7=2,8=2,9=2,10=2,28=1/1;
 7//1,2,3,16;
 1/18=20,19=15,26=3/3(2);
 2/9=110/2;
 99//99;
 2/9=110/2;
 3/5=1,6=6,7=1,11=2,25=1,30=1,71=1,74=-5/1,2,3;
 4/5=5,16=3,69=1/1;
 5/5=2,8=3,13=1,38=5/2,8;
 7//1,2,3,16;
 1/18=20,19=15,26=3/3(-5);
 2/9=110/2;
 6/7=2,8=2,9=2,10=2,19=2,28=1/1;
 99/9=1/99;
 Leave Link    1 at Fri Nov  4 18:14:49 2022, MaxMem=   805306368 cpu:               0.6 elap:               0.1
 (Enter /home/wykgroup/appl/g16/l101.exe)
 ------------------------------
 Gaussian input prepared by ASE
 ------------------------------
 Symbolic Z-matrix:
 Charge =  0 Multiplicity = 1
 C                    -4.49267   3.3267   -0.39822 
 N                    -3.9163    2.02988  -0.13377 
 C                    -3.47196   1.90902   1.24415 
 C                    -3.10507   0.44141   1.54046 
 N                    -2.79288  -0.31396   0.34273 
 C                    -1.60577   0.11541  -0.40824 
 C                    -0.43166   0.42936   0.52816 
 C                     0.86603   0.72752  -0.23156 
 N                     1.1417   -0.26525  -1.23549 
 C                     2.28193  -0.97582  -1.38914 
 O                     2.44543  -1.76329  -2.30251 
 C                     3.35539  -0.75308  -0.36574 
 C                     3.64083  -1.73889   0.54696 
 C                     4.67909  -1.52183   1.46995 
 N                     5.40737  -0.44232   1.5115 
 C                     5.17887   0.5245    0.59938 
 C                     5.99075   1.67785   0.62201 
 C                     5.80307   2.67228  -0.29625 
 C                     4.80358   2.55937  -1.27604 
 C                     3.99446   1.45828  -1.32007 
 C                     4.15497   0.41821  -0.3823 
 C                     0.05931  -0.42985  -2.17316 
 C                    -1.20262  -0.94089  -1.46746 
 C                    -1.02768  -2.42473  -1.04708 
 C                    -1.13745  -2.82449   0.43104 
 C                     0.21942  -2.98168   1.11948 
 O                     1.02704  -3.97766   0.53616 
 C                    -4.01069  -0.39098  -0.45158 
 C                    -4.80488   0.93539  -0.47486 
 H                    -3.75791   4.09485  -0.15856 
 H                    -4.74193   3.39941  -1.45604 
 H                    -5.4028    3.51833   0.193 
 H                    -2.60374   2.56347   1.36913 
 H                    -4.25088   2.24424   1.95379 
 H                    -3.96178  -0.06348   1.99744 
 H                    -2.28202   0.38728   2.25219 
 H                    -1.83178   1.03893  -0.96996 
 H                    -0.65896   1.31707   1.1188 
 H                    -0.27517  -0.40123   1.21075 
 H                     0.77187   1.70481  -0.72715 
 H                     1.69461   0.78403   0.47658 
 H                     3.08063  -2.66075   0.55811 
 H                     4.91132  -2.27648   2.21093 
 H                     6.76019   1.73674   1.37571 
 H                     6.42908   3.55247  -0.28086 
 H                     4.68159   3.35105  -2.00078 
 H                     3.23577   1.36062  -2.08324 
 H                    -0.14925   0.53813  -2.64803 
 H                     0.38599  -1.1354   -2.93928 
 H                    -1.97932  -0.9265   -2.2382 
 H                    -1.7811   -2.99541  -1.59262 
 H                    -0.0542   -2.76843  -1.40442 
 H                    -1.75603  -2.11264   0.97266 
 H                    -1.63849  -3.79635   0.48397 
 H                     0.81508  -2.07111   1.04418 
 H                     0.05886  -3.20504   2.18694 
 H                     0.51044  -4.78623   0.44671 
 H                    -4.63434  -1.18026  -0.01735 
 H                    -3.76098  -0.6909   -1.46573 
 H                    -5.66167   0.88568   0.2218 
 H                    -5.20268   1.11263  -1.47598 
 
 ITRead=  0  0  0  0  0  0  0  0  0  0  0  0  0  0  0  0  0  0  0  0
 ITRead=  0  0  0  0  0  0  0  0  0  0  0  0  0  0  0  0  0  0  0  0
 ITRead=  0  0  0  0  0  0  0  0  0  0  0  0  0  0  0  0  0  0  0  0
 ITRead=  0
 MicOpt= -1 -1 -1 -1 -1 -1 -1 -1 -1 -1 -1 -1 -1 -1 -1 -1 -1 -1 -1 -1
 MicOpt= -1 -1 -1 -1 -1 -1 -1 -1 -1 -1 -1 -1 -1 -1 -1 -1 -1 -1 -1 -1
 MicOpt= -1 -1 -1 -1 -1 -1 -1 -1 -1 -1 -1 -1 -1 -1 -1 -1 -1 -1 -1 -1
 MicOpt= -1
 NAtoms=     61 NQM=       61 NQMF=       0 NMMI=      0 NMMIF=      0
                NMic=       0 NMicF=      0.
                    Isotopes and Nuclear Properties:
 (Nuclear quadrupole moments (NQMom) in fm**2, nuclear magnetic moments (NMagM)
  in nuclear magnetons)

  Atom         1           2           3           4           5           6           7           8           9          10
 IAtWgt=          12          14          12          12          14          12          12          12          14          12
 AtmWgt=  12.0000000  14.0030740  12.0000000  12.0000000  14.0030740  12.0000000  12.0000000  12.0000000  14.0030740  12.0000000
 NucSpn=           0           2           0           0           2           0           0           0           2           0
 AtZEff=  -0.0000000  -0.0000000  -0.0000000  -0.0000000  -0.0000000  -0.0000000  -0.0000000  -0.0000000  -0.0000000  -0.0000000
 NQMom=    0.0000000   2.0440000   0.0000000   0.0000000   2.0440000   0.0000000   0.0000000   0.0000000   2.0440000   0.0000000
 NMagM=    0.0000000   0.4037610   0.0000000   0.0000000   0.4037610   0.0000000   0.0000000   0.0000000   0.4037610   0.0000000
 AtZNuc=   6.0000000   7.0000000   6.0000000   6.0000000   7.0000000   6.0000000   6.0000000   6.0000000   7.0000000   6.0000000

  Atom        11          12          13          14          15          16          17          18          19          20
 IAtWgt=          16          12          12          12          14          12          12          12          12          12
 AtmWgt=  15.9949146  12.0000000  12.0000000  12.0000000  14.0030740  12.0000000  12.0000000  12.0000000  12.0000000  12.0000000
 NucSpn=           0           0           0           0           2           0           0           0           0           0
 AtZEff=  -0.0000000  -0.0000000  -0.0000000  -0.0000000  -0.0000000  -0.0000000  -0.0000000  -0.0000000  -0.0000000  -0.0000000
 NQMom=    0.0000000   0.0000000   0.0000000   0.0000000   2.0440000   0.0000000   0.0000000   0.0000000   0.0000000   0.0000000
 NMagM=    0.0000000   0.0000000   0.0000000   0.0000000   0.4037610   0.0000000   0.0000000   0.0000000   0.0000000   0.0000000
 AtZNuc=   8.0000000   6.0000000   6.0000000   6.0000000   7.0000000   6.0000000   6.0000000   6.0000000   6.0000000   6.0000000

  Atom        21          22          23          24          25          26          27          28          29          30
 IAtWgt=          12          12          12          12          12          12          16          12          12           1
 AtmWgt=  12.0000000  12.0000000  12.0000000  12.0000000  12.0000000  12.0000000  15.9949146  12.0000000  12.0000000   1.0078250
 NucSpn=           0           0           0           0           0           0           0           0           0           1
 AtZEff=  -0.0000000  -0.0000000  -0.0000000  -0.0000000  -0.0000000  -0.0000000  -0.0000000  -0.0000000  -0.0000000  -0.0000000
 NQMom=    0.0000000   0.0000000   0.0000000   0.0000000   0.0000000   0.0000000   0.0000000   0.0000000   0.0000000   0.0000000
 NMagM=    0.0000000   0.0000000   0.0000000   0.0000000   0.0000000   0.0000000   0.0000000   0.0000000   0.0000000   2.7928460
 AtZNuc=   6.0000000   6.0000000   6.0000000   6.0000000   6.0000000   6.0000000   8.0000000   6.0000000   6.0000000   1.0000000

  Atom        31          32          33          34          35          36          37          38          39          40
 IAtWgt=           1           1           1           1           1           1           1           1           1           1
 AtmWgt=   1.0078250   1.0078250   1.0078250   1.0078250   1.0078250   1.0078250   1.0078250   1.0078250   1.0078250   1.0078250
 NucSpn=           1           1           1           1           1           1           1           1           1           1
 AtZEff=  -0.0000000  -0.0000000  -0.0000000  -0.0000000  -0.0000000  -0.0000000  -0.0000000  -0.0000000  -0.0000000  -0.0000000
 NQMom=    0.0000000   0.0000000   0.0000000   0.0000000   0.0000000   0.0000000   0.0000000   0.0000000   0.0000000   0.0000000
 NMagM=    2.7928460   2.7928460   2.7928460   2.7928460   2.7928460   2.7928460   2.7928460   2.7928460   2.7928460   2.7928460
 AtZNuc=   1.0000000   1.0000000   1.0000000   1.0000000   1.0000000   1.0000000   1.0000000   1.0000000   1.0000000   1.0000000

  Atom        41          42          43          44          45          46          47          48          49          50
 IAtWgt=           1           1           1           1           1           1           1           1           1           1
 AtmWgt=   1.0078250   1.0078250   1.0078250   1.0078250   1.0078250   1.0078250   1.0078250   1.0078250   1.0078250   1.0078250
 NucSpn=           1           1           1           1           1           1           1           1           1           1
 AtZEff=  -0.0000000  -0.0000000  -0.0000000  -0.0000000  -0.0000000  -0.0000000  -0.0000000  -0.0000000  -0.0000000  -0.0000000
 NQMom=    0.0000000   0.0000000   0.0000000   0.0000000   0.0000000   0.0000000   0.0000000   0.0000000   0.0000000   0.0000000
 NMagM=    2.7928460   2.7928460   2.7928460   2.7928460   2.7928460   2.7928460   2.7928460   2.7928460   2.7928460   2.7928460
 AtZNuc=   1.0000000   1.0000000   1.0000000   1.0000000   1.0000000   1.0000000   1.0000000   1.0000000   1.0000000   1.0000000

  Atom        51          52          53          54          55          56          57          58          59          60
 IAtWgt=           1           1           1           1           1           1           1           1           1           1
 AtmWgt=   1.0078250   1.0078250   1.0078250   1.0078250   1.0078250   1.0078250   1.0078250   1.0078250   1.0078250   1.0078250
 NucSpn=           1           1           1           1           1           1           1           1           1           1
 AtZEff=  -0.0000000  -0.0000000  -0.0000000  -0.0000000  -0.0000000  -0.0000000  -0.0000000  -0.0000000  -0.0000000  -0.0000000
 NQMom=    0.0000000   0.0000000   0.0000000   0.0000000   0.0000000   0.0000000   0.0000000   0.0000000   0.0000000   0.0000000
 NMagM=    2.7928460   2.7928460   2.7928460   2.7928460   2.7928460   2.7928460   2.7928460   2.7928460   2.7928460   2.7928460
 AtZNuc=   1.0000000   1.0000000   1.0000000   1.0000000   1.0000000   1.0000000   1.0000000   1.0000000   1.0000000   1.0000000

  Atom        61
 IAtWgt=           1
 AtmWgt=   1.0078250
 NucSpn=           1
 AtZEff=  -0.0000000
 NQMom=    0.0000000
 NMagM=    2.7928460
 AtZNuc=   1.0000000
 Leave Link  101 at Fri Nov  4 18:14:49 2022, MaxMem=   805306368 cpu:               1.4 elap:               0.2
 (Enter /home/wykgroup/appl/g16/l103.exe)

 GradGradGradGradGradGradGradGradGradGradGradGradGradGradGradGradGradGrad
 Berny optimization.
 Initialization pass.
                           ----------------------------
                           !    Initial Parameters    !
                           ! (Angstroms and Degrees)  !
 --------------------------                            --------------------------
 ! Name  Definition              Value          Derivative Info.                !
 --------------------------------------------------------------------------------
 ! R1    R(1,2)                  1.4436         estimate D2E/DX2                !
 ! R2    R(1,30)                 1.0897         estimate D2E/DX2                !
 ! R3    R(1,31)                 1.0892         estimate D2E/DX2                !
 ! R4    R(1,32)                 1.1021         estimate D2E/DX2                !
 ! R5    R(2,3)                  1.4528         estimate D2E/DX2                !
 ! R6    R(2,29)                 1.4505         estimate D2E/DX2                !
 ! R7    R(3,4)                  1.5415         estimate D2E/DX2                !
 ! R8    R(3,33)                 1.0944         estimate D2E/DX2                !
 ! R9    R(3,34)                 1.1057         estimate D2E/DX2                !
 ! R10   R(4,5)                  1.45           estimate D2E/DX2                !
 ! R11   R(4,35)                 1.0944         estimate D2E/DX2                !
 ! R12   R(4,36)                 1.0895         estimate D2E/DX2                !
 ! R13   R(5,6)                  1.4689         estimate D2E/DX2                !
 ! R14   R(5,28)                 1.456          estimate D2E/DX2                !
 ! R15   R(6,7)                  1.5343         estimate D2E/DX2                !
 ! R16   R(6,23)                 1.5493         estimate D2E/DX2                !
 ! R17   R(6,37)                 1.1043         estimate D2E/DX2                !
 ! R18   R(7,8)                  1.533          estimate D2E/DX2                !
 ! R19   R(7,38)                 1.0902         estimate D2E/DX2                !
 ! R20   R(7,39)                 1.0864         estimate D2E/DX2                !
 ! R21   R(8,9)                  1.4386         estimate D2E/DX2                !
 ! R22   R(8,40)                 1.0998         estimate D2E/DX2                !
 ! R23   R(8,41)                 1.0914         estimate D2E/DX2                !
 ! R24   R(9,10)                 1.3523         estimate D2E/DX2                !
 ! R25   R(9,22)                 1.4415         estimate D2E/DX2                !
 ! R26   R(10,11)                1.217          estimate D2E/DX2                !
 ! R27   R(10,12)                1.4998         estimate D2E/DX2                !
 ! R28   R(12,13)                1.3734         estimate D2E/DX2                !
 ! R29   R(12,21)                1.4183         estimate D2E/DX2                !
 ! R30   R(13,14)                1.4061         estimate D2E/DX2                !
 ! R31   R(13,42)                1.0788         estimate D2E/DX2                !
 ! R32   R(14,15)                1.3029         estimate D2E/DX2                !
 ! R33   R(14,43)                1.0828         estimate D2E/DX2                !
 ! R34   R(15,16)                1.3487         estimate D2E/DX2                !
 ! R35   R(16,17)                1.4106         estimate D2E/DX2                !
 ! R36   R(16,21)                1.4224         estimate D2E/DX2                !
 ! R37   R(17,18)                1.3665         estimate D2E/DX2                !
 ! R38   R(17,44)                1.0787         estimate D2E/DX2                !
 ! R39   R(18,19)                1.4042         estimate D2E/DX2                !
 ! R40   R(18,45)                1.0802         estimate D2E/DX2                !
 ! R41   R(19,20)                1.3671         estimate D2E/DX2                !
 ! R42   R(19,46)                1.0802         estimate D2E/DX2                !
 ! R43   R(20,21)                1.4096         estimate D2E/DX2                !
 ! R44   R(20,47)                1.0805         estimate D2E/DX2                !
 ! R45   R(22,23)                1.5335         estimate D2E/DX2                !
 ! R46   R(22,48)                1.0982         estimate D2E/DX2                !
 ! R47   R(22,49)                1.0915         estimate D2E/DX2                !
 ! R48   R(23,24)                1.5521         estimate D2E/DX2                !
 ! R49   R(23,50)                1.0943         estimate D2E/DX2                !
 ! R50   R(24,25)                1.5351         estimate D2E/DX2                !
 ! R51   R(24,51)                1.0913         estimate D2E/DX2                !
 ! R52   R(24,52)                1.0925         estimate D2E/DX2                !
 ! R53   R(25,26)                1.5296         estimate D2E/DX2                !
 ! R54   R(25,53)                1.0875         estimate D2E/DX2                !
 ! R55   R(25,54)                1.0947         estimate D2E/DX2                !
 ! R56   R(26,27)                1.4087         estimate D2E/DX2                !
 ! R57   R(26,55)                1.0907         estimate D2E/DX2                !
 ! R58   R(26,56)                1.1023         estimate D2E/DX2                !
 ! R59   R(27,57)                0.9637         estimate D2E/DX2                !
 ! R60   R(28,29)                1.5461         estimate D2E/DX2                !
 ! R61   R(28,58)                1.0956         estimate D2E/DX2                !
 ! R62   R(28,59)                1.0867         estimate D2E/DX2                !
 ! R63   R(29,60)                1.1054         estimate D2E/DX2                !
 ! R64   R(29,61)                1.0917         estimate D2E/DX2                !
 ! A1    A(2,1,30)             108.8905         estimate D2E/DX2                !
 ! A2    A(2,1,31)             109.2228         estimate D2E/DX2                !
 ! A3    A(2,1,32)             112.8094         estimate D2E/DX2                !
 ! A4    A(30,1,31)            108.7141         estimate D2E/DX2                !
 ! A5    A(30,1,32)            108.4386         estimate D2E/DX2                !
 ! A6    A(31,1,32)            108.6873         estimate D2E/DX2                !
 ! A7    A(1,2,3)              111.7518         estimate D2E/DX2                !
 ! A8    A(1,2,29)             112.9665         estimate D2E/DX2                !
 ! A9    A(3,2,29)             110.3424         estimate D2E/DX2                !
 ! A10   A(2,3,4)              109.5296         estimate D2E/DX2                !
 ! A11   A(2,3,33)             107.5294         estimate D2E/DX2                !
 ! A12   A(2,3,34)             111.5935         estimate D2E/DX2                !
 ! A13   A(4,3,33)             111.0115         estimate D2E/DX2                !
 ! A14   A(4,3,34)             109.4466         estimate D2E/DX2                !
 ! A15   A(33,3,34)            107.7139         estimate D2E/DX2                !
 ! A16   A(3,4,5)              112.8568         estimate D2E/DX2                !
 ! A17   A(3,4,35)             109.4609         estimate D2E/DX2                !
 ! A18   A(3,4,36)             110.6515         estimate D2E/DX2                !
 ! A19   A(5,4,35)             105.85           estimate D2E/DX2                !
 ! A20   A(5,4,36)             110.5539         estimate D2E/DX2                !
 ! A21   A(35,4,36)            107.1987         estimate D2E/DX2                !
 ! A22   A(4,5,6)              116.3607         estimate D2E/DX2                !
 ! A23   A(4,5,28)             107.3431         estimate D2E/DX2                !
 ! A24   A(6,5,28)             114.3639         estimate D2E/DX2                !
 ! A25   A(5,6,7)              111.4847         estimate D2E/DX2                !
 ! A26   A(5,6,23)             111.1333         estimate D2E/DX2                !
 ! A27   A(5,6,37)             109.823          estimate D2E/DX2                !
 ! A28   A(7,6,23)             110.9562         estimate D2E/DX2                !
 ! A29   A(7,6,37)             107.2147         estimate D2E/DX2                !
 ! A30   A(23,6,37)            106.002          estimate D2E/DX2                !
 ! A31   A(6,7,8)              112.6517         estimate D2E/DX2                !
 ! A32   A(6,7,38)             109.7376         estimate D2E/DX2                !
 ! A33   A(6,7,39)             109.7101         estimate D2E/DX2                !
 ! A34   A(8,7,38)             106.6551         estimate D2E/DX2                !
 ! A35   A(8,7,39)             109.7633         estimate D2E/DX2                !
 ! A36   A(38,7,39)            108.19           estimate D2E/DX2                !
 ! A37   A(7,8,9)              111.9526         estimate D2E/DX2                !
 ! A38   A(7,8,40)             108.8853         estimate D2E/DX2                !
 ! A39   A(7,8,41)             109.3404         estimate D2E/DX2                !
 ! A40   A(9,8,40)             108.3709         estimate D2E/DX2                !
 ! A41   A(9,8,41)             110.0621         estimate D2E/DX2                !
 ! A42   A(40,8,41)            108.1414         estimate D2E/DX2                !
 ! A43   A(8,9,10)             127.1215         estimate D2E/DX2                !
 ! A44   A(8,9,22)             112.884          estimate D2E/DX2                !
 ! A45   A(10,9,22)            119.9489         estimate D2E/DX2                !
 ! A46   A(9,10,11)            122.586          estimate D2E/DX2                !
 ! A47   A(9,10,12)            116.6119         estimate D2E/DX2                !
 ! A48   A(11,10,12)           120.8017         estimate D2E/DX2                !
 ! A49   A(10,12,13)           119.7109         estimate D2E/DX2                !
 ! A50   A(10,12,21)           121.212          estimate D2E/DX2                !
 ! A51   A(13,12,21)           118.905          estimate D2E/DX2                !
 ! A52   A(12,13,14)           118.6129         estimate D2E/DX2                !
 ! A53   A(12,13,42)           120.8172         estimate D2E/DX2                !
 ! A54   A(14,13,42)           120.5699         estimate D2E/DX2                !
 ! A55   A(13,14,15)           124.1673         estimate D2E/DX2                !
 ! A56   A(13,14,43)           119.999          estimate D2E/DX2                !
 ! A57   A(15,14,43)           115.8327         estimate D2E/DX2                !
 ! A58   A(14,15,16)           118.5349         estimate D2E/DX2                !
 ! A59   A(15,16,17)           118.5389         estimate D2E/DX2                !
 ! A60   A(15,16,21)           122.3527         estimate D2E/DX2                !
 ! A61   A(17,16,21)           119.1081         estimate D2E/DX2                !
 ! A62   A(16,17,18)           120.3422         estimate D2E/DX2                !
 ! A63   A(16,17,44)           117.8002         estimate D2E/DX2                !
 ! A64   A(18,17,44)           121.8547         estimate D2E/DX2                !
 ! A65   A(17,18,19)           120.5395         estimate D2E/DX2                !
 ! A66   A(17,18,45)           120.2518         estimate D2E/DX2                !
 ! A67   A(19,18,45)           119.2069         estimate D2E/DX2                !
 ! A68   A(18,19,20)           120.5642         estimate D2E/DX2                !
 ! A69   A(18,19,46)           119.3142         estimate D2E/DX2                !
 ! A70   A(20,19,46)           120.121          estimate D2E/DX2                !
 ! A71   A(19,20,21)           120.362          estimate D2E/DX2                !
 ! A72   A(19,20,47)           120.7367         estimate D2E/DX2                !
 ! A73   A(21,20,47)           118.8906         estimate D2E/DX2                !
 ! A74   A(12,21,16)           117.3525         estimate D2E/DX2                !
 ! A75   A(12,21,20)           123.5685         estimate D2E/DX2                !
 ! A76   A(16,21,20)           119.0752         estimate D2E/DX2                !
 ! A77   A(9,22,23)            110.892          estimate D2E/DX2                !
 ! A78   A(9,22,48)            108.8593         estimate D2E/DX2                !
 ! A79   A(9,22,49)            107.7967         estimate D2E/DX2                !
 ! A80   A(23,22,48)           109.661          estimate D2E/DX2                !
 ! A81   A(23,22,49)           110.7239         estimate D2E/DX2                !
 ! A82   A(48,22,49)           108.8495         estimate D2E/DX2                !
 ! A83   A(6,23,22)            107.5504         estimate D2E/DX2                !
 ! A84   A(6,23,24)            119.7334         estimate D2E/DX2                !
 ! A85   A(6,23,50)            106.7307         estimate D2E/DX2                !
 ! A86   A(22,23,24)           110.5167         estimate D2E/DX2                !
 ! A87   A(22,23,50)           104.8073         estimate D2E/DX2                !
 ! A88   A(24,23,50)           106.4589         estimate D2E/DX2                !
 ! A89   A(23,24,25)           120.1102         estimate D2E/DX2                !
 ! A90   A(23,24,51)           106.6615         estimate D2E/DX2                !
 ! A91   A(23,24,52)           108.2162         estimate D2E/DX2                !
 ! A92   A(25,24,51)           107.2049         estimate D2E/DX2                !
 ! A93   A(25,24,52)           107.2623         estimate D2E/DX2                !
 ! A94   A(51,24,52)           106.6879         estimate D2E/DX2                !
 ! A95   A(24,25,26)           113.3707         estimate D2E/DX2                !
 ! A96   A(24,25,53)           110.4724         estimate D2E/DX2                !
 ! A97   A(24,25,54)           108.0874         estimate D2E/DX2                !
 ! A98   A(26,25,53)           110.3445         estimate D2E/DX2                !
 ! A99   A(26,25,54)           107.0381         estimate D2E/DX2                !
 ! A100  A(53,25,54)           107.2593         estimate D2E/DX2                !
 ! A101  A(25,26,27)           113.2563         estimate D2E/DX2                !
 ! A102  A(25,26,55)           111.5664         estimate D2E/DX2                !
 ! A103  A(25,26,56)           109.1144         estimate D2E/DX2                !
 ! A104  A(27,26,55)           104.3926         estimate D2E/DX2                !
 ! A105  A(27,26,56)           109.9514         estimate D2E/DX2                !
 ! A106  A(55,26,56)           108.3949         estimate D2E/DX2                !
 ! A107  A(26,27,57)           108.9243         estimate D2E/DX2                !
 ! A108  A(5,28,29)            113.1083         estimate D2E/DX2                !
 ! A109  A(5,28,58)            107.3369         estimate D2E/DX2                !
 ! A110  A(5,28,59)            109.3619         estimate D2E/DX2                !
 ! A111  A(29,28,58)           109.3645         estimate D2E/DX2                !
 ! A112  A(29,28,59)           109.9229         estimate D2E/DX2                !
 ! A113  A(58,28,59)           107.5687         estimate D2E/DX2                !
 ! A114  A(2,29,28)            109.2146         estimate D2E/DX2                !
 ! A115  A(2,29,60)            111.1351         estimate D2E/DX2                !
 ! A116  A(2,29,61)            108.4428         estimate D2E/DX2                !
 ! A117  A(28,29,60)           110.4914         estimate D2E/DX2                !
 ! A118  A(28,29,61)           109.8915         estimate D2E/DX2                !
 ! A119  A(60,29,61)           107.6263         estimate D2E/DX2                !
 ! D1    D(30,1,2,3)            57.1899         estimate D2E/DX2                !
 ! D2    D(30,1,2,29)         -177.6691         estimate D2E/DX2                !
 ! D3    D(31,1,2,3)           175.7741         estimate D2E/DX2                !
 ! D4    D(31,1,2,29)          -59.0849         estimate D2E/DX2                !
 ! D5    D(32,1,2,3)           -63.2453         estimate D2E/DX2                !
 ! D6    D(32,1,2,29)           61.8957         estimate D2E/DX2                !
 ! D7    D(1,2,3,4)            169.8371         estimate D2E/DX2                !
 ! D8    D(1,2,3,33)           -69.4319         estimate D2E/DX2                !
 ! D9    D(1,2,3,34)            48.4846         estimate D2E/DX2                !
 ! D10   D(29,2,3,4)            43.2547         estimate D2E/DX2                !
 ! D11   D(29,2,3,33)          163.9857         estimate D2E/DX2                !
 ! D12   D(29,2,3,34)          -78.0978         estimate D2E/DX2                !
 ! D13   D(1,2,29,28)          167.8889         estimate D2E/DX2                !
 ! D14   D(1,2,29,60)          -69.9581         estimate D2E/DX2                !
 ! D15   D(1,2,29,61)           48.1501         estimate D2E/DX2                !
 ! D16   D(3,2,29,28)          -66.2104         estimate D2E/DX2                !
 ! D17   D(3,2,29,60)           55.9426         estimate D2E/DX2                !
 ! D18   D(3,2,29,61)          174.0508         estimate D2E/DX2                !
 ! D19   D(2,3,4,5)             22.2009         estimate D2E/DX2                !
 ! D20   D(2,3,4,35)           -95.3993         estimate D2E/DX2                !
 ! D21   D(2,3,4,36)           146.6757         estimate D2E/DX2                !
 ! D22   D(33,3,4,5)           -96.392          estimate D2E/DX2                !
 ! D23   D(33,3,4,35)          146.0078         estimate D2E/DX2                !
 ! D24   D(33,3,4,36)           28.0828         estimate D2E/DX2                !
 ! D25   D(34,3,4,5)           144.8398         estimate D2E/DX2                !
 ! D26   D(34,3,4,35)           27.2395         estimate D2E/DX2                !
 ! D27   D(34,3,4,36)          -90.6855         estimate D2E/DX2                !
 ! D28   D(3,4,5,6)             64.405          estimate D2E/DX2                !
 ! D29   D(3,4,5,28)           -65.1701         estimate D2E/DX2                !
 ! D30   D(35,4,5,6)          -175.891          estimate D2E/DX2                !
 ! D31   D(35,4,5,28)           54.534          estimate D2E/DX2                !
 ! D32   D(36,4,5,6)           -60.1231         estimate D2E/DX2                !
 ! D33   D(36,4,5,28)          170.3018         estimate D2E/DX2                !
 ! D34   D(4,5,6,7)             43.1186         estimate D2E/DX2                !
 ! D35   D(4,5,6,23)           167.4666         estimate D2E/DX2                !
 ! D36   D(4,5,6,37)           -75.5649         estimate D2E/DX2                !
 ! D37   D(28,5,6,7)           169.2491         estimate D2E/DX2                !
 ! D38   D(28,5,6,23)          -66.403          estimate D2E/DX2                !
 ! D39   D(28,5,6,37)           50.5656         estimate D2E/DX2                !
 ! D40   D(4,5,28,29)           41.0563         estimate D2E/DX2                !
 ! D41   D(4,5,28,58)          -79.6651         estimate D2E/DX2                !
 ! D42   D(4,5,28,59)          163.9198         estimate D2E/DX2                !
 ! D43   D(6,5,28,29)          -89.6414         estimate D2E/DX2                !
 ! D44   D(6,5,28,58)          149.6372         estimate D2E/DX2                !
 ! D45   D(6,5,28,59)           33.2221         estimate D2E/DX2                !
 ! D46   D(5,6,7,8)            173.5509         estimate D2E/DX2                !
 ! D47   D(5,6,7,38)           -67.7845         estimate D2E/DX2                !
 ! D48   D(5,6,7,39)            50.9553         estimate D2E/DX2                !
 ! D49   D(23,6,7,8)            49.1034         estimate D2E/DX2                !
 ! D50   D(23,6,7,38)          167.7681         estimate D2E/DX2                !
 ! D51   D(23,6,7,39)          -73.4921         estimate D2E/DX2                !
 ! D52   D(37,6,7,8)           -66.2185         estimate D2E/DX2                !
 ! D53   D(37,6,7,38)           52.4461         estimate D2E/DX2                !
 ! D54   D(37,6,7,39)          171.1859         estimate D2E/DX2                !
 ! D55   D(5,6,23,22)         -178.5229         estimate D2E/DX2                !
 ! D56   D(5,6,23,24)          -51.3686         estimate D2E/DX2                !
 ! D57   D(5,6,23,50)           69.4551         estimate D2E/DX2                !
 ! D58   D(7,6,23,22)          -53.8763         estimate D2E/DX2                !
 ! D59   D(7,6,23,24)           73.2779         estimate D2E/DX2                !
 ! D60   D(7,6,23,50)         -165.8983         estimate D2E/DX2                !
 ! D61   D(37,6,23,22)          62.1973         estimate D2E/DX2                !
 ! D62   D(37,6,23,24)        -170.6485         estimate D2E/DX2                !
 ! D63   D(37,6,23,50)         -49.8247         estimate D2E/DX2                !
 ! D64   D(6,7,8,9)            -48.7404         estimate D2E/DX2                !
 ! D65   D(6,7,8,40)            71.0628         estimate D2E/DX2                !
 ! D66   D(6,7,8,41)          -170.9789         estimate D2E/DX2                !
 ! D67   D(38,7,8,9)          -169.1921         estimate D2E/DX2                !
 ! D68   D(38,7,8,40)          -49.3889         estimate D2E/DX2                !
 ! D69   D(38,7,8,41)           68.5694         estimate D2E/DX2                !
 ! D70   D(39,7,8,9)            73.8252         estimate D2E/DX2                !
 ! D71   D(39,7,8,40)         -166.3715         estimate D2E/DX2                !
 ! D72   D(39,7,8,41)          -48.4133         estimate D2E/DX2                !
 ! D73   D(7,8,9,10)          -126.7283         estimate D2E/DX2                !
 ! D74   D(7,8,9,22)            55.7561         estimate D2E/DX2                !
 ! D75   D(40,8,9,10)          113.1676         estimate D2E/DX2                !
 ! D76   D(40,8,9,22)          -64.348          estimate D2E/DX2                !
 ! D77   D(41,8,9,10)           -4.9029         estimate D2E/DX2                !
 ! D78   D(41,8,9,22)          177.5815         estimate D2E/DX2                !
 ! D79   D(8,9,10,11)         -177.166          estimate D2E/DX2                !
 ! D80   D(8,9,10,12)            3.0441         estimate D2E/DX2                !
 ! D81   D(22,9,10,11)           0.1923         estimate D2E/DX2                !
 ! D82   D(22,9,10,12)        -179.5976         estimate D2E/DX2                !
 ! D83   D(8,9,22,23)          -63.2407         estimate D2E/DX2                !
 ! D84   D(8,9,22,48)           57.486          estimate D2E/DX2                !
 ! D85   D(8,9,22,49)          175.4049         estimate D2E/DX2                !
 ! D86   D(10,9,22,23)         119.0454         estimate D2E/DX2                !
 ! D87   D(10,9,22,48)        -120.2278         estimate D2E/DX2                !
 ! D88   D(10,9,22,49)          -2.309          estimate D2E/DX2                !
 ! D89   D(9,10,12,13)         109.1613         estimate D2E/DX2                !
 ! D90   D(9,10,12,21)         -75.6591         estimate D2E/DX2                !
 ! D91   D(11,10,12,13)        -70.6325         estimate D2E/DX2                !
 ! D92   D(11,10,12,21)        104.547          estimate D2E/DX2                !
 ! D93   D(10,12,13,14)        178.0827         estimate D2E/DX2                !
 ! D94   D(10,12,13,42)         -1.9935         estimate D2E/DX2                !
 ! D95   D(21,12,13,14)          2.7919         estimate D2E/DX2                !
 ! D96   D(21,12,13,42)       -177.2843         estimate D2E/DX2                !
 ! D97   D(10,12,21,16)       -177.9357         estimate D2E/DX2                !
 ! D98   D(10,12,21,20)          1.353          estimate D2E/DX2                !
 ! D99   D(13,12,21,16)         -2.7182         estimate D2E/DX2                !
 ! D100  D(13,12,21,20)        176.5706         estimate D2E/DX2                !
 ! D101  D(12,13,14,15)         -0.729          estimate D2E/DX2                !
 ! D102  D(12,13,14,43)        178.8937         estimate D2E/DX2                !
 ! D103  D(42,13,14,15)        179.347          estimate D2E/DX2                !
 ! D104  D(42,13,14,43)         -1.0303         estimate D2E/DX2                !
 ! D105  D(13,14,15,16)         -1.4147         estimate D2E/DX2                !
 ! D106  D(43,14,15,16)        178.9483         estimate D2E/DX2                !
 ! D107  D(14,15,16,17)       -178.3425         estimate D2E/DX2                !
 ! D108  D(14,15,16,21)          1.4316         estimate D2E/DX2                !
 ! D109  D(15,16,17,18)        179.129          estimate D2E/DX2                !
 ! D110  D(15,16,17,44)         -0.262          estimate D2E/DX2                !
 ! D111  D(21,16,17,18)         -0.6526         estimate D2E/DX2                !
 ! D112  D(21,16,17,44)        179.9564         estimate D2E/DX2                !
 ! D113  D(15,16,21,12)          0.6185         estimate D2E/DX2                !
 ! D114  D(15,16,21,20)       -178.7034         estimate D2E/DX2                !
 ! D115  D(17,16,21,12)       -179.6086         estimate D2E/DX2                !
 ! D116  D(17,16,21,20)          1.0695         estimate D2E/DX2                !
 ! D117  D(16,17,18,19)         -0.1662         estimate D2E/DX2                !
 ! D118  D(16,17,18,45)       -179.673          estimate D2E/DX2                !
 ! D119  D(44,17,18,19)        179.1996         estimate D2E/DX2                !
 ! D120  D(44,17,18,45)         -0.3071         estimate D2E/DX2                !
 ! D121  D(17,18,19,20)          0.5736         estimate D2E/DX2                !
 ! D122  D(17,18,19,46)       -179.1472         estimate D2E/DX2                !
 ! D123  D(45,18,19,20)       -179.9146         estimate D2E/DX2                !
 ! D124  D(45,18,19,46)          0.3646         estimate D2E/DX2                !
 ! D125  D(18,19,20,21)         -0.1355         estimate D2E/DX2                !
 ! D126  D(18,19,20,47)       -178.9343         estimate D2E/DX2                !
 ! D127  D(46,19,20,21)        179.583          estimate D2E/DX2                !
 ! D128  D(46,19,20,47)          0.7842         estimate D2E/DX2                !
 ! D129  D(19,20,21,12)       -179.9599         estimate D2E/DX2                !
 ! D130  D(19,20,21,16)         -0.6828         estimate D2E/DX2                !
 ! D131  D(47,20,21,12)         -1.1392         estimate D2E/DX2                !
 ! D132  D(47,20,21,16)        178.138          estimate D2E/DX2                !
 ! D133  D(9,22,23,6)           60.7885         estimate D2E/DX2                !
 ! D134  D(9,22,23,24)         -71.5693         estimate D2E/DX2                !
 ! D135  D(9,22,23,50)         174.1108         estimate D2E/DX2                !
 ! D136  D(48,22,23,6)         -59.4625         estimate D2E/DX2                !
 ! D137  D(48,22,23,24)        168.1797         estimate D2E/DX2                !
 ! D138  D(48,22,23,50)         53.8598         estimate D2E/DX2                !
 ! D139  D(49,22,23,6)        -179.5946         estimate D2E/DX2                !
 ! D140  D(49,22,23,24)         48.0475         estimate D2E/DX2                !
 ! D141  D(49,22,23,50)        -66.2723         estimate D2E/DX2                !
 ! D142  D(6,23,24,25)          -5.1304         estimate D2E/DX2                !
 ! D143  D(6,23,24,51)         116.907          estimate D2E/DX2                !
 ! D144  D(6,23,24,52)        -128.6335         estimate D2E/DX2                !
 ! D145  D(22,23,24,25)        120.6388         estimate D2E/DX2                !
 ! D146  D(22,23,24,51)       -117.3239         estimate D2E/DX2                !
 ! D147  D(22,23,24,52)         -2.8644         estimate D2E/DX2                !
 ! D148  D(50,23,24,25)       -126.0895         estimate D2E/DX2                !
 ! D149  D(50,23,24,51)         -4.0521         estimate D2E/DX2                !
 ! D150  D(50,23,24,52)        110.4073         estimate D2E/DX2                !
 ! D151  D(23,24,25,26)        -98.7736         estimate D2E/DX2                !
 ! D152  D(23,24,25,53)         25.6704         estimate D2E/DX2                !
 ! D153  D(23,24,25,54)        142.7415         estimate D2E/DX2                !
 ! D154  D(51,24,25,26)        139.4548         estimate D2E/DX2                !
 ! D155  D(51,24,25,53)        -96.1012         estimate D2E/DX2                !
 ! D156  D(51,24,25,54)         20.9699         estimate D2E/DX2                !
 ! D157  D(52,24,25,26)         25.1865         estimate D2E/DX2                !
 ! D158  D(52,24,25,53)        149.6306         estimate D2E/DX2                !
 ! D159  D(52,24,25,54)        -93.2983         estimate D2E/DX2                !
 ! D160  D(24,25,26,27)        -60.7406         estimate D2E/DX2                !
 ! D161  D(24,25,26,55)         56.6967         estimate D2E/DX2                !
 ! D162  D(24,25,26,56)        176.4388         estimate D2E/DX2                !
 ! D163  D(53,25,26,27)        174.7461         estimate D2E/DX2                !
 ! D164  D(53,25,26,55)        -67.8167         estimate D2E/DX2                !
 ! D165  D(53,25,26,56)         51.9255         estimate D2E/DX2                !
 ! D166  D(54,25,26,27)         58.3487         estimate D2E/DX2                !
 ! D167  D(54,25,26,55)        175.7859         estimate D2E/DX2                !
 ! D168  D(54,25,26,56)        -64.4719         estimate D2E/DX2                !
 ! D169  D(25,26,27,57)        -49.9569         estimate D2E/DX2                !
 ! D170  D(55,26,27,57)       -171.5132         estimate D2E/DX2                !
 ! D171  D(56,26,27,57)         72.3992         estimate D2E/DX2                !
 ! D172  D(5,28,29,2)           21.1954         estimate D2E/DX2                !
 ! D173  D(5,28,29,60)        -101.344          estimate D2E/DX2                !
 ! D174  D(5,28,29,61)         140.0365         estimate D2E/DX2                !
 ! D175  D(58,28,29,2)         140.7585         estimate D2E/DX2                !
 ! D176  D(58,28,29,60)         18.2191         estimate D2E/DX2                !
 ! D177  D(58,28,29,61)       -100.4005         estimate D2E/DX2                !
 ! D178  D(59,28,29,2)        -101.3563         estimate D2E/DX2                !
 ! D179  D(59,28,29,60)        136.1043         estimate D2E/DX2                !
 ! D180  D(59,28,29,61)         17.4847         estimate D2E/DX2                !
 --------------------------------------------------------------------------------
 Trust Radius=3.00D-01 FncErr=1.00D-07 GrdErr=1.00D-06 EigMax=2.50D+02 EigMin=1.00D-04
 Number of steps in this run=    366 maximum allowed number of steps=    366.
 GradGradGradGradGradGradGradGradGradGradGradGradGradGradGradGradGradGrad

 Leave Link  103 at Fri Nov  4 18:14:49 2022, MaxMem=   805306368 cpu:               0.1 elap:               0.0
 (Enter /home/wykgroup/appl/g16/l202.exe)
 Stoichiometry    C23H32N4O2
 Framework group  C1[X(C23H32N4O2)]
 Deg. of freedom   177
 Full point group                 C1      NOp   1
 Largest Abelian subgroup         C1      NOp   1
 Largest concise Abelian subgroup C1      NOp   1
                         Standard orientation:                         
 ---------------------------------------------------------------------
 Center     Atomic      Atomic             Coordinates (Angstroms)
 Number     Number       Type             X           Y           Z
 ---------------------------------------------------------------------
      1          6           0       -5.219130   -3.201222   -0.006195
      2          7           0       -4.581932   -1.916936   -0.174912
      3          6           0       -4.129520   -1.715660   -1.540755
      4          6           0       -3.693482   -0.249034   -1.728340
      5          7           0       -3.348676    0.400308   -0.478515
      6          6           0       -2.184617   -0.138666    0.237044
      7          6           0       -1.024587   -0.437419   -0.721611
      8          6           0        0.256066   -0.851527    0.012217
      9          7           0        0.575951    0.050335    1.086361
     10          6           0        1.747970    0.693250    1.290515
     11          8           0        1.946358    1.402554    2.259337
     12          6           0        2.811931    0.496505    0.251981
     13          6           0        3.145268    1.532518   -0.585803
     14          6           0        4.174123    1.335668   -1.523728
     15          7           0        4.850985    0.229152   -1.645918
     16          6           0        4.575414   -0.790588   -0.807395
     17          6           0        5.332286   -1.975985   -0.916281
     18          6           0        5.096178   -3.025602   -0.073736
     19          6           0        4.101044   -2.938520    0.913101
     20          6           0        3.344439   -1.806883    1.039464
     21          6           0        3.555578   -0.709088    0.180861
     22          6           0       -0.499480    0.195910    2.035126
     23          6           0       -1.734529    0.816412    1.370845
     24          6           0       -1.489212    2.317383    1.060982
     25          6           0       -1.576993    2.829926   -0.383410
     26          6           0       -0.212792    2.973599   -1.060232
     27          8           0        0.639491    3.884725   -0.406047
     28          6           0       -4.563195    0.475593    0.320985
     29          6           0       -5.418844   -0.810088    0.247320
     30          1           0       -4.520747   -3.983255   -0.302957
     31          1           0       -5.473741   -3.340064    1.043705
     32          1           0       -6.136014   -3.305692   -0.608700
     33          1           0       -3.292736   -2.399164   -1.714933
     34          1           0       -4.921833   -1.960579   -2.272140
     35          1           0       -4.524583    0.327925   -2.145594
     36          1           0       -2.867308   -0.181225   -2.435263
     37          1           0       -2.454929   -1.089498    0.729321
     38          1           0       -1.292095   -1.267422   -1.375893
     39          1           0       -0.827829    0.433036   -1.341189
     40          1           0        0.115071   -1.857239    0.434392
     41          1           0        1.082565   -0.894453   -0.699294
     42          1           0        2.629004    2.477988   -0.528049
     43          1           0        4.443096    2.131236   -2.207258
     44          1           0        6.099686   -2.015143   -1.673336
     45          1           0        5.680193   -3.930691   -0.154965
     46          1           0        3.940481   -3.774952    1.577540
     47          1           0        2.589570   -1.730308    1.808811
     48          1           0       -0.754269   -0.793620    2.437481
     49          1           0       -0.141633    0.826822    2.850824
     50          1           0       -2.512667    0.781653    2.139487
     51          1           0       -2.216146    2.880985    1.648233
     52          1           0       -0.501422    2.587620    1.441399
     53          1           0       -2.227179    2.189880   -0.975286
     54          1           0       -2.031721    3.825507   -0.363712
     55          1           0        0.339284    2.032975   -1.053219
     56          1           0       -0.360441    3.282482   -2.108052
     57          1           0        0.161245    4.707860   -0.256398
     58          1           0       -5.148172    1.323217   -0.052885
     59          1           0       -4.301802    0.687728    1.354177
     60          1           0       -6.270891   -0.668856   -0.442589
     61          1           0       -5.826625   -1.041889    1.233162
 ---------------------------------------------------------------------
 Rotational constants (GHZ):           0.2778066           0.0996827           0.0853436
 Leave Link  202 at Fri Nov  4 18:14:49 2022, MaxMem=   805306368 cpu:               0.1 elap:               0.0
 (Enter /home/wykgroup/appl/g16/l301.exe)
 Standard basis: 6-31G(d) (6D, 7F)
 Ernie: Thresh=  0.10000D-02 Tol=  0.10000D-05 Strict=F.
 There are   499 symmetry adapted cartesian basis functions of A   symmetry.
 There are   499 symmetry adapted basis functions of A   symmetry.
   499 basis functions,   940 primitive gaussians,   499 cartesian basis functions
   107 alpha electrons      107 beta electrons
       nuclear repulsion energy      2956.1136864594 Hartrees.
 IExCor=  402 DFT=T Ex+Corr=B3LYP ExCW=0 ScaHFX=  0.200000
 ScaDFX=  0.800000  0.720000  1.000000  0.810000 ScalE2=  1.000000  1.000000
 IRadAn=      5 IRanWt=     -1 IRanGd=            0 ICorTp=0 IEmpDi=  4
 NAtoms=   61 NActive=   61 NUniq=   61 SFac= 1.00D+00 NAtFMM=   60 NAOKFM=T Big=T
 Integral buffers will be    131072 words long.
 Raffenetti 2 integral format.
 Two-electron integral symmetry is turned on.
 Leave Link  301 at Fri Nov  4 18:14:49 2022, MaxMem=   805306368 cpu:               0.3 elap:               0.1
 (Enter /home/wykgroup/appl/g16/l302.exe)
 NPDir=0 NMtPBC=     1 NCelOv=     1 NCel=       1 NClECP=     1 NCelD=      1
         NCelK=      1 NCelE2=     1 NClLst=     1 CellRange=     0.0.
 One-electron integrals computed using PRISM.
 One-electron integral symmetry used in STVInt
 NBasis=   499 RedAO= T EigKep=  3.55D-04  NBF=   499
 NBsUse=   499 1.00D-06 EigRej= -1.00D+00 NBFU=   499
 Precomputing XC quadrature grid using
 IXCGrd= 4 IRadAn=           5 IRanWt=          -1 IRanGd=           0 AccXCQ= 0.00D+00.
 Generated NRdTot=       0 NPtTot=           0 NUsed=           0 NTot=          32
 NSgBfM=   494   493   493   493   494 MxSgAt=    61 MxSgA2=    61.
 Leave Link  302 at Fri Nov  4 18:14:50 2022, MaxMem=   805306368 cpu:               7.2 elap:               1.1
 (Enter /home/wykgroup/appl/g16/l303.exe)
 DipDrv:  MaxL=1.
 Leave Link  303 at Fri Nov  4 18:14:50 2022, MaxMem=   805306368 cpu:               0.4 elap:               0.1
 (Enter /home/wykgroup/appl/g16/l401.exe)
 ExpMin= 1.61D-01 ExpMax= 5.48D+03 ExpMxC= 8.25D+02 IAcc=3 IRadAn=         5 AccDes= 0.00D+00
 Harris functional with IExCor=  402 and IRadAn=       5 diagonalized for initial guess.
 HarFok:  IExCor=  402 AccDes= 0.00D+00 IRadAn=         5 IDoV= 1 UseB2=F ITyADJ=14
 ICtDFT=  3500011 ScaDFX=  1.000000  1.000000  1.000000  1.000000
 FoFCou: FMM=F IPFlag=           0 FMFlag=      100000 FMFlg1=        2001
         NFxFlg=           0 DoJE=T BraDBF=F KetDBF=T FulRan=T
         wScrn=  0.000000 ICntrl=       500 IOpCl=  0 I1Cent=   200000004 NGrid=           0
         NMat0=    1 NMatS0=      1 NMatT0=    0 NMatD0=    1 NMtDS0=    0 NMtDT0=    0
 Petite list used in FoFCou.
 Harris En= -1265.09939493826    
 JPrj=0 DoOrth=F DoCkMO=F.
 Leave Link  401 at Fri Nov  4 18:14:56 2022, MaxMem=   805306368 cpu:              36.7 elap:               5.4
 (Enter /home/wykgroup/appl/g16/l502.exe)
 Integral symmetry usage will be decided dynamically.
 Closed shell SCF:
 Using DIIS extrapolation, IDIIS=  1040.
 NGot=   805306368 LenX=   804799143 LenY=   804549643
 Requested convergence on RMS density matrix=1.00D-08 within  32 cycles.
 Requested convergence on MAX density matrix=1.00D-06.
 Requested convergence on             energy=1.00D-06.
 No special actions if energy rises.
 Fock matrices will be formed incrementally for  20 cycles.
 Integral accuracy reduced to 1.0D-05 until final iterations.

 Cycle   1  Pass 0  IDiag  1:
 FoFJK:  IHMeth= 1 ICntrl=       0 DoSepK=F KAlg= 0 I1Cent=           0 FoldK=F
 IRaf= 990000000 NMat=       1 IRICut=       1 DoRegI=T DoRafI=F ISym2E= 0 IDoP0=0 IntGTp=1.
 FoFCou: FMM=T IPFlag=           0 FMFlag=      100000 FMFlg1=        2001
         NFxFlg=           0 DoJE=F BraDBF=F KetDBF=F FulRan=T
         wScrn=  0.000000 ICntrl=         0 IOpCl=  0 I1Cent=           0 NGrid=           0
         NMat0=    1 NMatS0=      1 NMatT0=    0 NMatD0=    1 NMtDS0=    0 NMtDT0=    0
 Symmetry not used in FoFCou.
 FMM levels:  10  Number of levels for PrismC:   9
 E= -1264.45672973460    
 DIIS: error= 2.17D-02 at cycle   1 NSaved=   1.
 NSaved= 1 IEnMin= 1 EnMin= -1264.45672973460     IErMin= 1 ErrMin= 2.17D-02
 ErrMax= 2.17D-02  0.00D+00 EMaxC= 1.00D-01 BMatC= 6.67D-01 BMatP= 6.67D-01
 IDIUse=3 WtCom= 7.83D-01 WtEn= 2.17D-01
 Coeff-Com:  0.100D+01
 Coeff-En:   0.100D+01
 Coeff:      0.100D+01
 Gap=     0.132 Goal=   None    Shift=    0.000
 GapD=    0.132 DampG=1.000 DampE=0.500 DampFc=0.5000 IDamp=-1.
 Damping current iteration by 5.00D-01
 RMSDP=4.32D-03 MaxDP=2.12D-01              OVMax= 2.81D-01

 Cycle   2  Pass 0  IDiag  1:
 RMSU=  2.13D-03    CP:  9.77D-01
 E= -1264.71919072832     Delta-E=       -0.262460993719 Rises=F Damp=T
 DIIS: error= 6.97D-03 at cycle   2 NSaved=   2.
 NSaved= 2 IEnMin= 2 EnMin= -1264.71919072832     IErMin= 2 ErrMin= 6.97D-03
 ErrMax= 6.97D-03  0.00D+00 EMaxC= 1.00D-01 BMatC= 7.57D-02 BMatP= 6.67D-01
 IDIUse=3 WtCom= 9.30D-01 WtEn= 6.97D-02
 Coeff-Com:  0.126D+00 0.874D+00
 Coeff-En:   0.185D+00 0.815D+00
 Coeff:      0.130D+00 0.870D+00
 Gap=     0.232 Goal=   None    Shift=    0.000
 RMSDP=1.28D-03 MaxDP=1.03D-01 DE=-2.62D-01 OVMax= 1.71D-01

 Cycle   3  Pass 0  IDiag  1:
 RMSU=  1.21D-03    CP:  9.66D-01  8.28D-01
 E= -1265.04483050517     Delta-E=       -0.325639776851 Rises=F Damp=F
 DIIS: error= 1.28D-02 at cycle   3 NSaved=   3.
 NSaved= 3 IEnMin= 3 EnMin= -1265.04483050517     IErMin= 2 ErrMin= 6.97D-03
 ErrMax= 1.28D-02  0.00D+00 EMaxC= 1.00D-01 BMatC= 9.59D-02 BMatP= 7.57D-02
 IDIUse=2 WtCom= 0.00D+00 WtEn= 1.00D+00
 Coeff-En:   0.000D+00 0.000D+00 0.100D+01
 Coeff:      0.000D+00 0.000D+00 0.100D+01
 Gap=     0.124 Goal=   None    Shift=    0.000
 RMSDP=2.24D-03 MaxDP=2.52D-01 DE=-3.26D-01 OVMax= 3.87D-01

 Cycle   4  Pass 0  IDiag  1:
 RMSU=  1.45D-03    CP:  9.70D-01  1.20D+00 -2.54D-01
 E= -1264.55947764371     Delta-E=        0.485352861460 Rises=F Damp=F
 DIIS: error= 3.15D-02 at cycle   4 NSaved=   4.
 NSaved= 4 IEnMin= 3 EnMin= -1265.04483050517     IErMin= 2 ErrMin= 6.97D-03
 ErrMax= 3.15D-02  0.00D+00 EMaxC= 1.00D-01 BMatC= 6.89D-01 BMatP= 7.57D-02
 IDIUse=2 WtCom= 0.00D+00 WtEn= 1.00D+00
 Coeff-En:   0.000D+00 0.000D+00 0.822D+00 0.178D+00
 Coeff:      0.000D+00 0.000D+00 0.822D+00 0.178D+00
 Gap=     0.150 Goal=   None    Shift=    0.000
 RMSDP=1.27D-03 MaxDP=1.64D-01 DE= 4.85D-01 OVMax= 1.55D-01

 Cycle   5  Pass 0  IDiag  1:
 RMSU=  2.96D-04    CP:  9.69D-01  9.72D-01  3.80D-01  4.17D-01
 E= -1265.07782738373     Delta-E=       -0.518349740021 Rises=F Damp=F
 DIIS: error= 9.61D-03 at cycle   5 NSaved=   5.
 NSaved= 5 IEnMin= 5 EnMin= -1265.07782738373     IErMin= 2 ErrMin= 6.97D-03
 ErrMax= 9.61D-03  0.00D+00 EMaxC= 1.00D-01 BMatC= 5.77D-02 BMatP= 7.57D-02
 IDIUse=3 WtCom= 9.04D-01 WtEn= 9.61D-02
 Coeff-Com:  0.622D-02 0.204D-01 0.356D+00-0.731D-01 0.691D+00
 Coeff-En:   0.000D+00 0.000D+00 0.402D+00 0.000D+00 0.598D+00
 Coeff:      0.562D-02 0.184D-01 0.360D+00-0.661D-01 0.682D+00
 Gap=     0.155 Goal=   None    Shift=    0.000
 RMSDP=4.69D-04 MaxDP=4.39D-02 DE=-5.18D-01 OVMax= 6.30D-02

 Cycle   6  Pass 0  IDiag  1:
 RMSU=  1.05D-04    CP:  9.68D-01  8.96D-01  6.36D-01  2.26D-01  6.83D-01
 E= -1265.12370019526     Delta-E=       -0.045872811526 Rises=F Damp=F
 DIIS: error= 7.68D-04 at cycle   6 NSaved=   6.
 NSaved= 6 IEnMin= 6 EnMin= -1265.12370019526     IErMin= 6 ErrMin= 7.68D-04
 ErrMax= 7.68D-04  0.00D+00 EMaxC= 1.00D-01 BMatC= 5.74D-04 BMatP= 5.77D-02
 IDIUse=3 WtCom= 9.92D-01 WtEn= 7.68D-03
 Coeff-Com:  0.293D-02 0.404D-02 0.193D+00-0.540D-01 0.427D+00 0.427D+00
 Coeff-En:   0.000D+00 0.000D+00 0.000D+00 0.000D+00 0.000D+00 0.100D+01
 Coeff:      0.291D-02 0.401D-02 0.191D+00-0.536D-01 0.424D+00 0.432D+00
 Gap=     0.153 Goal=   None    Shift=    0.000
 RMSDP=6.68D-05 MaxDP=3.19D-03 DE=-4.59D-02 OVMax= 1.10D-02

 Cycle   7  Pass 0  IDiag  1:
 RMSU=  2.92D-05    CP:  9.68D-01  9.02D-01  6.34D-01  2.30D-01  7.42D-01
                    CP:  4.70D-01
 E= -1265.12420234818     Delta-E=       -0.000502152923 Rises=F Damp=F
 DIIS: error= 3.24D-04 at cycle   7 NSaved=   7.
 NSaved= 7 IEnMin= 7 EnMin= -1265.12420234818     IErMin= 7 ErrMin= 3.24D-04
 ErrMax= 3.24D-04  0.00D+00 EMaxC= 1.00D-01 BMatC= 5.90D-05 BMatP= 5.74D-04
 IDIUse=3 WtCom= 9.97D-01 WtEn= 3.24D-03
 Coeff-Com:  0.146D-02-0.855D-03 0.651D-01-0.209D-01 0.143D+00 0.211D+00
 Coeff-Com:  0.602D+00
 Coeff-En:   0.000D+00 0.000D+00 0.000D+00 0.000D+00 0.000D+00 0.164D-01
 Coeff-En:   0.984D+00
 Coeff:      0.145D-02-0.852D-03 0.649D-01-0.209D-01 0.142D+00 0.211D+00
 Coeff:      0.603D+00
 Gap=     0.153 Goal=   None    Shift=    0.000
 RMSDP=2.19D-05 MaxDP=1.27D-03 DE=-5.02D-04 OVMax= 3.56D-03

 Cycle   8  Pass 0  IDiag  1:
 RMSU=  1.34D-05    CP:  9.68D-01  8.99D-01  6.38D-01  2.26D-01  7.36D-01
                    CP:  5.37D-01  5.46D-01
 E= -1265.12424617226     Delta-E=       -0.000043824076 Rises=F Damp=F
 DIIS: error= 1.88D-04 at cycle   8 NSaved=   8.
 NSaved= 8 IEnMin= 8 EnMin= -1265.12424617226     IErMin= 8 ErrMin= 1.88D-04
 ErrMax= 1.88D-04  0.00D+00 EMaxC= 1.00D-01 BMatC= 1.53D-05 BMatP= 5.90D-05
 IDIUse=3 WtCom= 9.98D-01 WtEn= 1.88D-03
 Coeff-Com:  0.719D-03-0.175D-02 0.122D-01-0.382D-02 0.184D-01 0.593D-01
 Coeff-Com:  0.411D+00 0.504D+00
 Coeff-En:   0.000D+00 0.000D+00 0.000D+00 0.000D+00 0.000D+00 0.000D+00
 Coeff-En:   0.163D+00 0.837D+00
 Coeff:      0.717D-03-0.175D-02 0.122D-01-0.381D-02 0.183D-01 0.592D-01
 Coeff:      0.410D+00 0.505D+00
 Gap=     0.154 Goal=   None    Shift=    0.000
 RMSDP=9.80D-06 MaxDP=5.15D-04 DE=-4.38D-05 OVMax= 1.47D-03

 Initial convergence to 1.0D-05 achieved.  Increase integral accuracy.
 Cycle   9  Pass 1  IDiag  1:
 E= -1265.12426102425     Delta-E=       -0.000014851994 Rises=F Damp=F
 DIIS: error= 1.23D-04 at cycle   1 NSaved=   1.
 NSaved= 1 IEnMin= 1 EnMin= -1265.12426102425     IErMin= 1 ErrMin= 1.23D-04
 ErrMax= 1.23D-04  0.00D+00 EMaxC= 1.00D-01 BMatC= 5.20D-06 BMatP= 5.20D-06
 IDIUse=3 WtCom= 9.99D-01 WtEn= 1.23D-03
 Coeff-Com:  0.100D+01
 Coeff-En:   0.100D+01
 Coeff:      0.100D+01
 Gap=     0.154 Goal=   None    Shift=    0.000
 RMSDP=9.80D-06 MaxDP=5.15D-04 DE=-1.49D-05 OVMax= 6.13D-04

 Cycle  10  Pass 1  IDiag  1:
 RMSU=  5.74D-05    CP:  1.00D+00
 E= -1265.12426450434     Delta-E=       -0.000003480093 Rises=F Damp=F
 DIIS: error= 5.19D-05 at cycle   2 NSaved=   2.
 NSaved= 2 IEnMin= 2 EnMin= -1265.12426450434     IErMin= 2 ErrMin= 5.19D-05
 ErrMax= 5.19D-05  0.00D+00 EMaxC= 1.00D-01 BMatC= 1.50D-06 BMatP= 5.20D-06
 IDIUse=1 WtCom= 1.00D+00 WtEn= 0.00D+00
 Coeff-Com:  0.274D+00 0.726D+00
 Coeff:      0.274D+00 0.726D+00
 Gap=     0.154 Goal=   None    Shift=    0.000
 RMSDP=5.86D-06 MaxDP=2.92D-04 DE=-3.48D-06 OVMax= 9.47D-04

 Cycle  11  Pass 1  IDiag  1:
 RMSU=  5.86D-06    CP:  1.00D+00  1.00D+00
 E= -1265.12426375911     Delta-E=        0.000000745238 Rises=F Damp=F
 DIIS: error= 7.41D-05 at cycle   3 NSaved=   3.
 NSaved= 3 IEnMin= 2 EnMin= -1265.12426450434     IErMin= 2 ErrMin= 5.19D-05
 ErrMax= 7.41D-05  0.00D+00 EMaxC= 1.00D-01 BMatC= 2.18D-06 BMatP= 1.50D-06
 IDIUse=1 WtCom= 1.00D+00 WtEn= 0.00D+00
 Coeff-Com:  0.830D-02 0.544D+00 0.447D+00
 Coeff:      0.830D-02 0.544D+00 0.447D+00
 Gap=     0.154 Goal=   None    Shift=    0.000
 RMSDP=3.57D-06 MaxDP=2.07D-04 DE= 7.45D-07 OVMax= 6.28D-04

 Cycle  12  Pass 1  IDiag  1:
 RMSU=  9.34D-07    CP:  1.00D+00  1.01D+00  4.16D-01
 E= -1265.12426592998     Delta-E=       -0.000002170871 Rises=F Damp=F
 DIIS: error= 1.10D-05 at cycle   4 NSaved=   4.
 NSaved= 4 IEnMin= 4 EnMin= -1265.12426592998     IErMin= 4 ErrMin= 1.10D-05
 ErrMax= 1.10D-05  0.00D+00 EMaxC= 1.00D-01 BMatC= 6.35D-08 BMatP= 1.50D-06
 IDIUse=1 WtCom= 1.00D+00 WtEn= 0.00D+00
 Coeff-Com: -0.307D-02 0.321D+00 0.281D+00 0.400D+00
 Coeff:     -0.307D-02 0.321D+00 0.281D+00 0.400D+00
 Gap=     0.154 Goal=   None    Shift=    0.000
 RMSDP=6.19D-07 MaxDP=3.73D-05 DE=-2.17D-06 OVMax= 9.06D-05

 Cycle  13  Pass 1  IDiag  1:
 RMSU=  2.16D-07    CP:  1.00D+00  1.01D+00  4.56D-01  4.31D-01
 E= -1265.12426599153     Delta-E=       -0.000000061549 Rises=F Damp=F
 DIIS: error= 1.04D-06 at cycle   5 NSaved=   5.
 NSaved= 5 IEnMin= 5 EnMin= -1265.12426599153     IErMin= 5 ErrMin= 1.04D-06
 ErrMax= 1.04D-06  0.00D+00 EMaxC= 1.00D-01 BMatC= 1.35D-09 BMatP= 6.35D-08
 IDIUse=1 WtCom= 1.00D+00 WtEn= 0.00D+00
 Coeff-Com: -0.198D-02 0.161D+00 0.142D+00 0.228D+00 0.471D+00
 Coeff:     -0.198D-02 0.161D+00 0.142D+00 0.228D+00 0.471D+00
 Gap=     0.154 Goal=   None    Shift=    0.000
 RMSDP=1.06D-07 MaxDP=5.61D-06 DE=-6.15D-08 OVMax= 1.00D-05

 Cycle  14  Pass 1  IDiag  1:
 RMSU=  6.18D-08    CP:  1.00D+00  1.01D+00  4.54D-01  4.45D-01  6.12D-01
 E= -1265.12426599276     Delta-E=       -0.000000001231 Rises=F Damp=F
 DIIS: error= 4.19D-07 at cycle   6 NSaved=   6.
 NSaved= 6 IEnMin= 6 EnMin= -1265.12426599276     IErMin= 6 ErrMin= 4.19D-07
 ErrMax= 4.19D-07  0.00D+00 EMaxC= 1.00D-01 BMatC= 1.32D-10 BMatP= 1.35D-09
 IDIUse=1 WtCom= 1.00D+00 WtEn= 0.00D+00
 Coeff-Com: -0.107D-02 0.815D-01 0.718D-01 0.120D+00 0.301D+00 0.427D+00
 Coeff:     -0.107D-02 0.815D-01 0.718D-01 0.120D+00 0.301D+00 0.427D+00
 Gap=     0.154 Goal=   None    Shift=    0.000
 RMSDP=2.86D-08 MaxDP=2.47D-06 DE=-1.23D-09 OVMax= 3.85D-06

 Cycle  15  Pass 1  IDiag  1:
 RMSU=  2.34D-08    CP:  1.00D+00  1.01D+00  4.53D-01  4.43D-01  6.28D-01
                    CP:  7.54D-01
 E= -1265.12426599285     Delta-E=       -0.000000000093 Rises=F Damp=F
 DIIS: error= 1.27D-07 at cycle   7 NSaved=   7.
 NSaved= 7 IEnMin= 7 EnMin= -1265.12426599285     IErMin= 7 ErrMin= 1.27D-07
 ErrMax= 1.27D-07  0.00D+00 EMaxC= 1.00D-01 BMatC= 1.13D-11 BMatP= 1.32D-10
 IDIUse=1 WtCom= 1.00D+00 WtEn= 0.00D+00
 Coeff-Com: -0.324D-03 0.232D-01 0.205D-01 0.358D-01 0.105D+00 0.249D+00
 Coeff-Com:  0.567D+00
 Coeff:     -0.324D-03 0.232D-01 0.205D-01 0.358D-01 0.105D+00 0.249D+00
 Coeff:      0.567D+00
 Gap=     0.154 Goal=   None    Shift=    0.000
 RMSDP=8.40D-09 MaxDP=7.88D-07 DE=-9.28D-11 OVMax= 1.23D-06

 SCF Done:  E(RB3LYP) =  -1265.12426599     A.U. after   15 cycles
            NFock= 15  Conv=0.84D-08     -V/T= 2.0087
 KE= 1.254239607384D+03 PE=-8.850978304374D+03 EE= 3.375500744538D+03
 Leave Link  502 at Fri Nov  4 18:16:57 2022, MaxMem=   805306368 cpu:             795.7 elap:             121.6
 (Enter /home/wykgroup/appl/g16/l508.exe)
 QCSCF skips out because SCF is already converged.
 Leave Link  508 at Fri Nov  4 18:16:57 2022, MaxMem=   805306368 cpu:               0.3 elap:               0.1
 (Enter /home/wykgroup/appl/g16/l601.exe)
 Copying SCF densities to generalized density rwf, IOpCl= 0 IROHF=0.

 **********************************************************************

            Population analysis using the SCF Density.

 **********************************************************************

 Orbital symmetries:
       Occupied  (A) (A) (A) (A) (A) (A) (A) (A) (A) (A) (A) (A)
                 (A) (A) (A) (A) (A) (A) (A) (A) (A) (A) (A) (A)
                 (A) (A) (A) (A) (A) (A) (A) (A) (A) (A) (A) (A)
                 (A) (A) (A) (A) (A) (A) (A) (A) (A) (A) (A) (A)
                 (A) (A) (A) (A) (A) (A) (A) (A) (A) (A) (A) (A)
                 (A) (A) (A) (A) (A) (A) (A) (A) (A) (A) (A) (A)
                 (A) (A) (A) (A) (A) (A) (A) (A) (A) (A) (A) (A)
                 (A) (A) (A) (A) (A) (A) (A) (A) (A) (A) (A) (A)
                 (A) (A) (A) (A) (A) (A) (A) (A) (A) (A) (A)
       Virtual   (A) (A) (A) (A) (A) (A) (A) (A) (A) (A) (A) (A)
                 (A) (A) (A) (A) (A) (A) (A) (A) (A) (A) (A) (A)
                 (A) (A) (A) (A) (A) (A) (A) (A) (A) (A) (A) (A)
                 (A) (A) (A) (A) (A) (A) (A) (A) (A) (A) (A) (A)
                 (A) (A) (A) (A) (A) (A) (A) (A) (A) (A) (A) (A)
                 (A) (A) (A) (A) (A) (A) (A) (A) (A) (A) (A) (A)
                 (A) (A) (A) (A) (A) (A) (A) (A) (A) (A) (A) (A)
                 (A) (A) (A) (A) (A) (A) (A) (A) (A) (A) (A) (A)
                 (A) (A) (A) (A) (A) (A) (A) (A) (A) (A) (A) (A)
                 (A) (A) (A) (A) (A) (A) (A) (A) (A) (A) (A) (A)
                 (A) (A) (A) (A) (A) (A) (A) (A) (A) (A) (A) (A)
                 (A) (A) (A) (A) (A) (A) (A) (A) (A) (A) (A) (A)
                 (A) (A) (A) (A) (A) (A) (A) (A) (A) (A) (A) (A)
                 (A) (A) (A) (A) (A) (A) (A) (A) (A) (A) (A) (A)
                 (A) (A) (A) (A) (A) (A) (A) (A) (A) (A) (A) (A)
                 (A) (A) (A) (A) (A) (A) (A) (A) (A) (A) (A) (A)
                 (A) (A) (A) (A) (A) (A) (A) (A) (A) (A) (A) (A)
                 (A) (A) (A) (A) (A) (A) (A) (A) (A) (A) (A) (A)
                 (A) (A) (A) (A) (A) (A) (A) (A) (A) (A) (A) (A)
                 (A) (A) (A) (A) (A) (A) (A) (A) (A) (A) (A) (A)
                 (A) (A) (A) (A) (A) (A) (A) (A) (A) (A) (A) (A)
                 (A) (A) (A) (A) (A) (A) (A) (A) (A) (A) (A) (A)
                 (A) (A) (A) (A) (A) (A) (A) (A) (A) (A) (A) (A)
                 (A) (A) (A) (A) (A) (A) (A) (A) (A) (A) (A) (A)
                 (A) (A) (A) (A) (A) (A) (A) (A) (A) (A) (A) (A)
                 (A) (A) (A) (A) (A) (A) (A) (A) (A) (A) (A) (A)
                 (A) (A) (A) (A) (A) (A) (A) (A) (A) (A) (A) (A)
                 (A) (A) (A) (A) (A) (A) (A) (A) (A) (A) (A) (A)
                 (A) (A) (A) (A) (A) (A) (A) (A) (A) (A) (A) (A)
                 (A) (A) (A) (A) (A) (A) (A) (A) (A) (A) (A) (A)
                 (A) (A) (A) (A) (A) (A) (A) (A) (A) (A) (A) (A)
                 (A) (A) (A) (A) (A) (A) (A) (A) (A) (A) (A) (A)
                 (A) (A) (A) (A) (A) (A) (A) (A)
 The electronic state is 1-A.
 Alpha  occ. eigenvalues --  -19.14001 -19.10524 -14.36055 -14.32986 -14.32407
 Alpha  occ. eigenvalues --  -14.31850 -10.28050 -10.22539 -10.22022 -10.21687
 Alpha  occ. eigenvalues --  -10.21525 -10.21197 -10.21193 -10.21054 -10.21038
 Alpha  occ. eigenvalues --  -10.20878 -10.20875 -10.20706 -10.20643 -10.19978
 Alpha  occ. eigenvalues --  -10.19149 -10.19080 -10.19016 -10.18870 -10.18791
 Alpha  occ. eigenvalues --  -10.18669 -10.18411 -10.16979 -10.16626  -1.03588
 Alpha  occ. eigenvalues --   -1.01714  -0.95834  -0.94677  -0.94395  -0.90892
 Alpha  occ. eigenvalues --   -0.85109  -0.81818  -0.80346  -0.78185  -0.76357
 Alpha  occ. eigenvalues --   -0.75314  -0.75045  -0.74146  -0.72650  -0.69020
 Alpha  occ. eigenvalues --   -0.68070  -0.65641  -0.64927  -0.63638  -0.63014
 Alpha  occ. eigenvalues --   -0.62643  -0.60676  -0.60128  -0.56726  -0.55045
 Alpha  occ. eigenvalues --   -0.53682  -0.53087  -0.51872  -0.51524  -0.50877
 Alpha  occ. eigenvalues --   -0.49566  -0.48677  -0.48190  -0.47651  -0.47077
 Alpha  occ. eigenvalues --   -0.46465  -0.45831  -0.45630  -0.44685  -0.44098
 Alpha  occ. eigenvalues --   -0.43686  -0.43359  -0.42619  -0.42246  -0.42054
 Alpha  occ. eigenvalues --   -0.41439  -0.41158  -0.40992  -0.40595  -0.39612
 Alpha  occ. eigenvalues --   -0.39365  -0.38637  -0.38149  -0.37667  -0.37556
 Alpha  occ. eigenvalues --   -0.36702  -0.36480  -0.35739  -0.35477  -0.35022
 Alpha  occ. eigenvalues --   -0.34532  -0.34267  -0.34023  -0.33928  -0.33131
 Alpha  occ. eigenvalues --   -0.31647  -0.30824  -0.30473  -0.30008  -0.26098
 Alpha  occ. eigenvalues --   -0.25466  -0.24870  -0.24031  -0.23639  -0.22457
 Alpha  occ. eigenvalues --   -0.22327  -0.20234
 Alpha virt. eigenvalues --   -0.04857  -0.00986   0.01855   0.03649   0.06274
 Alpha virt. eigenvalues --    0.07613   0.08474   0.09001   0.09616   0.09823
 Alpha virt. eigenvalues --    0.09940   0.11017   0.12056   0.12163   0.12937
 Alpha virt. eigenvalues --    0.13267   0.13538   0.14336   0.14572   0.14713
 Alpha virt. eigenvalues --    0.15480   0.15753   0.16327   0.16594   0.17211
 Alpha virt. eigenvalues --    0.17313   0.17651   0.17756   0.18087   0.18640
 Alpha virt. eigenvalues --    0.18813   0.18982   0.19485   0.19812   0.20065
 Alpha virt. eigenvalues --    0.20555   0.20703   0.21527   0.21708   0.21945
 Alpha virt. eigenvalues --    0.22056   0.23438   0.23971   0.24374   0.24998
 Alpha virt. eigenvalues --    0.25358   0.25896   0.26218   0.27056   0.27321
 Alpha virt. eigenvalues --    0.27548   0.28662   0.29418   0.29723   0.29859
 Alpha virt. eigenvalues --    0.30986   0.31591   0.32221   0.32947   0.33861
 Alpha virt. eigenvalues --    0.34763   0.35358   0.36783   0.37676   0.40221
 Alpha virt. eigenvalues --    0.42892   0.45301   0.47403   0.48783   0.49596
 Alpha virt. eigenvalues --    0.49754   0.50897   0.51538   0.52019   0.52601
 Alpha virt. eigenvalues --    0.53019   0.53462   0.54173   0.54712   0.55020
 Alpha virt. eigenvalues --    0.55527   0.55779   0.56186   0.56621   0.57261
 Alpha virt. eigenvalues --    0.57517   0.57691   0.58599   0.59283   0.59752
 Alpha virt. eigenvalues --    0.60049   0.60782   0.60996   0.61316   0.61547
 Alpha virt. eigenvalues --    0.61905   0.62259   0.62994   0.63299   0.64162
 Alpha virt. eigenvalues --    0.65429   0.65743   0.65950   0.66961   0.67482
 Alpha virt. eigenvalues --    0.67820   0.68723   0.69742   0.70280   0.70837
 Alpha virt. eigenvalues --    0.71423   0.72163   0.73203   0.74083   0.74724
 Alpha virt. eigenvalues --    0.75410   0.76637   0.77249   0.77785   0.78612
 Alpha virt. eigenvalues --    0.79599   0.79742   0.80079   0.80522   0.80747
 Alpha virt. eigenvalues --    0.81515   0.82107   0.82638   0.82868   0.83273
 Alpha virt. eigenvalues --    0.83901   0.84203   0.84710   0.84882   0.85243
 Alpha virt. eigenvalues --    0.85906   0.86543   0.86856   0.87124   0.87839
 Alpha virt. eigenvalues --    0.88101   0.88353   0.89033   0.89164   0.89549
 Alpha virt. eigenvalues --    0.90615   0.90886   0.91116   0.92009   0.92171
 Alpha virt. eigenvalues --    0.92705   0.93198   0.93263   0.93945   0.94609
 Alpha virt. eigenvalues --    0.94837   0.95398   0.95708   0.96168   0.96508
 Alpha virt. eigenvalues --    0.96697   0.97911   0.98098   0.99554   0.99994
 Alpha virt. eigenvalues --    1.01573   1.02052   1.02439   1.03248   1.03481
 Alpha virt. eigenvalues --    1.04245   1.06401   1.08116   1.08991   1.09343
 Alpha virt. eigenvalues --    1.10775   1.11165   1.11721   1.12332   1.13337
 Alpha virt. eigenvalues --    1.13776   1.16060   1.17467   1.18784   1.19944
 Alpha virt. eigenvalues --    1.20643   1.22058   1.22463   1.23369   1.24857
 Alpha virt. eigenvalues --    1.24989   1.25960   1.26406   1.27839   1.29245
 Alpha virt. eigenvalues --    1.29609   1.34283   1.35227   1.35519   1.36464
 Alpha virt. eigenvalues --    1.38465   1.38994   1.39792   1.41381   1.41922
 Alpha virt. eigenvalues --    1.42251   1.42824   1.43643   1.45885   1.46925
 Alpha virt. eigenvalues --    1.47383   1.48307   1.49301   1.49789   1.51301
 Alpha virt. eigenvalues --    1.52268   1.52666   1.52797   1.53834   1.55447
 Alpha virt. eigenvalues --    1.58440   1.59957   1.61005   1.61193   1.64564
 Alpha virt. eigenvalues --    1.66132   1.66734   1.68167   1.69542   1.70188
 Alpha virt. eigenvalues --    1.71850   1.72824   1.74417   1.74714   1.75913
 Alpha virt. eigenvalues --    1.77617   1.79263   1.79541   1.80131   1.81591
 Alpha virt. eigenvalues --    1.82870   1.83209   1.84042   1.84716   1.85058
 Alpha virt. eigenvalues --    1.86407   1.87358   1.87644   1.88448   1.89123
 Alpha virt. eigenvalues --    1.89601   1.89888   1.90500   1.91467   1.92992
 Alpha virt. eigenvalues --    1.93839   1.94272   1.94861   1.95360   1.96668
 Alpha virt. eigenvalues --    1.97378   1.98128   1.98625   2.00246   2.00778
 Alpha virt. eigenvalues --    2.01484   2.02021   2.03069   2.03398   2.03412
 Alpha virt. eigenvalues --    2.05014   2.06175   2.06683   2.07132   2.08058
 Alpha virt. eigenvalues --    2.08860   2.09403   2.10179   2.11700   2.12574
 Alpha virt. eigenvalues --    2.13020   2.14597   2.14916   2.15927   2.16612
 Alpha virt. eigenvalues --    2.17655   2.18266   2.19168   2.19909   2.21047
 Alpha virt. eigenvalues --    2.22227   2.22699   2.23453   2.24448   2.25762
 Alpha virt. eigenvalues --    2.26193   2.26693   2.27399   2.28617   2.30538
 Alpha virt. eigenvalues --    2.30630   2.31089   2.32672   2.33422   2.34427
 Alpha virt. eigenvalues --    2.35571   2.36400   2.37640   2.40497   2.41172
 Alpha virt. eigenvalues --    2.41793   2.42503   2.42782   2.43810   2.45458
 Alpha virt. eigenvalues --    2.46977   2.47502   2.49088   2.49692   2.50592
 Alpha virt. eigenvalues --    2.51660   2.53461   2.54772   2.55942   2.56172
 Alpha virt. eigenvalues --    2.58673   2.60642   2.61226   2.62547   2.63236
 Alpha virt. eigenvalues --    2.63389   2.64402   2.64875   2.67087   2.69587
 Alpha virt. eigenvalues --    2.70480   2.71956   2.73032   2.73174   2.74373
 Alpha virt. eigenvalues --    2.74813   2.75811   2.76083   2.76993   2.80344
 Alpha virt. eigenvalues --    2.81833   2.82325   2.83286   2.87196   2.87854
 Alpha virt. eigenvalues --    2.88667   2.90864   2.92074   2.94715   2.95238
 Alpha virt. eigenvalues --    2.96294   2.98976   3.02352   3.06226   3.14180
 Alpha virt. eigenvalues --    3.23038   3.43961   3.50430   3.84923   4.05588
 Alpha virt. eigenvalues --    4.07870   4.09827   4.11137   4.12897   4.14831
 Alpha virt. eigenvalues --    4.15931   4.20046   4.23094   4.26370   4.27263
 Alpha virt. eigenvalues --    4.27875   4.31101   4.31770   4.34681   4.36563
 Alpha virt. eigenvalues --    4.39105   4.40857   4.46154   4.50682   4.53866
 Alpha virt. eigenvalues --    4.55514   4.58085   4.61339   4.62765   4.69209
 Alpha virt. eigenvalues --    4.76839   4.83718
          Condensed to atoms (all electrons):
 Mulliken charges:
               1
     1  C   -0.290017
     2  N   -0.376735
     3  C   -0.121761
     4  C   -0.173163
     5  N   -0.401481
     6  C    0.064442
     7  C   -0.311117
     8  C   -0.154936
     9  N   -0.390478
    10  C    0.501726
    11  O   -0.506778
    12  C    0.018065
    13  C   -0.207052
    14  C    0.035815
    15  N   -0.493379
    16  C    0.231958
    17  C   -0.137627
    18  C   -0.134872
    19  C   -0.132636
    20  C   -0.198196
    21  C    0.135304
    22  C   -0.182982
    23  C   -0.099090
    24  C   -0.296708
    25  C   -0.299406
    26  C   -0.034576
    27  O   -0.611917
    28  C   -0.142318
    29  C   -0.138594
    30  H    0.148966
    31  H    0.149425
    32  H    0.119719
    33  H    0.138958
    34  H    0.110762
    35  H    0.145212
    36  H    0.151871
    37  H    0.130350
    38  H    0.143815
    39  H    0.161075
    40  H    0.143746
    41  H    0.173943
    42  H    0.198484
    43  H    0.141095
    44  H    0.142230
    45  H    0.132167
    46  H    0.131661
    47  H    0.145365
    48  H    0.133156
    49  H    0.194320
    50  H    0.128185
    51  H    0.127266
    52  H    0.181501
    53  H    0.182668
    54  H    0.112573
    55  H    0.137334
    56  H    0.114066
    57  H    0.389646
    58  H    0.138367
    59  H    0.147316
    60  H    0.112253
    61  H    0.141010
 Sum of Mulliken charges =  -0.00000
 Mulliken charges with hydrogens summed into heavy atoms:
               1
     1  C    0.128093
     2  N   -0.376735
     3  C    0.127959
     4  C    0.123920
     5  N   -0.401481
     6  C    0.194792
     7  C   -0.006226
     8  C    0.162753
     9  N   -0.390478
    10  C    0.501726
    11  O   -0.506778
    12  C    0.018065
    13  C   -0.008568
    14  C    0.176909
    15  N   -0.493379
    16  C    0.231958
    17  C    0.004603
    18  C   -0.002704
    19  C   -0.000975
    20  C   -0.052830
    21  C    0.135304
    22  C    0.144494
    23  C    0.029096
    24  C    0.012059
    25  C   -0.004165
    26  C    0.216824
    27  O   -0.222271
    28  C    0.143364
    29  C    0.114669
 Electronic spatial extent (au):  <R**2>=          13017.1289
 Charge=             -0.0000 electrons
 Dipole moment (field-independent basis, Debye):
    X=             -5.9630    Y=             -2.4156    Z=             -1.2958  Tot=              6.5629
 Quadrupole moment (field-independent basis, Debye-Ang):
   XX=           -176.4018   YY=           -160.7723   ZZ=           -177.7835
   XY=             -9.4807   XZ=             -1.9807   YZ=             -6.6634
 Traceless Quadrupole moment (field-independent basis, Debye-Ang):
   XX=             -4.7493   YY=             10.8803   ZZ=             -6.1309
   XY=             -9.4807   XZ=             -1.9807   YZ=             -6.6634
 Octapole moment (field-independent basis, Debye-Ang**2):
  XXX=           -130.4699  YYY=             44.5930  ZZZ=             -1.4491  XYY=              0.4853
  XXY=            -44.3610  XXZ=             15.2886  XZZ=            -44.8032  YZZ=             -5.6249
  YYZ=             -4.8392  XYZ=            -17.7339
[...]
     50          1           0       -2.527993    0.981898    2.055343
     51          1           0       -2.996825    2.814904    0.893796
     52          1           0       -1.392488    3.140438    1.513036
     53          1           0       -2.096171    2.471739   -1.393413
     54          1           0       -1.948566    4.073556   -0.709628
     55          1           0        0.352927    2.095178   -1.072029
     56          1           0        0.029379    3.562235   -1.999447
     57          1           0        0.450069    4.686697    0.012208
     58          1           0       -5.320763    1.224408    0.094570
     59          1           0       -4.369565    0.531168    1.403055
     60          1           0       -6.400735   -0.799696   -0.394246
     61          1           0       -5.999149   -1.125511    1.293620
 ---------------------------------------------------------------------
 Rotational constants (GHZ):           0.2686655           0.0945632           0.0799600
 Leave Link  202 at Fri Nov  4 19:36:33 2022, MaxMem=   805306368 cpu:               0.7 elap:               0.1
 (Enter /home/wykgroup/appl/g16/l601.exe)
 Copying SCF densities to generalized density rwf, IOpCl= 0 IROHF=0.

 **********************************************************************

            Population analysis using the SCF Density.

 **********************************************************************

 Orbital symmetries:
       Occupied  (A) (A) (A) (A) (A) (A) (A) (A) (A) (A) (A) (A)
                 (A) (A) (A) (A) (A) (A) (A) (A) (A) (A) (A) (A)
                 (A) (A) (A) (A) (A) (A) (A) (A) (A) (A) (A) (A)
                 (A) (A) (A) (A) (A) (A) (A) (A) (A) (A) (A) (A)
                 (A) (A) (A) (A) (A) (A) (A) (A) (A) (A) (A) (A)
                 (A) (A) (A) (A) (A) (A) (A) (A) (A) (A) (A) (A)
                 (A) (A) (A) (A) (A) (A) (A) (A) (A) (A) (A) (A)
                 (A) (A) (A) (A) (A) (A) (A) (A) (A) (A) (A) (A)
                 (A) (A) (A) (A) (A) (A) (A) (A) (A) (A) (A)
       Virtual   (A) (A) (A) (A) (A) (A) (A) (A) (A) (A) (A) (A)
                 (A) (A) (A) (A) (A) (A) (A) (A) (A) (A) (A) (A)
                 (A) (A) (A) (A) (A) (A) (A) (A) (A) (A) (A) (A)
                 (A) (A) (A) (A) (A) (A) (A) (A) (A) (A) (A) (A)
                 (A) (A) (A) (A) (A) (A) (A) (A) (A) (A) (A) (A)
                 (A) (A) (A) (A) (A) (A) (A) (A) (A) (A) (A) (A)
                 (A) (A) (A) (A) (A) (A) (A) (A) (A) (A) (A) (A)
                 (A) (A) (A) (A) (A) (A) (A) (A) (A) (A) (A) (A)
                 (A) (A) (A) (A) (A) (A) (A) (A) (A) (A) (A) (A)
                 (A) (A) (A) (A) (A) (A) (A) (A) (A) (A) (A) (A)
                 (A) (A) (A) (A) (A) (A) (A) (A) (A) (A) (A) (A)
                 (A) (A) (A) (A) (A) (A) (A) (A) (A) (A) (A) (A)
                 (A) (A) (A) (A) (A) (A) (A) (A) (A) (A) (A) (A)
                 (A) (A) (A) (A) (A) (A) (A) (A) (A) (A) (A) (A)
                 (A) (A) (A) (A) (A) (A) (A) (A) (A) (A) (A) (A)
                 (A) (A) (A) (A) (A) (A) (A) (A) (A) (A) (A) (A)
                 (A) (A) (A) (A) (A) (A) (A) (A) (A) (A) (A) (A)
                 (A) (A) (A) (A) (A) (A) (A) (A) (A) (A) (A) (A)
                 (A) (A) (A) (A) (A) (A) (A) (A) (A) (A) (A) (A)
                 (A) (A) (A) (A) (A) (A) (A) (A) (A) (A) (A) (A)
                 (A) (A) (A) (A) (A) (A) (A) (A) (A) (A) (A) (A)
                 (A) (A) (A) (A) (A) (A) (A) (A) (A) (A) (A) (A)
                 (A) (A) (A) (A) (A) (A) (A) (A) (A) (A) (A) (A)
                 (A) (A) (A) (A) (A) (A) (A) (A) (A) (A) (A) (A)
                 (A) (A) (A) (A) (A) (A) (A) (A) (A) (A) (A) (A)
                 (A) (A) (A) (A) (A) (A) (A) (A) (A) (A) (A) (A)
                 (A) (A) (A) (A) (A) (A) (A) (A) (A) (A) (A) (A)
                 (A) (A) (A) (A) (A) (A) (A) (A) (A) (A) (A) (A)
                 (A) (A) (A) (A) (A) (A) (A) (A) (A) (A) (A) (A)
                 (A) (A) (A) (A) (A) (A) (A) (A) (A) (A) (A) (A)
                 (A) (A) (A) (A) (A) (A) (A) (A) (A) (A) (A) (A)
                 (A) (A) (A) (A) (A) (A) (A) (A) (A) (A) (A) (A)
                 (A) (A) (A) (A) (A) (A) (A) (A)
 The electronic state is 1-A.
 Alpha  occ. eigenvalues --  -19.14428 -19.10854 -14.35953 -14.33000 -14.32581
 Alpha  occ. eigenvalues --  -14.32217 -10.28293 -10.22732 -10.22425 -10.22001
 Alpha  occ. eigenvalues --  -10.21893 -10.21660 -10.21296 -10.21201 -10.21091
 Alpha  occ. eigenvalues --  -10.21067 -10.21052 -10.21031 -10.20742 -10.20319
 Alpha  occ. eigenvalues --  -10.19425 -10.19363 -10.19305 -10.19207 -10.19205
 Alpha  occ. eigenvalues --  -10.19116 -10.18671 -10.17958 -10.17891  -1.02841
 Alpha  occ. eigenvalues --   -1.01326  -0.94690  -0.93641  -0.93438  -0.90079
 Alpha  occ. eigenvalues --   -0.84492  -0.81309  -0.80076  -0.77920  -0.75967
 Alpha  occ. eigenvalues --   -0.75329  -0.74649  -0.73804  -0.72193  -0.68640
 Alpha  occ. eigenvalues --   -0.67971  -0.65251  -0.64739  -0.63184  -0.62683
 Alpha  occ. eigenvalues --   -0.62505  -0.60454  -0.59725  -0.56255  -0.54849
 Alpha  occ. eigenvalues --   -0.53038  -0.52742  -0.51698  -0.50979  -0.50432
 Alpha  occ. eigenvalues --   -0.49230  -0.48677  -0.48151  -0.46817  -0.46553
 Alpha  occ. eigenvalues --   -0.46173  -0.45519  -0.45347  -0.44607  -0.44025
 Alpha  occ. eigenvalues --   -0.43240  -0.43044  -0.42886  -0.41988  -0.41868
 Alpha  occ. eigenvalues --   -0.41222  -0.40992  -0.40625  -0.40138  -0.39417
 Alpha  occ. eigenvalues --   -0.39249  -0.38377  -0.38050  -0.37488  -0.37200
 Alpha  occ. eigenvalues --   -0.36311  -0.36258  -0.35650  -0.35410  -0.35334
 Alpha  occ. eigenvalues --   -0.34586  -0.34123  -0.33746  -0.33639  -0.33294
 Alpha  occ. eigenvalues --   -0.31317  -0.31183  -0.30599  -0.30069  -0.26534
 Alpha  occ. eigenvalues --   -0.25638  -0.24706  -0.24128  -0.23540  -0.22275
 Alpha  occ. eigenvalues --   -0.21911  -0.20484
 Alpha virt. eigenvalues --   -0.04837  -0.01111   0.02055   0.02357   0.06000
 Alpha virt. eigenvalues --    0.07034   0.08712   0.08778   0.09401   0.09748
 Alpha virt. eigenvalues --    0.10162   0.10940   0.11860   0.12129   0.12739
 Alpha virt. eigenvalues --    0.12890   0.13561   0.13800   0.14307   0.14522
 Alpha virt. eigenvalues --    0.15143   0.15521   0.15817   0.16165   0.16718
 Alpha virt. eigenvalues --    0.16985   0.17224   0.17492   0.17795   0.18251
 Alpha virt. eigenvalues --    0.18438   0.18693   0.19043   0.19423   0.19656
 Alpha virt. eigenvalues --    0.20116   0.20376   0.20669   0.20900   0.21198
 Alpha virt. eigenvalues --    0.22324   0.22580   0.22788   0.23492   0.23985
 Alpha virt. eigenvalues --    0.24118   0.25244   0.25525   0.26513   0.26556
 Alpha virt. eigenvalues --    0.26888   0.27529   0.27877   0.28652   0.29655
 Alpha virt. eigenvalues --    0.30300   0.30456   0.31541   0.32560   0.33302
 Alpha virt. eigenvalues --    0.33789   0.34738   0.35675   0.37358   0.38513
 Alpha virt. eigenvalues --    0.41614   0.45028   0.46196   0.48298   0.48889
 Alpha virt. eigenvalues --    0.50422   0.50657   0.51088   0.51739   0.52185
 Alpha virt. eigenvalues --    0.52831   0.53133   0.53196   0.53840   0.54737
 Alpha virt. eigenvalues --    0.55138   0.55449   0.55940   0.56382   0.57014
 Alpha virt. eigenvalues --    0.57131   0.57427   0.57834   0.58702   0.59304
 Alpha virt. eigenvalues --    0.59853   0.59858   0.60651   0.60872   0.61297
 Alpha virt. eigenvalues --    0.61641   0.62150   0.62435   0.62775   0.63613
 Alpha virt. eigenvalues --    0.64096   0.64709   0.65171   0.65760   0.66756
 Alpha virt. eigenvalues --    0.67491   0.68076   0.69234   0.69983   0.70244
 Alpha virt. eigenvalues --    0.70514   0.71672   0.72504   0.72905   0.73803
 Alpha virt. eigenvalues --    0.74534   0.75261   0.76077   0.77555   0.78418
 Alpha virt. eigenvalues --    0.79136   0.79273   0.79891   0.80753   0.81205
 Alpha virt. eigenvalues --    0.81596   0.82023   0.82395   0.82748   0.83117
 Alpha virt. eigenvalues --    0.83446   0.84320   0.84614   0.84819   0.85037
 Alpha virt. eigenvalues --    0.85723   0.86052   0.86563   0.86825   0.87362
 Alpha virt. eigenvalues --    0.87829   0.88048   0.88365   0.88866   0.89448
 Alpha virt. eigenvalues --    0.89592   0.90387   0.90563   0.91327   0.92021
 Alpha virt. eigenvalues --    0.92658   0.92830   0.93130   0.93667   0.93926
 Alpha virt. eigenvalues --    0.94487   0.95029   0.95278   0.95941   0.96574
 Alpha virt. eigenvalues --    0.96983   0.97676   0.98280   0.98826   0.99021
 Alpha virt. eigenvalues --    1.00890   1.01507   1.01893   1.02426   1.02621
 Alpha virt. eigenvalues --    1.04122   1.04423   1.05010   1.06557   1.07318
 Alpha virt. eigenvalues --    1.08184   1.09504   1.10040   1.10932   1.11902
 Alpha virt. eigenvalues --    1.12277   1.12702   1.16111   1.17198   1.18284
 Alpha virt. eigenvalues --    1.19529   1.20827   1.21162   1.22445   1.22993
 Alpha virt. eigenvalues --    1.24322   1.24564   1.25552   1.26051   1.27852
 Alpha virt. eigenvalues --    1.29364   1.31402   1.31568   1.34040   1.35862
 Alpha virt. eigenvalues --    1.36442   1.38597   1.39134   1.39814   1.40410
 Alpha virt. eigenvalues --    1.40851   1.41468   1.43450   1.45465   1.45988
 Alpha virt. eigenvalues --    1.46346   1.48020   1.49360   1.49696   1.50651
 Alpha virt. eigenvalues --    1.51157   1.51665   1.52182   1.53957   1.55376
 Alpha virt. eigenvalues --    1.57469   1.57536   1.60225   1.60727   1.63619
 Alpha virt. eigenvalues --    1.63954   1.64913   1.67912   1.68403   1.68787
 Alpha virt. eigenvalues --    1.69635   1.71846   1.72016   1.72899   1.73194
 Alpha virt. eigenvalues --    1.75401   1.77360   1.77990   1.78908   1.79925
 Alpha virt. eigenvalues --    1.80015   1.81751   1.82823   1.83277   1.84314
 Alpha virt. eigenvalues --    1.85118   1.85356   1.85810   1.86865   1.88181
 Alpha virt. eigenvalues --    1.89144   1.89209   1.89857   1.90630   1.91122
 Alpha virt. eigenvalues --    1.91980   1.92739   1.93014   1.93311   1.95261
 Alpha virt. eigenvalues --    1.96235   1.96714   1.97374   1.97944   1.99110
 Alpha virt. eigenvalues --    1.99989   2.00783   2.01079   2.01777   2.02697
 Alpha virt. eigenvalues --    2.02959   2.04156   2.04990   2.05311   2.06249
 Alpha virt. eigenvalues --    2.06736   2.07244   2.08680   2.10151   2.10382
 Alpha virt. eigenvalues --    2.11463   2.13008   2.14403   2.14643   2.15868
 Alpha virt. eigenvalues --    2.16266   2.16419   2.17404   2.18881   2.19775
 Alpha virt. eigenvalues --    2.20761   2.21442   2.22379   2.23125   2.24327
 Alpha virt. eigenvalues --    2.24681   2.25213   2.26346   2.27564   2.28073
 Alpha virt. eigenvalues --    2.29240   2.30066   2.32265   2.32427   2.32472
 Alpha virt. eigenvalues --    2.33442   2.35480   2.36372   2.38087   2.38558
 Alpha virt. eigenvalues --    2.39780   2.40640   2.41467   2.41933   2.42680
 Alpha virt. eigenvalues --    2.44842   2.45020   2.46515   2.48151   2.49186
 Alpha virt. eigenvalues --    2.49581   2.50740   2.52794   2.53342   2.55784
 Alpha virt. eigenvalues --    2.58163   2.59804   2.60076   2.60913   2.61687
 Alpha virt. eigenvalues --    2.62296   2.63834   2.64948   2.66042   2.68478
 Alpha virt. eigenvalues --    2.68930   2.69492   2.70853   2.71512   2.72471
 Alpha virt. eigenvalues --    2.73171   2.73500   2.74440   2.75976   2.77959
 Alpha virt. eigenvalues --    2.78948   2.81001   2.81845   2.85677   2.86159
 Alpha virt. eigenvalues --    2.86650   2.88620   2.89783   2.93410   2.93659
 Alpha virt. eigenvalues --    2.94498   2.97747   2.99877   3.03023   3.11379
 Alpha virt. eigenvalues --    3.18679   3.40223   3.46106   3.80728   4.01820
 Alpha virt. eigenvalues --    4.07306   4.08560   4.10758   4.11931   4.12814
 Alpha virt. eigenvalues --    4.13476   4.17373   4.21095   4.25241   4.25778
 Alpha virt. eigenvalues --    4.26284   4.28687   4.29220   4.33363   4.35458
 Alpha virt. eigenvalues --    4.35621   4.39682   4.43382   4.46865   4.52108
 Alpha virt. eigenvalues --    4.53214   4.56810   4.58633   4.60338   4.64305
 Alpha virt. eigenvalues --    4.70981   4.81848
          Condensed to atoms (all electrons):
 Mulliken charges:
               1
     1  C   -0.291248
     2  N   -0.377586
     3  C   -0.118984
     4  C   -0.176602
     5  N   -0.405509
     6  C    0.068593
     7  C   -0.308191
     8  C   -0.148079
     9  N   -0.422466
    10  C    0.510654
    11  O   -0.494857
    12  C    0.014778
    13  C   -0.198265
    14  C    0.041134
    15  N   -0.495738
    16  C    0.228837
    17  C   -0.140304
    18  C   -0.136491
    19  C   -0.133467
    20  C   -0.199084
    21  C    0.135609
    22  C   -0.149407
    23  C   -0.119641
    24  C   -0.248091
    25  C   -0.290534
    26  C   -0.035755
    27  O   -0.609437
    28  C   -0.133017
    29  C   -0.143186
    30  H    0.149165
    31  H    0.148898
    32  H    0.119340
    33  H    0.138047
    34  H    0.109957
    35  H    0.146292
    36  H    0.150801
    37  H    0.124614
    38  H    0.145155
    39  H    0.156330
    40  H    0.144005
    41  H    0.170964
    42  H    0.184700
    43  H    0.139959
    44  H    0.143973
    45  H    0.133835
    46  H    0.133386
    47  H    0.145307
    48  H    0.133089
    49  H    0.194052
    50  H    0.129659
    51  H    0.134512
    52  H    0.138485
    53  H    0.153992
    54  H    0.117876
    55  H    0.148817
    56  H    0.116330
    57  H    0.388882
    58  H    0.136535
    59  H    0.145861
    60  H    0.112452
    61  H    0.141063
 Sum of Mulliken charges =  -0.00000
 Mulliken charges with hydrogens summed into heavy atoms:
               1
     1  C    0.126155
     2  N   -0.377586
     3  C    0.129020
     4  C    0.120491
     5  N   -0.405509
     6  C    0.193208
     7  C   -0.006705
     8  C    0.166890
     9  N   -0.422466
    10  C    0.510654
    11  O   -0.494857
    12  C    0.014778
    13  C   -0.013565
    14  C    0.181093
    15  N   -0.495738
    16  C    0.228837
    17  C    0.003669
    18  C   -0.002656
    19  C   -0.000081
    20  C   -0.053777
    21  C    0.135609
    22  C    0.177734
    23  C    0.010018
    24  C    0.024907
    25  C   -0.018666
    26  C    0.229392
    27  O   -0.220555
    28  C    0.149380
    29  C    0.110328
 Electronic spatial extent (au):  <R**2>=          13739.2911
 Charge=             -0.0000 electrons
 Dipole moment (field-independent basis, Debye):
    X=             -5.8881    Y=             -1.4819    Z=             -1.6244  Tot=              6.2853
 Quadrupole moment (field-independent basis, Debye-Ang):
   XX=           -179.9442   YY=           -156.7966   ZZ=           -177.8013
   XY=             -7.1701   XZ=             -3.2102   YZ=             -7.6842
 Traceless Quadrupole moment (field-independent basis, Debye-Ang):
   XX=             -8.4301   YY=             14.7174   ZZ=             -6.2873
   XY=             -7.1701   XZ=             -3.2102   YZ=             -7.6842
 Octapole moment (field-independent basis, Debye-Ang**2):
  XXX=           -150.0407  YYY=             60.4830  ZZZ=             -2.3584  XYY=             11.9107
  XXY=            -45.0889  XXZ=             17.3676  XZZ=            -46.1500  YZZ=             -2.0736
  YYZ=             -5.2036  XYZ=            -24.2507
 Hexadecapole moment (field-independent basis, Debye-Ang**3):
 XXXX=         -13397.5860 YYYY=          -3464.2578 ZZZZ=          -1449.9330 XXXY=            -88.4161
 XXXZ=             33.8621 YYYX=            -53.1894 YYYZ=            -54.5313 ZZZX=             -7.3678
 ZZZY=            -31.7404 XXYY=          -2662.4313 XXZZ=          -2532.5519 YYZZ=           -889.6534
 XXYZ=            -42.2661 YYXZ=            -24.1706 ZZXY=              2.1963
 N-N= 2.905403006059D+03 E-N=-8.748845651734D+03  KE= 1.253132732261D+03
 No NMR shielding tensors so no spin-rotation constants.
 Leave Link  601 at Fri Nov  4 19:36:34 2022, MaxMem=   805306368 cpu:               4.3 elap:               0.8
 (Enter /home/wykgroup/appl/g16/l9999.exe)
 1\1\GINC-NODE07\FOpt\RB3LYP\6-31G(d)\C23H32N4O2\WYKGROUP\04-Nov-2022\0
 \\#p b3lyp/6-31g(d) opt SCF=XQC\\Gaussian input prepared by ASE\\0,1\C
 ,-4.5855319917,3.4976642132,-0.449889517\N,-4.0144970291,2.1867592511,
 -0.1976681544\C,-3.5339574199,2.053691638,1.1788277134\C,-3.2446204155
 ,0.5643843138,1.4972962083\N,-2.9262104269,-0.2427268816,0.3203183589\
 C,-1.6493734534,0.0494273296,-0.3710574434\C,-0.5007025452,0.311531321
 ,0.6227742068\C,0.8455050068,0.5343122053,-0.0824058462\N,1.1496620769
 ,-0.524791919,-1.0422309645\C,2.4197056594,-0.9586260923,-1.3473264474
 \O,2.683482703,-1.5857497421,-2.3667127889\C,3.515470617,-0.6951803396
 ,-0.3363777048\C,3.8502447806,-1.6811497649,0.5678239358\C,4.926196796
 4,-1.4562192819,1.4608186834\N,5.6522206386,-0.3570238057,1.4944188488
 \C,5.3538158301,0.6213345842,0.5888419992\C,6.1390298758,1.8047650244,
 0.5998420512\C,5.8921120083,2.8186833572,-0.2976048129\C,4.8512935886,
 2.6938089206,-1.2504429007\C,4.0687296522,1.5612430217,-1.2844038829\C
 ,4.2925368884,0.5004188439,-0.3659559467\C,0.0886707219,-0.7781700917,
 -2.0122078979\C,-1.2715467135,-1.0917403656,-1.3610129679\C,-1.4596820
 578,-2.5626791175,-0.8806942735\C,-1.1063477536,-3.0441402148,0.540838
 5857\C,0.3704725838,-3.1531445774,0.9242899573\O,1.1626394863,-3.88541
 4788,-0.0081311608\C,-4.1090944372,-0.2469677133,-0.5608474186\C,-4.90
 76959102,1.0866688674,-0.5397072831\H,-3.8425455185,4.2707878213,-0.22
 18504458\H,-4.8583674671,3.5883879384,-1.5071819445\H,-5.4876868037,3.
 7065921505,0.1588617743\H,-2.6304247625,2.6685906498,1.2861192383\H,-4
 .2721887928,2.4398452036,1.9121564219\H,-4.1376038903,0.1125468148,1.9
 481428665\H,-2.4557504723,0.4818923977,2.2485885363\H,-1.7461224918,0.
 9663792861,-0.9802338544\H,-0.7020852529,1.2179947762,1.204044971\H,-0
 .4165282401,-0.5117461928,1.3370801718\H,0.8172686847,1.5027570888,-0.
 6093689628\H,1.6462420695,0.5923868651,0.6569536822\H,3.3043023776,-2.
 6201463609,0.5867695388\H,5.1884364349,-2.2294494624,2.1828926586\H,6.
 9355606717,1.869060022,1.3345943339\H,6.5006579413,3.7188911872,-0.283
 6687551\H,4.675487923,3.4955617787,-1.9624611772\H,3.2858090464,1.4592
 822278,-2.0311115211\H,-0.024902738,0.1119120608,-2.654177799\H,0.4180
 43685,-1.5981993895,-2.6503957798\H,-1.9650316119,-1.0110205928,-2.209
 5561568\H,-2.5262281076,-2.7871109127,-1.0014727032\H,-0.9355920144,-3
 .2046673654,-1.6005149546\H,-1.6231712603,-2.4234213693,1.2816137167\H
 ,-1.5474329565,-4.048725261,0.6430063566\H,0.8427108114,-2.1713585928,
 0.9668798423\H,0.4451920326,-3.5953527902,1.9319008908\H,0.8236195411,
 -4.7936103185,-0.0452492429\H,-4.7770236454,-1.0676906985,-0.262124753
 \H,-3.7869173175,-0.4563967424,-1.5825416792\H,-5.7630829515,1.0176669
 787,0.1636102421\H,-5.3371736844,1.2773916059,-1.5297476508\\Version=E
 S64L-G16RevB.01\State=1-A\HF=-1265.1350294\RMSD=3.922e-09\RMSF=4.493e-
 06\Dipole=-2.2900319,0.7086709,0.6069351\Quadrupole=-5.7508505,10.0698
 783,-4.3190279,6.2059651,1.937592,-6.1927602\PG=C01 [X(C23H32N4O2)]\\@


 THE VALUE OF PHILOSOPHY IS, IN FACT, TO BE SOUGHT LARGELY IN ITS
 VERY UNCERTAINTY.  THE MAN WHO HAS NO TINCTURE OF PHILOSOPHY GOES
 THROUGH LIFE IMPRISONED IN THE PREJUDICES DERIVED FROM COMMON SENSE,
 FROM THE HABITUAL BELIEFS OF HIS AGE OR HIS NATION, AND FROM
 CONVICTIONS WHICH HAVE GROWN UP IN HIS MIND WITHOUT THE CO-OPERATION
 OR CONSENT OF HIS DELIBERATE REASON.  TO SUCH A MAN THE WORLD TENDS
 TO BE DEFINITE, FINITE, OBVIOUS; COMMON OBJECTS ROUSE NO QUESTIONS,
 AND UNFAMILIAR POSSIBILITIES ARE CONTEMPTUOUSLY REJECTED.

                             -- BERTRAND RUSSELL
 Job cpu time:       0 days  8 hours 45 minutes 12.6 seconds.
 Elapsed time:       0 days  1 hours 21 minutes 40.3 seconds.
 File lengths (MBytes):  RWF=    160 Int=      0 D2E=      0 Chk=     22 Scr=      1
 Normal termination of Gaussian 16 at Fri Nov  4 19:36:34 2022.
