 Entering Gaussian System, Link 0=/home/wykgroup/appl/g16/g16
 Input=./calculation/no_transfer_pubchem_sampling_0_b3lyp/82834053.com
 Output=./calculation/no_transfer_pubchem_sampling_0_b3lyp/82834053.log
 Initial command:
 /home/wykgroup/appl/g16/l1.exe "/userdata/scratch/wykgroup/khs/./calculation/no_transfer_pubchem_sampling_0_b3lyp/82834053/Gau-15279.inp" -scrdir="/userdata/scratch/wykgroup/khs/./calculation/no_transfer_pubchem_sampling_0_b3lyp/82834053/"
 Entering Link 1 = /home/wykgroup/appl/g16/l1.exe PID=     15282.
  
 Copyright (c) 1988-2017, Gaussian, Inc.  All Rights Reserved.
  
 This is part of the Gaussian(R) 16 program.  It is based on
 the Gaussian(R) 09 system (copyright 2009, Gaussian, Inc.),
 the Gaussian(R) 03 system (copyright 2003, Gaussian, Inc.),
 the Gaussian(R) 98 system (copyright 1998, Gaussian, Inc.),
 the Gaussian(R) 94 system (copyright 1995, Gaussian, Inc.),
 the Gaussian 92(TM) system (copyright 1992, Gaussian, Inc.),
 the Gaussian 90(TM) system (copyright 1990, Gaussian, Inc.),
 the Gaussian 88(TM) system (copyright 1988, Gaussian, Inc.),
 the Gaussian 86(TM) system (copyright 1986, Carnegie Mellon
 University), and the Gaussian 82(TM) system (copyright 1983,
 Carnegie Mellon University). Gaussian is a federally registered
 trademark of Gaussian, Inc.
  
 This software contains proprietary and confidential information,
 including trade secrets, belonging to Gaussian, Inc.
  
 This software is provided under written license and may be
 used, copied, transmitted, or stored only in accord with that
 written license.
  
 The following legend is applicable only to US Government
 contracts under FAR:
  
                    RESTRICTED RIGHTS LEGEND
  
 Use, reproduction and disclosure by the US Government is
 subject to restrictions as set forth in subparagraphs (a)
 and (c) of the Commercial Computer Software - Restricted
 Rights clause in FAR 52.227-19.
  
 Gaussian, Inc.
 340 Quinnipiac St., Bldg. 40, Wallingford CT 06492
  
  
 ---------------------------------------------------------------
 Warning -- This program may not be used in any manner that
 competes with the business of Gaussian, Inc. or will provide
 assistance to any competitor of Gaussian, Inc.  The licensee
 of this program is prohibited from giving any competitor of
 Gaussian, Inc. access to this program.  By using this program,
 the user acknowledges that Gaussian, Inc. is engaged in the
 business of creating and licensing software in the field of
 computational chemistry and represents and warrants to the
 licensee that it is not a competitor of Gaussian, Inc. and that
 it will not use this program in any manner prohibited above.
 ---------------------------------------------------------------
  

 Cite this work as:
 Gaussian 16, Revision B.01,
 M. J. Frisch, G. W. Trucks, H. B. Schlegel, G. E. Scuseria, 
 M. A. Robb, J. R. Cheeseman, G. Scalmani, V. Barone, 
 G. A. Petersson, H. Nakatsuji, X. Li, M. Caricato, A. V. Marenich, 
 J. Bloino, B. G. Janesko, R. Gomperts, B. Mennucci, H. P. Hratchian, 
 J. V. Ortiz, A. F. Izmaylov, J. L. Sonnenberg, D. Williams-Young, 
 F. Ding, F. Lipparini, F. Egidi, J. Goings, B. Peng, A. Petrone, 
 T. Henderson, D. Ranasinghe, V. G. Zakrzewski, J. Gao, N. Rega, 
 G. Zheng, W. Liang, M. Hada, M. Ehara, K. Toyota, R. Fukuda, 
 J. Hasegawa, M. Ishida, T. Nakajima, Y. Honda, O. Kitao, H. Nakai, 
 T. Vreven, K. Throssell, J. A. Montgomery, Jr., J. E. Peralta, 
 F. Ogliaro, M. J. Bearpark, J. J. Heyd, E. N. Brothers, K. N. Kudin, 
 V. N. Staroverov, T. A. Keith, R. Kobayashi, J. Normand, 
 K. Raghavachari, A. P. Rendell, J. C. Burant, S. S. Iyengar, 
 J. Tomasi, M. Cossi, J. M. Millam, M. Klene, C. Adamo, R. Cammi, 
 J. W. Ochterski, R. L. Martin, K. Morokuma, O. Farkas, 
 J. B. Foresman, and D. J. Fox, Gaussian, Inc., Wallingford CT, 2016.
 
 ******************************************
 Gaussian 16:  ES64L-G16RevB.01 20-Dec-2017
                 4-Nov-2022 
 ******************************************
 %chk=./calculation/no_transfer_pubchem_sampling_0_b3lyp/82834053.chk
 %nprocshared=7
 Will use up to    7 processors via shared memory.
 %mem=6GB
 -----------------------------
 #p b3lyp/6-31g(d) opt SCF=XQC
 -----------------------------
 1/18=20,19=15,26=3,38=1/1,3;
 2/9=110,12=2,17=6,18=5,40=1/2;
 3/5=1,6=6,7=1,11=2,25=1,30=1,71=1,74=-5/1,2,3;
 4//1;
 5/5=2,8=3,13=1,38=5/2,8;
 6/7=2,8=2,9=2,10=2,28=1/1;
 7//1,2,3,16;
 1/18=20,19=15,26=3/3(2);
 2/9=110/2;
 99//99;
 2/9=110/2;
 3/5=1,6=6,7=1,11=2,25=1,30=1,71=1,74=-5/1,2,3;
 4/5=5,16=3,69=1/1;
 5/5=2,8=3,13=1,38=5/2,8;
 7//1,2,3,16;
 1/18=20,19=15,26=3/3(-5);
 2/9=110/2;
 6/7=2,8=2,9=2,10=2,19=2,28=1/1;
 99/9=1/99;
 Leave Link    1 at Fri Nov  4 18:09:34 2022, MaxMem=   805306368 cpu:               0.8 elap:               0.1
 (Enter /home/wykgroup/appl/g16/l101.exe)
 ------------------------------
 Gaussian input prepared by ASE
 ------------------------------
 Symbolic Z-matrix:
 Charge =  0 Multiplicity = 1
 C                     5.81547   0.22905  -2.2848 
 C                     5.39342   0.45681  -0.84009 
 C                     3.90006   0.20448  -0.65025 
 O                     3.16476  -0.12737  -1.55092 
 N                     3.51315   0.39983   0.64215 
 C                     2.24298   0.27191   1.22291 
 C                     2.12351   0.57343   2.58044 
 C                     0.89129   0.4655    3.19382 
 C                    -0.22483   0.0626    2.48531 
 C                    -0.11639  -0.24594   1.1268 
 N                    -1.17508  -0.71595   0.39145 
 C                    -2.54621  -0.5712    0.81007 
 C                    -3.45946  -1.11048  -0.30066 
 C                    -4.94416  -0.8767    0.00254 
 C                    -5.20979   0.45893  -0.68986 
 C                    -4.29622   0.35526  -1.90944 
 O                    -3.18276  -0.4294   -1.51839 
 C                     1.1316   -0.13115   0.50521 
 H                     5.59689  -0.79345  -2.58064 
 H                     5.26317   0.89326  -2.94405 
 H                     6.88017   0.41355  -2.40603 
 H                     5.94595  -0.21307  -0.17577 
 H                     5.6124    1.48552  -0.54124 
 H                     4.23245   0.68538   1.29251 
 H                     2.98961   0.89123   3.14356 
 H                     0.79697   0.7021    4.24378 
 H                    -1.17518  -0.01333   2.98889 
 H                    -1.06049  -0.66296  -0.61135 
 H                    -2.71589  -1.15314   1.72244 
 H                    -2.79925   0.48144   1.01313 
 H                    -3.22679  -2.17192  -0.45181 
 H                    -5.14312  -0.8506    1.07132 
 H                    -5.54866  -1.66274  -0.45058 
 H                    -6.25221   0.59644  -0.96651 
 H                    -4.90163   1.28774  -0.05206 
 H                    -3.92937   1.32322  -2.25952 
 H                    -4.81206  -0.14715  -2.73984 
 H                     1.22571  -0.36114  -0.54262 
 
 ITRead=  0  0  0  0  0  0  0  0  0  0  0  0  0  0  0  0  0  0  0  0
 ITRead=  0  0  0  0  0  0  0  0  0  0  0  0  0  0  0  0  0  0
 MicOpt= -1 -1 -1 -1 -1 -1 -1 -1 -1 -1 -1 -1 -1 -1 -1 -1 -1 -1 -1 -1
 MicOpt= -1 -1 -1 -1 -1 -1 -1 -1 -1 -1 -1 -1 -1 -1 -1 -1 -1 -1
 NAtoms=     38 NQM=       38 NQMF=       0 NMMI=      0 NMMIF=      0
                NMic=       0 NMicF=      0.
                    Isotopes and Nuclear Properties:
 (Nuclear quadrupole moments (NQMom) in fm**2, nuclear magnetic moments (NMagM)
  in nuclear magnetons)

  Atom         1           2           3           4           5           6           7           8           9          10
 IAtWgt=          12          12          12          16          14          12          12          12          12          12
 AtmWgt=  12.0000000  12.0000000  12.0000000  15.9949146  14.0030740  12.0000000  12.0000000  12.0000000  12.0000000  12.0000000
 NucSpn=           0           0           0           0           2           0           0           0           0           0
 AtZEff=  -0.0000000  -0.0000000  -0.0000000  -0.0000000  -0.0000000  -0.0000000  -0.0000000  -0.0000000  -0.0000000  -0.0000000
 NQMom=    0.0000000   0.0000000   0.0000000   0.0000000   2.0440000   0.0000000   0.0000000   0.0000000   0.0000000   0.0000000
 NMagM=    0.0000000   0.0000000   0.0000000   0.0000000   0.4037610   0.0000000   0.0000000   0.0000000   0.0000000   0.0000000
 AtZNuc=   6.0000000   6.0000000   6.0000000   8.0000000   7.0000000   6.0000000   6.0000000   6.0000000   6.0000000   6.0000000

  Atom        11          12          13          14          15          16          17          18          19          20
 IAtWgt=          14          12          12          12          12          12          16          12           1           1
 AtmWgt=  14.0030740  12.0000000  12.0000000  12.0000000  12.0000000  12.0000000  15.9949146  12.0000000   1.0078250   1.0078250
 NucSpn=           2           0           0           0           0           0           0           0           1           1
 AtZEff=  -0.0000000  -0.0000000  -0.0000000  -0.0000000  -0.0000000  -0.0000000  -0.0000000  -0.0000000  -0.0000000  -0.0000000
 NQMom=    2.0440000   0.0000000   0.0000000   0.0000000   0.0000000   0.0000000   0.0000000   0.0000000   0.0000000   0.0000000
 NMagM=    0.4037610   0.0000000   0.0000000   0.0000000   0.0000000   0.0000000   0.0000000   0.0000000   2.7928460   2.7928460
 AtZNuc=   7.0000000   6.0000000   6.0000000   6.0000000   6.0000000   6.0000000   8.0000000   6.0000000   1.0000000   1.0000000

  Atom        21          22          23          24          25          26          27          28          29          30
 IAtWgt=           1           1           1           1           1           1           1           1           1           1
 AtmWgt=   1.0078250   1.0078250   1.0078250   1.0078250   1.0078250   1.0078250   1.0078250   1.0078250   1.0078250   1.0078250
 NucSpn=           1           1           1           1           1           1           1           1           1           1
 AtZEff=  -0.0000000  -0.0000000  -0.0000000  -0.0000000  -0.0000000  -0.0000000  -0.0000000  -0.0000000  -0.0000000  -0.0000000
 NQMom=    0.0000000   0.0000000   0.0000000   0.0000000   0.0000000   0.0000000   0.0000000   0.0000000   0.0000000   0.0000000
 NMagM=    2.7928460   2.7928460   2.7928460   2.7928460   2.7928460   2.7928460   2.7928460   2.7928460   2.7928460   2.7928460
 AtZNuc=   1.0000000   1.0000000   1.0000000   1.0000000   1.0000000   1.0000000   1.0000000   1.0000000   1.0000000   1.0000000

  Atom        31          32          33          34          35          36          37          38
 IAtWgt=           1           1           1           1           1           1           1           1
 AtmWgt=   1.0078250   1.0078250   1.0078250   1.0078250   1.0078250   1.0078250   1.0078250   1.0078250
 NucSpn=           1           1           1           1           1           1           1           1
 AtZEff=  -0.0000000  -0.0000000  -0.0000000  -0.0000000  -0.0000000  -0.0000000  -0.0000000  -0.0000000
 NQMom=    0.0000000   0.0000000   0.0000000   0.0000000   0.0000000   0.0000000   0.0000000   0.0000000
 NMagM=    2.7928460   2.7928460   2.7928460   2.7928460   2.7928460   2.7928460   2.7928460   2.7928460
 AtZNuc=   1.0000000   1.0000000   1.0000000   1.0000000   1.0000000   1.0000000   1.0000000   1.0000000
 Leave Link  101 at Fri Nov  4 18:09:34 2022, MaxMem=   805306368 cpu:               1.2 elap:               0.2
 (Enter /home/wykgroup/appl/g16/l103.exe)

 GradGradGradGradGradGradGradGradGradGradGradGradGradGradGradGradGradGrad
 Berny optimization.
 Initialization pass.
                           ----------------------------
                           !    Initial Parameters    !
                           ! (Angstroms and Degrees)  !
 --------------------------                            --------------------------
 ! Name  Definition              Value          Derivative Info.                !
 --------------------------------------------------------------------------------
 ! R1    R(1,2)                  1.5222         estimate D2E/DX2                !
 ! R2    R(1,19)                 1.0866         estimate D2E/DX2                !
 ! R3    R(1,20)                 1.0867         estimate D2E/DX2                !
 ! R4    R(1,21)                 1.0873         estimate D2E/DX2                !
 ! R5    R(2,3)                  1.5264         estimate D2E/DX2                !
 ! R6    R(2,22)                 1.0933         estimate D2E/DX2                !
 ! R7    R(2,23)                 1.0934         estimate D2E/DX2                !
 ! R8    R(3,4)                  1.2091         estimate D2E/DX2                !
 ! R9    R(3,5)                  1.3631         estimate D2E/DX2                !
 ! R10   R(5,6)                  1.4025         estimate D2E/DX2                !
 ! R11   R(5,24)                 1.0109         estimate D2E/DX2                !
 ! R12   R(6,7)                  1.3957         estimate D2E/DX2                !
 ! R13   R(6,18)                 1.383          estimate D2E/DX2                !
 ! R14   R(7,8)                  1.3807         estimate D2E/DX2                !
 ! R15   R(7,25)                 1.0808         estimate D2E/DX2                !
 ! R16   R(8,9)                  1.382          estimate D2E/DX2                !
 ! R17   R(8,26)                 1.0804         estimate D2E/DX2                !
 ! R18   R(9,10)                 1.3973         estimate D2E/DX2                !
 ! R19   R(9,27)                 1.0782         estimate D2E/DX2                !
 ! R20   R(10,11)                1.372          estimate D2E/DX2                !
 ! R21   R(10,18)                1.3989         estimate D2E/DX2                !
 ! R22   R(11,12)                1.4409         estimate D2E/DX2                !
 ! R23   R(11,28)                1.0107         estimate D2E/DX2                !
 ! R24   R(12,13)                1.5358         estimate D2E/DX2                !
 ! R25   R(12,29)                1.0954         estimate D2E/DX2                !
 ! R26   R(12,30)                1.1015         estimate D2E/DX2                !
 ! R27   R(13,14)                1.5333         estimate D2E/DX2                !
 ! R28   R(13,17)                1.4224         estimate D2E/DX2                !
 ! R29   R(13,31)                1.0971         estimate D2E/DX2                !
 ! R30   R(14,15)                1.5277         estimate D2E/DX2                !
 ! R31   R(14,32)                1.0875         estimate D2E/DX2                !
 ! R32   R(14,33)                1.0902         estimate D2E/DX2                !
 ! R33   R(15,16)                1.5273         estimate D2E/DX2                !
 ! R34   R(15,34)                1.0872         estimate D2E/DX2                !
 ! R35   R(15,35)                1.0903         estimate D2E/DX2                !
 ! R36   R(16,17)                1.4172         estimate D2E/DX2                !
 ! R37   R(16,36)                1.0927         estimate D2E/DX2                !
 ! R38   R(16,37)                1.0991         estimate D2E/DX2                !
 ! R39   R(18,38)                1.0769         estimate D2E/DX2                !
 ! A1    A(2,1,19)             110.0844         estimate D2E/DX2                !
 ! A2    A(2,1,20)             110.0846         estimate D2E/DX2                !
 ! A3    A(2,1,21)             110.6043         estimate D2E/DX2                !
 ! A4    A(19,1,20)            107.9233         estimate D2E/DX2                !
 ! A5    A(19,1,21)            109.0426         estimate D2E/DX2                !
 ! A6    A(20,1,21)            109.0459         estimate D2E/DX2                !
 ! A7    A(1,2,3)              111.3809         estimate D2E/DX2                !
 ! A8    A(1,2,22)             110.1746         estimate D2E/DX2                !
 ! A9    A(1,2,23)             110.1596         estimate D2E/DX2                !
 ! A10   A(3,2,22)             108.5169         estimate D2E/DX2                !
 ! A11   A(3,2,23)             108.5113         estimate D2E/DX2                !
 ! A12   A(22,2,23)            108.0087         estimate D2E/DX2                !
 ! A13   A(2,3,4)              123.2095         estimate D2E/DX2                !
 ! A14   A(2,3,5)              111.8341         estimate D2E/DX2                !
 ! A15   A(4,3,5)              124.9564         estimate D2E/DX2                !
 ! A16   A(3,5,6)              129.5378         estimate D2E/DX2                !
 ! A17   A(3,5,24)             116.6466         estimate D2E/DX2                !
 ! A18   A(6,5,24)             113.8143         estimate D2E/DX2                !
 ! A19   A(5,6,7)              117.4242         estimate D2E/DX2                !
 ! A20   A(5,6,18)             122.6479         estimate D2E/DX2                !
 ! A21   A(7,6,18)             119.9276         estimate D2E/DX2                !
 ! A22   A(6,7,8)              119.4464         estimate D2E/DX2                !
 ! A23   A(6,7,25)             120.1107         estimate D2E/DX2                !
 ! A24   A(8,7,25)             120.4426         estimate D2E/DX2                !
 ! A25   A(7,8,9)              121.0505         estimate D2E/DX2                !
 ! A26   A(7,8,26)             119.5071         estimate D2E/DX2                !
 ! A27   A(9,8,26)             119.4422         estimate D2E/DX2                !
 ! A28   A(8,9,10)             120.0073         estimate D2E/DX2                !
 ! A29   A(8,9,27)             119.5326         estimate D2E/DX2                !
 ! A30   A(10,9,27)            120.4599         estimate D2E/DX2                !
 ! A31   A(9,10,11)            122.4679         estimate D2E/DX2                !
 ! A32   A(9,10,18)            118.8881         estimate D2E/DX2                !
 ! A33   A(11,10,18)           118.5766         estimate D2E/DX2                !
 ! A34   A(10,11,12)           122.9659         estimate D2E/DX2                !
 ! A35   A(10,11,28)           115.2338         estimate D2E/DX2                !
 ! A36   A(12,11,28)           113.0087         estimate D2E/DX2                !
 ! A37   A(11,12,13)           108.691          estimate D2E/DX2                !
 ! A38   A(11,12,29)           109.6343         estimate D2E/DX2                !
 ! A39   A(11,12,30)           111.6019         estimate D2E/DX2                !
 ! A40   A(13,12,29)           108.8889         estimate D2E/DX2                !
 ! A41   A(13,12,30)           109.4083         estimate D2E/DX2                !
 ! A42   A(29,12,30)           108.5765         estimate D2E/DX2                !
 ! A43   A(12,13,14)           112.2877         estimate D2E/DX2                !
 ! A44   A(12,13,17)           109.5942         estimate D2E/DX2                !
 ! A45   A(12,13,31)           108.2561         estimate D2E/DX2                !
 ! A46   A(14,13,17)           106.5376         estimate D2E/DX2                !
 ! A47   A(14,13,31)           112.3408         estimate D2E/DX2                !
 ! A48   A(17,13,31)           107.7011         estimate D2E/DX2                !
 ! A49   A(13,14,15)           102.2421         estimate D2E/DX2                !
 ! A50   A(13,14,32)           112.035          estimate D2E/DX2                !
 ! A51   A(13,14,33)           110.1689         estimate D2E/DX2                !
 ! A52   A(15,14,32)           113.1194         estimate D2E/DX2                !
 ! A53   A(15,14,33)           110.2164         estimate D2E/DX2                !
 ! A54   A(32,14,33)           108.9255         estimate D2E/DX2                !
 ! A55   A(14,15,16)           101.453          estimate D2E/DX2                !
 ! A56   A(14,15,34)           113.1166         estimate D2E/DX2                !
 ! A57   A(14,15,35)           110.5079         estimate D2E/DX2                !
 ! A58   A(16,15,34)           112.2648         estimate D2E/DX2                !
 ! A59   A(16,15,35)           110.4666         estimate D2E/DX2                !
 ! A60   A(34,15,35)           108.8871         estimate D2E/DX2                !
 ! A61   A(15,16,17)           106.6901         estimate D2E/DX2                !
 ! A62   A(15,16,36)           113.3595         estimate D2E/DX2                !
 ! A63   A(15,16,37)           110.7066         estimate D2E/DX2                !
 ! A64   A(17,16,36)           108.3662         estimate D2E/DX2                !
 ! A65   A(17,16,37)           108.9124         estimate D2E/DX2                !
 ! A66   A(36,16,37)           108.6887         estimate D2E/DX2                !
 ! A67   A(13,17,16)           110.3959         estimate D2E/DX2                !
 ! A68   A(6,18,10)            120.6786         estimate D2E/DX2                !
 ! A69   A(6,18,38)            119.798          estimate D2E/DX2                !
 ! A70   A(10,18,38)           119.5234         estimate D2E/DX2                !
 ! D1    D(19,1,2,3)           -59.5135         estimate D2E/DX2                !
 ! D2    D(19,1,2,22)           60.964          estimate D2E/DX2                !
 ! D3    D(19,1,2,23)         -179.9739         estimate D2E/DX2                !
 ! D4    D(20,1,2,3)            59.3405         estimate D2E/DX2                !
 ! D5    D(20,1,2,22)          179.8181         estimate D2E/DX2                !
 ! D6    D(20,1,2,23)          -61.1199         estimate D2E/DX2                !
 ! D7    D(21,1,2,3)           179.9156         estimate D2E/DX2                !
 ! D8    D(21,1,2,22)          -59.6068         estimate D2E/DX2                !
 ! D9    D(21,1,2,23)           59.4552         estimate D2E/DX2                !
 ! D10   D(1,2,3,4)             -0.3335         estimate D2E/DX2                !
 ! D11   D(1,2,3,5)            179.7149         estimate D2E/DX2                !
 ! D12   D(22,2,3,4)          -121.7812         estimate D2E/DX2                !
 ! D13   D(22,2,3,5)            58.2672         estimate D2E/DX2                !
 ! D14   D(23,2,3,4)           121.0917         estimate D2E/DX2                !
 ! D15   D(23,2,3,5)           -58.8599         estimate D2E/DX2                !
 ! D16   D(2,3,5,6)           -179.9371         estimate D2E/DX2                !
 ! D17   D(2,3,5,24)             0.5146         estimate D2E/DX2                !
 ! D18   D(4,3,5,6)              0.1124         estimate D2E/DX2                !
 ! D19   D(4,3,5,24)          -179.4359         estimate D2E/DX2                !
 ! D20   D(3,5,6,7)           -178.2279         estimate D2E/DX2                !
 ! D21   D(3,5,6,18)             1.5901         estimate D2E/DX2                !
 ! D22   D(24,5,6,7)             1.3308         estimate D2E/DX2                !
 ! D23   D(24,5,6,18)         -178.8512         estimate D2E/DX2                !
 ! D24   D(5,6,7,8)            179.8119         estimate D2E/DX2                !
 ! D25   D(5,6,7,25)            -0.0142         estimate D2E/DX2                !
 ! D26   D(18,6,7,8)            -0.0113         estimate D2E/DX2                !
 ! D27   D(18,6,7,25)         -179.8374         estimate D2E/DX2                !
 ! D28   D(5,6,18,10)          179.945          estimate D2E/DX2                !
 ! D29   D(5,6,18,38)            0.0492         estimate D2E/DX2                !
 ! D30   D(7,6,18,10)           -0.2414         estimate D2E/DX2                !
 ! D31   D(7,6,18,38)          179.8628         estimate D2E/DX2                !
 ! D32   D(6,7,8,9)              0.061          estimate D2E/DX2                !
 ! D33   D(6,7,8,26)          -179.7795         estimate D2E/DX2                !
 ! D34   D(25,7,8,9)           179.8865         estimate D2E/DX2                !
 ! D35   D(25,7,8,26)            0.046          estimate D2E/DX2                !
 ! D36   D(7,8,9,10)             0.1413         estimate D2E/DX2                !
 ! D37   D(7,8,9,27)           179.9971         estimate D2E/DX2                !
 ! D38   D(26,8,9,10)          179.9819         estimate D2E/DX2                !
 ! D39   D(26,8,9,27)           -0.1623         estimate D2E/DX2                !
 ! D40   D(8,9,10,11)          176.5832         estimate D2E/DX2                !
 ! D41   D(8,9,10,18)           -0.3865         estimate D2E/DX2                !
 ! D42   D(27,9,10,11)          -3.2712         estimate D2E/DX2                !
 ! D43   D(27,9,10,18)         179.7591         estimate D2E/DX2                !
 ! D44   D(9,10,11,12)          18.6729         estimate D2E/DX2                !
 ! D45   D(9,10,11,28)         163.8264         estimate D2E/DX2                !
 ! D46   D(18,10,11,12)       -164.3484         estimate D2E/DX2                !
 ! D47   D(18,10,11,28)        -19.1949         estimate D2E/DX2                !
 ! D48   D(9,10,18,6)            0.4383         estimate D2E/DX2                !
 ! D49   D(9,10,18,38)        -179.6656         estimate D2E/DX2                !
 ! D50   D(11,10,18,6)        -176.6505         estimate D2E/DX2                !
 ! D51   D(11,10,18,38)          3.2456         estimate D2E/DX2                !
 ! D52   D(10,11,12,13)        175.5848         estimate D2E/DX2                !
 ! D53   D(10,11,12,29)        -65.4976         estimate D2E/DX2                !
 ! D54   D(10,11,12,30)         54.8372         estimate D2E/DX2                !
 ! D55   D(28,11,12,13)         29.7464         estimate D2E/DX2                !
 ! D56   D(28,11,12,29)        148.664          estimate D2E/DX2                !
 ! D57   D(28,11,12,30)        -91.0012         estimate D2E/DX2                !
 ! D58   D(11,12,13,14)       -174.6438         estimate D2E/DX2                !
 ! D59   D(11,12,13,17)        -56.4509         estimate D2E/DX2                !
 ! D60   D(11,12,13,31)         60.7602         estimate D2E/DX2                !
 ! D61   D(29,12,13,14)         65.9717         estimate D2E/DX2                !
 ! D62   D(29,12,13,17)       -175.8355         estimate D2E/DX2                !
 ! D63   D(29,12,13,31)        -58.6243         estimate D2E/DX2                !
 ! D64   D(30,12,13,14)        -52.5531         estimate D2E/DX2                !
 ! D65   D(30,12,13,17)         65.6398         estimate D2E/DX2                !
 ! D66   D(30,12,13,31)       -177.1491         estimate D2E/DX2                !
 ! D67   D(12,13,14,15)         92.7743         estimate D2E/DX2                !
 ! D68   D(12,13,14,32)        -28.6428         estimate D2E/DX2                !
 ! D69   D(12,13,14,33)       -150.0703         estimate D2E/DX2                !
 ! D70   D(17,13,14,15)        -27.2109         estimate D2E/DX2                !
 ! D71   D(17,13,14,32)       -148.628          estimate D2E/DX2                !
 ! D72   D(17,13,14,33)         89.9444         estimate D2E/DX2                !
 ! D73   D(31,13,14,15)       -144.9171         estimate D2E/DX2                !
 ! D74   D(31,13,14,32)         93.6658         estimate D2E/DX2                !
 ! D75   D(31,13,14,33)        -27.7617         estimate D2E/DX2                !
 ! D76   D(12,13,17,16)       -113.7389         estimate D2E/DX2                !
 ! D77   D(14,13,17,16)          7.9724         estimate D2E/DX2                !
 ! D78   D(31,13,17,16)        128.7023         estimate D2E/DX2                !
 ! D79   D(13,14,15,16)         34.4785         estimate D2E/DX2                !
 ! D80   D(13,14,15,34)        154.9308         estimate D2E/DX2                !
 ! D81   D(13,14,15,35)        -82.6949         estimate D2E/DX2                !
 ! D82   D(32,14,15,16)        155.1465         estimate D2E/DX2                !
 ! D83   D(32,14,15,34)        -84.4013         estimate D2E/DX2                !
 ! D84   D(32,14,15,35)         37.9731         estimate D2E/DX2                !
 ! D85   D(33,14,15,16)        -82.6428         estimate D2E/DX2                !
 ! D86   D(33,14,15,34)         37.8094         estimate D2E/DX2                !
 ! D87   D(33,14,15,35)        160.1838         estimate D2E/DX2                !
 ! D88   D(14,15,16,17)        -31.2295         estimate D2E/DX2                !
 ! D89   D(14,15,16,36)       -150.4263         estimate D2E/DX2                !
 ! D90   D(14,15,16,37)         87.1351         estimate D2E/DX2                !
 ! D91   D(34,15,16,17)       -152.2802         estimate D2E/DX2                !
 ! D92   D(34,15,16,36)         88.5229         estimate D2E/DX2                !
 ! D93   D(34,15,16,37)        -33.9157         estimate D2E/DX2                !
 ! D94   D(35,15,16,17)         85.974          estimate D2E/DX2                !
 ! D95   D(35,15,16,36)        -33.2229         estimate D2E/DX2                !
 ! D96   D(35,15,16,37)       -155.6615         estimate D2E/DX2                !
 ! D97   D(15,16,17,13)         14.9225         estimate D2E/DX2                !
 ! D98   D(36,16,17,13)        137.3137         estimate D2E/DX2                !
 ! D99   D(37,16,17,13)       -104.6105         estimate D2E/DX2                !
 --------------------------------------------------------------------------------
 Trust Radius=3.00D-01 FncErr=1.00D-07 GrdErr=1.00D-06 EigMax=2.50D+02 EigMin=1.00D-04
 Number of steps in this run=    218 maximum allowed number of steps=    228.
 GradGradGradGradGradGradGradGradGradGradGradGradGradGradGradGradGradGrad

 Leave Link  103 at Fri Nov  4 18:09:34 2022, MaxMem=   805306368 cpu:               0.2 elap:               0.0
 (Enter /home/wykgroup/appl/g16/l202.exe)
                          Input orientation:                          
 ---------------------------------------------------------------------
 Center     Atomic      Atomic             Coordinates (Angstroms)
 Number     Number       Type             X           Y           Z
 ---------------------------------------------------------------------
      1          6           0        5.815472    0.229053   -2.284797
      2          6           0        5.393415    0.456808   -0.840087
      3          6           0        3.900061    0.204477   -0.650252
      4          8           0        3.164755   -0.127367   -1.550918
      5          7           0        3.513151    0.399828    0.642147
      6          6           0        2.242982    0.271907    1.222905
      7          6           0        2.123510    0.573426    2.580436
      8          6           0        0.891289    0.465498    3.193816
      9          6           0       -0.224832    0.062596    2.485309
     10          6           0       -0.116393   -0.245941    1.126799
     11          7           0       -1.175081   -0.715947    0.391454
     12          6           0       -2.546213   -0.571197    0.810070
     13          6           0       -3.459459   -1.110479   -0.300660
     14          6           0       -4.944160   -0.876699    0.002537
     15          6           0       -5.209785    0.458931   -0.689859
     16          6           0       -4.296220    0.355263   -1.909444
     17          8           0       -3.182765   -0.429403   -1.518391
     18          6           0        1.131599   -0.131147    0.505207
     19          1           0        5.596889   -0.793445   -2.580644
     20          1           0        5.263167    0.893258   -2.944045
     21          1           0        6.880171    0.413550   -2.406025
     22          1           0        5.945951   -0.213067   -0.175765
     23          1           0        5.612403    1.485519   -0.541242
     24          1           0        4.232453    0.685380    1.292513
     25          1           0        2.989606    0.891228    3.143564
     26          1           0        0.796973    0.702104    4.243782
     27          1           0       -1.175181   -0.013329    2.988888
     28          1           0       -1.060486   -0.662964   -0.611354
     29          1           0       -2.715892   -1.153142    1.722436
     30          1           0       -2.799249    0.481439    1.013131
     31          1           0       -3.226793   -2.171917   -0.451807
     32          1           0       -5.143121   -0.850597    1.071320
     33          1           0       -5.548656   -1.662737   -0.450576
     34          1           0       -6.252207    0.596437   -0.966514
     35          1           0       -4.901630    1.287742   -0.052058
     36          1           0       -3.929371    1.323217   -2.259519
     37          1           0       -4.812061   -0.147146   -2.739837
     38          1           0        1.225714   -0.361137   -0.542623
 ---------------------------------------------------------------------
                    Distance matrix (angstroms):
                    1          2          3          4          5
     1  C    0.000000
     2  C    1.522232   0.000000
     3  C    2.518162   1.526374   0.000000
     4  O    2.773430   2.411113   1.209129   0.000000
     5  N    3.727847   2.394923   1.363142   2.282290   0.000000
     6  C    5.006845   3.770326   2.501834   2.950115   1.402489
     7  C    6.117162   4.733483   3.705347   4.317798   2.391277
     8  C    7.370120   6.044964   4.888527   5.294585   3.659165
     9  C    7.698500   6.540518   5.183302   5.274137   4.181327
    10  C    6.859419   5.892409   4.415052   4.236762   3.718265
    11  N    7.544745   6.785072   5.262072   4.790972   4.825694
    12  C    8.951893   8.174198   6.654973   6.195677   6.138973
    13  C    9.578909   9.006707   7.484241   6.812479   7.196333
    14  C   11.055509  10.457233   8.933942   8.290309   8.576989
    15  C   11.142395  10.604265   9.113485   8.439081   8.824248
    16  C   10.119443   9.748993   8.293812   7.485160   8.215770
    17  O    9.054789   8.648487   7.163929   6.354785   7.084549
    18  C    5.463748   4.507615   3.018628   2.891607   2.443866
    19  H    1.086649   2.152689   2.757079   2.723833   4.018985
    20  H    1.086654   2.152694   2.755715   2.717685   4.020796
    21  H    1.087345   2.159739   3.465185   3.850729   4.541846
    22  H    2.158821   1.093321   2.141296   3.103778   2.638775
    23  H    2.158686   1.093394   2.141277   3.100294   2.643103
    24  H    3.938442   2.438865   2.028814   3.144143   1.010896
    25  H    6.155574   4.672954   3.961514   4.806909   2.602434
    26  H    8.248118   6.858074   5.816215   6.314504   4.521147
    27  H    8.760122   7.617647   6.248909   6.281551   5.259121
    28  H    7.132664   6.554315   5.035969   4.361456   4.859933
    29  H    9.526413   8.655595   7.158464   6.808015   6.509971
    30  H    9.227862   8.399689   6.908277   6.520301   6.323819
    31  H    9.533471   9.020474   7.515229   6.800008   7.296400
    32  H   11.511730  10.788021   9.265858   8.741853   8.756644
    33  H   11.665617  11.152269   9.633514   8.915808   9.357594
    34  H   12.145028  11.647145  10.164752   9.462800   9.898922
    35  H   10.998283  10.358543   8.888255   8.325605   8.489927
    36  H    9.806110   9.469942   8.071017   7.275502   8.041358
    37  H   10.643920  10.398344   8.966107   8.064956   9.002564
    38  H    4.944630   4.257611   2.735623   2.197995   2.686097
                    6          7          8          9         10
     6  C    0.000000
     7  C    1.395735   0.000000
     8  C    2.397715   1.380670   0.000000
     9  C    2.779853   2.405141   1.382041   0.000000
    10  C    2.417448   2.793132   2.407100   1.397321   0.000000
    11  N    3.653809   4.163511   3.676809   2.427619   1.372027
    12  C    4.880333   5.123541   4.309687   2.932052   2.471869
    13  C    6.062184   6.504290   5.798627   4.427250   3.736463
    14  C    7.379946   7.661617   6.785147   5.414655   4.996915
    15  C    7.696583   8.030265   7.232295   5.923558   5.453415
    16  C    7.251187   7.837062   7.277751   5.997975   5.201074
    17  O    6.119254   6.779572   6.293143   5.002104   4.053803
    18  C    1.383010   2.405594   2.764480   2.407955   1.398941
    19  H    5.181761   6.369414   7.554600   7.764607   6.832750
    20  H    5.183731   6.362360   7.547822   7.764407   6.841725
    21  H    5.890053   6.893198   8.199245   8.633041   7.865601
    22  H    3.987914   4.777685   6.112620   6.725762   6.200788
    23  H    3.992251   4.769608   6.105736   6.727409   6.212843
    24  H    2.033175   2.473645   3.850542   4.655965   4.450537
    25  H    2.151729   1.080850   2.141660   3.384161   3.873981
    26  H    3.376642   2.131427   1.080420   2.131967   3.383580
    27  H    3.857965   3.375274   2.131096   1.078202   2.154650
    28  H    3.892478   4.674827   4.422914   3.288476   2.021483
    29  H    5.183698   5.209319   4.218615   2.874956   2.816947
    30  H    5.050940   5.167055   4.286690   2.995056   2.782034
    31  H    6.220561   6.734771   6.099600   4.757255   3.984466
    32  H    7.472450   7.557062   6.530789   5.198351   5.063268
    33  H    8.200793   8.546904   7.699602   6.319754   5.831372
    34  H    8.778787   9.095824   8.267710   6.966299   6.537566
    35  H    7.328229   7.536104   6.691016   5.460005   5.161432
    36  H    7.164528   7.786187   7.328936   6.150298   5.335560
    37  H    8.102627   8.770785   8.252986   6.956207   6.083579
    38  H    2.133699   3.381263   3.841372   3.384082   2.145109
                   11         12         13         14         15
    11  N    0.000000
    12  C    1.440901   0.000000
    13  C    2.419310   1.535762   0.000000
    14  C    3.792500   2.548645   1.533271   0.000000
    15  C    4.339172   3.225766   2.382890   1.527703   0.000000
    16  C    4.022827   3.364017   2.331685   2.365001   1.527330
    17  O    2.785751   2.418064   1.422425   2.369770   2.363137
    18  C    2.382373   3.716569   4.763017   6.141936   6.479933
    19  H    7.395873   8.823630   9.344318  10.853270  11.042088
    20  H    7.427391   8.787743   9.332023  10.770544  10.721601
    21  H    8.601671  10.008482  10.661294  12.135927  12.211238
    22  H    7.161265   8.556692   9.448952  10.911770  11.187776
    23  H    7.196271   8.521687   9.439055  10.831288  10.871786
    24  H    5.658361   6.911010   8.057842   9.397572   9.650748
    25  H    5.244210   6.182975   7.580235   8.714142   9.061569
    26  H    4.554151   4.958686   6.484954   7.310362   7.776959
    27  H    2.690787   2.634045   4.152444   4.885581   5.480350
    28  H    1.010724   2.058216   2.460056   3.937699   4.299011
    29  H    2.082486   1.095382   2.155836   2.828366   3.825892
    30  H    2.111430   1.101501   2.167055   2.732487   2.951503
    31  H    2.653387   2.148913   1.097101   2.198493   3.303073
    32  H    4.028113   2.624928   2.187370   1.087458   2.195692
    33  H    4.553414   3.434435   2.166149   1.090221   2.161842
    34  H    5.416977   4.272471   3.340114   2.195489   1.087239
    35  H    4.254250   3.122004   2.809471   2.165547   1.090266
    36  H    4.332662   3.863199   3.159244   3.314562   2.202336
    37  H    4.832820   4.232697   2.950784   2.840830   2.174379
    38  H    2.600425   4.012648   4.750886   6.215333   6.489210
                   16         17         18         19         20
    16  C    0.000000
    17  O    1.417183   0.000000
    18  C    5.960566   4.774687   0.000000
    19  H    9.982166   8.851170   5.468083   0.000000
    20  H    9.630250   8.666930   5.478741   1.757384   0.000000
    21  H   11.187569  10.137117   6.466688   1.770351   1.770392
    22  H   10.403399   9.229458   4.862964   2.498424   3.058353
    23  H   10.066293   9.054099   4.877117   3.058279   2.499240
    24  H    9.115907   8.008082   3.301797   4.364625   4.365090
    25  H    8.882759   7.847041   3.385021   6.511728   6.498312
    26  H    7.995192   7.093747   3.844896   8.476358   8.464531
    27  H    5.819828   4.951673   3.391723   8.802794   8.801927
    28  H    3.632052   2.319771   2.516897   6.943757   6.917503
    29  H    4.238310   3.353316   4.162848   9.367401   9.467269
    30  H    3.286074   2.717594   4.010587   9.221478   8.990627
    31  H    3.107253   2.043501   4.906750   9.180930   9.364078
    32  H    3.325101   3.275211   6.341151  11.344070  11.289598
    33  H    2.787331   2.873809   6.919905  11.380510  11.386219
    34  H    2.184758   3.283046   7.564121  12.039030  11.687710
    35  H    2.164699   2.837820   6.222833  10.997454  10.575552
    36  H    1.092733   2.044105   5.947461   9.763862   9.228011
    37  H    1.099118   2.055774   6.771828  10.430210  10.130861
    38  H    5.733514   4.515692   1.076895   4.842270   4.862237
                   21         22         23         24         25
    21  H    0.000000
    22  H    2.497894   0.000000
    23  H    2.496751   1.769187   0.000000
    24  H    4.556697   2.428811   2.430461   0.000000
    25  H    6.794307   4.580108   4.561802   2.239069   0.000000
    26  H    9.017123   6.847037   6.833635   4.529105   2.460466
    27  H    9.704432   7.795219   7.796131   5.710376   4.264693
    28  H    8.211806   7.034365   7.010587   5.784284   5.737436
    29  H   10.563292   8.917086   9.024814   7.200312   6.225092
    30  H   10.265788   8.852927   8.612789   7.040204   6.182032
    31  H   10.613874   9.383630   9.566411   8.176010   7.807251
    32  H   12.579728  11.177172  11.123807   9.503133   8.571430
    33  H   12.751881  11.588919  11.596937  10.208922   9.609500
    34  H   13.212304  12.250536  11.905473  10.725633  10.118832
    35  H   12.046419  10.951610  10.527265   9.252145   8.522960
    36  H   10.848739  10.209024   9.696610   8.924076   8.789321
    37  H   11.710427  11.059549  10.778166   9.937614   9.826426
    38  H    6.003772   4.736786   4.759535   3.674697   4.274074
                   26         27         28         29         30
    26  H    0.000000
    27  H    2.444585   0.000000
    28  H    5.374561   3.660180   0.000000
    29  H    4.705246   2.297142   2.902967   0.000000
    30  H    4.839278   2.604996   2.640436   1.783793   0.000000
    31  H    6.819036   4.550494   2.644860   2.454844   3.060905
    32  H    6.910869   4.485825   4.419786   2.531191   2.696562
    33  H    8.239931   5.803252   4.600985   3.606414   3.781424
    34  H    8.766372   6.464767   5.354082   4.774620   3.981851
    35  H    7.160397   4.982626   4.344244   3.726150   2.490936
    36  H    8.063313   6.075992   3.858998   4.843640   3.563144
    37  H    8.997412   6.786980   4.344057   5.031683   4.304800
    38  H    4.921786   4.284489   2.307062   4.614545   4.396662
                   31         32         33         34         35
    31  H    0.000000
    32  H    2.781747   0.000000
    33  H    2.377039   1.772060   0.000000
    34  H    4.133018   2.734364   2.421784   0.000000
    35  H    3.864470   2.427507   3.046766   1.771494   0.000000
    36  H    3.997174   4.158503   3.848412   2.756018   2.412350
    37  H    3.442071   3.889649   2.842587   2.402418   3.048129
    38  H    4.807494   6.588357   6.898893   7.550890   6.364261
                   36         37         38
    36  H    0.000000
    37  H    1.780959   0.000000
    38  H    5.688557   6.428707   0.000000
 Stoichiometry    C14H20N2O2
 Framework group  C1[X(C14H20N2O2)]
 Deg. of freedom   108
 Full point group                 C1      NOp   1
 Largest Abelian subgroup         C1      NOp   1
 Largest concise Abelian subgroup C1      NOp   1
                         Standard orientation:                         
 ---------------------------------------------------------------------
 Center     Atomic      Atomic             Coordinates (Angstroms)
 Number     Number       Type             X           Y           Z
 ---------------------------------------------------------------------
      1          6           0       -5.684845   -2.397618   -0.043712
      2          6           0       -5.283629   -0.942024    0.149838
      3          6           0       -3.776202   -0.755550   -0.000855
      4          8           0       -3.016681   -1.666057   -0.237703
      5          7           0       -3.407347    0.546265    0.164611
      6          6           0       -2.132437    1.127580    0.104183
      7          6           0       -2.038213    2.497724    0.352986
      8          6           0       -0.802683    3.112308    0.308253
      9          6           0        0.341435    2.392665    0.019901
     10          6           0        0.258730    1.021290   -0.235045
     11          7           0        1.350540    0.271563   -0.593261
     12          6           0        2.706506    0.703481   -0.367432
     13          6           0        3.659125   -0.425097   -0.788614
     14          6           0        5.122074   -0.103943   -0.460649
     15          6           0        5.290589   -0.735230    0.920277
     16          6           0        4.389626   -1.963065    0.804427
     17          8           0        3.335828   -1.613010   -0.076129
     18          6           0       -0.993015    0.398721   -0.184259
     19          1           0       -5.391326   -2.737176   -1.033335
     20          1           0       -5.181303   -3.023920    0.687730
     21          1           0       -6.759943   -2.516261    0.067677
     22          1           0       -5.786996   -0.310904   -0.587496
     23          1           0       -5.578012   -0.599198    1.145488
     24          1           0       -4.146993    1.204761    0.367633
     25          1           0       -2.926440    3.069709    0.581288
     26          1           0       -0.728148    4.172191    0.504214
     27          1           0        1.293737    2.897465   -0.008668
     28          1           0        1.234469   -0.728523   -0.504272
     29          1           0        2.916452    1.590140   -0.975396
     30          1           0        2.881324    0.954195    0.690814
     31          1           0        3.505157   -0.624229   -1.856448
     32          1           0        5.316352    0.965996   -0.467609
     33          1           0        5.783473   -0.588106   -1.179481
     34          1           0        6.320713   -0.999970    1.145768
     35          1           0        4.921214   -0.063090    1.695176
     36          1           0        3.953586   -2.271989    1.757579
     37          1           0        4.942621   -2.812077    0.378474
     38          1           0       -1.067838   -0.658735   -0.373708
 ---------------------------------------------------------------------
 Rotational constants (GHZ):           0.7574304           0.1622109           0.1378518
 Leave Link  202 at Fri Nov  4 18:09:34 2022, MaxMem=   805306368 cpu:               0.1 elap:               0.0
 (Enter /home/wykgroup/appl/g16/l301.exe)
 Standard basis: 6-31G(d) (6D, 7F)
 Ernie: Thresh=  0.10000D-02 Tol=  0.10000D-05 Strict=F.
 There are   310 symmetry adapted cartesian basis functions of A   symmetry.
 There are   310 symmetry adapted basis functions of A   symmetry.
   310 basis functions,   584 primitive gaussians,   310 cartesian basis functions
    67 alpha electrons       67 beta electrons
       nuclear repulsion energy      1272.5780046020 Hartrees.
 IExCor=  402 DFT=T Ex+Corr=B3LYP ExCW=0 ScaHFX=  0.200000
 ScaDFX=  0.800000  0.720000  1.000000  0.810000 ScalE2=  1.000000  1.000000
 IRadAn=      5 IRanWt=     -1 IRanGd=            0 ICorTp=0 IEmpDi=  4
 NAtoms=   38 NActive=   38 NUniq=   38 SFac= 1.00D+00 NAtFMM=   60 NAOKFM=F Big=F
 Integral buffers will be    131072 words long.
 Raffenetti 2 integral format.
 Two-electron integral symmetry is turned on.
 Leave Link  301 at Fri Nov  4 18:09:34 2022, MaxMem=   805306368 cpu:               0.3 elap:               0.1
 (Enter /home/wykgroup/appl/g16/l302.exe)
 NPDir=0 NMtPBC=     1 NCelOv=     1 NCel=       1 NClECP=     1 NCelD=      1
         NCelK=      1 NCelE2=     1 NClLst=     1 CellRange=     0.0.
 One-electron integrals computed using PRISM.
 One-electron integral symmetry used in STVInt
 NBasis=   310 RedAO= T EigKep=  3.89D-04  NBF=   310
 NBsUse=   310 1.00D-06 EigRej= -1.00D+00 NBFU=   310
 Precomputing XC quadrature grid using
 IXCGrd= 4 IRadAn=           5 IRanWt=          -1 IRanGd=           0 AccXCQ= 0.00D+00.
 Generated NRdTot=       0 NPtTot=           0 NUsed=           0 NTot=          32
 NSgBfM=   306   306   306   306   306 MxSgAt=    38 MxSgA2=    38.
 Leave Link  302 at Fri Nov  4 18:09:35 2022, MaxMem=   805306368 cpu:               3.1 elap:               0.5
 (Enter /home/wykgroup/appl/g16/l303.exe)
 DipDrv:  MaxL=1.
 Leave Link  303 at Fri Nov  4 18:09:35 2022, MaxMem=   805306368 cpu:               0.6 elap:               0.1
 (Enter /home/wykgroup/appl/g16/l401.exe)
 ExpMin= 1.61D-01 ExpMax= 5.48D+03 ExpMxC= 8.25D+02 IAcc=3 IRadAn=         5 AccDes= 0.00D+00
 Harris functional with IExCor=  402 and IRadAn=       5 diagonalized for initial guess.
 HarFok:  IExCor=  402 AccDes= 0.00D+00 IRadAn=         5 IDoV= 1 UseB2=F ITyADJ=14
 ICtDFT=  3500011 ScaDFX=  1.000000  1.000000  1.000000  1.000000
 FoFCou: FMM=F IPFlag=           0 FMFlag=      100000 FMFlg1=           0
         NFxFlg=           0 DoJE=T BraDBF=F KetDBF=T FulRan=T
         wScrn=  0.000000 ICntrl=       500 IOpCl=  0 I1Cent=   200000004 NGrid=           0
         NMat0=    1 NMatS0=      1 NMatT0=    0 NMatD0=    1 NMtDS0=    0 NMtDT0=    0
 Petite list used in FoFCou.
 Harris En= -805.536882670240    
 JPrj=0 DoOrth=F DoCkMO=F.
 Leave Link  401 at Fri Nov  4 18:09:37 2022, MaxMem=   805306368 cpu:              11.8 elap:               1.8
 (Enter /home/wykgroup/appl/g16/l502.exe)
 Integral symmetry usage will be decided dynamically.
 Closed shell SCF:
 Using DIIS extrapolation, IDIIS=  1040.
 NGot=   805306368 LenX=   805108372 LenY=   805011831
 Requested convergence on RMS density matrix=1.00D-08 within  32 cycles.
 Requested convergence on MAX density matrix=1.00D-06.
 Requested convergence on             energy=1.00D-06.
 No special actions if energy rises.
 Fock matrices will be formed incrementally for  20 cycles.
 Integral accuracy reduced to 1.0D-05 until final iterations.

 Cycle   1  Pass 0  IDiag  1:
 FoFJK:  IHMeth= 1 ICntrl=       0 DoSepK=F KAlg= 0 I1Cent=           0 FoldK=F
 IRaf= 720000000 NMat=       1 IRICut=       1 DoRegI=T DoRafI=F ISym2E= 0 IDoP0=0 IntGTp=1.
 FoFCou: FMM=F IPFlag=           0 FMFlag=      100000 FMFlg1=           0
         NFxFlg=           0 DoJE=F BraDBF=F KetDBF=F FulRan=T
         wScrn=  0.000000 ICntrl=         0 IOpCl=  0 I1Cent=           0 NGrid=           0
         NMat0=    1 NMatS0=      1 NMatT0=    0 NMatD0=    1 NMtDS0=    0 NMtDT0=    0
 Symmetry not used in FoFCou.
 E= -804.997329711333    
 DIIS: error= 2.92D-02 at cycle   1 NSaved=   1.
 NSaved= 1 IEnMin= 1 EnMin= -804.997329711333     IErMin= 1 ErrMin= 2.92D-02
 ErrMax= 2.92D-02  0.00D+00 EMaxC= 1.00D-01 BMatC= 4.98D-01 BMatP= 4.98D-01
 IDIUse=3 WtCom= 7.08D-01 WtEn= 2.92D-01
 Coeff-Com:  0.100D+01
 Coeff-En:   0.100D+01
 Coeff:      0.100D+01
 Gap=     0.196 Goal=   None    Shift=    0.000
 GapD=    0.196 DampG=1.000 DampE=0.500 DampFc=0.5000 IDamp=-1.
 Damping current iteration by 5.00D-01
 RMSDP=5.71D-03 MaxDP=2.10D-01              OVMax= 2.06D-01

 Cycle   2  Pass 0  IDiag  1:
 RMSU=  2.83D-03    CP:  9.79D-01
 E= -805.192387365656     Delta-E=       -0.195057654323 Rises=F Damp=T
 DIIS: error= 1.24D-02 at cycle   2 NSaved=   2.
 NSaved= 2 IEnMin= 2 EnMin= -805.192387365656     IErMin= 2 ErrMin= 1.24D-02
 ErrMax= 1.24D-02  0.00D+00 EMaxC= 1.00D-01 BMatC= 5.04D-02 BMatP= 4.98D-01
 IDIUse=3 WtCom= 8.76D-01 WtEn= 1.24D-01
 Coeff-Com:  0.132D+00 0.868D+00
 Coeff-En:   0.198D+00 0.802D+00
 Coeff:      0.141D+00 0.859D+00
 Gap=     0.269 Goal=   None    Shift=    0.000
 RMSDP=1.64D-03 MaxDP=1.04D-01 DE=-1.95D-01 OVMax= 1.76D-01

 Cycle   3  Pass 0  IDiag  1:
 RMSU=  1.49D-03    CP:  9.68D-01  7.70D-01
 E= -805.439508089945     Delta-E=       -0.247120724288 Rises=F Damp=F
 DIIS: error= 1.90D-02 at cycle   3 NSaved=   3.
 NSaved= 3 IEnMin= 3 EnMin= -805.439508089945     IErMin= 2 ErrMin= 1.24D-02
 ErrMax= 1.90D-02  0.00D+00 EMaxC= 1.00D-01 BMatC= 6.66D-02 BMatP= 5.04D-02
 IDIUse=2 WtCom= 0.00D+00 WtEn= 1.00D+00
 Coeff-En:   0.000D+00 0.000D+00 0.100D+01
 Coeff:      0.000D+00 0.000D+00 0.100D+01
 Gap=     0.191 Goal=   None    Shift=    0.000
 RMSDP=2.69D-03 MaxDP=1.76D-01 DE=-2.47D-01 OVMax= 2.25D-01

 Cycle   4  Pass 0  IDiag  1:
 RMSU=  1.43D-03    CP:  9.76D-01  1.15D+00 -3.46D-01
 E= -805.184380231415     Delta-E=        0.255127858529 Rises=F Damp=F
 DIIS: error= 4.64D-02 at cycle   4 NSaved=   4.
 NSaved= 4 IEnMin= 3 EnMin= -805.439508089945     IErMin= 2 ErrMin= 1.24D-02
 ErrMax= 4.64D-02  0.00D+00 EMaxC= 1.00D-01 BMatC= 3.85D-01 BMatP= 5.04D-02
 IDIUse=2 WtCom= 0.00D+00 WtEn= 1.00D+00
 Coeff-En:   0.000D+00 0.000D+00 0.795D+00 0.205D+00
 Coeff:      0.000D+00 0.000D+00 0.795D+00 0.205D+00
 Gap=     0.231 Goal=   None    Shift=    0.000
 RMSDP=1.51D-03 MaxDP=8.92D-02 DE= 2.55D-01 OVMax= 1.13D-01

 Cycle   5  Pass 0  IDiag  1:
 RMSU=  2.42D-04    CP:  9.73D-01  8.94D-01  3.68D-01  4.77D-01
 E= -805.472183126942     Delta-E=       -0.287802895527 Rises=F Damp=F
 DIIS: error= 1.26D-02 at cycle   5 NSaved=   5.
 NSaved= 5 IEnMin= 5 EnMin= -805.472183126942     IErMin= 2 ErrMin= 1.24D-02
 ErrMax= 1.26D-02  0.00D+00 EMaxC= 1.00D-01 BMatC= 2.81D-02 BMatP= 5.04D-02
 IDIUse=3 WtCom= 8.74D-01 WtEn= 1.26D-01
 Coeff-Com: -0.293D-02 0.289D-01 0.313D+00-0.801D-01 0.742D+00
 Coeff-En:   0.000D+00 0.000D+00 0.337D+00 0.000D+00 0.663D+00
 Coeff:     -0.256D-02 0.253D-01 0.316D+00-0.700D-01 0.732D+00
 Gap=     0.189 Goal=   None    Shift=    0.000
 RMSDP=5.10D-04 MaxDP=3.35D-02 DE=-2.88D-01 OVMax= 3.96D-02

 Cycle   6  Pass 0  IDiag  1:
 RMSU=  8.43D-05    CP:  9.71D-01  8.37D-01  6.22D-01  2.81D-01  7.29D-01
 E= -805.494773583974     Delta-E=       -0.022590457032 Rises=F Damp=F
 DIIS: error= 8.65D-04 at cycle   6 NSaved=   6.
 NSaved= 6 IEnMin= 6 EnMin= -805.494773583974     IErMin= 6 ErrMin= 8.65D-04
 ErrMax= 8.65D-04  0.00D+00 EMaxC= 1.00D-01 BMatC= 2.09D-04 BMatP= 2.81D-02
 IDIUse=3 WtCom= 9.91D-01 WtEn= 8.65D-03
 Coeff-Com: -0.386D-02 0.133D-01 0.141D+00-0.618D-01 0.438D+00 0.474D+00
 Coeff-En:   0.000D+00 0.000D+00 0.000D+00 0.000D+00 0.000D+00 0.100D+01
 Coeff:     -0.383D-02 0.132D-01 0.139D+00-0.612D-01 0.434D+00 0.478D+00
 Gap=     0.189 Goal=   None    Shift=    0.000
 RMSDP=5.31D-05 MaxDP=3.31D-03 DE=-2.26D-02 OVMax= 4.74D-03

 Cycle   7  Pass 0  IDiag  1:
 RMSU=  2.09D-05    CP:  9.71D-01  8.42D-01  6.12D-01  2.89D-01  7.94D-01
                    CP:  5.30D-01
 E= -805.494953960038     Delta-E=       -0.000180376063 Rises=F Damp=F
 DIIS: error= 2.13D-04 at cycle   7 NSaved=   7.
 NSaved= 7 IEnMin= 7 EnMin= -805.494953960038     IErMin= 7 ErrMin= 2.13D-04
 ErrMax= 2.13D-04  0.00D+00 EMaxC= 1.00D-01 BMatC= 1.06D-05 BMatP= 2.09D-04
 IDIUse=3 WtCom= 9.98D-01 WtEn= 2.13D-03
 Coeff-Com: -0.949D-03 0.249D-02 0.411D-01-0.195D-01 0.128D+00 0.210D+00
 Coeff-Com:  0.639D+00
 Coeff-En:   0.000D+00 0.000D+00 0.000D+00 0.000D+00 0.000D+00 0.000D+00
 Coeff-En:   0.100D+01
 Coeff:     -0.947D-03 0.249D-02 0.410D-01-0.195D-01 0.128D+00 0.209D+00
 Coeff:      0.639D+00
 Gap=     0.190 Goal=   None    Shift=    0.000
 RMSDP=1.36D-05 MaxDP=5.29D-04 DE=-1.80D-04 OVMax= 1.30D-03

 Cycle   8  Pass 0  IDiag  1:
 RMSU=  8.24D-06    CP:  9.71D-01  8.41D-01  6.16D-01  2.87D-01  7.85D-01
                    CP:  5.78D-01  6.83D-01
 E= -805.494963036994     Delta-E=       -0.000009076957 Rises=F Damp=F
 DIIS: error= 6.21D-05 at cycle   8 NSaved=   8.
 NSaved= 8 IEnMin= 8 EnMin= -805.494963036994     IErMin= 8 ErrMin= 6.21D-05
 ErrMax= 6.21D-05  0.00D+00 EMaxC= 1.00D-01 BMatC= 1.67D-06 BMatP= 1.06D-05
 IDIUse=1 WtCom= 1.00D+00 WtEn= 0.00D+00
 Coeff-Com: -0.161D-04-0.373D-03 0.962D-02-0.435D-02 0.265D-01 0.758D-01
 Coeff-Com:  0.394D+00 0.499D+00
 Coeff:     -0.161D-04-0.373D-03 0.962D-02-0.435D-02 0.265D-01 0.758D-01
 Coeff:      0.394D+00 0.499D+00
 Gap=     0.189 Goal=   None    Shift=    0.000
 RMSDP=5.14D-06 MaxDP=1.75D-04 DE=-9.08D-06 OVMax= 5.13D-04

 Initial convergence to 1.0D-05 achieved.  Increase integral accuracy.
 Cycle   9  Pass 1  IDiag  1:
 E= -805.494948054873     Delta-E=        0.000014982122 Rises=F Damp=F
 DIIS: error= 8.16D-05 at cycle   1 NSaved=   1.
 NSaved= 1 IEnMin= 1 EnMin= -805.494948054873     IErMin= 1 ErrMin= 8.16D-05
 ErrMax= 8.16D-05  0.00D+00 EMaxC= 1.00D-01 BMatC= 5.21D-07 BMatP= 5.21D-07
 IDIUse=1 WtCom= 1.00D+00 WtEn= 0.00D+00
 Coeff-Com:  0.100D+01
 Coeff:      0.100D+01
 Gap=     0.189 Goal=   None    Shift=    0.000
 RMSDP=5.14D-06 MaxDP=1.75D-04 DE= 1.50D-05 OVMax= 2.96D-04

 Cycle  10  Pass 1  IDiag  1:
 RMSU=  4.23D-05    CP:  1.00D+00
 E= -805.494948379569     Delta-E=       -0.000000324696 Rises=F Damp=F
 DIIS: error= 2.72D-05 at cycle   2 NSaved=   2.
 NSaved= 2 IEnMin= 2 EnMin= -805.494948379569     IErMin= 2 ErrMin= 2.72D-05
 ErrMax= 2.72D-05  0.00D+00 EMaxC= 1.00D-01 BMatC= 2.12D-07 BMatP= 5.21D-07
 IDIUse=1 WtCom= 1.00D+00 WtEn= 0.00D+00
 Coeff-Com:  0.338D+00 0.662D+00
 Coeff:      0.338D+00 0.662D+00
 Gap=     0.189 Goal=   None    Shift=    0.000
 RMSDP=3.28D-06 MaxDP=1.28D-04 DE=-3.25D-07 OVMax= 3.86D-04

 Cycle  11  Pass 1  IDiag  1:
 RMSU=  3.28D-06    CP:  1.00D+00  1.00D+00
 E= -805.494948389794     Delta-E=       -0.000000010225 Rises=F Damp=F
 DIIS: error= 2.64D-05 at cycle   3 NSaved=   3.
 NSaved= 3 IEnMin= 3 EnMin= -805.494948389794     IErMin= 3 ErrMin= 2.64D-05
 ErrMax= 2.64D-05  0.00D+00 EMaxC= 1.00D-01 BMatC= 2.01D-07 BMatP= 2.12D-07
 IDIUse=1 WtCom= 1.00D+00 WtEn= 0.00D+00
 Coeff-Com:  0.748D-02 0.492D+00 0.501D+00
 Coeff:      0.748D-02 0.492D+00 0.501D+00
 Gap=     0.189 Goal=   None    Shift=    0.000
 RMSDP=1.73D-06 MaxDP=6.25D-05 DE=-1.02D-08 OVMax= 1.97D-04

 Cycle  12  Pass 1  IDiag  1:
 RMSU=  5.01D-07    CP:  1.00D+00  1.01D+00  5.03D-01
 E= -805.494948601634     Delta-E=       -0.000000211840 Rises=F Damp=F
 DIIS: error= 5.42D-06 at cycle   4 NSaved=   4.
 NSaved= 4 IEnMin= 4 EnMin= -805.494948601634     IErMin= 4 ErrMin= 5.42D-06
 ErrMax= 5.42D-06  0.00D+00 EMaxC= 1.00D-01 BMatC= 5.89D-09 BMatP= 2.01D-07
 IDIUse=1 WtCom= 1.00D+00 WtEn= 0.00D+00
 Coeff-Com: -0.301D-02 0.290D+00 0.313D+00 0.400D+00
 Coeff:     -0.301D-02 0.290D+00 0.313D+00 0.400D+00
 Gap=     0.189 Goal=   None    Shift=    0.000
 RMSDP=2.85D-07 MaxDP=1.42D-05 DE=-2.12D-07 OVMax= 2.19D-05

 Cycle  13  Pass 1  IDiag  1:
 RMSU=  1.15D-07    CP:  1.00D+00  1.01D+00  5.14D-01  4.88D-01
 E= -805.494948606878     Delta-E=       -0.000000005244 Rises=F Damp=F
 DIIS: error= 1.11D-06 at cycle   5 NSaved=   5.
 NSaved= 5 IEnMin= 5 EnMin= -805.494948606878     IErMin= 5 ErrMin= 1.11D-06
 ErrMax= 1.11D-06  0.00D+00 EMaxC= 1.00D-01 BMatC= 2.62D-10 BMatP= 5.89D-09
 IDIUse=1 WtCom= 1.00D+00 WtEn= 0.00D+00
 Coeff-Com: -0.233D-02 0.145D+00 0.159D+00 0.235D+00 0.463D+00
 Coeff:     -0.233D-02 0.145D+00 0.159D+00 0.235D+00 0.463D+00
 Gap=     0.189 Goal=   None    Shift=    0.000
 RMSDP=5.49D-08 MaxDP=3.27D-06 DE=-5.24D-09 OVMax= 3.97D-06

 Cycle  14  Pass 1  IDiag  1:
 RMSU=  3.82D-08    CP:  1.00D+00  1.01D+00  5.17D-01  5.00D-01  6.77D-01
 E= -805.494948607074     Delta-E=       -0.000000000196 Rises=F Damp=F
 DIIS: error= 2.41D-07 at cycle   6 NSaved=   6.
 NSaved= 6 IEnMin= 6 EnMin= -805.494948607074     IErMin= 6 ErrMin= 2.41D-07
 ErrMax= 2.41D-07  0.00D+00 EMaxC= 1.00D-01 BMatC= 1.50D-11 BMatP= 2.62D-10
 IDIUse=1 WtCom= 1.00D+00 WtEn= 0.00D+00
 Coeff-Com: -0.106D-02 0.575D-01 0.636D-01 0.978D-01 0.260D+00 0.523D+00
 Coeff:     -0.106D-02 0.575D-01 0.636D-01 0.978D-01 0.260D+00 0.523D+00
 Gap=     0.189 Goal=   None    Shift=    0.000
 RMSDP=1.47D-08 MaxDP=7.34D-07 DE=-1.96D-10 OVMax= 7.13D-07

 Cycle  15  Pass 1  IDiag  1:
 RMSU=  1.12D-08    CP:  1.00D+00  1.01D+00  5.17D-01  4.92D-01  7.06D-01
                    CP:  7.99D-01
 E= -805.494948607089     Delta-E=       -0.000000000015 Rises=F Damp=F
 DIIS: error= 5.06D-08 at cycle   7 NSaved=   7.
 NSaved= 7 IEnMin= 7 EnMin= -805.494948607089     IErMin= 7 ErrMin= 5.06D-08
 ErrMax= 5.06D-08  0.00D+00 EMaxC= 1.00D-01 BMatC= 7.98D-13 BMatP= 1.50D-11
 IDIUse=1 WtCom= 1.00D+00 WtEn= 0.00D+00
 Coeff-Com: -0.279D-03 0.138D-01 0.154D-01 0.247D-01 0.777D-01 0.241D+00
 Coeff-Com:  0.627D+00
 Coeff:     -0.279D-03 0.138D-01 0.154D-01 0.247D-01 0.777D-01 0.241D+00
 Coeff:      0.627D+00
 Gap=     0.189 Goal=   None    Shift=    0.000
 RMSDP=4.15D-09 MaxDP=1.75D-07 DE=-1.50D-11 OVMax= 3.47D-07

 SCF Done:  E(RB3LYP) =  -805.494948607     A.U. after   15 cycles
            NFock= 15  Conv=0.42D-08     -V/T= 2.0088
 KE= 7.984649172676D+02 PE=-4.418413553795D+03 EE= 1.541875683319D+03
 Leave Link  502 at Fri Nov  4 18:10:07 2022, MaxMem=   805306368 cpu:             208.7 elap:              30.0
 (Enter /home/wykgroup/appl/g16/l508.exe)
 QCSCF skips out because SCF is already converged.
 Leave Link  508 at Fri Nov  4 18:10:07 2022, MaxMem=   805306368 cpu:               0.0 elap:               0.0
 (Enter /home/wykgroup/appl/g16/l601.exe)
 Copying SCF densities to generalized density rwf, IOpCl= 0 IROHF=0.

 **********************************************************************

            Population analysis using the SCF Density.

 **********************************************************************

 Orbital symmetries:
       Occupied  (A) (A) (A) (A) (A) (A) (A) (A) (A) (A) (A) (A)
                 (A) (A) (A) (A) (A) (A) (A) (A) (A) (A) (A) (A)
                 (A) (A) (A) (A) (A) (A) (A) (A) (A) (A) (A) (A)
                 (A) (A) (A) (A) (A) (A) (A) (A) (A) (A) (A) (A)
                 (A) (A) (A) (A) (A) (A) (A) (A) (A) (A) (A) (A)
                 (A) (A) (A) (A) (A) (A) (A)
       Virtual   (A) (A) (A) (A) (A) (A) (A) (A) (A) (A) (A) (A)
                 (A) (A) (A) (A) (A) (A) (A) (A) (A) (A) (A) (A)
                 (A) (A) (A) (A) (A) (A) (A) (A) (A) (A) (A) (A)
                 (A) (A) (A) (A) (A) (A) (A) (A) (A) (A) (A) (A)
                 (A) (A) (A) (A) (A) (A) (A) (A) (A) (A) (A) (A)
                 (A) (A) (A) (A) (A) (A) (A) (A) (A) (A) (A) (A)
                 (A) (A) (A) (A) (A) (A) (A) (A) (A) (A) (A) (A)
                 (A) (A) (A) (A) (A) (A) (A) (A) (A) (A) (A) (A)
                 (A) (A) (A) (A) (A) (A) (A) (A) (A) (A) (A) (A)
                 (A) (A) (A) (A) (A) (A) (A) (A) (A) (A) (A) (A)
                 (A) (A) (A) (A) (A) (A) (A) (A) (A) (A) (A) (A)
                 (A) (A) (A) (A) (A) (A) (A) (A) (A) (A) (A) (A)
                 (A) (A) (A) (A) (A) (A) (A) (A) (A) (A) (A) (A)
                 (A) (A) (A) (A) (A) (A) (A) (A) (A) (A) (A) (A)
                 (A) (A) (A) (A) (A) (A) (A) (A) (A) (A) (A) (A)
                 (A) (A) (A) (A) (A) (A) (A) (A) (A) (A) (A) (A)
                 (A) (A) (A) (A) (A) (A) (A) (A) (A) (A) (A) (A)
                 (A) (A) (A) (A) (A) (A) (A) (A) (A) (A) (A) (A)
                 (A) (A) (A) (A) (A) (A) (A) (A) (A) (A) (A) (A)
                 (A) (A) (A) (A) (A) (A) (A) (A) (A) (A) (A) (A)
                 (A) (A) (A)
 The electronic state is 1-A.
 Alpha  occ. eigenvalues --  -19.14617 -19.11202 -14.36471 -14.32803 -10.28189
 Alpha  occ. eigenvalues --  -10.23724 -10.23115 -10.21856 -10.21156 -10.21061
 Alpha  occ. eigenvalues --  -10.19183 -10.19152 -10.19125 -10.17497 -10.16904
 Alpha  occ. eigenvalues --  -10.16621 -10.16176 -10.15767  -1.04209  -1.03831
 Alpha  occ. eigenvalues --   -0.93763  -0.92576  -0.83001  -0.79485  -0.77760
 Alpha  occ. eigenvalues --   -0.76573  -0.73138  -0.72066  -0.66865  -0.65363
 Alpha  occ. eigenvalues --   -0.61468  -0.60440  -0.58816  -0.57849  -0.55866
 Alpha  occ. eigenvalues --   -0.53296  -0.50997  -0.49797  -0.48668  -0.47848
 Alpha  occ. eigenvalues --   -0.46944  -0.46855  -0.45732  -0.44903  -0.42455
 Alpha  occ. eigenvalues --   -0.41751  -0.41410  -0.40815  -0.40492  -0.40116
 Alpha  occ. eigenvalues --   -0.39401  -0.36942  -0.36400  -0.36285  -0.36008
 Alpha  occ. eigenvalues --   -0.35570  -0.34680  -0.34488  -0.33972  -0.33627
 Alpha  occ. eigenvalues --   -0.31950  -0.30853  -0.27225  -0.25093  -0.24489
 Alpha  occ. eigenvalues --   -0.21053  -0.18239
 Alpha virt. eigenvalues --    0.00702   0.02773   0.06253   0.07673   0.07939
 Alpha virt. eigenvalues --    0.10063   0.10966   0.11472   0.11772   0.12263
 Alpha virt. eigenvalues --    0.14034   0.14331   0.15125   0.16083   0.16221
 Alpha virt. eigenvalues --    0.16328   0.17406   0.17491   0.17905   0.18987
 Alpha virt. eigenvalues --    0.19420   0.19586   0.20426   0.20873   0.21731
 Alpha virt. eigenvalues --    0.22622   0.22948   0.23760   0.24176   0.24622
 Alpha virt. eigenvalues --    0.25147   0.27920   0.29731   0.30679   0.31676
 Alpha virt. eigenvalues --    0.32665   0.34577   0.36378   0.36955   0.40669
 Alpha virt. eigenvalues --    0.43323   0.48305   0.51153   0.52431   0.52623
 Alpha virt. eigenvalues --    0.53175   0.53677   0.54332   0.54638   0.55140
 Alpha virt. eigenvalues --    0.55913   0.56878   0.57416   0.57532   0.58222
 Alpha virt. eigenvalues --    0.58562   0.60019   0.60846   0.61206   0.62419
 Alpha virt. eigenvalues --    0.62791   0.63386   0.64154   0.64848   0.65522
 Alpha virt. eigenvalues --    0.66320   0.67027   0.67963   0.69172   0.69383
 Alpha virt. eigenvalues --    0.71330   0.72446   0.74968   0.75579   0.77464
 Alpha virt. eigenvalues --    0.78034   0.78555   0.79892   0.81916   0.82193
 Alpha virt. eigenvalues --    0.83107   0.83958   0.84160   0.84984   0.86018
 Alpha virt. eigenvalues --    0.87144   0.87202   0.87729   0.88291   0.88739
 Alpha virt. eigenvalues --    0.89092   0.89632   0.90533   0.91234   0.91515
 Alpha virt. eigenvalues --    0.91527   0.92550   0.92993   0.93926   0.95482
 Alpha virt. eigenvalues --    0.96014   0.96461   0.97275   0.98629   0.99169
 Alpha virt. eigenvalues --    0.99781   1.02649   1.03912   1.06218   1.07233
 Alpha virt. eigenvalues --    1.07557   1.08978   1.14468   1.15257   1.18018
 Alpha virt. eigenvalues --    1.19841   1.21764   1.22839   1.26112   1.27706
 Alpha virt. eigenvalues --    1.28421   1.30542   1.31938   1.33502   1.36185
 Alpha virt. eigenvalues --    1.37170   1.39594   1.39861   1.42362   1.47313
 Alpha virt. eigenvalues --    1.47749   1.48181   1.49249   1.50005   1.50899
 Alpha virt. eigenvalues --    1.52283   1.53989   1.55669   1.57975   1.60249
 Alpha virt. eigenvalues --    1.61196   1.64450   1.70378   1.72323   1.76185
 Alpha virt. eigenvalues --    1.77093   1.78995   1.79351   1.80828   1.81054
 Alpha virt. eigenvalues --    1.82516   1.82990   1.83840   1.85104   1.86148
 Alpha virt. eigenvalues --    1.86652   1.87963   1.90069   1.91418   1.92424
 Alpha virt. eigenvalues --    1.93891   1.94259   1.95709   1.96681   1.97631
 Alpha virt. eigenvalues --    1.99569   2.01758   2.02023   2.02150   2.03160
 Alpha virt. eigenvalues --    2.05158   2.07750   2.08912   2.10906   2.12096
 Alpha virt. eigenvalues --    2.13128   2.14081   2.15682   2.18384   2.18670
 Alpha virt. eigenvalues --    2.20237   2.20805   2.23328   2.25991   2.27824
 Alpha virt. eigenvalues --    2.30787   2.31737   2.32248   2.32976   2.34521
 Alpha virt. eigenvalues --    2.35682   2.38266   2.39671   2.40266   2.42993
 Alpha virt. eigenvalues --    2.43784   2.45675   2.47718   2.50303   2.52939
 Alpha virt. eigenvalues --    2.54748   2.56502   2.58455   2.61290   2.61716
 Alpha virt. eigenvalues --    2.63809   2.66974   2.67560   2.70688   2.72154
 Alpha virt. eigenvalues --    2.73069   2.74866   2.75654   2.78940   2.80999
 Alpha virt. eigenvalues --    2.83422   2.87171   2.94621   2.96532   2.99264
 Alpha virt. eigenvalues --    3.03736   3.05164   3.18232   3.35673   3.49093
 Alpha virt. eigenvalues --    4.01426   4.04889   4.09879   4.12081   4.12897
 Alpha virt. eigenvalues --    4.16642   4.18493   4.19917   4.21625   4.27547
 Alpha virt. eigenvalues --    4.36234   4.38507   4.41586   4.45421   4.52695
 Alpha virt. eigenvalues --    4.55380   4.61507   4.78180
          Condensed to atoms (all electrons):
               1          2          3          4          5          6
     1  C    5.022256   0.354728  -0.031089   0.005626   0.004833  -0.000112
     2  C    0.354728   5.301574   0.324095  -0.089597  -0.133992   0.005611
     3  C   -0.031089   0.324095   4.324514   0.596016   0.267324  -0.018773
     4  O    0.005626  -0.089597   0.596016   8.042345  -0.085586  -0.005738
     5  N    0.004833  -0.133992   0.267324  -0.085586   7.273536   0.224586
     6  C   -0.000112   0.005611  -0.018773  -0.005738   0.224586   4.497152
     7  C    0.000004  -0.000562   0.005777   0.000193  -0.057075   0.502535
     8  C   -0.000000  -0.000000  -0.000115  -0.000005   0.005158   0.001617
     9  C   -0.000000   0.000001   0.000018   0.000003   0.000804  -0.040771
    10  C   -0.000000   0.000010   0.000376   0.001061   0.003551   0.002069
    11  N    0.000000  -0.000000  -0.000003  -0.000009  -0.000084   0.004716
    12  C   -0.000000  -0.000000  -0.000000  -0.000000   0.000001  -0.000116
    13  C   -0.000000   0.000000   0.000000   0.000000  -0.000000   0.000002
    14  C   -0.000000  -0.000000  -0.000000  -0.000000   0.000000  -0.000000
    15  C   -0.000000  -0.000000  -0.000000  -0.000000   0.000000  -0.000000
    16  C    0.000000   0.000000   0.000000   0.000000  -0.000000   0.000000
    17  O   -0.000000  -0.000000  -0.000000   0.000000   0.000000  -0.000001
    18  C   -0.000005   0.000731  -0.005381  -0.008401  -0.057707   0.558349
    19  H    0.386283  -0.036156  -0.003526   0.003621   0.000264   0.000002
    20  H    0.386107  -0.036155  -0.003550   0.003752   0.000273   0.000002
    21  H    0.365380  -0.030261   0.004639   0.000587  -0.000039   0.000002
    22  H   -0.032101   0.358952  -0.028791   0.000991   0.001303  -0.000071
    23  H   -0.032063   0.358561  -0.028378   0.000979   0.001132  -0.000094
    24  H   -0.000050   0.004210  -0.032053   0.003341   0.300843  -0.027491
    25  H    0.000000  -0.000011   0.000110   0.000003  -0.010673  -0.050051
    26  H    0.000000  -0.000000   0.000001  -0.000000  -0.000132   0.003889
    27  H   -0.000000   0.000000   0.000000   0.000000   0.000005   0.000427
    28  H    0.000000  -0.000000  -0.000004  -0.000051   0.000002  -0.000064
    29  H   -0.000000   0.000000  -0.000000   0.000000   0.000000   0.000005
    30  H    0.000000  -0.000000   0.000000  -0.000000   0.000000  -0.000003
    31  H   -0.000000   0.000000  -0.000000   0.000000   0.000000  -0.000000
    32  H    0.000000   0.000000   0.000000  -0.000000   0.000000   0.000000
    33  H    0.000000  -0.000000   0.000000  -0.000000  -0.000000   0.000000
    34  H    0.000000  -0.000000   0.000000  -0.000000  -0.000000   0.000000
    35  H    0.000000   0.000000   0.000000   0.000000  -0.000000   0.000000
    36  H    0.000000   0.000000   0.000000  -0.000000  -0.000000   0.000000
    37  H   -0.000000  -0.000000  -0.000000   0.000000   0.000000  -0.000000
    38  H   -0.000010   0.000670   0.003092   0.027131  -0.014130  -0.022988
               7          8          9         10         11         12
     1  C    0.000004  -0.000000  -0.000000  -0.000000   0.000000  -0.000000
     2  C   -0.000562  -0.000000   0.000001   0.000010  -0.000000  -0.000000
     3  C    0.005777  -0.000115   0.000018   0.000376  -0.000003  -0.000000
     4  O    0.000193  -0.000005   0.000003   0.001061  -0.000009  -0.000000
     5  N   -0.057075   0.005158   0.000804   0.003551  -0.000084   0.000001
     6  C    0.502535   0.001617  -0.040771   0.002069   0.004716  -0.000116
     7  C    5.085888   0.549247  -0.052094  -0.040262   0.001091   0.000008
     8  C    0.549247   4.813427   0.537892   0.003763   0.005504  -0.000078
     9  C   -0.052094   0.537892   5.030287   0.530568  -0.077144  -0.008888
    10  C   -0.040262   0.003763   0.530568   4.498800   0.295443  -0.032991
    11  N    0.001091   0.005504  -0.077144   0.295443   7.070600   0.302023
    12  C    0.000008  -0.000078  -0.008888  -0.032991   0.302023   4.968777
    13  C    0.000000  -0.000005   0.000465   0.003349  -0.031553   0.361685
    14  C   -0.000000   0.000000   0.000010  -0.000128   0.003273  -0.034704
    15  C    0.000000   0.000000  -0.000001  -0.000002  -0.000128  -0.007712
    16  C    0.000000  -0.000000  -0.000001   0.000009   0.000298   0.002037
    17  O   -0.000000   0.000000   0.000013   0.000028  -0.010702  -0.053401
    18  C   -0.087215  -0.050178  -0.067845   0.465021  -0.056080   0.005214
    19  H   -0.000000  -0.000000  -0.000000  -0.000000   0.000000   0.000000
    20  H   -0.000000  -0.000000  -0.000000  -0.000000   0.000000   0.000000
    21  H   -0.000000   0.000000   0.000000  -0.000000  -0.000000   0.000000
    22  H    0.000003  -0.000000  -0.000000  -0.000000   0.000000   0.000000
    23  H    0.000005  -0.000000  -0.000000  -0.000000   0.000000  -0.000000
    24  H   -0.007737   0.000012  -0.000022   0.000067   0.000001  -0.000000
    25  H    0.343164  -0.038819   0.005343   0.000567   0.000005  -0.000000
    26  H   -0.041786   0.354848  -0.039971   0.003745  -0.000137  -0.000001
    27  H    0.005621  -0.045410   0.350332  -0.044055  -0.011526   0.006949
    28  H   -0.000026  -0.000069   0.006880  -0.022800   0.303853  -0.047835
    29  H   -0.000006   0.000207   0.004564  -0.007700  -0.045444   0.349456
    30  H   -0.000014  -0.000140   0.003353   0.002142  -0.059536   0.353000
    31  H    0.000000  -0.000000  -0.000032   0.000348   0.000774  -0.063884
    32  H    0.000000  -0.000000  -0.000003   0.000005   0.000148  -0.005497
    33  H    0.000000   0.000000   0.000000   0.000002  -0.000093   0.004617
    34  H   -0.000000  -0.000000   0.000000  -0.000000   0.000000  -0.000092
    35  H   -0.000000   0.000000   0.000002  -0.000001  -0.000143   0.000777
    36  H    0.000000  -0.000000  -0.000000   0.000000   0.000078   0.000171
    37  H   -0.000000   0.000000   0.000000  -0.000000  -0.000024  -0.000420
    38  H    0.006376  -0.000056   0.005829  -0.045540  -0.007731   0.000022
              13         14         15         16         17         18
     1  C   -0.000000  -0.000000  -0.000000   0.000000  -0.000000  -0.000005
     2  C    0.000000  -0.000000  -0.000000   0.000000  -0.000000   0.000731
     3  C    0.000000  -0.000000  -0.000000   0.000000  -0.000000  -0.005381
     4  O    0.000000  -0.000000  -0.000000   0.000000   0.000000  -0.008401
     5  N   -0.000000   0.000000   0.000000  -0.000000   0.000000  -0.057707
     6  C    0.000002  -0.000000  -0.000000   0.000000  -0.000001   0.558349
     7  C    0.000000  -0.000000   0.000000   0.000000  -0.000000  -0.087215
     8  C   -0.000005   0.000000   0.000000  -0.000000   0.000000  -0.050178
     9  C    0.000465   0.000010  -0.000001  -0.000001   0.000013  -0.067845
    10  C    0.003349  -0.000128  -0.000002   0.000009   0.000028   0.465021
    11  N   -0.031553   0.003273  -0.000128   0.000298  -0.010702  -0.056080
    12  C    0.361685  -0.034704  -0.007712   0.002037  -0.053401   0.005214
    13  C    4.803686   0.351671  -0.059463  -0.062409   0.248836  -0.000135
    14  C    0.351671   5.130848   0.357643  -0.076043  -0.045067   0.000001
    15  C   -0.059463   0.357643   5.094444   0.362752  -0.048067  -0.000000
    16  C   -0.062409  -0.076043   0.362752   4.818905   0.264916  -0.000000
    17  O    0.248836  -0.045067  -0.048067   0.264916   8.242821  -0.000095
    18  C   -0.000135   0.000001  -0.000000  -0.000000  -0.000095   5.220730
    19  H    0.000000   0.000000   0.000000  -0.000000  -0.000000  -0.000001
    20  H   -0.000000  -0.000000   0.000000   0.000000  -0.000000  -0.000001
    21  H   -0.000000   0.000000  -0.000000   0.000000  -0.000000  -0.000000
    22  H   -0.000000  -0.000000   0.000000   0.000000  -0.000000  -0.000020
    23  H    0.000000   0.000000   0.000000  -0.000000  -0.000000  -0.000018
    24  H    0.000000  -0.000000   0.000000  -0.000000   0.000000   0.006139
    25  H   -0.000000  -0.000000   0.000000  -0.000000   0.000000   0.006797
    26  H   -0.000000   0.000000  -0.000000   0.000000  -0.000000   0.001131
    27  H    0.000041   0.000005  -0.000001  -0.000000   0.000000   0.006076
    28  H   -0.012655   0.000767   0.000191  -0.000646   0.023354  -0.008789
    29  H   -0.020661  -0.003900   0.000678  -0.000137   0.003693  -0.000279
    30  H   -0.032987  -0.002094   0.000444   0.001273  -0.001245   0.000498
    31  H    0.375160  -0.042926   0.005825   0.005078  -0.045414  -0.000024
    32  H   -0.031505   0.365939  -0.026838   0.006032   0.003008   0.000000
    33  H   -0.028941   0.372072  -0.038291   0.001135   0.000310  -0.000000
    34  H    0.005404  -0.028388   0.364068  -0.027001   0.002990   0.000000
    35  H   -0.000569  -0.040497   0.377108  -0.033925   0.000941   0.000000
    36  H    0.006165   0.006345  -0.031390   0.377112  -0.039674   0.000000
    37  H    0.000110  -0.005107  -0.040800   0.368668  -0.045338  -0.000000
    38  H   -0.000008  -0.000000  -0.000000   0.000000  -0.000025   0.326371
              19         20         21         22         23         24
     1  C    0.386283   0.386107   0.365380  -0.032101  -0.032063  -0.000050
     2  C   -0.036156  -0.036155  -0.030261   0.358952   0.358561   0.004210
     3  C   -0.003526  -0.003550   0.004639  -0.028791  -0.028378  -0.032053
     4  O    0.003621   0.003752   0.000587   0.000991   0.000979   0.003341
     5  N    0.000264   0.000273  -0.000039   0.001303   0.001132   0.300843
     6  C    0.000002   0.000002   0.000002  -0.000071  -0.000094  -0.027491
     7  C   -0.000000  -0.000000  -0.000000   0.000003   0.000005  -0.007737
     8  C   -0.000000  -0.000000   0.000000  -0.000000  -0.000000   0.000012
     9  C   -0.000000  -0.000000   0.000000  -0.000000  -0.000000  -0.000022
    10  C   -0.000000  -0.000000  -0.000000  -0.000000  -0.000000   0.000067
    11  N    0.000000   0.000000  -0.000000   0.000000   0.000000   0.000001
    12  C    0.000000   0.000000   0.000000   0.000000  -0.000000  -0.000000
    13  C    0.000000  -0.000000  -0.000000  -0.000000   0.000000   0.000000
    14  C    0.000000  -0.000000   0.000000  -0.000000   0.000000  -0.000000
    15  C    0.000000   0.000000  -0.000000   0.000000   0.000000   0.000000
    16  C   -0.000000   0.000000   0.000000   0.000000  -0.000000  -0.000000
    17  O   -0.000000  -0.000000  -0.000000  -0.000000  -0.000000   0.000000
    18  C   -0.000001  -0.000001  -0.000000  -0.000020  -0.000018   0.006139
    19  H    0.542117  -0.026986  -0.030410  -0.004047   0.004979   0.000004
    20  H   -0.026986   0.542268  -0.030430   0.004982  -0.004025   0.000004
    21  H   -0.030410  -0.030430   0.588433  -0.002593  -0.002616  -0.000029
    22  H   -0.004047   0.004982  -0.002593   0.573892  -0.033358   0.001620
    23  H    0.004979  -0.004025  -0.002616  -0.033358   0.574360   0.001674
    24  H    0.000004   0.000004  -0.000029   0.001620   0.001674   0.413064
    25  H   -0.000000  -0.000000  -0.000000  -0.000007  -0.000007   0.009715
    26  H    0.000000   0.000000  -0.000000   0.000000   0.000000  -0.000016
    27  H   -0.000000  -0.000000  -0.000000  -0.000000  -0.000000  -0.000001
    28  H    0.000000   0.000000   0.000000   0.000000   0.000000   0.000000
    29  H   -0.000000   0.000000  -0.000000   0.000000  -0.000000   0.000000
    30  H    0.000000  -0.000000   0.000000  -0.000000   0.000000  -0.000000
    31  H    0.000000  -0.000000  -0.000000  -0.000000   0.000000   0.000000
    32  H   -0.000000   0.000000   0.000000   0.000000  -0.000000  -0.000000
    33  H    0.000000  -0.000000  -0.000000  -0.000000   0.000000   0.000000
    34  H    0.000000  -0.000000   0.000000  -0.000000   0.000000  -0.000000
    35  H    0.000000  -0.000000  -0.000000  -0.000000   0.000000   0.000000
    36  H   -0.000000   0.000000   0.000000   0.000000  -0.000000  -0.000000
[...]
    24  H   -0.006983   0.000011  -0.000017   0.000058   0.000001  -0.000000
    25  H    0.344060  -0.037548   0.004953   0.000468   0.000005  -0.000000
    26  H   -0.040987   0.354127  -0.039002   0.003560  -0.000125  -0.000000
    27  H    0.005214  -0.043709   0.351641  -0.043586  -0.010528   0.006023
    28  H   -0.000022  -0.000067   0.006217  -0.023124   0.301458  -0.044678
    29  H   -0.000006   0.000239   0.004206  -0.008006  -0.042489   0.350947
    30  H   -0.000012  -0.000154   0.003161   0.001899  -0.057539   0.352073
    31  H    0.000000  -0.000000  -0.000030   0.000195   0.000717  -0.059393
    32  H    0.000000  -0.000000  -0.000003   0.000002   0.000152  -0.006750
    33  H    0.000000  -0.000000  -0.000000   0.000002  -0.000084   0.003959
    34  H   -0.000000  -0.000000   0.000000  -0.000000   0.000001  -0.000140
    35  H   -0.000000   0.000000   0.000001  -0.000000  -0.000101   0.000886
    36  H    0.000000  -0.000000   0.000000   0.000000   0.000044  -0.000194
    37  H   -0.000000   0.000000   0.000000  -0.000000  -0.000032  -0.000277
    38  H    0.005868  -0.000089   0.005272  -0.043543  -0.006621   0.000002
              13         14         15         16         17         18
     1  C   -0.000000  -0.000000  -0.000000   0.000000  -0.000000   0.000001
     2  C    0.000000  -0.000000  -0.000000   0.000000  -0.000000   0.000543
     3  C    0.000000  -0.000000  -0.000000   0.000000  -0.000000  -0.004422
     4  O    0.000000  -0.000000   0.000000   0.000000   0.000000  -0.008077
     5  N   -0.000000   0.000000   0.000000  -0.000000   0.000000  -0.055321
     6  C    0.000001  -0.000000  -0.000000   0.000000  -0.000000   0.555798
     7  C    0.000000  -0.000000   0.000000   0.000000  -0.000000  -0.082387
     8  C   -0.000004   0.000000   0.000000  -0.000000   0.000000  -0.046855
     9  C    0.000450   0.000006  -0.000001  -0.000000   0.000009  -0.064536
    10  C    0.003180  -0.000089  -0.000001   0.000003   0.000024   0.461936
    11  N   -0.032443   0.003265  -0.000148   0.000272  -0.012343  -0.053949
    12  C    0.369487  -0.026627  -0.004743   0.004155  -0.048510   0.004506
    13  C    4.794004   0.340765  -0.059359  -0.056849   0.243541  -0.000110
    14  C    0.340765   5.156213   0.359532  -0.071311  -0.048964   0.000001
    15  C   -0.059359   0.359532   5.081998   0.362367  -0.048059  -0.000000
    16  C   -0.056849  -0.071311   0.362367   4.824864   0.259388   0.000000
    17  O    0.243541  -0.048964  -0.048059   0.259388   8.251833  -0.000080
    18  C   -0.000110   0.000001  -0.000000   0.000000  -0.000080   5.203552
    19  H    0.000000   0.000000  -0.000000  -0.000000  -0.000000  -0.000001
    20  H    0.000000  -0.000000   0.000000  -0.000000   0.000000  -0.000002
    21  H   -0.000000  -0.000000  -0.000000   0.000000  -0.000000  -0.000000
    22  H    0.000000  -0.000000   0.000000  -0.000000   0.000000   0.000000
    23  H    0.000000   0.000000  -0.000000  -0.000000  -0.000000  -0.000033
    24  H    0.000000  -0.000000   0.000000  -0.000000   0.000000   0.005682
    25  H   -0.000000  -0.000000   0.000000  -0.000000   0.000000   0.006163
    26  H   -0.000000   0.000000  -0.000000   0.000000  -0.000000   0.001039
    27  H    0.000011   0.000004  -0.000000  -0.000000  -0.000001   0.005486
    28  H   -0.013166   0.000589   0.000196  -0.000776   0.024897  -0.007878
    29  H   -0.020864  -0.003892   0.000518  -0.000194   0.003578  -0.000251
    30  H   -0.037128  -0.002397   0.000117   0.000781  -0.000362   0.000491
    31  H    0.371389  -0.049455   0.005040   0.003015  -0.044588  -0.000016
    32  H   -0.031658   0.364260  -0.025140   0.005500   0.002750   0.000000
    33  H   -0.027782   0.368799  -0.036611   0.001037   0.000696  -0.000000
    34  H    0.005108  -0.029489   0.359061  -0.025764   0.003269   0.000000
    35  H   -0.000614  -0.038898   0.375621  -0.033984   0.001310   0.000000
    36  H    0.006349   0.005912  -0.028498   0.378224  -0.036473   0.000000
    37  H   -0.001626  -0.006694  -0.045439   0.363086  -0.041803  -0.000000
    38  H   -0.000004  -0.000000  -0.000000   0.000000  -0.000024   0.327678
              19         20         21         22         23         24
     1  C    0.379490   0.382561   0.368400  -0.031806  -0.035547  -0.000126
     2  C   -0.036350  -0.036079  -0.030344   0.360614   0.352314   0.003736
     3  C   -0.004079  -0.002693   0.004211  -0.023852  -0.035083  -0.025929
     4  O    0.010000   0.000550   0.000369  -0.000378   0.002559   0.003322
     5  N    0.000536   0.000190  -0.000046  -0.000827   0.004653   0.296177
     6  C    0.000007  -0.000009   0.000002  -0.000235   0.000368  -0.027500
     7  C   -0.000000  -0.000000  -0.000000   0.000015  -0.000021  -0.006983
     8  C   -0.000000   0.000000   0.000000  -0.000000   0.000000   0.000011
     9  C   -0.000000   0.000000   0.000000  -0.000000  -0.000000  -0.000017
    10  C   -0.000000  -0.000000  -0.000000  -0.000000  -0.000000   0.000058
    11  N    0.000000   0.000000  -0.000000   0.000000   0.000000   0.000001
    12  C    0.000000  -0.000000   0.000000   0.000000   0.000000  -0.000000
    13  C    0.000000   0.000000  -0.000000   0.000000   0.000000   0.000000
    14  C    0.000000  -0.000000  -0.000000  -0.000000   0.000000  -0.000000
    15  C   -0.000000   0.000000  -0.000000   0.000000  -0.000000   0.000000
    16  C   -0.000000  -0.000000   0.000000  -0.000000  -0.000000  -0.000000
    17  O   -0.000000   0.000000  -0.000000   0.000000  -0.000000   0.000000
    18  C   -0.000001  -0.000002  -0.000000   0.000000  -0.000033   0.005682
    19  H    0.525575  -0.026932  -0.028737  -0.002775   0.004926  -0.000005
    20  H   -0.026932   0.560343  -0.031420   0.004696  -0.003925  -0.000013
    21  H   -0.028737  -0.031420   0.583294  -0.003701  -0.002097  -0.000020
    22  H   -0.002775   0.004696  -0.003701   0.559082  -0.033515   0.000097
    23  H    0.004926  -0.003925  -0.002097  -0.033515   0.603903   0.004188
    24  H   -0.000005  -0.000013  -0.000020   0.000097   0.004188   0.411359
    25  H   -0.000000  -0.000000  -0.000000  -0.000000  -0.000020   0.009167
    26  H    0.000000   0.000000  -0.000000   0.000000   0.000000  -0.000015
    27  H   -0.000000  -0.000000  -0.000000  -0.000000  -0.000000  -0.000000
    28  H    0.000000  -0.000000   0.000000  -0.000000   0.000000   0.000000
    29  H   -0.000000  -0.000000   0.000000  -0.000000  -0.000000   0.000000
    30  H    0.000000  -0.000000  -0.000000  -0.000000   0.000000  -0.000000
    31  H    0.000000  -0.000000  -0.000000  -0.000000  -0.000000   0.000000
    32  H   -0.000000  -0.000000   0.000000   0.000000   0.000000  -0.000000
    33  H   -0.000000  -0.000000   0.000000  -0.000000   0.000000   0.000000
    34  H    0.000000  -0.000000   0.000000  -0.000000   0.000000  -0.000000
    35  H    0.000000  -0.000000  -0.000000  -0.000000   0.000000   0.000000
    36  H   -0.000000   0.000000   0.000000   0.000000   0.000000  -0.000000
    37  H    0.000000  -0.000000  -0.000000  -0.000000  -0.000000   0.000000
    38  H   -0.000006  -0.000001   0.000000  -0.000012  -0.000018  -0.000192
              25         26         27         28         29         30
     1  C    0.000000   0.000000  -0.000000   0.000000   0.000000  -0.000000
     2  C   -0.000003  -0.000000   0.000000  -0.000000  -0.000000   0.000000
     3  C    0.000084   0.000001   0.000000  -0.000004  -0.000000   0.000000
     4  O    0.000002  -0.000000   0.000000  -0.000041   0.000000  -0.000000
     5  N   -0.009841  -0.000123   0.000004   0.000001   0.000000   0.000000
     6  C   -0.048166   0.003726   0.000348  -0.000042   0.000005   0.000000
     7  C    0.344060  -0.040987   0.005214  -0.000022  -0.000006  -0.000012
     8  C   -0.037548   0.354127  -0.043709  -0.000067   0.000239  -0.000154
     9  C    0.004953  -0.039002   0.351641   0.006217   0.004206   0.003161
    10  C    0.000468   0.003560  -0.043586  -0.023124  -0.008006   0.001899
    11  N    0.000005  -0.000125  -0.010528   0.301458  -0.042489  -0.057539
    12  C   -0.000000  -0.000000   0.006023  -0.044678   0.350947   0.352073
    13  C   -0.000000  -0.000000   0.000011  -0.013166  -0.020864  -0.037128
    14  C   -0.000000   0.000000   0.000004   0.000589  -0.003892  -0.002397
    15  C    0.000000  -0.000000  -0.000000   0.000196   0.000518   0.000117
    16  C   -0.000000   0.000000  -0.000000  -0.000776  -0.000194   0.000781
    17  O    0.000000  -0.000000  -0.000001   0.024897   0.003578  -0.000362
    18  C    0.006163   0.001039   0.005486  -0.007878  -0.000251   0.000491
    19  H   -0.000000   0.000000  -0.000000   0.000000  -0.000000   0.000000
    20  H   -0.000000   0.000000  -0.000000  -0.000000  -0.000000  -0.000000
    21  H   -0.000000  -0.000000  -0.000000   0.000000   0.000000  -0.000000
    22  H   -0.000000   0.000000  -0.000000  -0.000000  -0.000000  -0.000000
    23  H   -0.000020   0.000000  -0.000000   0.000000  -0.000000   0.000000
    24  H    0.009167  -0.000015  -0.000000   0.000000   0.000000  -0.000000
    25  H    0.629538  -0.006062  -0.000172  -0.000000   0.000000   0.000000
    26  H   -0.006062   0.608161  -0.005950   0.000003  -0.000000   0.000001
    27  H   -0.000172  -0.005950   0.616821  -0.000112   0.001028   0.001217
    28  H   -0.000000   0.000003  -0.000112   0.405412   0.005643   0.000089
    29  H    0.000000  -0.000000   0.001028   0.005643   0.619724  -0.053286
    30  H    0.000000   0.000001   0.001217   0.000089  -0.053286   0.650553
    31  H    0.000000   0.000000   0.000012   0.001054  -0.002238   0.007078
    32  H    0.000000   0.000000   0.000005  -0.000014   0.001715   0.002403
    33  H    0.000000  -0.000000  -0.000000  -0.000015  -0.000198   0.000112
    34  H   -0.000000   0.000000   0.000000  -0.000002   0.000002  -0.000000
    35  H    0.000000   0.000000  -0.000000   0.000004   0.000019   0.002148
    36  H   -0.000000   0.000000   0.000000  -0.000090  -0.000001  -0.000151
    37  H    0.000000  -0.000000   0.000000   0.000081   0.000020   0.000054
    38  H   -0.000147   0.000013  -0.000124   0.005487  -0.000004   0.000024
              31         32         33         34         35         36
     1  C    0.000000  -0.000000   0.000000   0.000000   0.000000   0.000000
     2  C    0.000000   0.000000   0.000000   0.000000   0.000000   0.000000
     3  C   -0.000000   0.000000   0.000000   0.000000   0.000000   0.000000
     4  O    0.000000  -0.000000  -0.000000  -0.000000   0.000000  -0.000000
     5  N    0.000000   0.000000  -0.000000   0.000000  -0.000000  -0.000000
     6  C   -0.000000   0.000000   0.000000   0.000000  -0.000000   0.000000
     7  C    0.000000   0.000000   0.000000  -0.000000  -0.000000   0.000000
     8  C   -0.000000  -0.000000  -0.000000  -0.000000   0.000000  -0.000000
     9  C   -0.000030  -0.000003  -0.000000   0.000000   0.000001   0.000000
    10  C    0.000195   0.000002   0.000002  -0.000000  -0.000000   0.000000
    11  N    0.000717   0.000152  -0.000084   0.000001  -0.000101   0.000044
    12  C   -0.059393  -0.006750   0.003959  -0.000140   0.000886  -0.000194
    13  C    0.371389  -0.031658  -0.027782   0.005108  -0.000614   0.006349
    14  C   -0.049455   0.364260   0.368799  -0.029489  -0.038898   0.005912
    15  C    0.005040  -0.025140  -0.036611   0.359061   0.375621  -0.028498
    16  C    0.003015   0.005500   0.001037  -0.025764  -0.033984   0.378224
    17  O   -0.044588   0.002750   0.000696   0.003269   0.001310  -0.036473
    18  C   -0.000016   0.000000  -0.000000   0.000000   0.000000   0.000000
    19  H    0.000000  -0.000000  -0.000000   0.000000   0.000000  -0.000000
    20  H   -0.000000  -0.000000  -0.000000  -0.000000  -0.000000   0.000000
    21  H   -0.000000   0.000000   0.000000   0.000000  -0.000000   0.000000
    22  H   -0.000000   0.000000  -0.000000  -0.000000  -0.000000   0.000000
    23  H   -0.000000   0.000000   0.000000   0.000000   0.000000   0.000000
    24  H    0.000000  -0.000000   0.000000  -0.000000   0.000000  -0.000000
    25  H    0.000000   0.000000   0.000000  -0.000000   0.000000  -0.000000
    26  H    0.000000   0.000000  -0.000000   0.000000   0.000000   0.000000
    27  H    0.000012   0.000005  -0.000000   0.000000  -0.000000   0.000000
    28  H    0.001054  -0.000014  -0.000015  -0.000002   0.000004  -0.000090
    29  H   -0.002238   0.001715  -0.000198   0.000002   0.000019  -0.000001
    30  H    0.007078   0.002403   0.000112  -0.000000   0.002148  -0.000151
    31  H    0.629223   0.003969  -0.006343  -0.000038   0.000053  -0.000395
    32  H    0.003969   0.572319  -0.035002   0.001716  -0.006696  -0.000153
    33  H   -0.006343  -0.035002   0.581382  -0.006391   0.005078  -0.000124
    34  H   -0.000038   0.001716  -0.006391   0.579642  -0.032817   0.001552
    35  H    0.000053  -0.006696   0.005078  -0.032817   0.577686  -0.007695
    36  H   -0.000395  -0.000153  -0.000124   0.001552  -0.007695   0.583394
    37  H    0.002068  -0.000067   0.002225  -0.001742   0.005630  -0.050787
    38  H    0.000003   0.000000  -0.000000   0.000000   0.000000   0.000000
              37         38
     1  C   -0.000000  -0.000006
     2  C   -0.000000   0.000591
     3  C   -0.000000   0.002821
     4  O    0.000000   0.027026
     5  N    0.000000  -0.013197
     6  C   -0.000000  -0.022959
     7  C   -0.000000   0.005868
     8  C    0.000000  -0.000089
     9  C    0.000000   0.005272
    10  C   -0.000000  -0.043543
    11  N   -0.000032  -0.006621
    12  C   -0.000277   0.000002
    13  C   -0.001626  -0.000004
    14  C   -0.006694  -0.000000
    15  C   -0.045439  -0.000000
    16  C    0.363086   0.000000
    17  O   -0.041803  -0.000024
    18  C   -0.000000   0.327678
    19  H    0.000000  -0.000006
    20  H   -0.000000  -0.000001
    21  H   -0.000000   0.000000
    22  H   -0.000000  -0.000012
    23  H   -0.000000  -0.000018
    24  H    0.000000  -0.000192
    25  H    0.000000  -0.000147
    26  H   -0.000000   0.000013
    27  H    0.000000  -0.000124
    28  H    0.000081   0.005487
    29  H    0.000020  -0.000004
    30  H    0.000054   0.000024
    31  H    0.002068   0.000003
    32  H   -0.000067   0.000000
    33  H    0.002225  -0.000000
    34  H   -0.001742   0.000000
    35  H    0.005630   0.000000
    36  H   -0.050787   0.000000
    37  H    0.647010  -0.000000
    38  H   -0.000000   0.535242
 Mulliken charges:
               1
     1  C   -0.436731
     2  C   -0.366586
     3  C    0.625200
     4  O   -0.504401
     5  N   -0.723771
     6  C    0.357300
     7  C   -0.209365
     8  C   -0.140276
     9  C   -0.185880
    10  C    0.363339
    11  N   -0.679388
    12  C   -0.112412
    13  C    0.147323
    14  C   -0.321532
    15  C   -0.296450
    16  C   -0.013815
    17  O   -0.510091
    18  C   -0.248957
    19  H    0.178349
    20  H    0.152734
    21  H    0.140090
    22  H    0.172597
    23  H    0.137349
    24  H    0.327005
    25  H    0.107519
    26  H    0.121635
    27  H    0.116368
    28  H    0.338900
    29  H    0.143784
    30  H    0.128828
    31  H    0.138681
    32  H    0.150692
    33  H    0.149261
    34  H    0.146032
    35  H    0.152369
    36  H    0.149086
    37  H    0.128293
    38  H    0.176921
 Sum of Mulliken charges =  -0.00000
 Mulliken charges with hydrogens summed into heavy atoms:
               1
     1  C    0.034442
     2  C   -0.056640
     3  C    0.625200
     4  O   -0.504401
     5  N   -0.396766
     6  C    0.357300
     7  C   -0.101846
     8  C   -0.018641
     9  C   -0.069512
    10  C    0.363339
    11  N   -0.340488
    12  C    0.160200
    13  C    0.286003
    14  C   -0.021579
    15  C    0.001951
    16  C    0.263564
    17  O   -0.510091
    18  C   -0.072036
 Electronic spatial extent (au):  <R**2>=           7894.4411
 Charge=             -0.0000 electrons
 Dipole moment (field-independent basis, Debye):
    X=              1.1991    Y=              1.7754    Z=              1.2252  Tot=              2.4680
 Quadrupole moment (field-independent basis, Debye-Ang):
   XX=            -71.4016   YY=           -107.6405   ZZ=           -109.5304
   XY=             -6.7526   XZ=             -0.7945   YZ=             -0.7428
 Traceless Quadrupole moment (field-independent basis, Debye-Ang):
   XX=             24.7892   YY=            -11.4496   ZZ=            -13.3396
   XY=             -6.7526   XZ=             -0.7945   YZ=             -0.7428
 Octapole moment (field-independent basis, Debye-Ang**2):
  XXX=            -13.9777  YYY=              1.3161  ZZZ=             -2.4507  XYY=             12.0356
  XXY=              1.2607  XXZ=              7.6491  XZZ=              6.0059  YZZ=            -13.1323
  YYZ=              9.0584  XYZ=             -6.7388
 Hexadecapole moment (field-independent basis, Debye-Ang**3):
 XXXX=          -7446.0516 YYYY=          -1770.7112 ZZZZ=           -265.8089 XXXY=           -146.6671
 XXXZ=              3.4293 YYYX=            -50.3996 YYYZ=             12.4261 ZZZX=              5.5733
 ZZZY=             -2.6845 XXYY=          -1659.1091 XXZZ=          -1438.4119 YYZZ=           -359.6583
 XXYZ=             -7.4169 YYXZ=             -1.8113 ZZXY=             -0.7170
 N-N= 1.261816253620D+03 E-N=-4.396462449154D+03  KE= 7.978740240040D+02
 No NMR shielding tensors so no spin-rotation constants.
 Leave Link  601 at Fri Nov  4 18:28:48 2022, MaxMem=   805306368 cpu:               0.8 elap:               0.1
 (Enter /home/wykgroup/appl/g16/l9999.exe)
 1\1\GINC-NODE50\FOpt\RB3LYP\6-31G(d)\C14H20N2O2\WYKGROUP\04-Nov-2022\0
 \\#p b3lyp/6-31g(d) opt SCF=XQC\\Gaussian input prepared by ASE\\0,1\C
 ,5.7966798082,0.6304369929,-2.2928600308\C,5.4696854114,0.2056621281,-
 0.8602784953\C,3.9613432145,0.0617307215,-0.6342037256\O,3.2013773541,
 -0.2698711085,-1.534643272\N,3.5659796362,0.3077859977,0.6609163557\C,
 2.2833832923,0.2065854817,1.24726608\C,2.1825151964,0.5218759666,2.614
 6771487\C,0.9430387906,0.4438622159,3.237731292\C,-0.2000118086,0.0605
 867909,2.536424054\C,-0.100819912,-0.2638694857,1.1711666009\N,-1.1927
 894358,-0.6990798969,0.4285052251\C,-2.5569259991,-0.4814112846,0.8660
 006064\C,-3.5272745458,-1.0538780036,-0.1677435252\C,-5.0019456198,-0.
 6736421594,0.0953671121\C,-5.2596989914,0.4618577152,-0.9113270911\C,-
 4.3518019171,0.0513087127,-2.0708654397\O,-3.1891585818,-0.505915234,-
 1.4570179955\C,1.1522517437,-0.182286224,0.5304063204\H,5.3214332337,-
 0.0493021346,-3.0042792299\H,5.4255711344,1.6400698242,-2.4991291734\H
 ,6.8784545815,0.622110215,-2.4617656302\H,5.9231403799,-0.77379215,-0.
 650279236\H,5.9046601558,0.9082615184,-0.1371955419\H,4.2977722235,0.5
 858138763,1.3005304015\H,3.0644554087,0.8259836326,3.1739893533\H,0.86
 04844743,0.6919964163,4.2929433773\H,-1.1546396086,0.0155466503,3.0486
 333529\H,-1.0914700354,-0.5729532525,-0.5722955137\H,-2.7274512915,-0.
 9974420024,1.8197460671\H,-2.7816646057,0.5890035047,1.0282046554\H,-3
 .3907063837,-2.1426121573,-0.2131461254\H,-5.1742013952,-0.371860082,1
 .1336645295\H,-5.6571557119,-1.5260206634,-0.1146221542\H,-6.311621035
 2,0.5511967492,-1.1997641716\H,-4.9344902698,1.4245920441,-0.501029332
 \H,-4.0308387615,0.8839782061,-2.7043147837\H,-4.8434595386,-0.6998797
 279,-2.7100864399\H,1.2459034089,-0.4264297936,-0.5194286251\\Version=
 ES64L-G16RevB.01\State=1-A\HF=-805.4988114\RMSD=5.213e-09\RMSF=1.562e-
 06\Dipole=-0.5126071,0.466462,0.680055\Quadrupole=18.0879548,-9.696585
 2,-8.3913696,2.7583672,5.2606353,-0.1268203\PG=C01 [X(C14H20N2O2)]\\@


 STEINBACH'S GUIDELINES FOR SYSTEMS PROGRAMMING:
 NEVER TEST FOR AN ERROR CONDITION YOU DON'T KNOW HOW
 TO HANDLE.
 Job cpu time:       0 days  2 hours 11 minutes 48.9 seconds.
 Elapsed time:       0 days  0 hours 19 minutes 10.1 seconds.
 File lengths (MBytes):  RWF=     66 Int=      0 D2E=      0 Chk=     10 Scr=      1
 Normal termination of Gaussian 16 at Fri Nov  4 18:28:48 2022.
