 Entering Gaussian System, Link 0=/home/wykgroup/appl/g16/g16
 Input=calculation/no_transfer_pubchem_sampling_2_b3lyp/117769685_rwf.com
 Output=calculation/no_transfer_pubchem_sampling_2_b3lyp/117769685_rwf.log
 Initial command:
 /home/wykgroup/appl/g16/l1.exe "/userdata/scratch/wykgroup/khs/calculation/no_transfer_pubchem_sampling_2_b3lyp/117769685_rwf/Gau-26541.inp" -scrdir="/userdata/scratch/wykgroup/khs/calculation/no_transfer_pubchem_sampling_2_b3lyp/117769685_rwf/"
 Entering Link 1 = /home/wykgroup/appl/g16/l1.exe PID=     26542.
  
 Copyright (c) 1988-2017, Gaussian, Inc.  All Rights Reserved.
  
 This is part of the Gaussian(R) 16 program.  It is based on
 the Gaussian(R) 09 system (copyright 2009, Gaussian, Inc.),
 the Gaussian(R) 03 system (copyright 2003, Gaussian, Inc.),
 the Gaussian(R) 98 system (copyright 1998, Gaussian, Inc.),
 the Gaussian(R) 94 system (copyright 1995, Gaussian, Inc.),
 the Gaussian 92(TM) system (copyright 1992, Gaussian, Inc.),
 the Gaussian 90(TM) system (copyright 1990, Gaussian, Inc.),
 the Gaussian 88(TM) system (copyright 1988, Gaussian, Inc.),
 the Gaussian 86(TM) system (copyright 1986, Carnegie Mellon
 University), and the Gaussian 82(TM) system (copyright 1983,
 Carnegie Mellon University). Gaussian is a federally registered
 trademark of Gaussian, Inc.
  
 This software contains proprietary and confidential information,
 including trade secrets, belonging to Gaussian, Inc.
  
 This software is provided under written license and may be
 used, copied, transmitted, or stored only in accord with that
 written license.
  
 The following legend is applicable only to US Government
 contracts under FAR:
  
                    RESTRICTED RIGHTS LEGEND
  
 Use, reproduction and disclosure by the US Government is
 subject to restrictions as set forth in subparagraphs (a)
 and (c) of the Commercial Computer Software - Restricted
 Rights clause in FAR 52.227-19.
  
 Gaussian, Inc.
 340 Quinnipiac St., Bldg. 40, Wallingford CT 06492
  
  
 ---------------------------------------------------------------
 Warning -- This program may not be used in any manner that
 competes with the business of Gaussian, Inc. or will provide
 assistance to any competitor of Gaussian, Inc.  The licensee
 of this program is prohibited from giving any competitor of
 Gaussian, Inc. access to this program.  By using this program,
 the user acknowledges that Gaussian, Inc. is engaged in the
 business of creating and licensing software in the field of
 computational chemistry and represents and warrants to the
 licensee that it is not a competitor of Gaussian, Inc. and that
 it will not use this program in any manner prohibited above.
 ---------------------------------------------------------------
  

 Cite this work as:
 Gaussian 16, Revision B.01,
 M. J. Frisch, G. W. Trucks, H. B. Schlegel, G. E. Scuseria, 
 M. A. Robb, J. R. Cheeseman, G. Scalmani, V. Barone, 
 G. A. Petersson, H. Nakatsuji, X. Li, M. Caricato, A. V. Marenich, 
 J. Bloino, B. G. Janesko, R. Gomperts, B. Mennucci, H. P. Hratchian, 
 J. V. Ortiz, A. F. Izmaylov, J. L. Sonnenberg, D. Williams-Young, 
 F. Ding, F. Lipparini, F. Egidi, J. Goings, B. Peng, A. Petrone, 
 T. Henderson, D. Ranasinghe, V. G. Zakrzewski, J. Gao, N. Rega, 
 G. Zheng, W. Liang, M. Hada, M. Ehara, K. Toyota, R. Fukuda, 
 J. Hasegawa, M. Ishida, T. Nakajima, Y. Honda, O. Kitao, H. Nakai, 
 T. Vreven, K. Throssell, J. A. Montgomery, Jr., J. E. Peralta, 
 F. Ogliaro, M. J. Bearpark, J. J. Heyd, E. N. Brothers, K. N. Kudin, 
 V. N. Staroverov, T. A. Keith, R. Kobayashi, J. Normand, 
 K. Raghavachari, A. P. Rendell, J. C. Burant, S. S. Iyengar, 
 J. Tomasi, M. Cossi, J. M. Millam, M. Klene, C. Adamo, R. Cammi, 
 J. W. Ochterski, R. L. Martin, K. Morokuma, O. Farkas, 
 J. B. Foresman, and D. J. Fox, Gaussian, Inc., Wallingford CT, 2016.
 
 ******************************************
 Gaussian 16:  ES64L-G16RevB.01 20-Dec-2017
                 5-Nov-2022 
 ******************************************
 %chk=calculation/no_transfer_pubchem_sampling_2_b3lyp/117769685_rwf.chk
 %rwf=calculation/no_transfer_pubchem_sampling_2_b3lyp/117769685_rwf.rwf
 %nprocshared=14
 Will use up to   14 processors via shared memory.
 %mem=3GB
 -------------------------------------------------------------------
 #p b3lyp/6-31g(d) 6D 10F nosymm GFInput td=(50-50,nstate=2) SCF=XQC
 -------------------------------------------------------------------
 1/38=1,172=1/1;
 2/12=2,15=1,17=6,18=5,40=1/2;
 3/5=1,6=6,7=1,8=22,11=9,24=10,25=1,30=1,74=-5/1,2,3,8;
 4//1;
 5/5=2,8=3,13=1,38=5/2,8;
 8/6=1,10=2,108=2/1;
 9/41=2,42=1,48=2,70=2/14;
 6/7=2,8=2,9=2,10=2/1;
 99/5=1,9=1/99;
 Leave Link    1 at Sat Nov  5 11:38:26 2022, MaxMem=   402653184 cpu:               6.1 elap:               0.5
 (Enter /home/wykgroup/appl/g16/l101.exe)
 ------------------------------
 Gaussian input prepared by ASE
 ------------------------------
 Symbolic Z-matrix:
 Charge =  0 Multiplicity = 1
 C                    -3.35436  -1.68533  -0.90962 
 N                    -2.19427  -0.86917  -0.59449 
 C                    -2.11389   0.16654   0.34555 
 C                    -3.26413   0.70582   1.07185 
 C                    -3.16361   1.16555   2.43271 
 C                    -4.32917   1.68142   2.91651 
 S                    -5.59483   1.62328   1.73063 
 C                    -4.53409   0.89657   0.57112 
 C                    -0.79977   0.57508   0.4455 
 C                    -0.03319  -0.21478  -0.46404 
 C                     1.32773  -0.28955  -0.84544 
 N                     2.21911   0.64307  -0.28879 
 C                     3.58423   0.55142  -0.09981 
 C                     4.32094   1.72307   0.17654 
 C                     5.67737   1.56683   0.39983 
 N                     6.29799   0.37486   0.35532 
 C                     5.49528  -0.65887   0.08665 
 N                     4.17978  -0.64794  -0.13471 
 N                     1.76966  -1.16548  -1.7354 
 C                     0.88794  -2.02692  -2.28426 
 C                    -0.4752   -2.05196  -2.02342 
 C                    -0.93289  -1.10904  -1.09282 
 H                    -4.07061  -1.63512  -0.08878 
 H                    -3.84678  -1.35513  -1.83283 
 H                    -3.04025  -2.72537  -1.03459 
 H                    -2.25475   1.08156   3.01776 
 H                    -4.52801   2.07261   3.90507 
 H                    -4.89233   0.69943  -0.42952 
 H                    -0.45122   1.37038   1.09005 
 H                     1.80598   1.52945  -0.03487 
 H                     3.85083   2.70232   0.20273 
 H                     6.30375   2.43078   0.61769 
 H                     5.96947  -1.63861   0.05057 
 H                     1.31282  -2.7295   -2.99823 
 H                    -1.12953  -2.75726  -2.52446 
 
 ITRead=  0  0  0  0  0  0  0  0  0  0  0  0  0  0  0  0  0  0  0  0
 ITRead=  0  0  0  0  0  0  0  0  0  0  0  0  0  0  0
 MicOpt= -1 -1 -1 -1 -1 -1 -1 -1 -1 -1 -1 -1 -1 -1 -1 -1 -1 -1 -1 -1
 MicOpt= -1 -1 -1 -1 -1 -1 -1 -1 -1 -1 -1 -1 -1 -1 -1
 NAtoms=     35 NQM=       35 NQMF=       0 NMMI=      0 NMMIF=      0
                NMic=       0 NMicF=      0.
                    Isotopes and Nuclear Properties:
 (Nuclear quadrupole moments (NQMom) in fm**2, nuclear magnetic moments (NMagM)
  in nuclear magnetons)

  Atom         1           2           3           4           5           6           7           8           9          10
 IAtWgt=          12          14          12          12          12          12          32          12          12          12
 AtmWgt=  12.0000000  14.0030740  12.0000000  12.0000000  12.0000000  12.0000000  31.9720718  12.0000000  12.0000000  12.0000000
 NucSpn=           0           2           0           0           0           0           0           0           0           0
 AtZEff=  -0.0000000  -0.0000000  -0.0000000  -0.0000000  -0.0000000  -0.0000000  -0.0000000  -0.0000000  -0.0000000  -0.0000000
 NQMom=    0.0000000   2.0440000   0.0000000   0.0000000   0.0000000   0.0000000   0.0000000   0.0000000   0.0000000   0.0000000
 NMagM=    0.0000000   0.4037610   0.0000000   0.0000000   0.0000000   0.0000000   0.0000000   0.0000000   0.0000000   0.0000000
 AtZNuc=   6.0000000   7.0000000   6.0000000   6.0000000   6.0000000   6.0000000  16.0000000   6.0000000   6.0000000   6.0000000

  Atom        11          12          13          14          15          16          17          18          19          20
 IAtWgt=          12          14          12          12          12          14          12          14          14          12
 AtmWgt=  12.0000000  14.0030740  12.0000000  12.0000000  12.0000000  14.0030740  12.0000000  14.0030740  14.0030740  12.0000000
 NucSpn=           0           2           0           0           0           2           0           2           2           0
 AtZEff=  -0.0000000  -0.0000000  -0.0000000  -0.0000000  -0.0000000  -0.0000000  -0.0000000  -0.0000000  -0.0000000  -0.0000000
 NQMom=    0.0000000   2.0440000   0.0000000   0.0000000   0.0000000   2.0440000   0.0000000   2.0440000   2.0440000   0.0000000
 NMagM=    0.0000000   0.4037610   0.0000000   0.0000000   0.0000000   0.4037610   0.0000000   0.4037610   0.4037610   0.0000000
 AtZNuc=   6.0000000   7.0000000   6.0000000   6.0000000   6.0000000   7.0000000   6.0000000   7.0000000   7.0000000   6.0000000

  Atom        21          22          23          24          25          26          27          28          29          30
 IAtWgt=          12          12           1           1           1           1           1           1           1           1
 AtmWgt=  12.0000000  12.0000000   1.0078250   1.0078250   1.0078250   1.0078250   1.0078250   1.0078250   1.0078250   1.0078250
 NucSpn=           0           0           1           1           1           1           1           1           1           1
 AtZEff=  -0.0000000  -0.0000000  -0.0000000  -0.0000000  -0.0000000  -0.0000000  -0.0000000  -0.0000000  -0.0000000  -0.0000000
 NQMom=    0.0000000   0.0000000   0.0000000   0.0000000   0.0000000   0.0000000   0.0000000   0.0000000   0.0000000   0.0000000
 NMagM=    0.0000000   0.0000000   2.7928460   2.7928460   2.7928460   2.7928460   2.7928460   2.7928460   2.7928460   2.7928460
 AtZNuc=   6.0000000   6.0000000   1.0000000   1.0000000   1.0000000   1.0000000   1.0000000   1.0000000   1.0000000   1.0000000

  Atom        31          32          33          34          35
 IAtWgt=           1           1           1           1           1
 AtmWgt=   1.0078250   1.0078250   1.0078250   1.0078250   1.0078250
 NucSpn=           1           1           1           1           1
 AtZEff=  -0.0000000  -0.0000000  -0.0000000  -0.0000000  -0.0000000
 NQMom=    0.0000000   0.0000000   0.0000000   0.0000000   0.0000000
 NMagM=    2.7928460   2.7928460   2.7928460   2.7928460   2.7928460
 AtZNuc=   1.0000000   1.0000000   1.0000000   1.0000000   1.0000000
 Leave Link  101 at Sat Nov  5 11:38:26 2022, MaxMem=   402653184 cpu:               1.4 elap:               0.1
 (Enter /home/wykgroup/appl/g16/l202.exe)
                          Input orientation:                          
 ---------------------------------------------------------------------
 Center     Atomic      Atomic             Coordinates (Angstroms)
 Number     Number       Type             X           Y           Z
 ---------------------------------------------------------------------
      1          6           0       -3.354358   -1.685335   -0.909616
      2          7           0       -2.194269   -0.869168   -0.594493
      3          6           0       -2.113893    0.166537    0.345546
      4          6           0       -3.264131    0.705817    1.071852
      5          6           0       -3.163607    1.165547    2.432706
      6          6           0       -4.329167    1.681419    2.916511
      7         16           0       -5.594834    1.623276    1.730631
      8          6           0       -4.534094    0.896571    0.571122
      9          6           0       -0.799770    0.575084    0.445497
     10          6           0       -0.033192   -0.214783   -0.464038
     11          6           0        1.327728   -0.289553   -0.845443
     12          7           0        2.219108    0.643069   -0.288795
     13          6           0        3.584235    0.551419   -0.099806
     14          6           0        4.320943    1.723068    0.176543
     15          6           0        5.677366    1.566833    0.399829
     16          7           0        6.297994    0.374861    0.355321
     17          6           0        5.495278   -0.658866    0.086648
     18          7           0        4.179779   -0.647945   -0.134713
     19          7           0        1.769657   -1.165482   -1.735403
     20          6           0        0.887944   -2.026916   -2.284260
     21          6           0       -0.475201   -2.051956   -2.023423
     22          6           0       -0.932886   -1.109042   -1.092824
     23          1           0       -4.070612   -1.635119   -0.088775
     24          1           0       -3.846776   -1.355134   -1.832835
     25          1           0       -3.040246   -2.725366   -1.034590
     26          1           0       -2.254751    1.081556    3.017763
     27          1           0       -4.528013    2.072611    3.905069
     28          1           0       -4.892328    0.699432   -0.429516
     29          1           0       -0.451218    1.370376    1.090053
     30          1           0        1.805975    1.529453   -0.034867
     31          1           0        3.850829    2.702321    0.202731
     32          1           0        6.303745    2.430779    0.617694
     33          1           0        5.969474   -1.638607    0.050574
     34          1           0        1.312817   -2.729496   -2.998231
     35          1           0       -1.129531   -2.757263   -2.524464
 ---------------------------------------------------------------------
                    Distance matrix (angstroms):
                    1          2          3          4          5
     1  C    0.000000
     2  N    1.453010   0.000000
     3  C    2.558049   1.401007   0.000000
     4  C    3.106761   2.530195   1.463349   0.000000
     5  C    4.397161   3.774071   2.540897   1.439924   0.000000
     6  C    5.188885   4.836366   3.716473   2.342833   1.363350
     7  S    4.789315   4.814802   4.019639   2.589961   2.571632
     8  C    3.201655   3.154564   2.537954   1.378377   2.327247
     9  C    3.670387   2.260989   1.379789   2.546073   3.144101
    10  C    3.659400   2.261746   2.264983   3.693972   4.482849
    11  C    4.886129   3.578183   3.670317   5.074638   5.747666
    12  N    6.072101   4.675276   4.405039   5.649886   6.054186
    13  C    7.335048   5.971088   5.728449   6.949585   7.233542
    14  C    8.468010   7.054231   6.622572   7.705175   7.837065
    15  C    9.688307   8.299724   7.916280   9.007960   9.080552
    16  N    9.950497   8.635293   8.414472   9.594644   9.719188
    17  C    8.964499   7.722520   7.658185   8.919655   9.154712
    18  N    7.644598   6.394437   6.364302   7.661610   7.987848
    19  N    5.216101   4.135479   4.602889   6.059824   6.866143
    20  C    4.472522   3.700775   4.553915   5.997587   6.989753
    21  C    3.108782   2.529036   3.635799   4.996416   6.118573
    22  C    2.495837   1.377301   2.256277   3.662545   4.751760
    23  H    1.090559   2.088802   2.695061   2.734493   3.876113
    24  H    1.097197   2.121422   3.172335   3.608906   5.001539
    25  H    1.093595   2.086824   3.335568   4.032399   5.213114
    26  H    4.928400   4.105774   2.828046   2.224095   1.084142
    27  H    6.219390   5.860588   4.704392   3.390080   2.202777
    28  H    2.878013   3.125259   2.933326   2.214762   3.376101
    29  H    4.665219   3.300224   2.183577   2.890407   3.033435
    30  H    6.142401   4.697714   4.167447   5.254444   5.560404
    31  H    8.509028   7.066421   6.482939   7.440703   7.519094
    32  H   10.609148   9.196483   8.721094   9.732729   9.722440
    33  H    9.373259   8.225256   8.287724   9.581168   9.846369
    34  H    5.218726   4.640951   5.595551   7.022492   8.043929
    35  H    2.950699   2.902302   4.213613   5.429818   6.640740
                    6          7          8          9         10
     6  C    0.000000
     7  S    1.735397   0.000000
     8  C    2.481699   1.731395   0.000000
     9  C    4.448205   5.073747   3.750241   0.000000
    10  C    5.786113   6.255150   4.750241   1.427861   0.000000
    11  C    7.073718   7.630002   6.146097   2.634459   1.415331
    12  N    7.364243   8.129980   6.812449   3.107641   2.416501
    13  C    8.543828   9.420970   8.153314   4.417852   3.715576
    14  C    9.073784  10.037319   8.902273   5.254703   4.808752
    15  C   10.318795  11.350626  10.234867   6.552782   6.044079
    16  N   11.009239  12.037001  10.846792   7.101161   6.411158
    17  C   10.488317  11.441217  10.160827   6.424877   5.573549
    18  N    9.334778  10.206910   8.877799   5.160267   4.247965
    19  N    8.181736   8.603853   7.022065   3.793132   2.402178
    20  C    8.247304   8.453973   6.789587   4.131629   2.728649
    21  C    7.293428   7.335591   5.648016   3.619703   2.449950
    22  C    5.949467   6.096820   4.445210   2.284826   1.415811
    23  H    4.483082   4.031207   2.657016   3.983572   4.296387
    24  H    5.657707   4.962350   3.364757   4.266237   4.209207
    25  H    6.057415   5.751787   4.234185   4.254804   3.958653
    26  H    2.161779   3.620265   3.348981   2.998339   4.328829
    27  H    1.081581   2.463370   3.535295   5.301983   6.672683
    28  H    3.532329   2.452190   1.080959   4.186901   4.944511
    29  H    4.297812   5.189517   4.142905   1.081402   2.258910
    30  H    6.809824   7.609058   6.400331   2.816288   2.570813
    31  H    8.678662   9.629090   8.585067   5.119780   4.903029
    32  H   10.904353  11.977766  10.945991   7.343922   6.951684
    33  H   11.193667  12.132423  10.817718   7.132956   6.190646
    34  H    9.288289   9.435274   7.750807   5.219438   3.815449
    35  H    7.716461   7.565308   5.875730   4.475929   3.451306
                   11         12         13         14         15
    11  C    0.000000
    12  N    1.405062   0.000000
    13  C    2.520919   1.381190   0.000000
    14  C    3.748924   2.408453   1.411336   0.000000
    15  C    4.890422   3.645146   2.379475   1.383528   0.000000
    16  N    5.156242   4.138132   2.757318   2.399658   1.344603
    17  C    4.286451   3.545318   2.269723   2.657208   2.254989
    18  N    2.961044   2.352592   1.339539   2.395519   2.726489
    19  N    1.324606   2.359139   2.985903   4.302130   5.224457
    20  C    2.298268   3.589248   4.323151   5.648311   6.561854
    21  C    2.782850   4.187051   5.192001   6.487962   7.538028
    22  C    2.417258   3.694784   4.914021   6.102038   7.285860
    23  H    5.614728   6.692587   7.961014   9.042456  10.272016
    24  H    5.374560   6.570527   7.865002   8.956816  10.209406
    25  H    5.004813   6.289942   7.449489   8.685765   9.822285
    26  H    5.444122   5.580414   6.640335   7.191928   8.367052
    27  H    7.901702   8.071910   9.173964   9.608752  10.802420
    28  H    6.311908   7.113052   8.484264   9.289753  10.637605
    29  H    3.109044   3.092060   4.286179   4.871592   6.170457
    30  H    2.048057   1.010364   2.030511   2.531253   3.895899
    31  H    4.051669   2.672944   2.188374   1.086567   2.159726
    32  H    5.856767   4.549933   3.382682   2.151040   1.089137
    33  H    4.916157   4.403005   3.241634   3.746249   3.237615
    34  H    3.253926   4.420022   4.931998   6.241261   7.003895
    35  H    3.866112   5.270090   6.248674   7.554897   8.578062
                   16         17         18         19         20
    16  N    0.000000
    17  C    1.336087   0.000000
    18  N    2.402728   1.334038   0.000000
    19  N    5.220117   4.178132   2.939174   0.000000
    20  C    6.481093   5.359132   4.166329   1.349344   0.000000
    21  C    7.577865   6.483805   5.216063   2.430675   1.388102
    22  C    7.522282   6.550963   5.222063   2.778459   2.361660
    23  H   10.570962   9.617177   8.309367   6.086106   5.436997
    24  H   10.521277   9.562593   8.234642   5.620478   4.803400
    25  H    9.937102   8.853404   7.566652   5.104855   4.180931
    26  H    8.985404   8.466609   7.371056   6.620999   6.902941
    27  H   11.518920  11.068319   9.977320   9.053222   9.189479
    28  H   11.222506  10.488745   9.176354   7.040262   6.654668
    29  H    6.861687   6.362818   5.198058   4.398416   4.972016
    30  H    4.654414   4.291208   3.222728   3.186819   4.307007
    31  H    3.380676   3.743697   3.383246   4.800785   6.109787
    32  H    2.072600   3.237520   3.815218   6.247249   7.591000
    33  H    2.062729   1.089062   2.053959   4.588248   5.605727
    34  H    6.762791   5.594369   4.555443   2.061450   1.088066
    35  H    8.559877   7.423562   6.192649   3.400246   2.159007
                   21         22         23         24         25
    21  C    0.000000
    22  C    1.401634   0.000000
    23  H    4.104095   3.336194   0.000000
    24  H    3.448101   3.016443   1.780516   0.000000
    25  H    2.830322   2.656475   1.773375   1.779107   0.000000
    26  H    6.196713   4.841794   4.508687   5.656881   5.615267
    27  H    8.281567   6.930136   5.468754   6.718412   7.045160
    28  H    5.442581   4.403150   2.498289   2.698838   3.940249
    29  H    4.626734   3.338334   4.850016   5.244187   5.290773
    30  H    4.688775   3.947441   6.674706   6.595993   6.526009
    31  H    6.802459   6.252111   9.035906   8.936419   8.858762
    32  H    8.545439   8.235596  11.165031  11.107264  10.799354
    33  H    6.782784   7.016436  10.041053   9.999317   9.139675
    34  H    2.146233   3.361492   6.216421   5.465200   4.775463
    35  H    1.084734   2.192007   3.980169   3.134922   2.423133
                   26         27         28         29         30
    26  H    0.000000
    27  H    2.633860   0.000000
    28  H    4.357357   4.561466   0.000000
    29  H    2.655601   5.003770   4.741595   0.000000
    30  H    5.099869   7.479139   6.761061   2.526988   0.000000
    31  H    6.915880   9.181985   8.991891   4.590101   2.369283
    32  H    8.990472  11.325286  11.377446   6.853984   4.633375
    33  H    9.156494  11.782508  11.120955   7.166573   5.232459
    34  H    7.965164  10.238705   7.540534   6.052671   5.211849
    35  H    6.835125   8.730192   5.522336   5.528313   5.761182
                   31         32         33         34         35
    31  H    0.000000
    32  H    2.502544   0.000000
    33  H    4.832749   4.122289   0.000000
    34  H    6.796491   8.038204   5.671834   0.000000
    35  H    7.877095   9.593880   7.634008   2.488029   0.000000
 Symmetry turned off by external request.
 Stoichiometry    C16H13N5S
 Framework group  C1[X(C16H13N5S)]
 Deg. of freedom    99
 Full point group                 C1      NOp   1
 Rotational constants (GHZ):           0.5681234           0.1140428           0.0973286
 Leave Link  202 at Sat Nov  5 11:38:26 2022, MaxMem=   402653184 cpu:               0.9 elap:               0.1
 (Enter /home/wykgroup/appl/g16/l301.exe)
 Standard basis: 6-31G(d) (6D, 10F)
 Ernie: Thresh=  0.10000D-02 Tol=  0.10000D-05 Strict=F.
 AO basis set in the form of general basis input (Overlap normalization):
      1 0
 S   6 1.00       0.000000000000
      0.3047524880D+04  0.1834737132D-02
      0.4573695180D+03  0.1403732281D-01
      0.1039486850D+03  0.6884262226D-01
      0.2921015530D+02  0.2321844432D+00
      0.9286662960D+01  0.4679413484D+00
      0.3163926960D+01  0.3623119853D+00
 SP   3 1.00       0.000000000000
      0.7868272350D+01 -0.1193324198D+00  0.6899906659D-01
      0.1881288540D+01 -0.1608541517D+00  0.3164239610D+00
      0.5442492580D+00  0.1143456438D+01  0.7443082909D+00
 SP   1 1.00       0.000000000000
      0.1687144782D+00  0.1000000000D+01  0.1000000000D+01
 D   1 1.00       0.000000000000
      0.8000000000D+00  0.1000000000D+01
 ****
      2 0
 S   6 1.00       0.000000000000
      0.4173511460D+04  0.1834772160D-02
      0.6274579110D+03  0.1399462700D-01
      0.1429020930D+03  0.6858655181D-01
      0.4023432930D+02  0.2322408730D+00
      0.1282021290D+02  0.4690699481D+00
      0.4390437010D+01  0.3604551991D+00
 SP   3 1.00       0.000000000000
      0.1162636186D+02 -0.1149611817D+00  0.6757974388D-01
      0.2716279807D+01 -0.1691174786D+00  0.3239072959D+00
      0.7722183966D+00  0.1145851947D+01  0.7408951398D+00
 SP   1 1.00       0.000000000000
      0.2120314975D+00  0.1000000000D+01  0.1000000000D+01
 D   1 1.00       0.000000000000
      0.8000000000D+00  0.1000000000D+01
 ****
      3 0
 S   6 1.00       0.000000000000
      0.3047524880D+04  0.1834737132D-02
      0.4573695180D+03  0.1403732281D-01
      0.1039486850D+03  0.6884262226D-01
      0.2921015530D+02  0.2321844432D+00
      0.9286662960D+01  0.4679413484D+00
      0.3163926960D+01  0.3623119853D+00
 SP   3 1.00       0.000000000000
      0.7868272350D+01 -0.1193324198D+00  0.6899906659D-01
      0.1881288540D+01 -0.1608541517D+00  0.3164239610D+00
      0.5442492580D+00  0.1143456438D+01  0.7443082909D+00
 SP   1 1.00       0.000000000000
      0.1687144782D+00  0.1000000000D+01  0.1000000000D+01
 D   1 1.00       0.000000000000
      0.8000000000D+00  0.1000000000D+01
 ****
      4 0
 S   6 1.00       0.000000000000
      0.3047524880D+04  0.1834737132D-02
      0.4573695180D+03  0.1403732281D-01
      0.1039486850D+03  0.6884262226D-01
      0.2921015530D+02  0.2321844432D+00
      0.9286662960D+01  0.4679413484D+00
      0.3163926960D+01  0.3623119853D+00
 SP   3 1.00       0.000000000000
      0.7868272350D+01 -0.1193324198D+00  0.6899906659D-01
      0.1881288540D+01 -0.1608541517D+00  0.3164239610D+00
      0.5442492580D+00  0.1143456438D+01  0.7443082909D+00
 SP   1 1.00       0.000000000000
      0.1687144782D+00  0.1000000000D+01  0.1000000000D+01
 D   1 1.00       0.000000000000
      0.8000000000D+00  0.1000000000D+01
 ****
      5 0
 S   6 1.00       0.000000000000
      0.3047524880D+04  0.1834737132D-02
      0.4573695180D+03  0.1403732281D-01
      0.1039486850D+03  0.6884262226D-01
      0.2921015530D+02  0.2321844432D+00
      0.9286662960D+01  0.4679413484D+00
      0.3163926960D+01  0.3623119853D+00
 SP   3 1.00       0.000000000000
      0.7868272350D+01 -0.1193324198D+00  0.6899906659D-01
      0.1881288540D+01 -0.1608541517D+00  0.3164239610D+00
      0.5442492580D+00  0.1143456438D+01  0.7443082909D+00
 SP   1 1.00       0.000000000000
      0.1687144782D+00  0.1000000000D+01  0.1000000000D+01
 D   1 1.00       0.000000000000
      0.8000000000D+00  0.1000000000D+01
 ****
      6 0
 S   6 1.00       0.000000000000
      0.3047524880D+04  0.1834737132D-02
      0.4573695180D+03  0.1403732281D-01
      0.1039486850D+03  0.6884262226D-01
      0.2921015530D+02  0.2321844432D+00
      0.9286662960D+01  0.4679413484D+00
      0.3163926960D+01  0.3623119853D+00
 SP   3 1.00       0.000000000000
      0.7868272350D+01 -0.1193324198D+00  0.6899906659D-01
      0.1881288540D+01 -0.1608541517D+00  0.3164239610D+00
      0.5442492580D+00  0.1143456438D+01  0.7443082909D+00
 SP   1 1.00       0.000000000000
      0.1687144782D+00  0.1000000000D+01  0.1000000000D+01
 D   1 1.00       0.000000000000
      0.8000000000D+00  0.1000000000D+01
 ****
      7 0
 S   6 1.00       0.000000000000
      0.2191710000D+05  0.1869240849D-02
      0.3301490000D+04  0.1423030646D-01
      0.7541460000D+03  0.6969623166D-01
      0.2127110000D+03  0.2384871083D+00
      0.6798960000D+02  0.4833072195D+00
      0.2305150000D+02  0.3380741536D+00
 SP   6 1.00       0.000000000000
      0.4237350000D+03 -0.2376770499D-02  0.4061009982D-02
      0.1007100000D+03 -0.3169300665D-01  0.3068129986D-01
      0.3215990000D+02 -0.1133170238D+00  0.1304519994D+00
      0.1180790000D+02  0.5609001177D-01  0.3272049985D+00
      0.4631100000D+01  0.5922551243D+00  0.4528509980D+00
      0.1870250000D+01  0.4550060955D+00  0.2560419989D+00
 SP   3 1.00       0.000000000000
      0.2615840000D+01 -0.2503731142D+00 -0.1451048955D-01
      0.9221670000D+00  0.6695676310D-01  0.3102627765D+00
      0.3412870000D+00  0.1054506269D+01  0.7544824565D+00
 SP   1 1.00       0.000000000000
      0.1171670000D+00  0.1000000000D+01  0.1000000000D+01
 D   1 1.00       0.000000000000
      0.6500000000D+00  0.1000000000D+01
 ****
      8 0
 S   6 1.00       0.000000000000
      0.3047524880D+04  0.1834737132D-02
      0.4573695180D+03  0.1403732281D-01
      0.1039486850D+03  0.6884262226D-01
      0.2921015530D+02  0.2321844432D+00
      0.9286662960D+01  0.4679413484D+00
      0.3163926960D+01  0.3623119853D+00
 SP   3 1.00       0.000000000000
      0.7868272350D+01 -0.1193324198D+00  0.6899906659D-01
      0.1881288540D+01 -0.1608541517D+00  0.3164239610D+00
      0.5442492580D+00  0.1143456438D+01  0.7443082909D+00
 SP   1 1.00       0.000000000000
      0.1687144782D+00  0.1000000000D+01  0.1000000000D+01
 D   1 1.00       0.000000000000
      0.8000000000D+00  0.1000000000D+01
 ****
      9 0
 S   6 1.00       0.000000000000
      0.3047524880D+04  0.1834737132D-02
      0.4573695180D+03  0.1403732281D-01
      0.1039486850D+03  0.6884262226D-01
      0.2921015530D+02  0.2321844432D+00
      0.9286662960D+01  0.4679413484D+00
      0.3163926960D+01  0.3623119853D+00
 SP   3 1.00       0.000000000000
      0.7868272350D+01 -0.1193324198D+00  0.6899906659D-01
      0.1881288540D+01 -0.1608541517D+00  0.3164239610D+00
      0.5442492580D+00  0.1143456438D+01  0.7443082909D+00
 SP   1 1.00       0.000000000000
      0.1687144782D+00  0.1000000000D+01  0.1000000000D+01
 D   1 1.00       0.000000000000
      0.8000000000D+00  0.1000000000D+01
 ****
     10 0
 S   6 1.00       0.000000000000
      0.3047524880D+04  0.1834737132D-02
      0.4573695180D+03  0.1403732281D-01
      0.1039486850D+03  0.6884262226D-01
      0.2921015530D+02  0.2321844432D+00
      0.9286662960D+01  0.4679413484D+00
      0.3163926960D+01  0.3623119853D+00
 SP   3 1.00       0.000000000000
      0.7868272350D+01 -0.1193324198D+00  0.6899906659D-01
      0.1881288540D+01 -0.1608541517D+00  0.3164239610D+00
      0.5442492580D+00  0.1143456438D+01  0.7443082909D+00
 SP   1 1.00       0.000000000000
      0.1687144782D+00  0.1000000000D+01  0.1000000000D+01
 D   1 1.00       0.000000000000
      0.8000000000D+00  0.1000000000D+01
 ****
     11 0
 S   6 1.00       0.000000000000
      0.3047524880D+04  0.1834737132D-02
      0.4573695180D+03  0.1403732281D-01
      0.1039486850D+03  0.6884262226D-01
      0.2921015530D+02  0.2321844432D+00
      0.9286662960D+01  0.4679413484D+00
      0.3163926960D+01  0.3623119853D+00
 SP   3 1.00       0.000000000000
      0.7868272350D+01 -0.1193324198D+00  0.6899906659D-01
      0.1881288540D+01 -0.1608541517D+00  0.3164239610D+00
      0.5442492580D+00  0.1143456438D+01  0.7443082909D+00
 SP   1 1.00       0.000000000000
      0.1687144782D+00  0.1000000000D+01  0.1000000000D+01
 D   1 1.00       0.000000000000
      0.8000000000D+00  0.1000000000D+01
 ****
     12 0
 S   6 1.00       0.000000000000
      0.4173511460D+04  0.1834772160D-02
      0.6274579110D+03  0.1399462700D-01
      0.1429020930D+03  0.6858655181D-01
      0.4023432930D+02  0.2322408730D+00
      0.1282021290D+02  0.4690699481D+00
      0.4390437010D+01  0.3604551991D+00
 SP   3 1.00       0.000000000000
      0.1162636186D+02 -0.1149611817D+00  0.6757974388D-01
      0.2716279807D+01 -0.1691174786D+00  0.3239072959D+00
      0.7722183966D+00  0.1145851947D+01  0.7408951398D+00
 SP   1 1.00       0.000000000000
      0.2120314975D+00  0.1000000000D+01  0.1000000000D+01
 D   1 1.00       0.000000000000
      0.8000000000D+00  0.1000000000D+01
 ****
     13 0
 S   6 1.00       0.000000000000
      0.3047524880D+04  0.1834737132D-02
      0.4573695180D+03  0.1403732281D-01
      0.1039486850D+03  0.6884262226D-01
      0.2921015530D+02  0.2321844432D+00
      0.9286662960D+01  0.4679413484D+00
      0.3163926960D+01  0.3623119853D+00
 SP   3 1.00       0.000000000000
      0.7868272350D+01 -0.1193324198D+00  0.6899906659D-01
      0.1881288540D+01 -0.1608541517D+00  0.3164239610D+00
      0.5442492580D+00  0.1143456438D+01  0.7443082909D+00
 SP   1 1.00       0.000000000000
      0.1687144782D+00  0.1000000000D+01  0.1000000000D+01
 D   1 1.00       0.000000000000
      0.8000000000D+00  0.1000000000D+01
 ****
     14 0
 S   6 1.00       0.000000000000
      0.3047524880D+04  0.1834737132D-02
      0.4573695180D+03  0.1403732281D-01
      0.1039486850D+03  0.6884262226D-01
      0.2921015530D+02  0.2321844432D+00
      0.9286662960D+01  0.4679413484D+00
      0.3163926960D+01  0.3623119853D+00
 SP   3 1.00       0.000000000000
      0.7868272350D+01 -0.1193324198D+00  0.6899906659D-01
      0.1881288540D+01 -0.1608541517D+00  0.3164239610D+00
      0.5442492580D+00  0.1143456438D+01  0.7443082909D+00
 SP   1 1.00       0.000000000000
      0.1687144782D+00  0.1000000000D+01  0.1000000000D+01
 D   1 1.00       0.000000000000
      0.8000000000D+00  0.1000000000D+01
 ****
     15 0
 S   6 1.00       0.000000000000
      0.3047524880D+04  0.1834737132D-02
      0.4573695180D+03  0.1403732281D-01
      0.1039486850D+03  0.6884262226D-01
      0.2921015530D+02  0.2321844432D+00
      0.9286662960D+01  0.4679413484D+00
      0.3163926960D+01  0.3623119853D+00
 SP   3 1.00       0.000000000000
      0.7868272350D+01 -0.1193324198D+00  0.6899906659D-01
      0.1881288540D+01 -0.1608541517D+00  0.3164239610D+00
      0.5442492580D+00  0.1143456438D+01  0.7443082909D+00
 SP   1 1.00       0.000000000000
      0.1687144782D+00  0.1000000000D+01  0.1000000000D+01
 D   1 1.00       0.000000000000
      0.8000000000D+00  0.1000000000D+01
 ****
     16 0
 S   6 1.00       0.000000000000
      0.4173511460D+04  0.1834772160D-02
      0.6274579110D+03  0.1399462700D-01
      0.1429020930D+03  0.6858655181D-01
      0.4023432930D+02  0.2322408730D+00
      0.1282021290D+02  0.4690699481D+00
      0.4390437010D+01  0.3604551991D+00
 SP   3 1.00       0.000000000000
      0.1162636186D+02 -0.1149611817D+00  0.6757974388D-01
      0.2716279807D+01 -0.1691174786D+00  0.3239072959D+00
      0.7722183966D+00  0.1145851947D+01  0.7408951398D+00
 SP   1 1.00       0.000000000000
      0.2120314975D+00  0.1000000000D+01  0.1000000000D+01
 D   1 1.00       0.000000000000
      0.8000000000D+00  0.1000000000D+01
 ****
     17 0
 S   6 1.00       0.000000000000
      0.3047524880D+04  0.1834737132D-02
      0.4573695180D+03  0.1403732281D-01
      0.1039486850D+03  0.6884262226D-01
      0.2921015530D+02  0.2321844432D+00
      0.9286662960D+01  0.4679413484D+00
      0.3163926960D+01  0.3623119853D+00
 SP   3 1.00       0.000000000000
      0.7868272350D+01 -0.1193324198D+00  0.6899906659D-01
      0.1881288540D+01 -0.1608541517D+00  0.3164239610D+00
      0.5442492580D+00  0.1143456438D+01  0.7443082909D+00
 SP   1 1.00       0.000000000000
      0.1687144782D+00  0.1000000000D+01  0.1000000000D+01
 D   1 1.00       0.000000000000
      0.8000000000D+00  0.1000000000D+01
 ****
     18 0
 S   6 1.00       0.000000000000
      0.4173511460D+04  0.1834772160D-02
      0.6274579110D+03  0.1399462700D-01
      0.1429020930D+03  0.6858655181D-01
      0.4023432930D+02  0.2322408730D+00
      0.1282021290D+02  0.4690699481D+00
      0.4390437010D+01  0.3604551991D+00
 SP   3 1.00       0.000000000000
      0.1162636186D+02 -0.1149611817D+00  0.6757974388D-01
      0.2716279807D+01 -0.1691174786D+00  0.3239072959D+00
      0.7722183966D+00  0.1145851947D+01  0.7408951398D+00
 SP   1 1.00       0.000000000000
      0.2120314975D+00  0.1000000000D+01  0.1000000000D+01
 D   1 1.00       0.000000000000
      0.8000000000D+00  0.1000000000D+01
 ****
     19 0
 S   6 1.00       0.000000000000
      0.4173511460D+04  0.1834772160D-02
      0.6274579110D+03  0.1399462700D-01
      0.1429020930D+03  0.6858655181D-01
      0.4023432930D+02  0.2322408730D+00
      0.1282021290D+02  0.4690699481D+00
      0.4390437010D+01  0.3604551991D+00
 SP   3 1.00       0.000000000000
      0.1162636186D+02 -0.1149611817D+00  0.6757974388D-01
      0.2716279807D+01 -0.1691174786D+00  0.3239072959D+00
      0.7722183966D+00  0.1145851947D+01  0.7408951398D+00
 SP   1 1.00       0.000000000000
      0.2120314975D+00  0.1000000000D+01  0.1000000000D+01
 D   1 1.00       0.000000000000
      0.8000000000D+00  0.1000000000D+01
 ****
     20 0
 S   6 1.00       0.000000000000
      0.3047524880D+04  0.1834737132D-02
      0.4573695180D+03  0.1403732281D-01
      0.1039486850D+03  0.6884262226D-01
      0.2921015530D+02  0.2321844432D+00
      0.9286662960D+01  0.4679413484D+00
      0.3163926960D+01  0.3623119853D+00
 SP   3 1.00       0.000000000000
      0.7868272350D+01 -0.1193324198D+00  0.6899906659D-01
      0.1881288540D+01 -0.1608541517D+00  0.3164239610D+00
      0.5442492580D+00  0.1143456438D+01  0.7443082909D+00
 SP   1 1.00       0.000000000000
      0.1687144782D+00  0.1000000000D+01  0.1000000000D+01
 D   1 1.00       0.000000000000
      0.8000000000D+00  0.1000000000D+01
 ****
     21 0
 S   6 1.00       0.000000000000
      0.3047524880D+04  0.1834737132D-02
      0.4573695180D+03  0.1403732281D-01
      0.1039486850D+03  0.6884262226D-01
      0.2921015530D+02  0.2321844432D+00
      0.9286662960D+01  0.4679413484D+00
      0.3163926960D+01  0.3623119853D+00
 SP   3 1.00       0.000000000000
      0.7868272350D+01 -0.1193324198D+00  0.6899906659D-01
      0.1881288540D+01 -0.1608541517D+00  0.3164239610D+00
      0.5442492580D+00  0.1143456438D+01  0.7443082909D+00
 SP   1 1.00       0.000000000000
      0.1687144782D+00  0.1000000000D+01  0.1000000000D+01
 D   1 1.00       0.000000000000
      0.8000000000D+00  0.1000000000D+01
 ****
     22 0
 S   6 1.00       0.000000000000
      0.3047524880D+04  0.1834737132D-02
      0.4573695180D+03  0.1403732281D-01
      0.1039486850D+03  0.6884262226D-01
      0.2921015530D+02  0.2321844432D+00
      0.9286662960D+01  0.4679413484D+00
      0.3163926960D+01  0.3623119853D+00
 SP   3 1.00       0.000000000000
      0.7868272350D+01 -0.1193324198D+00  0.6899906659D-01
      0.1881288540D+01 -0.1608541517D+00  0.3164239610D+00
      0.5442492580D+00  0.1143456438D+01  0.7443082909D+00
 SP   1 1.00       0.000000000000
      0.1687144782D+00  0.1000000000D+01  0.1000000000D+01
 D   1 1.00       0.000000000000
      0.8000000000D+00  0.1000000000D+01
 ****
     23 0
 S   3 1.00       0.000000000000
      0.1873113696D+02  0.3349460434D-01
      0.2825394365D+01  0.2347269535D+00
      0.6401216923D+00  0.8137573261D+00
 S   1 1.00       0.000000000000
      0.1612777588D+00  0.1000000000D+01
 ****
     24 0
 S   3 1.00       0.000000000000
      0.1873113696D+02  0.3349460434D-01
      0.2825394365D+01  0.2347269535D+00
      0.6401216923D+00  0.8137573261D+00
 S   1 1.00       0.000000000000
      0.1612777588D+00  0.1000000000D+01
 ****
     25 0
 S   3 1.00       0.000000000000
      0.1873113696D+02  0.3349460434D-01
      0.2825394365D+01  0.2347269535D+00
      0.6401216923D+00  0.8137573261D+00
 S   1 1.00       0.000000000000
      0.1612777588D+00  0.1000000000D+01
 ****
     26 0
 S   3 1.00       0.000000000000
      0.1873113696D+02  0.3349460434D-01
      0.2825394365D+01  0.2347269535D+00
      0.6401216923D+00  0.8137573261D+00
 S   1 1.00       0.000000000000
      0.1612777588D+00  0.1000000000D+01
 ****
     27 0
 S   3 1.00       0.000000000000
      0.1873113696D+02  0.3349460434D-01
      0.2825394365D+01  0.2347269535D+00
      0.6401216923D+00  0.8137573261D+00
 S   1 1.00       0.000000000000
      0.1612777588D+00  0.1000000000D+01
 ****
     28 0
 S   3 1.00       0.000000000000
      0.1873113696D+02  0.3349460434D-01
      0.2825394365D+01  0.2347269535D+00
      0.6401216923D+00  0.8137573261D+00
 S   1 1.00       0.000000000000
      0.1612777588D+00  0.1000000000D+01
 ****
     29 0
 S   3 1.00       0.000000000000
      0.1873113696D+02  0.3349460434D-01
      0.2825394365D+01  0.2347269535D+00
      0.6401216923D+00  0.8137573261D+00
 S   1 1.00       0.000000000000
      0.1612777588D+00  0.1000000000D+01
 ****
     30 0
 S   3 1.00       0.000000000000
      0.1873113696D+02  0.3349460434D-01
      0.2825394365D+01  0.2347269535D+00
      0.6401216923D+00  0.8137573261D+00
 S   1 1.00       0.000000000000
      0.1612777588D+00  0.1000000000D+01
 ****
     31 0
 S   3 1.00       0.000000000000
      0.1873113696D+02  0.3349460434D-01
      0.2825394365D+01  0.2347269535D+00
      0.6401216923D+00  0.8137573261D+00
 S   1 1.00       0.000000000000
      0.1612777588D+00  0.1000000000D+01
 ****
     32 0
 S   3 1.00       0.000000000000
      0.1873113696D+02  0.3349460434D-01
      0.2825394365D+01  0.2347269535D+00
      0.6401216923D+00  0.8137573261D+00
 S   1 1.00       0.000000000000
      0.1612777588D+00  0.1000000000D+01
 ****
     33 0
 S   3 1.00       0.000000000000
      0.1873113696D+02  0.3349460434D-01
      0.2825394365D+01  0.2347269535D+00
      0.6401216923D+00  0.8137573261D+00
 S   1 1.00       0.000000000000
      0.1612777588D+00  0.1000000000D+01
 ****
     34 0
 S   3 1.00       0.000000000000
      0.1873113696D+02  0.3349460434D-01
      0.2825394365D+01  0.2347269535D+00
      0.6401216923D+00  0.8137573261D+00
 S   1 1.00       0.000000000000
      0.1612777588D+00  0.1000000000D+01
 ****
     35 0
 S   3 1.00       0.000000000000
      0.1873113696D+02  0.3349460434D-01
      0.2825394365D+01  0.2347269535D+00
      0.6401216923D+00  0.8137573261D+00
 S   1 1.00       0.000000000000
      0.1612777588D+00  0.1000000000D+01
 ****

   360 basis functions,   692 primitive gaussians,   360 cartesian basis functions
    80 alpha electrons       80 beta electrons
       nuclear repulsion energy      1718.4439092947 Hartrees.
 IExCor=  402 DFT=T Ex+Corr=B3LYP ExCW=0 ScaHFX=  0.200000
 ScaDFX=  0.800000  0.720000  1.000000  0.810000 ScalE2=  1.000000  1.000000
 IRadAn=      5 IRanWt=     -1 IRanGd=            0 ICorTp=0 IEmpDi=  4
 NAtoms=   35 NActive=   35 NUniq=   35 SFac= 1.00D+00 NAtFMM=   60 NAOKFM=F Big=F
 Integral buffers will be    131072 words long.
 Regular integral format.
 Two-electron integral symmetry is turned off.
 Leave Link  301 at Sat Nov  5 11:38:26 2022, MaxMem=   402653184 cpu:               1.5 elap:               0.2
 (Enter /home/wykgroup/appl/g16/l302.exe)
 NPDir=0 NMtPBC=     1 NCelOv=     1 NCel=       1 NClECP=     1 NCelD=      1
         NCelK=      1 NCelE2=     1 NClLst=     1 CellRange=     0.0.
 One-electron integrals computed using PRISM.
 NBasis=   360 RedAO= T EigKep=  5.09D-04  NBF=   360
 NBsUse=   360 1.00D-06 EigRej= -1.00D+00 NBFU=   360
 Precomputing XC quadrature grid using
 IXCGrd= 4 IRadAn=           5 IRanWt=          -1 IRanGd=           0 AccXCQ= 0.00D+00.
 Generated NRdTot=       0 NPtTot=           0 NUsed=           0 NTot=          32
 NSgBfM=   355   355   355   355   355 MxSgAt=    35 MxSgA2=    35.
 Leave Link  302 at Sat Nov  5 11:38:27 2022, MaxMem=   402653184 cpu:               8.3 elap:               0.7
 (Enter /home/wykgroup/appl/g16/l303.exe)
 DipDrv:  MaxL=1.
 Leave Link  303 at Sat Nov  5 11:38:27 2022, MaxMem=   402653184 cpu:               1.5 elap:               0.2
 (Enter /home/wykgroup/appl/g16/l308.exe)
 Leave Link  308 at Sat Nov  5 11:38:27 2022, MaxMem=   402653184 cpu:               1.7 elap:               0.2
 (Enter /home/wykgroup/appl/g16/l401.exe)
 ExpMin= 1.17D-01 ExpMax= 2.19D+04 ExpMxC= 3.30D+03 IAcc=3 IRadAn=         5 AccDes= 0.00D+00
 Harris functional with IExCor=  402 and IRadAn=       5 diagonalized for initial guess.
 HarFok:  IExCor=  402 AccDes= 0.00D+00 IRadAn=         5 IDoV= 1 UseB2=F ITyADJ=14
 ICtDFT=  3500011 ScaDFX=  1.000000  1.000000  1.000000  1.000000
 FoFCou: FMM=F IPFlag=           0 FMFlag=      100000 FMFlg1=           0
         NFxFlg=           0 DoJE=T BraDBF=F KetDBF=T FulRan=T
         wScrn=  0.000000 ICntrl=       500 IOpCl=  0 I1Cent=   200000004 NGrid=           0
         NMat0=    1 NMatS0=      1 NMatT0=    0 NMatD0=    1 NMtDS0=    0 NMtDT0=    0
 Symmetry not used in FoFCou.
 Harris En= -1289.36419923185    
 JPrj=0 DoOrth=F DoCkMO=F.
 Leave Link  401 at Sat Nov  5 11:38:29 2022, MaxMem=   402653184 cpu:              17.0 elap:               1.3
 (Enter /home/wykgroup/appl/g16/l502.exe)
 Two-electron integral symmetry not used.
 Closed shell SCF:
 Using DIIS extrapolation, IDIIS=  1040.
 NGot=   402653184 LenX=   402385893 LenY=   402255852
 Requested convergence on RMS density matrix=1.00D-08 within  32 cycles.
 Requested convergence on MAX density matrix=1.00D-06.
 Requested convergence on             energy=1.00D-06.
 No special actions if energy rises.
 Fock matrices will be formed incrementally for  20 cycles.
 Integral accuracy reduced to 1.0D-05 until final iterations.

 Cycle   1  Pass 0  IDiag  1:
 FoFJK:  IHMeth= 1 ICntrl=       0 DoSepK=F KAlg= 0 I1Cent=           0 FoldK=F
 IRaf= 720000000 NMat=       1 IRICut=       1 DoRegI=T DoRafI=F ISym2E= 0 IDoP0=0 IntGTp=1.
 FoFCou: FMM=F IPFlag=           0 FMFlag=      100000 FMFlg1=           0
         NFxFlg=           0 DoJE=F BraDBF=F KetDBF=F FulRan=T
         wScrn=  0.000000 ICntrl=         0 IOpCl=  0 I1Cent=           0 NGrid=           0
         NMat0=    1 NMatS0=      1 NMatT0=    0 NMatD0=    1 NMtDS0=    0 NMtDT0=    0
 Symmetry not used in FoFCou.
 E= -1288.97422728480    
 DIIS: error= 2.85D-02 at cycle   1 NSaved=   1.
 NSaved= 1 IEnMin= 1 EnMin= -1288.97422728480     IErMin= 1 ErrMin= 2.85D-02
 ErrMax= 2.85D-02  0.00D+00 EMaxC= 1.00D-01 BMatC= 4.82D-01 BMatP= 4.82D-01
 IDIUse=3 WtCom= 7.15D-01 WtEn= 2.85D-01
 Coeff-Com:  0.100D+01
 Coeff-En:   0.100D+01
 Coeff:      0.100D+01
 Gap=     0.168 Goal=   None    Shift=    0.000
 GapD=    0.168 DampG=1.000 DampE=0.500 DampFc=0.5000 IDamp=-1.
 Damping current iteration by 5.00D-01
 RMSDP=5.30D-03 MaxDP=2.55D-01              OVMax= 2.98D-01

 Cycle   2  Pass 0  IDiag  1:
 RMSU=  2.61D-03    CP:  9.78D-01
 E= -1289.15957502751     Delta-E=       -0.185347742713 Rises=F Damp=T
 DIIS: error= 6.57D-03 at cycle   2 NSaved=   2.
 NSaved= 2 IEnMin= 2 EnMin= -1289.15957502751     IErMin= 2 ErrMin= 6.57D-03
 ErrMax= 6.57D-03  0.00D+00 EMaxC= 1.00D-01 BMatC= 5.00D-02 BMatP= 4.82D-01
 IDIUse=3 WtCom= 9.34D-01 WtEn= 6.57D-02
 Coeff-Com:  0.128D+00 0.872D+00
 Coeff-En:   0.242D+00 0.758D+00
 Coeff:      0.135D+00 0.865D+00
 Gap=     0.228 Goal=   None    Shift=    0.000
 RMSDP=1.79D-03 MaxDP=8.86D-02 DE=-1.85D-01 OVMax= 2.28D-01

 Cycle   3  Pass 0  IDiag  1:
 RMSU=  1.58D-03    CP:  9.66D-01  6.92D-01
 E= -1289.43185377562     Delta-E=       -0.272278748112 Rises=F Damp=F
 DIIS: error= 7.58D-03 at cycle   3 NSaved=   3.
 NSaved= 3 IEnMin= 3 EnMin= -1289.43185377562     IErMin= 2 ErrMin= 6.57D-03
 ErrMax= 7.58D-03  0.00D+00 EMaxC= 1.00D-01 BMatC= 3.75D-02 BMatP= 5.00D-02
 IDIUse=3 WtCom= 9.24D-01 WtEn= 7.58D-02
 Coeff-Com:  0.569D-02 0.457D+00 0.537D+00
 Coeff-En:   0.000D+00 0.000D+00 0.100D+01
 Coeff:      0.526D-02 0.422D+00 0.572D+00
 Gap=     0.155 Goal=   None    Shift=    0.000
 RMSDP=9.28D-04 MaxDP=4.63D-02 DE=-2.72D-01 OVMax= 8.40D-02

 Cycle   4  Pass 0  IDiag  1:
 RMSU=  6.54D-04    CP:  9.69D-01  8.34D-01  6.56D-01
 E= -1289.46183237279     Delta-E=       -0.029978597162 Rises=F Damp=F
 DIIS: error= 3.34D-03 at cycle   4 NSaved=   4.
 NSaved= 4 IEnMin= 4 EnMin= -1289.46183237279     IErMin= 4 ErrMin= 3.34D-03
 ErrMax= 3.34D-03  0.00D+00 EMaxC= 1.00D-01 BMatC= 1.01D-02 BMatP= 3.75D-02
 IDIUse=3 WtCom= 9.67D-01 WtEn= 3.34D-02
 Coeff-Com: -0.951D-02 0.108D+00 0.356D+00 0.545D+00
 Coeff-En:   0.000D+00 0.000D+00 0.233D+00 0.767D+00
 Coeff:     -0.920D-02 0.105D+00 0.352D+00 0.553D+00
 Gap=     0.153 Goal=   None    Shift=    0.000
 RMSDP=3.56D-04 MaxDP=1.48D-02 DE=-3.00D-02 OVMax= 3.09D-02

 Cycle   5  Pass 0  IDiag  1:
 RMSU=  1.88D-04    CP:  9.68D-01  7.97D-01  7.40D-01  6.11D-01
 E= -1289.47137489458     Delta-E=       -0.009542521797 Rises=F Damp=F
 DIIS: error= 1.34D-03 at cycle   5 NSaved=   5.
 NSaved= 5 IEnMin= 5 EnMin= -1289.47137489458     IErMin= 5 ErrMin= 1.34D-03
 ErrMax= 1.34D-03  0.00D+00 EMaxC= 1.00D-01 BMatC= 7.75D-04 BMatP= 1.01D-02
 IDIUse=3 WtCom= 9.87D-01 WtEn= 1.34D-02
 Coeff-Com: -0.349D-02 0.164D-01 0.151D+00 0.318D+00 0.518D+00
 Coeff-En:   0.000D+00 0.000D+00 0.000D+00 0.000D+00 0.100D+01
 Coeff:     -0.344D-02 0.162D-01 0.149D+00 0.313D+00 0.525D+00
 Gap=     0.153 Goal=   None    Shift=    0.000
 RMSDP=1.04D-04 MaxDP=4.35D-03 DE=-9.54D-03 OVMax= 8.21D-03

 Cycle   6  Pass 0  IDiag  1:
 RMSU=  6.41D-05    CP:  9.68D-01  7.99D-01  7.44D-01  6.52D-01  5.93D-01
 E= -1289.47207490561     Delta-E=       -0.000700011029 Rises=F Damp=F
 DIIS: error= 4.74D-04 at cycle   6 NSaved=   6.
 NSaved= 6 IEnMin= 6 EnMin= -1289.47207490561     IErMin= 6 ErrMin= 4.74D-04
 ErrMax= 4.74D-04  0.00D+00 EMaxC= 1.00D-01 BMatC= 8.28D-05 BMatP= 7.75D-04
 IDIUse=3 WtCom= 9.95D-01 WtEn= 4.74D-03
 Coeff-Com: -0.751D-03-0.246D-04 0.567D-01 0.135D+00 0.311D+00 0.498D+00
 Coeff-En:   0.000D+00 0.000D+00 0.000D+00 0.000D+00 0.427D-01 0.957D+00
 Coeff:     -0.747D-03-0.245D-04 0.564D-01 0.135D+00 0.310D+00 0.500D+00
 Gap=     0.153 Goal=   None    Shift=    0.000
 RMSDP=3.82D-05 MaxDP=1.39D-03 DE=-7.00D-04 OVMax= 3.82D-03

 Cycle   7  Pass 0  IDiag  1:
 RMSU=  2.20D-05    CP:  9.68D-01  7.97D-01  7.50D-01  6.49D-01  6.26D-01
                    CP:  5.52D-01
 E= -1289.47214565721     Delta-E=       -0.000070751593 Rises=F Damp=F
 DIIS: error= 1.67D-04 at cycle   7 NSaved=   7.
 NSaved= 7 IEnMin= 7 EnMin= -1289.47214565721     IErMin= 7 ErrMin= 1.67D-04
 ErrMax= 1.67D-04  0.00D+00 EMaxC= 1.00D-01 BMatC= 1.44D-05 BMatP= 8.28D-05
 IDIUse=3 WtCom= 9.98D-01 WtEn= 1.67D-03
 Coeff-Com: -0.471D-04-0.210D-02 0.200D-01 0.519D-01 0.142D+00 0.333D+00
 Coeff-Com:  0.455D+00
 Coeff-En:   0.000D+00 0.000D+00 0.000D+00 0.000D+00 0.000D+00 0.150D+00
 Coeff-En:   0.850D+00
 Coeff:     -0.470D-04-0.210D-02 0.200D-01 0.518D-01 0.141D+00 0.333D+00
 Coeff:      0.456D+00
 Gap=     0.153 Goal=   None    Shift=    0.000
 RMSDP=1.37D-05 MaxDP=4.59D-04 DE=-7.08D-05 OVMax= 1.56D-03

 Cycle   8  Pass 0  IDiag  1:
 RMSU=  5.87D-06    CP:  9.68D-01  7.97D-01  7.49D-01  6.53D-01  6.28D-01
                    CP:  6.27D-01  5.03D-01
 E= -1289.47216027314     Delta-E=       -0.000014615936 Rises=F Damp=F
 DIIS: error= 2.78D-05 at cycle   8 NSaved=   8.
 NSaved= 8 IEnMin= 8 EnMin= -1289.47216027314     IErMin= 8 ErrMin= 2.78D-05
 ErrMax= 2.78D-05  0.00D+00 EMaxC= 1.00D-01 BMatC= 6.39D-07 BMatP= 1.44D-05
 IDIUse=1 WtCom= 1.00D+00 WtEn= 0.00D+00
 Coeff-Com:  0.872D-04-0.115D-02 0.520D-02 0.140D-01 0.427D-01 0.122D+00
 Coeff-Com:  0.232D+00 0.585D+00
 Coeff:      0.872D-04-0.115D-02 0.520D-02 0.140D-01 0.427D-01 0.122D+00
 Coeff:      0.232D+00 0.585D+00
 Gap=     0.153 Goal=   None    Shift=    0.000
 RMSDP=3.62D-06 MaxDP=1.31D-04 DE=-1.46D-05 OVMax= 3.87D-04

 Initial convergence to 1.0D-05 achieved.  Increase integral accuracy.
 Cycle   9  Pass 1  IDiag  1:
 E= -1289.47213231273     Delta-E=        0.000027960415 Rises=F Damp=F
 DIIS: error= 7.99D-05 at cycle   1 NSaved=   1.
 NSaved= 1 IEnMin= 1 EnMin= -1289.47213231273     IErMin= 1 ErrMin= 7.99D-05
 ErrMax= 7.99D-05  0.00D+00 EMaxC= 1.00D-01 BMatC= 9.64D-07 BMatP= 9.64D-07
 IDIUse=1 WtCom= 1.00D+00 WtEn= 0.00D+00
 Coeff-Com:  0.100D+01
 Coeff:      0.100D+01
 Gap=     0.153 Goal=   None    Shift=    0.000
 RMSDP=3.62D-06 MaxDP=1.31D-04 DE= 2.80D-05 OVMax= 4.12D-04

 Cycle  10  Pass 1  IDiag  1:
 RMSU=  4.19D-05    CP:  1.00D+00
 E= -1289.47213244698     Delta-E=       -0.000000134257 Rises=F Damp=F
 DIIS: error= 2.91D-05 at cycle   2 NSaved=   2.
 NSaved= 2 IEnMin= 2 EnMin= -1289.47213244698     IErMin= 2 ErrMin= 2.91D-05
 ErrMax= 2.91D-05  0.00D+00 EMaxC= 1.00D-01 BMatC= 7.46D-07 BMatP= 9.64D-07
 IDIUse=1 WtCom= 1.00D+00 WtEn= 0.00D+00
 Coeff-Com:  0.455D+00 0.545D+00
 Coeff:      0.455D+00 0.545D+00
 Gap=     0.153 Goal=   None    Shift=    0.000
 RMSDP=4.65D-06 MaxDP=1.84D-04 DE=-1.34D-07 OVMax= 4.92D-04

 Cycle  11  Pass 1  IDiag  1:
 RMSU=  4.65D-06    CP:  1.00D+00  9.97D-01
 E= -1289.47213283920     Delta-E=       -0.000000392214 Rises=F Damp=F
 DIIS: error= 2.19D-05 at cycle   3 NSaved=   3.
 NSaved= 3 IEnMin= 3 EnMin= -1289.47213283920     IErMin= 3 ErrMin= 2.19D-05
 ErrMax= 2.19D-05  0.00D+00 EMaxC= 1.00D-01 BMatC= 3.73D-07 BMatP= 7.46D-07
 IDIUse=1 WtCom= 1.00D+00 WtEn= 0.00D+00
 Coeff-Com:  0.171D-01 0.411D+00 0.572D+00
 Coeff:      0.171D-01 0.411D+00 0.572D+00
 Gap=     0.153 Goal=   None    Shift=    0.000
 RMSDP=2.19D-06 MaxDP=9.73D-05 DE=-3.92D-07 OVMax= 2.57D-04

 Cycle  12  Pass 1  IDiag  1:
 RMSU=  7.15D-07    CP:  1.00D+00  1.01D+00  5.64D-01
 E= -1289.47213322970     Delta-E=       -0.000000390507 Rises=F Damp=F
 DIIS: error= 7.48D-06 at cycle   4 NSaved=   4.
 NSaved= 4 IEnMin= 4 EnMin= -1289.47213322970     IErMin= 4 ErrMin= 7.48D-06
 ErrMax= 7.48D-06  0.00D+00 EMaxC= 1.00D-01 BMatC= 2.45D-08 BMatP= 3.73D-07
 IDIUse=1 WtCom= 1.00D+00 WtEn= 0.00D+00
 Coeff-Com: -0.319D-02 0.256D+00 0.381D+00 0.366D+00
 Coeff:     -0.319D-02 0.256D+00 0.381D+00 0.366D+00
 Gap=     0.153 Goal=   None    Shift=    0.000
 RMSDP=4.96D-07 MaxDP=1.98D-05 DE=-3.91D-07 OVMax= 5.23D-05

 Cycle  13  Pass 1  IDiag  1:
 RMSU=  1.63D-07    CP:  1.00D+00  1.01D+00  5.91D-01  3.69D-01
 E= -1289.47213325390     Delta-E=       -0.000000024197 Rises=F Damp=F
 DIIS: error= 1.10D-06 at cycle   5 NSaved=   5.
 NSaved= 5 IEnMin= 5 EnMin= -1289.47213325390     IErMin= 5 ErrMin= 1.10D-06
 ErrMax= 1.10D-06  0.00D+00 EMaxC= 1.00D-01 BMatC= 5.26D-10 BMatP= 2.45D-08
 IDIUse=1 WtCom= 1.00D+00 WtEn= 0.00D+00
 Coeff-Com: -0.251D-02 0.142D+00 0.213D+00 0.223D+00 0.425D+00
 Coeff:     -0.251D-02 0.142D+00 0.213D+00 0.223D+00 0.425D+00
 Gap=     0.153 Goal=   None    Shift=    0.000
 RMSDP=7.87D-08 MaxDP=2.86D-06 DE=-2.42D-08 OVMax= 6.73D-06

 Cycle  14  Pass 1  IDiag  1:
 RMSU=  4.95D-08    CP:  1.00D+00  1.01D+00  5.91D-01  3.99D-01  6.50D-01
 E= -1289.47213325441     Delta-E=       -0.000000000507 Rises=F Damp=F
 DIIS: error= 1.51D-07 at cycle   6 NSaved=   6.
 NSaved= 6 IEnMin= 6 EnMin= -1289.47213325441     IErMin= 6 ErrMin= 1.51D-07
 ErrMax= 1.51D-07  0.00D+00 EMaxC= 1.00D-01 BMatC= 2.07D-11 BMatP= 5.26D-10
 IDIUse=1 WtCom= 1.00D+00 WtEn= 0.00D+00
 Coeff-Com: -0.113D-02 0.587D-01 0.884D-01 0.955D-01 0.227D+00 0.531D+00
 Coeff:     -0.113D-02 0.587D-01 0.884D-01 0.955D-01 0.227D+00 0.531D+00
 Gap=     0.153 Goal=   None    Shift=    0.000
 RMSDP=1.79D-08 MaxDP=8.85D-07 DE=-5.07D-10 OVMax= 1.46D-06

 Cycle  15  Pass 1  IDiag  1:
 RMSU=  1.58D-08    CP:  1.00D+00  1.01D+00  5.91D-01  3.95D-01  6.69D-01
                    CP:  8.55D-01
 E= -1289.47213325442     Delta-E=       -0.000000000016 Rises=F Damp=F
 DIIS: error= 4.95D-08 at cycle   7 NSaved=   7.
 NSaved= 7 IEnMin= 7 EnMin= -1289.47213325442     IErMin= 7 ErrMin= 4.95D-08
 ErrMax= 4.95D-08  0.00D+00 EMaxC= 1.00D-01 BMatC= 2.53D-12 BMatP= 2.07D-11
 IDIUse=1 WtCom= 1.00D+00 WtEn= 0.00D+00
 Coeff-Com: -0.198D-03 0.868D-02 0.132D-01 0.154D-01 0.517D-01 0.282D+00
 Coeff-Com:  0.630D+00
 Coeff:     -0.198D-03 0.868D-02 0.132D-01 0.154D-01 0.517D-01 0.282D+00
 Coeff:      0.630D+00
 Gap=     0.153 Goal=   None    Shift=    0.000
 RMSDP=7.72D-09 MaxDP=4.11D-07 DE=-1.59D-11 OVMax= 7.44D-07

 SCF Done:  E(RB3LYP) =  -1289.47213325     A.U. after   15 cycles
            NFock= 15  Conv=0.77D-08     -V/T= 2.0076
 KE= 1.279722157437D+03 PE=-6.450929656856D+03 EE= 2.163291456870D+03
 Leave Link  502 at Sat Nov  5 11:38:57 2022, MaxMem=   402653184 cpu:             358.0 elap:              27.9
 (Enter /home/wykgroup/appl/g16/l508.exe)
 QCSCF skips out because SCF is already converged.
 Leave Link  508 at Sat Nov  5 11:38:57 2022, MaxMem=   402653184 cpu:               0.4 elap:               0.1
 (Enter /home/wykgroup/appl/g16/l801.exe)
 DoSCS=F DFT=T ScalE2(SS,OS)=  1.000000  1.000000
 ExpMin= 1.17D-01 ExpMax= 2.19D+04 ExpMxC= 3.30D+03 IAcc=3 IRadAn=         5 AccDes= 0.00D+00
 HarFok:  IExCor=  205 AccDes= 0.00D+00 IRadAn=         5 IDoV=-2 UseB2=F ITyADJ=14
 ICtDFT= 12500011 ScaDFX=  1.000000  1.000000  1.000000  1.000000
 GSVD:  LWork=        -884 too small for GESVD, short by        3770 words or        3770 for optimal perf.
 Largest valence mixing into a core orbital is  1.04D-04
 Largest core mixing into a valence orbital is  2.53D-05
 Range of M.O.s used for correlation:    27   360
 NBasis=   360 NAE=    80 NBE=    80 NFC=    26 NFV=     0
 NROrb=    334 NOA=    54 NOB=    54 NVA=   280 NVB=   280
 Leave Link  801 at Sat Nov  5 11:38:57 2022, MaxMem=   402653184 cpu:               3.7 elap:               0.3
 (Enter /home/wykgroup/appl/g16/l914.exe)
 RHF ground state
 Two-electron integral symmetry not used.
 MDV=   402653184 DFT=T DoStab=F Mixed=T DoRPA=T DoScal=F NonHer=T
 Making orbital integer symmetry assigments:
    16 initial guesses have been made.
 Convergence on wavefunction:    0.001000000000000
 Davidson Disk Diagonalization:  ConvIn= 1.00D-03 SkipCon=T Conv= 1.00D-03.
 Max sub-space:  2000 roots to seek:    16 dimension of matrix:        30240
 Iteration     1 Dimension    16 NMult     0 NNew     16
 CISAX will form    16 AO SS matrices at one time.
 NMat=    16 NSing=     8 JSym2X= 0.
 FoFJK:  IHMeth= 1 ICntrl=       0 DoSepK=F KAlg= 0 I1Cent=           0 FoldK=F
 IRaf= 720000000 NMat=      32 IRICut=       1 DoRegI=T DoRafI=F ISym2E= 0 IDoP0=0 IntGTp=1.
 FoFCou: FMM=F IPFlag=           0 FMFlag=      100000 FMFlg1=           0
         NFxFlg=           0 DoJE=F BraDBF=F KetDBF=F FulRan=T
         wScrn=  0.000000 ICntrl=         0 IOpCl=  0 I1Cent=           0 NGrid=           0
         NMat0=   32 NMatS0=      8 NMatT0=    8 NMatD0=   32 NMtDS0=    0 NMtDT0=    0
 Symmetry not used in FoFCou.
 New state      1 was old state      2
 New state      2 was old state      4
 New state      3 was old state      1
 New state      4 was old state      6
 New state      5 was old state      8
 New state      6 was old state     12
 New state      7 was old state      3
 New state      8 was old state     10
 Excitation Energies [eV] at current iteration:
 Root      1 :     3.035542797150598
 Root      2 :     3.773459538710673
 Root      3 :     4.079602484267674
 Root      4 :     4.155032082231005
 Root      5 :     4.249934056210542
 Root      6 :     4.306932143684028
 Root      7 :     4.429636730242134
 Root      8 :     4.440282212110026
 Root      9 :     4.475950188296113
 Root     10 :     4.599266292433498
 Root     11 :     4.667800423377732
 Root     12 :     4.936556274640576
 Root     13 :     4.982525296326658
 Root     14 :     5.242238933897011
 Root     15 :     5.356543613633491
 Root     16 :     5.684713759964482
 Vector   4 SDiff=1.26D+02 TDiff=3.31D+02 assumed to be singlet.
 Vector   8 SDiff=1.16D+02 TDiff=2.23D+02 assumed to be singlet.
 Iteration     2 Dimension    24 NMult    16 NNew      8
 CISAX will form     8 AO SS matrices at one time.
 NMat=     8 NSing=     4 JSym2X= 0.
 Root      1 not converged, maximum delta is    0.072442383619761
 Root      2 not converged, maximum delta is    0.111425647941978
 Root      3 not converged, maximum delta is    0.153932822114729
 New state      4 was old state      7
 Root      4 not converged, maximum delta is    0.135153280191341
 Excitation Energies [eV] at current iteration:
 Root      1 :     2.724983498417386   Change is   -0.310559298733212
 Root      2 :     3.468060173117943   Change is   -0.305399365592730
 Root      3 :     3.817125782849006   Change is   -0.262476701418668
 Root      4 :     4.272197633255358   Change is   -0.157439096986777
 Iteration     3 Dimension    32 NMult    24 NNew      8
 CISAX will form     8 AO SS matrices at one time.
 NMat=     8 NSing=     4 JSym2X= 0.
 Root      1 not converged, maximum delta is    0.022206024773750
 Root      2 not converged, maximum delta is    0.083037476321568
 Root      3 not converged, maximum delta is    0.020440587343271
 Root      4 not converged, maximum delta is    0.054080915087549
 Excitation Energies [eV] at current iteration:
 Root      1 :     2.697998867852226   Change is   -0.026984630565160
 Root      2 :     3.374429078334410   Change is   -0.093631094783534
 Root      3 :     3.773932412593960   Change is   -0.043193370255047
 Root      4 :     4.229978889410936   Change is   -0.042218743844422
 Iteration     4 Dimension    40 NMult    32 NNew      8
 CISAX will form     8 AO SS matrices at one time.
 NMat=     8 NSing=     4 JSym2X= 0.
 Root      1 not converged, maximum delta is    0.010081286333516
 Root      2 not converged, maximum delta is    0.053835441208425
 Root      3 not converged, maximum delta is    0.013334504620680
 Root      4 not converged, maximum delta is    0.028019475783359
 Excitation Energies [eV] at current iteration:
 Root      1 :     2.694839300499682   Change is   -0.003159567352545
 Root      2 :     3.344367245837406   Change is   -0.030061832497004
 Root      3 :     3.764871112317570   Change is   -0.009061300276390
 Root      4 :     4.222534663257314   Change is   -0.007444226153621
 Iteration     5 Dimension    48 NMult    40 NNew      8
 CISAX will form     8 AO SS matrices at one time.
 NMat=     8 NSing=     4 JSym2X= 0.
 Root      1 not converged, maximum delta is    0.003030046009216
 Root      2 not converged, maximum delta is    0.016244051554697
 Root      3 not converged, maximum delta is    0.002885329673806
 Root      4 not converged, maximum delta is    0.005388015173088
 Excitation Energies [eV] at current iteration:
 Root      1 :     2.694504514834843   Change is   -0.000334785664838
 Root      2 :     3.338925658946509   Change is   -0.005441586890897
 Root      3 :     3.763414957301940   Change is   -0.001456155015630
 Root      4 :     4.221032458801709   Change is   -0.001502204455605
 Iteration     6 Dimension    56 NMult    48 NNew      8
 CISAX will form     8 AO SS matrices at one time.
 NMat=     8 NSing=     4 JSym2X= 0.
 Root      1 has converged.
 Root      2 not converged, maximum delta is    0.004978287492733
 Root      3 has converged.
 Root      4 not converged, maximum delta is    0.004962123542166
 Excitation Energies [eV] at current iteration:
 Root      1 :     2.694465874681677   Change is   -0.000038640153166
 Root      2 :     3.337962485825808   Change is   -0.000963173120700
 Root      3 :     3.763190078360696   Change is   -0.000224878941245
 Root      4 :     4.220706893217791   Change is   -0.000325565583918
 Iteration     7 Dimension    60 NMult    56 NNew      4
 CISAX will form     4 AO SS matrices at one time.
 NMat=     4 NSing=     2 JSym2X= 0.
 Root      1 has converged.
 Root      2 not converged, maximum delta is    0.003012661356264
 Root      3 has converged.
 Root      4 not converged, maximum delta is    0.001739276045966
 Excitation Energies [eV] at current iteration:
 Root      1 :     2.694462213009562   Change is   -0.000003661672115
 Root      2 :     3.337757900676774   Change is   -0.000204585149034
 Root      3 :     3.763188457163808   Change is   -0.000001621196888
 Root      4 :     4.220639644504351   Change is   -0.000067248713440
 Iteration     8 Dimension    64 NMult    60 NNew      4
 CISAX will form     4 AO SS matrices at one time.
 NMat=     4 NSing=     2 JSym2X= 0.
 Root      1 has converged.
 Root      2 not converged, maximum delta is    0.001389576237242
 Root      3 has converged.
 Root      4 not converged, maximum delta is    0.001209886944931
 Excitation Energies [eV] at current iteration:
 Root      1 :     2.694461615974783   Change is   -0.000000597034779
 Root      2 :     3.337708065004914   Change is   -0.000049835671861
 Root      3 :     3.763187589987273   Change is   -0.000000867176535
 Root      4 :     4.220620928821924   Change is   -0.000018715682427
 Iteration     9 Dimension    68 NMult    64 NNew      4
 CISAX will form     4 AO SS matrices at one time.
 NMat=     4 NSing=     2 JSym2X= 0.
 Root      1 has converged.
 Root      2 has converged.
 Root      3 has converged.
 Root      4 has converged.
 Excitation Energies [eV] at current iteration:
 Root      1 :     2.694461503306562   Change is   -0.000000112668221
 Root      2 :     3.337701016048092   Change is   -0.000007048956822
 Root      3 :     3.763186984009230   Change is   -0.000000605978043
 Root      4 :     4.220615981044582   Change is   -0.000004947777342
 Convergence achieved on expansion vectors.
 ***********************************************************************
 Excited states from <AA,BB:AA,BB> singles matrix:
 ***********************************************************************
 
 1PDM for each excited state written to RWF  633
 Ground to excited state transition densities written to RWF  633
 Ground to excited state transition electric dipole moments (Au):
       state          X           Y           Z        Dip. S.      Osc.
         1        -0.0000     -0.0000     -0.0000      0.0000      0.0000
         2         0.0000      0.0000      0.0000      0.0000      0.0000
         3         2.3650     -0.0077     -0.2186      5.6410      0.5201
         4        -0.8740     -0.2125     -0.1201      0.8234      0.0851
 Ground to excited state transition velocity dipole moments (Au):
       state          X           Y           Z        Dip. S.      Osc.
         1         0.0000      0.0000      0.0000      0.0000      0.0000
         2        -0.0000     -0.0000     -0.0000      0.0000      0.0000
         3        -0.3216     -0.0012      0.0276      0.1042      0.5023
         4         0.1333      0.0344      0.0163      0.0192      0.0826
 Ground to excited state transition magnetic dipole moments (Au):
       state          X           Y           Z
         1        -0.0000      0.0000     -0.0000
         2        -0.0000     -0.0000     -0.0000
         3        -0.2238      0.3694     -0.2264
         4         0.2403     -0.2414     -0.2380
 Ground to excited state transition velocity quadrupole moments (Au):
       state          XX          YY          ZZ          XY          XZ          YZ
         1         0.0000      0.0000      0.0000     -0.0000     -0.0000      0.0000
         2         0.0000      0.0000      0.0000     -0.0000     -0.0000      0.0000
         3         0.0160      0.0480      0.1658     -0.4431     -0.3109      0.1255
         4         1.4416     -0.0964     -0.2615     -0.0015      0.0768     -0.1679
 <0|del|b> * <b|rxdel|0> + <0|del|b> * <b|delr+rdel|0>
 Rotatory Strengths (R) in cgs (10**-40 erg-esu-cm/Gauss)
       state          XX          YY          ZZ    R(velocity)    E-M Angle
         1         0.0000      0.0000     -0.0000      0.0000       90.00
         2         0.0000     -0.0000      0.0000      0.0000       90.00
         3       -49.2914     96.1396    287.0888    111.3123       65.49
         4       -33.8710     13.1923    111.1591     30.1601       69.85
 1/2[<0|r|b>*<b|rxdel|0> + (<0|rxdel|b>*<b|r|0>)*]
 Rotatory Strengths (R) in cgs (10**-40 erg-esu-cm/Gauss)
       state          XX          YY          ZZ     R(length)
         1        -0.0000      0.0000     -0.0000      0.0000
         2         0.0000      0.0000      0.0000      0.0000
         3       374.3509      2.0195    -34.9992    113.7904
         4       148.5082    -36.2679    -20.2094     30.6769
  1/2[<0|del|b>*<b|r|0> + (<0|r|b>*<b|del|0>)*] (Au)
       state          X           Y           Z        Dip. S.   Osc.(frdel)
         1        -0.0000     -0.0000     -0.0000      0.0000      0.0000
         2        -0.0000     -0.0000     -0.0000      0.0000      0.0000
         3        -0.7606      0.0000     -0.0060      0.7666      0.5111
         4        -0.1165     -0.0073     -0.0020      0.1258      0.0839

 Excitation energies and oscillator strengths:
 
 Excited state symmetry could not be determined.
 Excited State   1:      Triplet-?Sym    2.6945 eV  460.14 nm  f=0.0000  <S**2>=2.000
      79 -> 81         0.10466
      80 -> 81         0.63887
      80 -> 84        -0.12622
 This state for optimization and/or second-order correction.
 Total Energy, E(TD-HF/TD-DFT) =  -1289.37311362    
 Copying the excited state density for this state as the 1-particle RhoCI density.
 
 Excited state symmetry could not be determined.
 Excited State   2:      Triplet-?Sym    3.3377 eV  371.47 nm  f=0.0000  <S**2>=2.000
      74 -> 81        -0.10998
      75 -> 81        -0.22471
      75 -> 82        -0.17787
      76 -> 81        -0.12675
      78 -> 81        -0.26827
      79 -> 81         0.25520
      80 -> 82         0.40008
      80 -> 83        -0.12690
      80 -> 87         0.11002
 
 Excited state symmetry could not be determined.
 Excited State   3:      Singlet-?Sym    3.7632 eV  329.47 nm  f=0.5201  <S**2>=0.000
      80 -> 81         0.69757
 
 Excited state symmetry could not be determined.
 Excited State   4:      Singlet-?Sym    4.2206 eV  293.76 nm  f=0.0851  <S**2>=0.000
      78 -> 81         0.13302
      80 -> 82         0.66941
 SavETr:  write IOETrn=   770 NScale= 10 NData=  16 NLR=1 NState=    4 LETran=      82.
 Leave Link  914 at Sat Nov  5 11:42:04 2022, MaxMem=   402653184 cpu:            2532.6 elap:             187.3
 (Enter /home/wykgroup/appl/g16/l601.exe)
 Copying SCF densities to generalized density rwf, IOpCl= 0 IROHF=0.

 **********************************************************************

            Population analysis using the SCF Density.

 **********************************************************************

 Alpha  occ. eigenvalues --  -88.92237 -14.39529 -14.37096 -14.31855 -14.31663
 Alpha  occ. eigenvalues --  -14.31161 -10.27168 -10.26015 -10.24023 -10.23997
 Alpha  occ. eigenvalues --  -10.23868 -10.22975 -10.22865 -10.22800 -10.22666
 Alpha  occ. eigenvalues --  -10.21997 -10.21184 -10.20668 -10.19546 -10.19256
 Alpha  occ. eigenvalues --  -10.18992 -10.18958  -7.98356  -5.94758  -5.94382
 Alpha  occ. eigenvalues --   -5.94072  -0.99989  -0.98877  -0.95455  -0.91070
 Alpha  occ. eigenvalues --   -0.89333  -0.86385  -0.82112  -0.79401  -0.78188
 Alpha  occ. eigenvalues --   -0.75459  -0.74070  -0.72610  -0.70298  -0.65907
 Alpha  occ. eigenvalues --   -0.65158  -0.62709  -0.61388  -0.58556  -0.58116
 Alpha  occ. eigenvalues --   -0.56033  -0.55032  -0.53844  -0.53000  -0.49889
 Alpha  occ. eigenvalues --   -0.47952  -0.47792  -0.46922  -0.46382  -0.46295
 Alpha  occ. eigenvalues --   -0.44568  -0.43890  -0.43280  -0.42633  -0.41605
 Alpha  occ. eigenvalues --   -0.41562  -0.40802  -0.39940  -0.39588  -0.39185
 Alpha  occ. eigenvalues --   -0.39047  -0.36854  -0.36510  -0.35655  -0.33773
 Alpha  occ. eigenvalues --   -0.29404  -0.28477  -0.28234  -0.27299  -0.25504
 Alpha  occ. eigenvalues --   -0.25450  -0.24377  -0.23442  -0.22792  -0.19442
 Alpha virt. eigenvalues --   -0.04152  -0.01997  -0.01194   0.00046   0.01657
 Alpha virt. eigenvalues --    0.02156   0.04066   0.07194   0.07587   0.08744
 Alpha virt. eigenvalues --    0.09779   0.10633   0.11735   0.12484   0.12788
 Alpha virt. eigenvalues --    0.13554   0.14491   0.15055   0.15858   0.16432
 Alpha virt. eigenvalues --    0.16753   0.17530   0.18289   0.18716   0.19879
 Alpha virt. eigenvalues --    0.20952   0.22415   0.22975   0.23826   0.25103
 Alpha virt. eigenvalues --    0.26389   0.28320   0.28850   0.29059   0.30218
 Alpha virt. eigenvalues --    0.32558   0.34708   0.35001   0.35720   0.36569
 Alpha virt. eigenvalues --    0.37883   0.38285   0.38603   0.39002   0.41836
 Alpha virt. eigenvalues --    0.42265   0.42813   0.44282   0.45128   0.46733
 Alpha virt. eigenvalues --    0.48273   0.49519   0.51409   0.51966   0.52092
 Alpha virt. eigenvalues --    0.52502   0.52924   0.53997   0.55352   0.55786
 Alpha virt. eigenvalues --    0.56018   0.56870   0.57015   0.57997   0.58153
 Alpha virt. eigenvalues --    0.59064   0.59388   0.59550   0.60072   0.61250
 Alpha virt. eigenvalues --    0.62344   0.62487   0.63792   0.64090   0.64771
 Alpha virt. eigenvalues --    0.65412   0.66138   0.66511   0.67817   0.68231
 Alpha virt. eigenvalues --    0.69472   0.69940   0.72169   0.72844   0.74525
 Alpha virt. eigenvalues --    0.75843   0.76383   0.77604   0.78146   0.79776
 Alpha virt. eigenvalues --    0.79865   0.80617   0.81122   0.81633   0.82158
 Alpha virt. eigenvalues --    0.82813   0.83071   0.84114   0.84739   0.85283
 Alpha virt. eigenvalues --    0.85852   0.86384   0.87181   0.87699   0.88956
 Alpha virt. eigenvalues --    0.89235   0.90612   0.90922   0.91165   0.91719
 Alpha virt. eigenvalues --    0.92441   0.92827   0.93276   0.94942   0.95404
 Alpha virt. eigenvalues --    0.96278   0.97418   0.97912   1.00167   1.00606
 Alpha virt. eigenvalues --    1.00836   1.03097   1.04080   1.04620   1.04926
 Alpha virt. eigenvalues --    1.07426   1.08530   1.10236   1.11010   1.14453
 Alpha virt. eigenvalues --    1.16075   1.17217   1.18540   1.19679   1.21147
 Alpha virt. eigenvalues --    1.21916   1.24710   1.25408   1.27139   1.27875
 Alpha virt. eigenvalues --    1.29432   1.32141   1.32886   1.33617   1.35596
 Alpha virt. eigenvalues --    1.36941   1.37639   1.41514   1.41652   1.42823
 Alpha virt. eigenvalues --    1.44408   1.44729   1.46439   1.47545   1.47717
 Alpha virt. eigenvalues --    1.48110   1.50081   1.51484   1.52701   1.53088
 Alpha virt. eigenvalues --    1.54501   1.56878   1.59637   1.61595   1.65152
 Alpha virt. eigenvalues --    1.67410   1.67650   1.70179   1.71430   1.72900
 Alpha virt. eigenvalues --    1.73742   1.76209   1.77397   1.78092   1.80195
 Alpha virt. eigenvalues --    1.81387   1.83073   1.83539   1.84831   1.85242
 Alpha virt. eigenvalues --    1.86817   1.88538   1.89080   1.90910   1.92928
 Alpha virt. eigenvalues --    1.94459   1.95552   1.97188   1.97519   1.98805
 Alpha virt. eigenvalues --    1.99931   2.03005   2.06238   2.06798   2.08272
 Alpha virt. eigenvalues --    2.11510   2.12502   2.15545   2.15916   2.16618
 Alpha virt. eigenvalues --    2.17497   2.18740   2.19721   2.20917   2.21357
 Alpha virt. eigenvalues --    2.22229   2.22760   2.23868   2.24357   2.25338
 Alpha virt. eigenvalues --    2.25982   2.27444   2.28561   2.32027   2.32718
 Alpha virt. eigenvalues --    2.34210   2.34690   2.36708   2.37146   2.39270
 Alpha virt. eigenvalues --    2.39632   2.42139   2.44183   2.44531   2.48803
 Alpha virt. eigenvalues --    2.49055   2.52841   2.53559   2.54998   2.58032
 Alpha virt. eigenvalues --    2.58628   2.60407   2.62245   2.63612   2.64486
 Alpha virt. eigenvalues --    2.66163   2.68715   2.69686   2.70993   2.73860
 Alpha virt. eigenvalues --    2.74642   2.75983   2.77871   2.80542   2.81888
 Alpha virt. eigenvalues --    2.83650   2.87972   2.91921   2.92116   2.96244
 Alpha virt. eigenvalues --    3.02898   3.06819   3.14686   3.18024   3.25444
 Alpha virt. eigenvalues --    3.31772   3.41901   3.46994   3.93247   3.97091
 Alpha virt. eigenvalues --    4.03374   4.06058   4.08876   4.10043   4.10716
 Alpha virt. eigenvalues --    4.12839   4.15947   4.19752   4.23560   4.24982
 Alpha virt. eigenvalues --    4.27840   4.29427   4.30845   4.35144   4.38336
 Alpha virt. eigenvalues --    4.42880   4.47185   4.57707   4.66715   4.76810
          Condensed to atoms (all electrons):
               1          2          3          4          5          6
     1  C    5.006150   0.296839  -0.039688  -0.009457  -0.000027   0.000017
     2  N    0.296839   7.035879   0.350063  -0.053398   0.003210  -0.000118
     3  C   -0.039688   0.350063   4.793336   0.305785  -0.050631   0.010535
     4  C   -0.009457  -0.053398   0.305785   4.775689   0.526449  -0.017023
     5  C   -0.000027   0.003210  -0.050631   0.526449   4.901340   0.542314
     6  C    0.000017  -0.000118   0.010535  -0.017023   0.542314   5.258375
     7  S    0.000130   0.000047   0.007022  -0.058928  -0.085486   0.323070
     8  C   -0.003110  -0.008441  -0.054124   0.539887  -0.078153  -0.069550
     9  C    0.007685  -0.100518   0.521224  -0.070817  -0.011187   0.000345
    10  C    0.006199  -0.021677  -0.004231   0.005214   0.000475  -0.000009
    11  C   -0.000073   0.012418   0.004726  -0.000220  -0.000001  -0.000000
    12  N    0.000001  -0.000105   0.000073  -0.000002   0.000000   0.000000
    13  C   -0.000000   0.000001   0.000004  -0.000000   0.000000   0.000000
    14  C    0.000000   0.000000  -0.000000  -0.000000  -0.000000  -0.000000
    15  C   -0.000000   0.000000   0.000000  -0.000000  -0.000000  -0.000000
    16  N    0.000000   0.000000  -0.000000  -0.000000   0.000000   0.000000
    17  C   -0.000000   0.000000   0.000000  -0.000000  -0.000000   0.000000
    18  N    0.000000   0.000000  -0.000000  -0.000000   0.000000  -0.000000
    19  N    0.000005   0.000182  -0.000333  -0.000000   0.000000   0.000000
    20  C   -0.000021   0.004882   0.000053   0.000003  -0.000000   0.000000
    21  C   -0.003612  -0.093171   0.000759  -0.000314   0.000001   0.000000
    22  C   -0.047448   0.269322  -0.067905   0.006528  -0.000109   0.000005
    23  H    0.372384  -0.032470  -0.003213   0.006076  -0.000038  -0.000095
    24  H    0.376198  -0.042059   0.000455   0.000655  -0.000012  -0.000000
    25  H    0.371488  -0.036380   0.001891   0.000165   0.000010  -0.000000
    26  H   -0.000003  -0.000046  -0.007052  -0.036198   0.357156  -0.050484
    27  H   -0.000000   0.000001  -0.000150   0.002547  -0.017021   0.357446
    28  H    0.001342   0.000666  -0.007020  -0.017794   0.006051   0.002187
    29  H   -0.000099   0.004081  -0.039968  -0.003567   0.002401   0.000023
    30  H    0.000000   0.000004  -0.000027  -0.000002  -0.000001  -0.000000
    31  H    0.000000   0.000000  -0.000000  -0.000000  -0.000000  -0.000000
    32  H    0.000000  -0.000000  -0.000000  -0.000000   0.000000   0.000000
    33  H    0.000000  -0.000000  -0.000000  -0.000000  -0.000000  -0.000000
    34  H    0.000001  -0.000099  -0.000003  -0.000000   0.000000  -0.000000
    35  H    0.002969  -0.006834  -0.000120   0.000005   0.000000   0.000000
               7          8          9         10         11         12
     1  C    0.000130  -0.003110   0.007685   0.006199  -0.000073   0.000001
     2  N    0.000047  -0.008441  -0.100518  -0.021677   0.012418  -0.000105
     3  C    0.007022  -0.054124   0.521224  -0.004231   0.004726   0.000073
     4  C   -0.058928   0.539887  -0.070817   0.005214  -0.000220  -0.000002
     5  C   -0.085486  -0.078153  -0.011187   0.000475  -0.000001   0.000000
     6  C    0.323070  -0.069550   0.000345  -0.000009  -0.000000   0.000000
     7  S   15.311331   0.301380  -0.000132   0.000002  -0.000000  -0.000000
     8  C    0.301380   5.396727   0.004336  -0.000266   0.000000   0.000000
     9  C   -0.000132   0.004336   5.320323   0.373464  -0.086162  -0.003629
    10  C    0.000002  -0.000266   0.373464   5.006994   0.366258  -0.086455
    11  C   -0.000000   0.000000  -0.086162   0.366258   4.721532   0.222435
    12  N   -0.000000   0.000000  -0.003629  -0.086455   0.222435   7.269000
    13  C   -0.000000   0.000000  -0.000031   0.003964  -0.009095   0.266583
    14  C    0.000000  -0.000000  -0.000029  -0.000571   0.004837  -0.087812
    15  C    0.000000  -0.000000  -0.000000   0.000003  -0.000055   0.003492
    16  N   -0.000000   0.000000   0.000000  -0.000000   0.000020   0.000118
    17  C   -0.000000   0.000000  -0.000000  -0.000002   0.000202   0.004541
    18  N    0.000000  -0.000000  -0.000003  -0.000754   0.003823  -0.074554
    19  N    0.000000  -0.000000   0.007578  -0.032804   0.450339  -0.082796
    20  C    0.000000  -0.000000  -0.000306  -0.046715  -0.041057   0.004223
    21  C   -0.000000   0.000001   0.018405  -0.051474  -0.063678   0.000526
    22  C    0.000009   0.000060  -0.068181   0.480138  -0.023725   0.003595
    23  H    0.000025   0.007956  -0.000061   0.000010   0.000005  -0.000000
    24  H   -0.000013  -0.001158  -0.000100  -0.000106   0.000005  -0.000000
    25  H   -0.000005   0.000282  -0.000008  -0.000084  -0.000015   0.000000
    26  H    0.006502   0.007808   0.004005  -0.000042  -0.000005   0.000000
    27  H   -0.037158   0.002919  -0.000005   0.000000   0.000000  -0.000000
    28  H   -0.037974   0.351631  -0.000234   0.000034   0.000000  -0.000000
    29  H   -0.000010   0.000066   0.355768  -0.033998  -0.007017   0.002714
    30  H    0.000000  -0.000000   0.005206  -0.006383  -0.021209   0.310584
    31  H    0.000000  -0.000000  -0.000004  -0.000006   0.000021  -0.003849
    32  H    0.000000  -0.000000   0.000000  -0.000000   0.000002  -0.000095
    33  H   -0.000000  -0.000000  -0.000000   0.000000  -0.000025  -0.000110
    34  H    0.000000  -0.000000   0.000033   0.000915   0.004842  -0.000127
    35  H    0.000000  -0.000000  -0.000170   0.004805   0.000575   0.000012
              13         14         15         16         17         18
     1  C   -0.000000   0.000000  -0.000000   0.000000  -0.000000   0.000000
     2  N    0.000001   0.000000   0.000000   0.000000   0.000000   0.000000
     3  C    0.000004  -0.000000   0.000000  -0.000000   0.000000  -0.000000
     4  C   -0.000000  -0.000000  -0.000000  -0.000000  -0.000000  -0.000000
     5  C    0.000000  -0.000000  -0.000000   0.000000  -0.000000   0.000000
     6  C    0.000000  -0.000000  -0.000000   0.000000   0.000000  -0.000000
     7  S   -0.000000   0.000000   0.000000  -0.000000  -0.000000   0.000000
     8  C    0.000000  -0.000000  -0.000000   0.000000   0.000000  -0.000000
     9  C   -0.000031  -0.000029  -0.000000   0.000000  -0.000000  -0.000003
    10  C    0.003964  -0.000571   0.000003  -0.000000  -0.000002  -0.000754
    11  C   -0.009095   0.004837  -0.000055   0.000020   0.000202   0.003823
    12  N    0.266583  -0.087812   0.003492   0.000118   0.004541  -0.074554
    13  C    4.417378   0.455948  -0.016937  -0.041087  -0.038981   0.461866
    14  C    0.455948   5.205617   0.494753  -0.030966  -0.047080  -0.060591
    15  C   -0.016937   0.494753   4.748902   0.461137  -0.065483  -0.033902
    16  N   -0.041087  -0.030966   0.461137   6.738409   0.442649  -0.049749
    17  C   -0.038981  -0.047080  -0.065483   0.442649   4.692939   0.442586
    18  N    0.461866  -0.060591  -0.033902  -0.049749   0.442586   6.815448
    19  N    0.003277  -0.000104   0.000012  -0.000009  -0.000194  -0.008883
    20  C    0.000259   0.000007  -0.000000   0.000000  -0.000001  -0.000089
    21  C    0.000011  -0.000001  -0.000000  -0.000000  -0.000000  -0.000040
    22  C   -0.000013   0.000003  -0.000000   0.000000   0.000000   0.000020
    23  H    0.000000  -0.000000   0.000000   0.000000  -0.000000   0.000000
    24  H   -0.000000  -0.000000  -0.000000  -0.000000   0.000000   0.000000
    25  H    0.000000  -0.000000  -0.000000   0.000000  -0.000000   0.000000
    26  H    0.000000  -0.000000  -0.000000   0.000000  -0.000000  -0.000000
    27  H   -0.000000   0.000000   0.000000  -0.000000   0.000000   0.000000
    28  H    0.000000  -0.000000   0.000000  -0.000000   0.000000  -0.000000
    29  H   -0.000016  -0.000013  -0.000000   0.000000   0.000000  -0.000001
    30  H   -0.031832  -0.000856   0.000226   0.000022  -0.000132   0.003489
    31  H   -0.038112   0.334524  -0.030083   0.004096   0.000463   0.004306
    32  H    0.002834  -0.066133   0.381328  -0.051389   0.006044  -0.000280
    33  H    0.005342   0.000121   0.005907  -0.067917   0.393845  -0.069737
    34  H   -0.000030   0.000000   0.000000   0.000000   0.000001   0.000044
    35  H   -0.000000   0.000000  -0.000000   0.000000   0.000000   0.000000
              19         20         21         22         23         24
     1  C    0.000005  -0.000021  -0.003612  -0.047448   0.372384   0.376198
     2  N    0.000182   0.004882  -0.093171   0.269322  -0.032470  -0.042059
     3  C   -0.000333   0.000053   0.000759  -0.067905  -0.003213   0.000455
     4  C   -0.000000   0.000003  -0.000314   0.006528   0.006076   0.000655
     5  C    0.000000  -0.000000   0.000001  -0.000109  -0.000038  -0.000012
     6  C    0.000000   0.000000   0.000000   0.000005  -0.000095  -0.000000
     7  S    0.000000   0.000000  -0.000000   0.000009   0.000025  -0.000013
     8  C   -0.000000  -0.000000   0.000001   0.000060   0.007956  -0.001158
     9  C    0.007578  -0.000306   0.018405  -0.068181  -0.000061  -0.000100
    10  C   -0.032804  -0.046715  -0.051474   0.480138   0.000010  -0.000106
    11  C    0.450339  -0.041057  -0.063678  -0.023725   0.000005   0.000005
    12  N   -0.082796   0.004223   0.000526   0.003595  -0.000000  -0.000000
    13  C    0.003277   0.000259   0.000011  -0.000013   0.000000  -0.000000
    14  C   -0.000104   0.000007  -0.000001   0.000003  -0.000000  -0.000000
    15  C    0.000012  -0.000000  -0.000000  -0.000000   0.000000  -0.000000
    16  N   -0.000009   0.000000  -0.000000   0.000000   0.000000  -0.000000
    17  C   -0.000194  -0.000001  -0.000000   0.000000  -0.000000   0.000000
    18  N   -0.008883  -0.000089  -0.000040   0.000020   0.000000   0.000000
    19  N    6.801933   0.453981  -0.022754  -0.050364   0.000000  -0.000000
    20  C    0.453981   4.793970   0.464371   0.003858   0.000000   0.000006
    21  C   -0.022754   0.464371   5.201406   0.461322   0.000034   0.001133
    22  C   -0.050364   0.003858   0.461322   4.695565   0.002345  -0.000863
    23  H    0.000000   0.000000   0.000034   0.002345   0.514265  -0.033905
    24  H   -0.000000   0.000006   0.001133  -0.000863  -0.033905   0.567758
    25  H   -0.000001   0.000071   0.005118  -0.003066  -0.019938  -0.038650
    26  H   -0.000000   0.000000  -0.000000   0.000010   0.000000  -0.000000
    27  H   -0.000000  -0.000000  -0.000000  -0.000000  -0.000000   0.000000
    28  H   -0.000000   0.000000  -0.000002  -0.000122  -0.000948   0.001442
    29  H   -0.000046  -0.000006  -0.000098   0.006803  -0.000011   0.000003
    30  H    0.003126  -0.000122  -0.000006  -0.000081  -0.000000   0.000000
    31  H    0.000002  -0.000000   0.000000  -0.000000   0.000000  -0.000000
    32  H   -0.000000   0.000000  -0.000000   0.000000  -0.000000  -0.000000
    33  H    0.000036   0.000001   0.000000  -0.000000  -0.000000   0.000000
    34  H   -0.052983   0.380773  -0.066745   0.001887  -0.000000  -0.000000
    35  H    0.004045  -0.033746   0.341588  -0.036486  -0.000047  -0.000022
              25         26         27         28         29         30
     1  C    0.371488  -0.000003  -0.000000   0.001342  -0.000099   0.000000
     2  N   -0.036380  -0.000046   0.000001   0.000666   0.004081   0.000004
     3  C    0.001891  -0.007052  -0.000150  -0.007020  -0.039968  -0.000027
     4  C    0.000165  -0.036198   0.002547  -0.017794  -0.003567  -0.000002
     5  C    0.000010   0.357156  -0.017021   0.006051   0.002401  -0.000001
     6  C   -0.000000  -0.050484   0.357446   0.002187   0.000023  -0.000000
     7  S   -0.000005   0.006502  -0.037158  -0.037974  -0.000010   0.000000
     8  C    0.000282   0.007808   0.002919   0.351631   0.000066  -0.000000
     9  C   -0.000008   0.004005  -0.000005  -0.000234   0.355768   0.005206
    10  C   -0.000084  -0.000042   0.000000   0.000034  -0.033998  -0.006383
    11  C   -0.000015  -0.000005   0.000000   0.000000  -0.007017  -0.021209
    12  N    0.000000   0.000000  -0.000000  -0.000000   0.002714   0.310584
    13  C    0.000000   0.000000  -0.000000   0.000000  -0.000016  -0.031832
    14  C   -0.000000  -0.000000   0.000000  -0.000000  -0.000013  -0.000856
    15  C   -0.000000  -0.000000   0.000000   0.000000  -0.000000   0.000226
    16  N    0.000000   0.000000  -0.000000  -0.000000   0.000000   0.000022
    17  C   -0.000000  -0.000000   0.000000   0.000000   0.000000  -0.000132
    18  N    0.000000  -0.000000   0.000000  -0.000000  -0.000001   0.003489
    19  N   -0.000001  -0.000000  -0.000000  -0.000000  -0.000046   0.003126
    20  C    0.000071   0.000000  -0.000000   0.000000  -0.000006  -0.000122
    21  C    0.005118  -0.000000  -0.000000  -0.000002  -0.000098  -0.000006
    22  C   -0.003066   0.000010  -0.000000  -0.000122   0.006803  -0.000081
    23  H   -0.019938   0.000000  -0.000000  -0.000948  -0.000011  -0.000000
    24  H   -0.038650  -0.000000   0.000000   0.001442   0.000003   0.000000
    25  H    0.538152   0.000000  -0.000000   0.000054   0.000004  -0.000000
    26  H    0.000000   0.568183  -0.003086  -0.000111   0.001461  -0.000002
    27  H   -0.000000  -0.003086   0.512622  -0.000061  -0.000001   0.000000
    28  H    0.000054  -0.000111  -0.000061   0.522158  -0.000002   0.000000
    29  H    0.000004   0.001461  -0.000001  -0.000002   0.580240   0.002274
    30  H   -0.000000  -0.000002   0.000000   0.000000   0.002274   0.396958
    31  H   -0.000000  -0.000000   0.000000   0.000000   0.000000   0.005638
    32  H    0.000000   0.000000  -0.000000  -0.000000   0.000000  -0.000005
    33  H   -0.000000  -0.000000   0.000000   0.000000   0.000000   0.000007
    34  H    0.000003  -0.000000   0.000000   0.000000   0.000000   0.000004
    35  H    0.002712   0.000000   0.000000  -0.000000   0.000003  -0.000000
              31         32         33         34         35
     1  C    0.000000   0.000000   0.000000   0.000001   0.002969
     2  N    0.000000  -0.000000  -0.000000  -0.000099  -0.006834
     3  C   -0.000000  -0.000000  -0.000000  -0.000003  -0.000120
     4  C   -0.000000  -0.000000  -0.000000  -0.000000   0.000005
     5  C   -0.000000   0.000000  -0.000000   0.000000   0.000000
     6  C   -0.000000   0.000000  -0.000000  -0.000000   0.000000
     7  S    0.000000   0.000000  -0.000000   0.000000   0.000000
     8  C   -0.000000  -0.000000  -0.000000  -0.000000  -0.000000
     9  C   -0.000004   0.000000  -0.000000   0.000033  -0.000170
    10  C   -0.000006  -0.000000   0.000000   0.000915   0.004805
    11  C    0.000021   0.000002  -0.000025   0.004842   0.000575
    12  N   -0.003849  -0.000095  -0.000110  -0.000127   0.000012
    13  C   -0.038112   0.002834   0.005342  -0.000030  -0.000000
    14  C    0.334524  -0.066133   0.000121   0.000000   0.000000
    15  C   -0.030083   0.381328   0.005907   0.000000  -0.000000
    16  N    0.004096  -0.051389  -0.067917   0.000000   0.000000
    17  C    0.000463   0.006044   0.393845   0.000001   0.000000
    18  N    0.004306  -0.000280  -0.069737   0.000044   0.000000
    19  N    0.000002  -0.000000   0.000036  -0.052983   0.004045
    20  C   -0.000000   0.000000   0.000001   0.380773  -0.033746
    21  C    0.000000  -0.000000   0.000000  -0.066745   0.341588
    22  C   -0.000000   0.000000  -0.000000   0.001887  -0.036486
    23  H    0.000000  -0.000000  -0.000000  -0.000000  -0.000047
    24  H   -0.000000  -0.000000   0.000000  -0.000000  -0.000022
    25  H   -0.000000   0.000000  -0.000000   0.000003   0.002712
    26  H   -0.000000   0.000000  -0.000000  -0.000000   0.000000
    27  H    0.000000  -0.000000   0.000000   0.000000   0.000000
    28  H    0.000000  -0.000000   0.000000   0.000000  -0.000000
    29  H    0.000000   0.000000   0.000000   0.000000   0.000003
    30  H    0.005638  -0.000005   0.000007   0.000004  -0.000000
    31  H    0.595490  -0.002691   0.000037  -0.000000   0.000000
    32  H   -0.002691   0.586611  -0.000207   0.000000   0.000000
    33  H    0.000037  -0.000207   0.584084  -0.000000  -0.000000
    34  H   -0.000000   0.000000  -0.000000   0.596823  -0.001949
    35  H    0.000000   0.000000  -0.000000  -0.001949   0.593735
 Mulliken charges:
               1
     1  C   -0.337867
     2  N   -0.582280
     3  C    0.278540
     4  C    0.098716
     5  C   -0.096742
     6  C   -0.357037
     7  S    0.270188
     8  C   -0.398251
     9  C   -0.276796
    10  C    0.037103
    11  C    0.460295
    12  N   -0.748364
    13  C    0.558666
    14  C   -0.201654
    15  C    0.050700
    16  N   -0.405331
    17  C    0.168601
    18  N   -0.432999
    19  N   -0.473244
    20  C    0.015607
    21  C   -0.192780
    22  C    0.366890
    23  H    0.187624
    24  H    0.169237
    25  H    0.178197
    26  H    0.151903
    27  H    0.181946
    28  H    0.178702
    29  H    0.129013
    30  H    0.333118
    31  H    0.130167
    32  H    0.143980
    33  H    0.148619
    34  H    0.136609
    35  H    0.128926
 Sum of Mulliken charges =  -0.00000
 Mulliken charges with hydrogens summed into heavy atoms:
               1
     1  C    0.197189
     2  N   -0.582280
     3  C    0.278540
     4  C    0.098716
     5  C    0.055161
     6  C   -0.175090
     7  S    0.270188
     8  C   -0.219549
     9  C   -0.147783
    10  C    0.037103
    11  C    0.460295
    12  N   -0.415247
    13  C    0.558666
    14  C   -0.071487
    15  C    0.194679
    16  N   -0.405331
    17  C    0.317219
    18  N   -0.432999
    19  N   -0.473244
    20  C    0.152216
    21  C   -0.063854
    22  C    0.366890
 Electronic spatial extent (au):  <R**2>=          10209.7298
 Charge=             -0.0000 electrons
 Dipole moment (field-independent basis, Debye):
    X=             -6.4343    Y=              1.7031    Z=              0.9149  Tot=              6.7184
 Quadrupole moment (field-independent basis, Debye-Ang):
   XX=           -147.0880   YY=           -122.7999   ZZ=           -127.1741
   XY=             11.8892   XZ=              3.5488   YZ=              7.2797
 Traceless Quadrupole moment (field-independent basis, Debye-Ang):
   XX=            -14.7340   YY=              9.5541   ZZ=              5.1799
   XY=             11.8892   XZ=              3.5488   YZ=              7.2797
 Octapole moment (field-independent basis, Debye-Ang**2):
  XXX=           -162.7116  YYY=            -51.5678  ZZZ=            -11.5247  XYY=             37.2025
  XXY=             -4.4436  XXZ=            -22.8017  XZZ=            -20.6727  YZZ=             -9.0735
  YYZ=            -16.6348  XYZ=            -17.1677
 Hexadecapole moment (field-independent basis, Debye-Ang**3):
 XXXX=         -12207.3982 YYYY=          -1370.0477 ZZZZ=          -1442.0265 XXXY=            322.7820
 XXXZ=            737.0799 YYYX=            353.2016 YYYZ=           -519.6220 ZZZX=            639.8675
 ZZZY=           -467.0442 XXYY=          -1904.5414 XXZZ=          -2020.7420 YYZZ=           -435.2486
 XXYZ=           -100.3030 YYXZ=            250.7674 ZZXY=             12.5496
 N-N= 1.718443909295D+03 E-N=-6.450929671506D+03  KE= 1.279722157437D+03
 Leave Link  601 at Sat Nov  5 11:42:05 2022, MaxMem=   402653184 cpu:               0.5 elap:               0.1
 (Enter /home/wykgroup/appl/g16/l9999.exe)
 Electronic transition elements 
                 1             2             3             4 
      1  -0.128937D+04 -0.128935D+04 -0.128933D+04 -0.128932D+04
      2   0.000000D+00  0.000000D+00  0.236500D+01 -0.873961D+00
      3   0.000000D+00  0.000000D+00 -0.773051D-02 -0.212476D+00
      4   0.000000D+00  0.000000D+00 -0.218563D+00 -0.120101D+00
      5   0.000000D+00  0.000000D+00 -0.321614D+00  0.133325D+00
      6   0.000000D+00  0.000000D+00 -0.116554D-02  0.344196D-01
      7   0.000000D+00  0.000000D+00  0.276110D-01  0.163205D-01
      8   0.000000D+00  0.000000D+00 -0.223834D+00  0.240291D+00
      9   0.000000D+00  0.000000D+00  0.369415D+00 -0.241374D+00
     10   0.000000D+00  0.000000D+00 -0.226444D+00 -0.237950D+00
     11   0.000000D+00  0.000000D+00  0.160229D-01  0.144156D+01
     12   0.000000D+00  0.000000D+00  0.480305D-01 -0.964115D-01
     13   0.000000D+00  0.000000D+00  0.165797D+00 -0.261470D+00
     14   0.000000D+00  0.000000D+00 -0.443075D+00 -0.152061D-02
     15   0.000000D+00  0.000000D+00 -0.310912D+00  0.767524D-01
     16   0.000000D+00  0.000000D+00  0.125514D+00 -0.167944D+00
 1\1\GINC-NODE64\SP\RB3LYP TD-FC\6-31G(d)\C16H13N5S1\WYKGROUP\05-Nov-20
 22\0\\#p b3lyp/6-31g(d) 6D 10F nosymm GFInput td=(50-50,nstate=2) SCF=
 XQC\\Gaussian input prepared by ASE\\0,1\C,0,-3.3543582345,-1.68533470
 03,-0.9096156004\N,0,-2.1942689653,-0.869167688,-0.5944932596\C,0,-2.1
 138925438,0.1665374441,0.3455461572\C,0,-3.2641310206,0.7058174526,1.0
 71851743\C,0,-3.1636067229,1.1655465201,2.4327059956\C,0,-4.3291671128
 ,1.6814193703,2.9165109439\S,0,-5.594833979,1.623275527,1.7306312418\C
 ,0,-4.534093968,0.8965708521,0.5711223343\C,0,-0.7997703394,0.57508432
 5,0.4454966965\C,0,-0.0331917089,-0.2147828668,-0.4640384589\C,0,1.327
 727969,-0.2895529544,-0.8454430541\N,0,2.2191082897,0.6430686495,-0.28
 87948671\C,0,3.5842347686,0.5514186632,-0.0998062061\C,0,4.3209429369,
 1.7230681738,0.1765428381\C,0,5.6773662647,1.5668329127,0.3998292462\N
 ,0,6.2979944026,0.3748608151,0.3553209852\C,0,5.4952782802,-0.65886602
 41,0.0866478702\N,0,4.1797793631,-0.6479447735,-0.1347129169\N,0,1.769
 6570683,-1.1654819082,-1.7354032182\C,0,0.8879443218,-2.0269163753,-2.
 2842600539\C,0,-0.4752011282,-2.0519557367,-2.0234229416\C,0,-0.932886
 474,-1.1090421503,-1.0928237819\H,0,-4.0706119411,-1.6351188911,-0.088
 7752465\H,0,-3.8467757253,-1.3551341549,-1.832834785\H,0,-3.0402456992
 ,-2.7253660238,-1.034590411\H,0,-2.2547513891,1.0815563889,3.017763072
 2\H,0,-4.5280131356,2.0726111152,3.9050692816\H,0,-4.8923281609,0.6994
 319303,-0.4295159493\H,0,-0.4512175269,1.370376194,1.0900531291\H,0,1.
 8059751465,1.5294530295,-0.0348670855\H,0,3.8508293332,2.7023207532,0.
 2027312875\H,0,6.3037452259,2.4307789494,0.6176943593\H,0,5.969473573,
 -1.6386073346,0.0505740746\H,0,1.3128165165,-2.729495614,-2.9982307888
 \H,0,-1.129530684,-2.7572628704,-2.5244636313\\Version=ES64L-G16RevB.0
 1\HF=-1289.4721333\RMSD=7.723e-09\PG=C01 [X(C16H13N5S1)]\\@


 THE MOLECULE ALSO HAS A BODY.  WHEN THIS BODY IS HIT, THE MOLECULE
 FEELS HURT ALL OVER -- A. KITAIGORODSKI
 Job cpu time:       0 days  0 hours 48 minutes 54.5 seconds.
 Elapsed time:       0 days  0 hours  3 minutes 38.9 seconds.
 File lengths (MBytes):  RWF=    805 Int=      0 D2E=      0 Chk=     28 Scr=      1
 Normal termination of Gaussian 16 at Sat Nov  5 11:42:05 2022.
