 Entering Gaussian System, Link 0=/home/wykgroup/appl/g16/g16
 Input=./calculation/no_transfer_pubchem_sampling_2_b3lyp/135511190.com
 Output=./calculation/no_transfer_pubchem_sampling_2_b3lyp/135511190.log
 Initial command:
 /home/wykgroup/appl/g16/l1.exe "/userdata/scratch/wykgroup/khs/./calculation/no_transfer_pubchem_sampling_2_b3lyp/135511190/Gau-22756.inp" -scrdir="/userdata/scratch/wykgroup/khs/./calculation/no_transfer_pubchem_sampling_2_b3lyp/135511190/"
 Entering Link 1 = /home/wykgroup/appl/g16/l1.exe PID=     22757.
  
 Copyright (c) 1988-2017, Gaussian, Inc.  All Rights Reserved.
  
 This is part of the Gaussian(R) 16 program.  It is based on
 the Gaussian(R) 09 system (copyright 2009, Gaussian, Inc.),
 the Gaussian(R) 03 system (copyright 2003, Gaussian, Inc.),
 the Gaussian(R) 98 system (copyright 1998, Gaussian, Inc.),
 the Gaussian(R) 94 system (copyright 1995, Gaussian, Inc.),
 the Gaussian 92(TM) system (copyright 1992, Gaussian, Inc.),
 the Gaussian 90(TM) system (copyright 1990, Gaussian, Inc.),
 the Gaussian 88(TM) system (copyright 1988, Gaussian, Inc.),
 the Gaussian 86(TM) system (copyright 1986, Carnegie Mellon
 University), and the Gaussian 82(TM) system (copyright 1983,
 Carnegie Mellon University). Gaussian is a federally registered
 trademark of Gaussian, Inc.
  
 This software contains proprietary and confidential information,
 including trade secrets, belonging to Gaussian, Inc.
  
 This software is provided under written license and may be
 used, copied, transmitted, or stored only in accord with that
 written license.
  
 The following legend is applicable only to US Government
 contracts under FAR:
  
                    RESTRICTED RIGHTS LEGEND
  
 Use, reproduction and disclosure by the US Government is
 subject to restrictions as set forth in subparagraphs (a)
 and (c) of the Commercial Computer Software - Restricted
 Rights clause in FAR 52.227-19.
  
 Gaussian, Inc.
 340 Quinnipiac St., Bldg. 40, Wallingford CT 06492
  
  
 ---------------------------------------------------------------
 Warning -- This program may not be used in any manner that
 competes with the business of Gaussian, Inc. or will provide
 assistance to any competitor of Gaussian, Inc.  The licensee
 of this program is prohibited from giving any competitor of
 Gaussian, Inc. access to this program.  By using this program,
 the user acknowledges that Gaussian, Inc. is engaged in the
 business of creating and licensing software in the field of
 computational chemistry and represents and warrants to the
 licensee that it is not a competitor of Gaussian, Inc. and that
 it will not use this program in any manner prohibited above.
 ---------------------------------------------------------------
  

 Cite this work as:
 Gaussian 16, Revision B.01,
 M. J. Frisch, G. W. Trucks, H. B. Schlegel, G. E. Scuseria, 
 M. A. Robb, J. R. Cheeseman, G. Scalmani, V. Barone, 
 G. A. Petersson, H. Nakatsuji, X. Li, M. Caricato, A. V. Marenich, 
 J. Bloino, B. G. Janesko, R. Gomperts, B. Mennucci, H. P. Hratchian, 
 J. V. Ortiz, A. F. Izmaylov, J. L. Sonnenberg, D. Williams-Young, 
 F. Ding, F. Lipparini, F. Egidi, J. Goings, B. Peng, A. Petrone, 
 T. Henderson, D. Ranasinghe, V. G. Zakrzewski, J. Gao, N. Rega, 
 G. Zheng, W. Liang, M. Hada, M. Ehara, K. Toyota, R. Fukuda, 
 J. Hasegawa, M. Ishida, T. Nakajima, Y. Honda, O. Kitao, H. Nakai, 
 T. Vreven, K. Throssell, J. A. Montgomery, Jr., J. E. Peralta, 
 F. Ogliaro, M. J. Bearpark, J. J. Heyd, E. N. Brothers, K. N. Kudin, 
 V. N. Staroverov, T. A. Keith, R. Kobayashi, J. Normand, 
 K. Raghavachari, A. P. Rendell, J. C. Burant, S. S. Iyengar, 
 J. Tomasi, M. Cossi, J. M. Millam, M. Klene, C. Adamo, R. Cammi, 
 J. W. Ochterski, R. L. Martin, K. Morokuma, O. Farkas, 
 J. B. Foresman, and D. J. Fox, Gaussian, Inc., Wallingford CT, 2016.
 
 ******************************************
 Gaussian 16:  ES64L-G16RevB.01 20-Dec-2017
                 4-Nov-2022 
 ******************************************
 %chk=./calculation/no_transfer_pubchem_sampling_2_b3lyp/135511190.chk
 %nprocshared=7
 Will use up to    7 processors via shared memory.
 %mem=6GB
 -----------------------------
 #p b3lyp/6-31g(d) opt SCF=XQC
 -----------------------------
 1/18=20,19=15,26=3,38=1/1,3;
 2/9=110,12=2,17=6,18=5,40=1/2;
 3/5=1,6=6,7=1,11=2,25=1,30=1,71=1,74=-5/1,2,3;
 4//1;
 5/5=2,8=3,13=1,38=5/2,8;
 6/7=2,8=2,9=2,10=2,28=1/1;
 7//1,2,3,16;
 1/18=20,19=15,26=3/3(2);
 2/9=110/2;
 99//99;
 2/9=110/2;
 3/5=1,6=6,7=1,11=2,25=1,30=1,71=1,74=-5/1,2,3;
 4/5=5,16=3,69=1/1;
 5/5=2,8=3,13=1,38=5/2,8;
 7//1,2,3,16;
 1/18=20,19=15,26=3/3(-5);
 2/9=110/2;
 6/7=2,8=2,9=2,10=2,19=2,28=1/1;
 99/9=1/99;
 Leave Link    1 at Fri Nov  4 19:19:50 2022, MaxMem=   805306368 cpu:               0.7 elap:               0.1
 (Enter /home/wykgroup/appl/g16/l101.exe)
 ------------------------------
 Gaussian input prepared by ASE
 ------------------------------
 Symbolic Z-matrix:
 Charge =  0 Multiplicity = 1
 C                    -2.30183  -3.40713  -2.15159 
 C                    -1.18771  -2.60148  -2.82399 
 C                    -0.20378  -2.10239  -1.80807 
 C                    -0.30406  -0.90446  -1.16421 
 C                    -1.40757   0.08627  -1.45352 
 C                    -1.29454   1.28208  -0.55704 
 C                    -1.98214   1.3725    0.64613 
 F                    -2.813     0.36743   0.99069 
 C                    -1.85958   2.4502    1.50386 
 C                    -1.0067    3.48495   1.16356 
 C                    -0.29513   3.43803  -0.02252 
 C                    -0.45045   2.3453   -0.85502 
 F                     0.24236   2.31259  -2.01046 
 N                     0.5834   -0.49578  -0.21743 
 C                     1.56955  -1.27345   0.07497 
 S                     2.74341  -0.79015   1.27222 
 C                     2.0538    0.84115   1.78809 
 C                     0.95253   0.62298   2.80826 
 C                     3.19029   1.69163   2.32602 
 N                     1.76189  -2.47625  -0.50859 
 C                     0.89496  -2.99103  -1.48465 
 O                     1.11921  -4.08045  -1.96775 
 H                    -1.87779  -4.27265  -1.64906 
 H                    -2.83073  -2.80504  -1.41556 
 H                    -3.01518  -3.75342  -2.8952 
 H                    -0.65377  -3.25591  -3.51531 
 H                    -1.61469  -1.76916  -3.38516 
 H                    -1.32894   0.40012  -2.49776 
 H                    -2.37501  -0.39716  -1.30858 
 H                    -2.42549   2.46321   2.42148 
 H                    -0.89714   4.33131   1.82312 
 H                     0.3753    4.2321   -0.30983 
 H                     1.64215   1.26621   0.87137 
 H                     0.15763   0.01681   2.38139 
 H                     0.5326    1.58231   3.10351 
 H                     1.34393   0.12331   3.69195 
 H                     3.62212   1.23515   3.21409 
 H                     3.97337   1.80629   1.58055 
 H                     2.8126    2.6772    2.58961 
 H                     2.55416  -3.05324  -0.24957 
 
 ITRead=  0  0  0  0  0  0  0  0  0  0  0  0  0  0  0  0  0  0  0  0
 ITRead=  0  0  0  0  0  0  0  0  0  0  0  0  0  0  0  0  0  0  0  0
 MicOpt= -1 -1 -1 -1 -1 -1 -1 -1 -1 -1 -1 -1 -1 -1 -1 -1 -1 -1 -1 -1
 MicOpt= -1 -1 -1 -1 -1 -1 -1 -1 -1 -1 -1 -1 -1 -1 -1 -1 -1 -1 -1 -1
 NAtoms=     40 NQM=       40 NQMF=       0 NMMI=      0 NMMIF=      0
                NMic=       0 NMicF=      0.
                    Isotopes and Nuclear Properties:
 (Nuclear quadrupole moments (NQMom) in fm**2, nuclear magnetic moments (NMagM)
  in nuclear magnetons)

  Atom         1           2           3           4           5           6           7           8           9          10
 IAtWgt=          12          12          12          12          12          12          12          19          12          12
 AtmWgt=  12.0000000  12.0000000  12.0000000  12.0000000  12.0000000  12.0000000  12.0000000  18.9984032  12.0000000  12.0000000
 NucSpn=           0           0           0           0           0           0           0           1           0           0
 AtZEff=  -0.0000000  -0.0000000  -0.0000000  -0.0000000  -0.0000000  -0.0000000  -0.0000000  -0.0000000  -0.0000000  -0.0000000
 NQMom=    0.0000000   0.0000000   0.0000000   0.0000000   0.0000000   0.0000000   0.0000000   0.0000000   0.0000000   0.0000000
 NMagM=    0.0000000   0.0000000   0.0000000   0.0000000   0.0000000   0.0000000   0.0000000   2.6288670   0.0000000   0.0000000
 AtZNuc=   6.0000000   6.0000000   6.0000000   6.0000000   6.0000000   6.0000000   6.0000000   9.0000000   6.0000000   6.0000000

  Atom        11          12          13          14          15          16          17          18          19          20
 IAtWgt=          12          12          19          14          12          32          12          12          12          14
 AtmWgt=  12.0000000  12.0000000  18.9984032  14.0030740  12.0000000  31.9720718  12.0000000  12.0000000  12.0000000  14.0030740
 NucSpn=           0           0           1           2           0           0           0           0           0           2
 AtZEff=  -0.0000000  -0.0000000  -0.0000000  -0.0000000  -0.0000000  -0.0000000  -0.0000000  -0.0000000  -0.0000000  -0.0000000
 NQMom=    0.0000000   0.0000000   0.0000000   2.0440000   0.0000000   0.0000000   0.0000000   0.0000000   0.0000000   2.0440000
 NMagM=    0.0000000   0.0000000   2.6288670   0.4037610   0.0000000   0.0000000   0.0000000   0.0000000   0.0000000   0.4037610
 AtZNuc=   6.0000000   6.0000000   9.0000000   7.0000000   6.0000000  16.0000000   6.0000000   6.0000000   6.0000000   7.0000000

  Atom        21          22          23          24          25          26          27          28          29          30
 IAtWgt=          12          16           1           1           1           1           1           1           1           1
 AtmWgt=  12.0000000  15.9949146   1.0078250   1.0078250   1.0078250   1.0078250   1.0078250   1.0078250   1.0078250   1.0078250
 NucSpn=           0           0           1           1           1           1           1           1           1           1
 AtZEff=  -0.0000000  -0.0000000  -0.0000000  -0.0000000  -0.0000000  -0.0000000  -0.0000000  -0.0000000  -0.0000000  -0.0000000
 NQMom=    0.0000000   0.0000000   0.0000000   0.0000000   0.0000000   0.0000000   0.0000000   0.0000000   0.0000000   0.0000000
 NMagM=    0.0000000   0.0000000   2.7928460   2.7928460   2.7928460   2.7928460   2.7928460   2.7928460   2.7928460   2.7928460
 AtZNuc=   6.0000000   8.0000000   1.0000000   1.0000000   1.0000000   1.0000000   1.0000000   1.0000000   1.0000000   1.0000000

  Atom        31          32          33          34          35          36          37          38          39          40
 IAtWgt=           1           1           1           1           1           1           1           1           1           1
 AtmWgt=   1.0078250   1.0078250   1.0078250   1.0078250   1.0078250   1.0078250   1.0078250   1.0078250   1.0078250   1.0078250
 NucSpn=           1           1           1           1           1           1           1           1           1           1
 AtZEff=  -0.0000000  -0.0000000  -0.0000000  -0.0000000  -0.0000000  -0.0000000  -0.0000000  -0.0000000  -0.0000000  -0.0000000
 NQMom=    0.0000000   0.0000000   0.0000000   0.0000000   0.0000000   0.0000000   0.0000000   0.0000000   0.0000000   0.0000000
 NMagM=    2.7928460   2.7928460   2.7928460   2.7928460   2.7928460   2.7928460   2.7928460   2.7928460   2.7928460   2.7928460
 AtZNuc=   1.0000000   1.0000000   1.0000000   1.0000000   1.0000000   1.0000000   1.0000000   1.0000000   1.0000000   1.0000000
 Leave Link  101 at Fri Nov  4 19:19:51 2022, MaxMem=   805306368 cpu:               1.7 elap:               0.3
 (Enter /home/wykgroup/appl/g16/l103.exe)

 GradGradGradGradGradGradGradGradGradGradGradGradGradGradGradGradGradGrad
 Berny optimization.
 Initialization pass.
                           ----------------------------
                           !    Initial Parameters    !
                           ! (Angstroms and Degrees)  !
 --------------------------                            --------------------------
 ! Name  Definition              Value          Derivative Info.                !
 --------------------------------------------------------------------------------
 ! R1    R(1,2)                  1.5305         estimate D2E/DX2                !
 ! R2    R(1,23)                 1.087          estimate D2E/DX2                !
 ! R3    R(1,24)                 1.0881         estimate D2E/DX2                !
 ! R4    R(1,25)                 1.0871         estimate D2E/DX2                !
 ! R5    R(2,3)                  1.4998         estimate D2E/DX2                !
 ! R6    R(2,26)                 1.0915         estimate D2E/DX2                !
 ! R7    R(2,27)                 1.0909         estimate D2E/DX2                !
 ! R8    R(3,4)                  1.3637         estimate D2E/DX2                !
 ! R9    R(3,21)                 1.4497         estimate D2E/DX2                !
 ! R10   R(4,5)                  1.5109         estimate D2E/DX2                !
 ! R11   R(4,14)                 1.3605         estimate D2E/DX2                !
 ! R12   R(5,6)                  1.4988         estimate D2E/DX2                !
 ! R13   R(5,28)                 1.0932         estimate D2E/DX2                !
 ! R14   R(5,29)                 1.0912         estimate D2E/DX2                !
 ! R15   R(6,7)                  1.3887         estimate D2E/DX2                !
 ! R16   R(6,12)                 1.3899         estimate D2E/DX2                !
 ! R17   R(7,8)                  1.3488         estimate D2E/DX2                !
 ! R18   R(7,9)                  1.3828         estimate D2E/DX2                !
 ! R19   R(9,10)                 1.3834         estimate D2E/DX2                !
 ! R20   R(9,30)                 1.0782         estimate D2E/DX2                !
 ! R21   R(10,11)                1.3839         estimate D2E/DX2                !
 ! R22   R(10,31)                1.0786         estimate D2E/DX2                !
 ! R23   R(11,12)                1.3825         estimate D2E/DX2                !
 ! R24   R(11,32)                1.0782         estimate D2E/DX2                !
 ! R25   R(12,13)                1.3476         estimate D2E/DX2                !
 ! R26   R(14,15)                1.2895         estimate D2E/DX2                !
 ! R27   R(15,16)                1.745          estimate D2E/DX2                !
 ! R28   R(15,20)                1.3507         estimate D2E/DX2                !
 ! R29   R(16,17)                1.8447         estimate D2E/DX2                !
 ! R30   R(17,18)                1.517          estimate D2E/DX2                !
 ! R31   R(17,19)                1.518          estimate D2E/DX2                !
 ! R32   R(17,33)                1.0911         estimate D2E/DX2                !
 ! R33   R(18,34)                1.087          estimate D2E/DX2                !
 ! R34   R(18,35)                1.088          estimate D2E/DX2                !
 ! R35   R(18,36)                1.088          estimate D2E/DX2                !
 ! R36   R(19,37)                1.0879         estimate D2E/DX2                !
 ! R37   R(19,38)                1.0872         estimate D2E/DX2                !
 ! R38   R(19,39)                1.0879         estimate D2E/DX2                !
 ! R39   R(20,21)                1.4033         estimate D2E/DX2                !
 ! R40   R(20,40)                1.0137         estimate D2E/DX2                !
 ! R41   R(21,22)                1.2126         estimate D2E/DX2                !
 ! A1    A(2,1,23)             109.7723         estimate D2E/DX2                !
 ! A2    A(2,1,24)             111.0841         estimate D2E/DX2                !
 ! A3    A(2,1,25)             110.1722         estimate D2E/DX2                !
 ! A4    A(23,1,24)            108.5119         estimate D2E/DX2                !
 ! A5    A(23,1,25)            108.5775         estimate D2E/DX2                !
 ! A6    A(24,1,25)            108.6641         estimate D2E/DX2                !
 ! A7    A(1,2,3)              110.8026         estimate D2E/DX2                !
 ! A8    A(1,2,26)             108.5878         estimate D2E/DX2                !
 ! A9    A(1,2,27)             110.0415         estimate D2E/DX2                !
 ! A10   A(3,2,26)             107.9171         estimate D2E/DX2                !
 ! A11   A(3,2,27)             110.5699         estimate D2E/DX2                !
 ! A12   A(26,2,27)            108.8521         estimate D2E/DX2                !
 ! A13   A(2,3,4)              124.3263         estimate D2E/DX2                !
 ! A14   A(2,3,21)             116.3835         estimate D2E/DX2                !
 ! A15   A(4,3,21)             119.2676         estimate D2E/DX2                !
 ! A16   A(3,4,5)              122.6362         estimate D2E/DX2                !
 ! A17   A(3,4,14)             122.9883         estimate D2E/DX2                !
 ! A18   A(5,4,14)             114.3736         estimate D2E/DX2                !
 ! A19   A(4,5,6)              110.704          estimate D2E/DX2                !
 ! A20   A(4,5,28)             108.5789         estimate D2E/DX2                !
 ! A21   A(4,5,29)             109.3658         estimate D2E/DX2                !
 ! A22   A(6,5,28)             109.6853         estimate D2E/DX2                !
 ! A23   A(6,5,29)             109.9312         estimate D2E/DX2                !
 ! A24   A(28,5,29)            108.5321         estimate D2E/DX2                !
 ! A25   A(5,6,7)              122.1957         estimate D2E/DX2                !
 ! A26   A(5,6,12)             121.8642         estimate D2E/DX2                !
 ! A27   A(7,6,12)             115.8892         estimate D2E/DX2                !
 ! A28   A(6,7,8)              118.5422         estimate D2E/DX2                !
 ! A29   A(6,7,9)              122.9742         estimate D2E/DX2                !
 ! A30   A(8,7,9)              118.4826         estimate D2E/DX2                !
 ! A31   A(7,9,10)             119.0115         estimate D2E/DX2                !
 ! A32   A(7,9,30)             119.3931         estimate D2E/DX2                !
 ! A33   A(10,9,30)            121.5949         estimate D2E/DX2                !
 ! A34   A(9,10,11)            120.1603         estimate D2E/DX2                !
 ! A35   A(9,10,31)            119.9417         estimate D2E/DX2                !
 ! A36   A(11,10,31)           119.8979         estimate D2E/DX2                !
 ! A37   A(10,11,12)           119.0207         estimate D2E/DX2                !
 ! A38   A(10,11,32)           121.54           estimate D2E/DX2                !
 ! A39   A(12,11,32)           119.4393         estimate D2E/DX2                !
 ! A40   A(6,12,11)            122.9414         estimate D2E/DX2                !
 ! A41   A(6,12,13)            118.52           estimate D2E/DX2                !
 ! A42   A(11,12,13)           118.5377         estimate D2E/DX2                !
 ! A43   A(4,14,15)            118.3915         estimate D2E/DX2                !
 ! A44   A(14,15,16)           120.1991         estimate D2E/DX2                !
 ! A45   A(14,15,20)           123.2305         estimate D2E/DX2                !
 ! A46   A(16,15,20)           116.5699         estimate D2E/DX2                !
 ! A47   A(15,16,17)           100.6797         estimate D2E/DX2                !
 ! A48   A(16,17,18)           109.4073         estimate D2E/DX2                !
 ! A49   A(16,17,19)           108.3412         estimate D2E/DX2                !
 ! A50   A(16,17,33)           104.5127         estimate D2E/DX2                !
 ! A51   A(18,17,19)           112.6924         estimate D2E/DX2                !
 ! A52   A(18,17,33)           110.3139         estimate D2E/DX2                !
 ! A53   A(19,17,33)           111.2189         estimate D2E/DX2                !
 ! A54   A(17,18,34)           110.3039         estimate D2E/DX2                !
 ! A55   A(17,18,35)           109.6253         estimate D2E/DX2                !
 ! A56   A(17,18,36)           110.555          estimate D2E/DX2                !
 ! A57   A(34,18,35)           108.4225         estimate D2E/DX2                !
 ! A58   A(34,18,36)           109.0219         estimate D2E/DX2                !
 ! A59   A(35,18,36)           108.867          estimate D2E/DX2                !
 ! A60   A(17,19,37)           110.5709         estimate D2E/DX2                !
 ! A61   A(17,19,38)           110.8144         estimate D2E/DX2                !
 ! A62   A(17,19,39)           109.4819         estimate D2E/DX2                !
 ! A63   A(37,19,38)           108.5462         estimate D2E/DX2                !
 ! A64   A(37,19,39)           108.6724         estimate D2E/DX2                !
 ! A65   A(38,19,39)           108.7028         estimate D2E/DX2                !
 ! A66   A(15,20,21)           122.6302         estimate D2E/DX2                !
 ! A67   A(15,20,40)           120.5147         estimate D2E/DX2                !
 ! A68   A(21,20,40)           116.8549         estimate D2E/DX2                !
 ! A69   A(3,21,20)            113.4871         estimate D2E/DX2                !
 ! A70   A(3,21,22)            127.0125         estimate D2E/DX2                !
 ! A71   A(20,21,22)           119.4989         estimate D2E/DX2                !
 ! D1    D(23,1,2,3)           -61.1651         estimate D2E/DX2                !
 ! D2    D(23,1,2,26)           57.1924         estimate D2E/DX2                !
 ! D3    D(23,1,2,27)          176.2418         estimate D2E/DX2                !
 ! D4    D(24,1,2,3)            58.8479         estimate D2E/DX2                !
 ! D5    D(24,1,2,26)          177.2054         estimate D2E/DX2                !
 ! D6    D(24,1,2,27)          -63.7452         estimate D2E/DX2                !
 ! D7    D(25,1,2,3)           179.3145         estimate D2E/DX2                !
 ! D8    D(25,1,2,26)          -62.3279         estimate D2E/DX2                !
 ! D9    D(25,1,2,27)           56.7214         estimate D2E/DX2                !
 ! D10   D(1,2,3,4)            -90.0875         estimate D2E/DX2                !
 ! D11   D(1,2,3,21)            88.1676         estimate D2E/DX2                !
 ! D12   D(26,2,3,4)           151.1486         estimate D2E/DX2                !
 ! D13   D(26,2,3,21)          -30.5962         estimate D2E/DX2                !
 ! D14   D(27,2,3,4)            32.198          estimate D2E/DX2                !
 ! D15   D(27,2,3,21)         -149.5469         estimate D2E/DX2                !
 ! D16   D(2,3,4,5)             -2.5518         estimate D2E/DX2                !
 ! D17   D(2,3,4,14)           177.9798         estimate D2E/DX2                !
 ! D18   D(21,3,4,5)           179.2401         estimate D2E/DX2                !
 ! D19   D(21,3,4,14)           -0.2283         estimate D2E/DX2                !
 ! D20   D(2,3,21,20)         -178.7361         estimate D2E/DX2                !
 ! D21   D(2,3,21,22)            1.7194         estimate D2E/DX2                !
 ! D22   D(4,3,21,20)           -0.388          estimate D2E/DX2                !
 ! D23   D(4,3,21,22)         -179.9325         estimate D2E/DX2                !
 ! D24   D(3,4,5,6)            177.6344         estimate D2E/DX2                !
 ! D25   D(3,4,5,28)           -61.905          estimate D2E/DX2                !
 ! D26   D(3,4,5,29)            56.3608         estimate D2E/DX2                !
 ! D27   D(14,4,5,6)            -2.8552         estimate D2E/DX2                !
 ! D28   D(14,4,5,28)          117.6055         estimate D2E/DX2                !
 ! D29   D(14,4,5,29)         -124.1287         estimate D2E/DX2                !
 ! D30   D(3,4,14,15)            0.5826         estimate D2E/DX2                !
 ! D31   D(5,4,14,15)         -178.9259         estimate D2E/DX2                !
 ! D32   D(4,5,6,7)            -93.6249         estimate D2E/DX2                !
 ! D33   D(4,5,6,12)            83.6739         estimate D2E/DX2                !
 ! D34   D(28,5,6,7)           146.5758         estimate D2E/DX2                !
 ! D35   D(28,5,6,12)          -36.1254         estimate D2E/DX2                !
 ! D36   D(29,5,6,7)            27.3141         estimate D2E/DX2                !
 ! D37   D(29,5,6,12)         -155.3871         estimate D2E/DX2                !
 ! D38   D(5,6,7,8)             -2.3342         estimate D2E/DX2                !
 ! D39   D(5,6,7,9)            178.0495         estimate D2E/DX2                !
 ! D40   D(12,6,7,8)          -179.7842         estimate D2E/DX2                !
 ! D41   D(12,6,7,9)             0.5995         estimate D2E/DX2                !
 ! D42   D(5,6,12,11)         -177.7676         estimate D2E/DX2                !
 ! D43   D(5,6,12,13)            2.5813         estimate D2E/DX2                !
 ! D44   D(7,6,12,11)           -0.3083         estimate D2E/DX2                !
 ! D45   D(7,6,12,13)         -179.9595         estimate D2E/DX2                !
 ! D46   D(6,7,9,10)            -0.6159         estimate D2E/DX2                !
 ! D47   D(6,7,9,30)           179.646          estimate D2E/DX2                !
 ! D48   D(8,7,9,10)           179.7676         estimate D2E/DX2                !
 ! D49   D(8,7,9,30)             0.0296         estimate D2E/DX2                !
 ! D50   D(7,9,10,11)            0.3144         estimate D2E/DX2                !
 ! D51   D(7,9,10,31)         -179.7966         estimate D2E/DX2                !
 ! D52   D(30,9,10,11)        -179.9536         estimate D2E/DX2                !
 ! D53   D(30,9,10,31)          -0.0646         estimate D2E/DX2                !
 ! D54   D(9,10,11,12)          -0.0403         estimate D2E/DX2                !
 ! D55   D(9,10,11,32)         179.9804         estimate D2E/DX2                !
 ! D56   D(31,10,11,12)       -179.9293         estimate D2E/DX2                !
 ! D57   D(31,10,11,32)          0.0913         estimate D2E/DX2                !
 ! D58   D(10,11,12,6)           0.0429         estimate D2E/DX2                !
 ! D59   D(10,11,12,13)        179.694          estimate D2E/DX2                !
 ! D60   D(32,11,12,6)        -179.9773         estimate D2E/DX2                !
 ! D61   D(32,11,12,13)         -0.3262         estimate D2E/DX2                !
 ! D62   D(4,14,15,16)         179.4681         estimate D2E/DX2                !
 ! D63   D(4,14,15,20)          -0.2745         estimate D2E/DX2                !
 ! D64   D(14,15,16,17)          1.4667         estimate D2E/DX2                !
 ! D65   D(20,15,16,17)       -178.7741         estimate D2E/DX2                !
 ! D66   D(14,15,20,21)         -0.3921         estimate D2E/DX2                !
 ! D67   D(14,15,20,40)        179.7658         estimate D2E/DX2                !
 ! D68   D(16,15,20,21)        179.8566         estimate D2E/DX2                !
 ! D69   D(16,15,20,40)          0.0145         estimate D2E/DX2                !
 ! D70   D(15,16,17,18)         82.0392         estimate D2E/DX2                !
 ! D71   D(15,16,17,19)       -154.7509         estimate D2E/DX2                !
 ! D72   D(15,16,17,33)        -36.0861         estimate D2E/DX2                !
 ! D73   D(16,17,18,34)        -59.8046         estimate D2E/DX2                !
 ! D74   D(16,17,18,35)       -179.1235         estimate D2E/DX2                !
 ! D75   D(16,17,18,36)         60.852          estimate D2E/DX2                !
 ! D76   D(19,17,18,34)        179.6021         estimate D2E/DX2                !
 ! D77   D(19,17,18,35)         60.2832         estimate D2E/DX2                !
 ! D78   D(19,17,18,36)        -59.7413         estimate D2E/DX2                !
 ! D79   D(33,17,18,34)         54.6346         estimate D2E/DX2                !
 ! D80   D(33,17,18,35)        -64.6843         estimate D2E/DX2                !
 ! D81   D(33,17,18,36)        175.2911         estimate D2E/DX2                !
 ! D82   D(16,17,19,37)        -63.1238         estimate D2E/DX2                !
 ! D83   D(16,17,19,38)         57.282          estimate D2E/DX2                !
 ! D84   D(16,17,19,39)        177.1738         estimate D2E/DX2                !
 ! D85   D(18,17,19,37)         58.0785         estimate D2E/DX2                !
 ! D86   D(18,17,19,38)        178.4843         estimate D2E/DX2                !
 ! D87   D(18,17,19,39)        -61.6238         estimate D2E/DX2                !
 ! D88   D(33,17,19,37)       -177.4492         estimate D2E/DX2                !
 ! D89   D(33,17,19,38)        -57.0434         estimate D2E/DX2                !
 ! D90   D(33,17,19,39)         62.8485         estimate D2E/DX2                !
 ! D91   D(15,20,21,3)           0.6966         estimate D2E/DX2                !
 ! D92   D(15,20,21,22)       -179.7213         estimate D2E/DX2                !
 ! D93   D(40,20,21,3)        -179.4559         estimate D2E/DX2                !
 ! D94   D(40,20,21,22)          0.1262         estimate D2E/DX2                !
 --------------------------------------------------------------------------------
 Trust Radius=3.00D-01 FncErr=1.00D-07 GrdErr=1.00D-06 EigMax=2.50D+02 EigMin=1.00D-04
 Number of steps in this run=    216 maximum allowed number of steps=    240.
 GradGradGradGradGradGradGradGradGradGradGradGradGradGradGradGradGradGrad

 Leave Link  103 at Fri Nov  4 19:19:51 2022, MaxMem=   805306368 cpu:               0.1 elap:               0.1
 (Enter /home/wykgroup/appl/g16/l202.exe)
                          Input orientation:                          
 ---------------------------------------------------------------------
 Center     Atomic      Atomic             Coordinates (Angstroms)
 Number     Number       Type             X           Y           Z
 ---------------------------------------------------------------------
      1          6           0       -2.301834   -3.407127   -2.151590
      2          6           0       -1.187707   -2.601482   -2.823986
      3          6           0       -0.203778   -2.102392   -1.808070
      4          6           0       -0.304062   -0.904459   -1.164214
      5          6           0       -1.407570    0.086267   -1.453519
      6          6           0       -1.294535    1.282080   -0.557044
      7          6           0       -1.982137    1.372504    0.646131
      8          9           0       -2.813000    0.367433    0.990690
      9          6           0       -1.859579    2.450201    1.503859
     10          6           0       -1.006697    3.484953    1.163562
     11          6           0       -0.295132    3.438025   -0.022516
     12          6           0       -0.450446    2.345302   -0.855017
     13          9           0        0.242359    2.312591   -2.010460
     14          7           0        0.583404   -0.495779   -0.217425
     15          6           0        1.569547   -1.273451    0.074972
     16         16           0        2.743410   -0.790147    1.272221
     17          6           0        2.053799    0.841152    1.788088
     18          6           0        0.952525    0.622980    2.808265
     19          6           0        3.190291    1.691634    2.326020
     20          7           0        1.761893   -2.476248   -0.508590
     21          6           0        0.894963   -2.991026   -1.484654
     22          8           0        1.119212   -4.080446   -1.967748
     23          1           0       -1.877793   -4.272648   -1.649064
     24          1           0       -2.830727   -2.805044   -1.415562
     25          1           0       -3.015175   -3.753424   -2.895202
     26          1           0       -0.653768   -3.255910   -3.515314
     27          1           0       -1.614695   -1.769160   -3.385156
     28          1           0       -1.328942    0.400118   -2.497756
     29          1           0       -2.375012   -0.397160   -1.308583
     30          1           0       -2.425495    2.463212    2.421478
     31          1           0       -0.897143    4.331312    1.823115
     32          1           0        0.375296    4.232100   -0.309830
     33          1           0        1.642147    1.266214    0.871370
     34          1           0        0.157625    0.016808    2.381393
     35          1           0        0.532601    1.582307    3.103505
     36          1           0        1.343926    0.123312    3.691948
     37          1           0        3.622115    1.235149    3.214090
     38          1           0        3.973366    1.806286    1.580554
     39          1           0        2.812596    2.677201    2.589614
     40          1           0        2.554156   -3.053236   -0.249571
 ---------------------------------------------------------------------
                    Distance matrix (angstroms):
                    1          2          3          4          5
     1  C    0.000000
     2  C    1.530510   0.000000
     3  C    2.494429   1.499764   0.000000
     4  C    3.351023   2.532896   1.363691   0.000000
     5  C    3.672984   3.024981   2.522905   1.510948   0.000000
     6  C    5.054294   4.498054   3.769545   2.476014   1.498804
     7  C    5.547462   5.335297   4.610919   3.358251   2.528451
     8  F    4.937866   5.099783   4.554243   3.543457   2.833451
     9  C    6.918540   6.685892   5.868275   4.559823   3.812949
    10  C    7.756828   7.278598   6.379161   5.017885   4.308234
    11  C    7.444187   6.717185   5.821750   4.490069   3.810456
    12  C    6.180549   5.375041   4.555341   3.267717   2.525377
    13  F    6.261630   5.182183   4.442079   3.371070   2.826475
    14  N    4.532277   3.790116   2.393953   1.360523   2.414681
    15  C    4.949519   4.215457   2.716187   2.276433   3.612249
    16  S    6.635176   5.959323   4.460505   3.903379   5.042658
    17  C    7.248481   6.605325   5.166572   4.162061   4.801973
    18  C    7.171665   6.833739   5.484089   4.437642   4.901113
    19  C    8.729822   8.007513   6.557823   5.579600   6.164612
    20  N    4.481056   3.751918   2.385850   2.677412   4.183883
    21  C    3.292029   2.506606   1.449656   2.427778   3.843483
    22  O    3.491519   2.870950   2.385057   3.571872   4.900056
    23  H    1.086954   2.156260   2.745473   3.749188   4.388563
    24  H    1.088104   2.173617   2.747480   3.171662   3.222809
    25  H    1.087077   2.161408   3.436818   4.296866   4.405232
    26  H    2.144465   1.091468   2.108975   3.343545   3.998670
    27  H    2.162587   1.090866   2.142178   2.719935   2.686397
    28  H    3.944802   3.022577   2.829172   2.128528   1.093213
    29  H    3.126646   2.926631   2.805630   2.137060   1.091170
    30  H    7.442387   7.395819   6.608316   5.357133   4.658502
    31  H    8.812200   8.351263   7.420162   6.057159   5.386768
    32  H    8.301621   7.447268   6.534971   5.251260   4.655596
    33  H    6.821538   6.051677   4.683411   3.555721   4.012251
    34  H    6.190332   5.980078   4.708846   3.692319   4.142610
    35  H    7.781035   7.456454   6.184079   5.009734   5.173864
    36  H    7.739671   7.502737   6.131831   5.230152   5.835061
    37  H    9.243074   8.620469   7.141340   6.257982   6.957316
    38  H    8.971439   8.091049   6.648990   5.760059   6.412374
    39  H    9.255023   8.554179   7.161190   6.052526   6.392939
    40  H    5.227194   4.564345   3.307450   3.690966   5.196272
                    6          7          8          9         10
     6  C    0.000000
     7  C    1.388741   0.000000
     8  F    2.353251   1.348785   0.000000
     9  C    2.435385   1.382804   2.347398   0.000000
    10  C    2.809979   2.383622   3.607151   1.383445   0.000000
    11  C    2.435699   2.749446   4.098143   2.398564   1.383947
    12  C    1.389862   2.354964   3.591693   2.749719   2.383879
    13  F    2.352958   3.590211   4.703801   4.097257   3.606797
    14  N    2.608214   3.289105   3.706782   4.196401   4.503529
    15  C    3.890135   4.465620   4.768412   5.259867   5.519462
    16  S    4.893397   5.234486   5.682687   5.633917   5.687845
    17  C    4.111618   4.227905   4.954390   4.240796   4.092231
    18  C    4.099878   3.721405   4.189040   3.598353   3.838553
    19  C    5.347285   5.447741   6.290954   5.172288   4.709778
    20  N    4.844495   5.492180   5.591423   6.436996   6.782116
    21  C    4.890174   5.644320   5.581717   6.791588   7.250356
    22  O    6.047557   6.795984   6.633119   7.973368   8.459305
    23  H    5.691020   6.094798   5.419711   7.425494   8.297593
    24  H    4.449890   4.735250   3.981831   6.089643   7.038681
    25  H    5.812391   6.315327   5.667671   7.692341   8.538246
    26  H    5.454842   6.364308   6.172113   7.694530   8.213141
    27  H    4.172623   5.124094   5.014877   6.462619   6.976116
    28  H    2.131996   3.355030   3.791141   4.527399   4.798468
    29  H    2.133562   2.665890   2.462335   4.035216   4.801519
    30  H    3.397901   2.130274   2.567022   1.078172   2.153902
    31  H    3.888559   3.364081   4.480599   2.137003   1.078580
    32  H    3.398834   3.827354   5.176121   3.385158   2.153838
    33  H    3.265688   3.632831   4.546468   3.750194   3.467644
    34  H    3.513416   3.070445   3.298728   3.280333   3.855747
    35  H    4.102217   3.522302   4.139197   3.005767   3.122960
    36  H    5.134019   4.679763   4.963509   4.523781   4.818589
    37  H    6.196540   6.166111   6.863464   5.869431   5.540053
    38  H    5.709195   6.043950   6.962255   5.868881   5.271891
    39  H    5.358763   5.335618   6.287997   4.802042   4.156090
    40  H    5.805336   6.400579   6.484257   7.269346   7.577898
                   11         12         13         14         15
    11  C    0.000000
    12  C    1.382471   0.000000
    13  F    2.346789   1.347626   0.000000
    14  N    4.035422   3.089839   3.349362   0.000000
    15  C    5.067992   4.247425   4.355473   1.289476   0.000000
    16  S    5.365307   4.955491   5.163161   2.640327   1.744976
    17  C    3.942019   3.939507   4.458185   2.823390   2.764202
    18  C    4.182637   4.284198   5.155504   3.246948   3.383497
    19  C    4.551228   4.878651   5.280241   4.248500   4.060265
    20  N    6.280625   5.316183   5.243813   2.322902   1.350653
    21  C    6.699767   5.539221   5.369424   2.815883   2.416105
    22  O    7.893776   6.707625   6.453031   4.024991   3.500676
    23  H    8.037721   6.816531   6.927555   4.729886   4.883814
    24  H    6.880824   5.701405   5.998995   4.292380   4.891818
    25  H    8.207796   6.923486   6.941962   5.543691   5.999323
    26  H    7.558904   6.204200   5.837451   4.474929   4.665129
    27  H    6.337458   4.968488   4.690322   4.060499   4.728383
    28  H    4.052710   2.693341   2.522696   3.107991   4.221492
    29  H    4.548463   3.380943   3.832233   3.154770   4.271024
    30  H    3.385530   3.827550   5.175152   4.977239   5.952234
    31  H    2.136991   3.363951   4.479955   5.445790   6.368196
    32  H    1.078229   2.130513   2.567943   4.733359   5.646715
    33  H    3.044478   2.919552   3.370349   2.326162   2.662596
    34  H    4.205769   4.033111   4.956427   2.682889   2.996309
    35  H    3.728383   4.149511   5.173992   3.917857   4.289828
    36  H    5.241286   5.369534   6.206758   4.030492   3.883860
    37  H    5.538331   5.863090   6.315026   4.899508   4.512225
    38  H    4.842777   5.078647   5.203089   4.474827   4.186873
    39  H    4.130381   4.756372   5.282020   4.787125   4.845229
    40  H    7.092705   6.207931   6.102231   3.228852   2.059713
                   16         17         18         19         20
    16  S    0.000000
    17  C    1.844673   0.000000
    18  C    2.750204   1.516958   0.000000
    19  C    2.733026   1.517993   2.526297   0.000000
    20  N    2.641515   4.045378   4.611053   5.238948   0.000000
    21  C    3.982586   5.171009   5.611907   6.458875   1.403305
    22  O    4.895048   6.261141   6.705244   7.486169   2.261777
    23  H    6.482071   7.309062   7.200393   8.778350   4.216047
    24  H    6.508072   6.885980   6.626089   8.394773   4.692853
    25  H    7.701281   8.290829   8.211278   9.768195   5.490672
    26  H    6.367205   7.227926   7.590363   8.565989   3.934931
    27  H    6.453116   6.858136   7.118385   8.226938   4.491765
    28  H    5.675694   5.477765   5.780019   6.735005   4.667282
    29  H    5.745714   5.544110   5.390883   6.967495   4.698572
    30  H    6.214717   4.805864   3.866145   5.669347   7.107586
    31  H    6.307650   4.570613   4.259521   4.891618   7.671388
    32  H    5.773544   4.326333   4.804316   4.617993   6.853035
    33  H    2.366871   1.091104   2.154272   2.166504   3.990570
    34  H    2.927067   2.151053   1.086982   3.464847   4.140170
    35  H    3.724220   2.143286   1.088032   2.771236   5.570481
    36  H    2.940755   2.154971   1.088007   2.781090   4.957512
    37  H    2.940204   2.155999   2.768782   1.087897   5.576131
    38  H    2.889519   2.158539   3.468857   1.087231   5.253116
    39  H    3.709826   2.142263   2.779837   1.087878   6.104169
    40  H    2.733723   4.423649   5.042830   5.436186   1.013749
                   21         22         23         24         25
    21  C    0.000000
    22  O    1.212643   0.000000
    23  H    3.059046   3.020023   0.000000
    24  H    3.730969   4.187311   1.765352   0.000000
    25  H    4.226119   4.249737   1.765245   1.767139   0.000000
    26  H    2.567550   2.493647   2.452526   3.058005   2.491647
    27  H    3.376869   3.850368   3.057890   2.535960   2.477642
    28  H    4.179951   5.133207   4.780822   3.701293   4.500362
    29  H    4.177544   5.119637   3.922061   2.452963   3.767184
    30  H    7.485454   8.640006   7.889303   6.530054   8.201303
    31  H    8.232230   9.444257   9.329835   8.071886   9.597475
    32  H    7.336472   8.508850   8.899478   7.811698   9.052516
    33  H    4.922725   6.076251   7.030047   6.466204   7.815016
    34  H    4.953489   6.052039   6.227917   5.595531   7.219679
    35  H    6.488289   7.624204   7.916907   7.140224   8.777314
    36  H    6.057877   7.053668   7.630882   7.217316   8.798942
    37  H    6.883031   7.833998   9.177968   8.910444  10.308392
    38  H    6.471960   7.442463   9.034376   8.748529   9.989118
    39  H    7.239183   8.324836   9.395028   8.828564  10.266405
    40  H    2.069353   2.462998   4.804969   5.515261   6.205408
                   26         27         28         29         30
    26  H    0.000000
    27  H    1.775035   0.000000
    28  H    3.854585   2.361122   0.000000
    29  H    4.000599   2.602425   1.773146   0.000000
    30  H    8.431659   7.231000   5.445884   4.700812   0.000000
    31  H    9.280302   8.053367   5.857530   5.860894   2.486703
    32  H    8.210019   7.030847   4.730279   5.476473   4.293418
    33  H    6.705507   6.159425   4.574768   4.863802   4.514570
    34  H    6.792658   6.291573   5.114969   4.494613   3.557950
    35  H    8.283996   7.612222   6.019721   5.642608   3.160931
    36  H    8.206982   7.900651   6.747835   6.253535   4.614949
    37  H    9.150829   8.944277   7.604961   7.686647   6.221733
    38  H    8.544242   8.286646   6.835524   7.314656   6.487228
    39  H    9.191716   8.664231   6.943974   7.180453   5.245155
    40  H    4.582241   5.372156   5.662017   5.698503   7.897001
                   31         32         33         34         35
    31  H    0.000000
    32  H    2.485639   0.000000
    33  H    4.092510   3.434622   0.000000
    34  H    4.476511   5.005871   2.458656   0.000000
    35  H    3.352699   4.324003   2.512655   1.764324   0.000000
    36  H    5.120761   5.816753   3.057911   1.770934   1.770079
    37  H    5.651967   5.651686   3.067503   3.765691   3.110924
    38  H    5.491489   4.733311   2.495837   4.289925   3.769405
    39  H    4.133493   4.094498   2.512608   3.764295   2.580940
    40  H    8.410650   7.604418   4.554768   4.700054   6.067789
                   36         37         38         39         40
    36  H    0.000000
    37  H    2.579667   0.000000
    38  H    3.768865   1.765790   0.000000
    39  H    3.145550   1.767712   1.767508   0.000000
    40  H    5.204871   5.614955   5.383165   6.400443   0.000000
 Stoichiometry    C16H18F2N2OS
 Framework group  C1[X(C16H18F2N2OS)]
 Deg. of freedom   114
 Full point group                 C1      NOp   1
 Largest Abelian subgroup         C1      NOp   1
 Largest concise Abelian subgroup C1      NOp   1
                         Standard orientation:                         
 ---------------------------------------------------------------------
 Center     Atomic      Atomic             Coordinates (Angstroms)
 Number     Number       Type             X           Y           Z
 ---------------------------------------------------------------------
      1          6           0       -4.067958   -1.916895   -0.983790
      2          6           0       -3.646238   -1.427443    0.403671
      3          6           0       -2.624305   -0.335108    0.295270
      4          6           0       -1.276972   -0.543073    0.262149
      5          6           0       -0.661169   -1.916993    0.389018
      6          6           0        0.830271   -1.843136    0.260315
      7          6           0        1.478291   -2.028926   -0.953833
      8          9           0        0.737821   -2.331132   -2.039925
      9          6           0        2.849624   -1.925718   -1.098543
     10          6           0        3.619229   -1.611451    0.007289
     11          6           0        3.018901   -1.411267    1.238078
     12          6           0        1.645376   -1.529433    1.341477
     13          9           0        1.071623   -1.338646    2.545846
     14          7           0       -0.374902    0.465872    0.123140
     15          6           0       -0.815834    1.673999    0.029575
     16         16           0        0.300050    3.005263   -0.136197
     17          6           0        1.908237    2.102024   -0.162896
     18          6           0        2.168306    1.576999   -1.562137
     19          6           0        2.994490    3.046250    0.319591
     20          7           0       -2.129493    1.986713    0.057391
     21          6           0       -3.135724    1.016718    0.183388
     22          8           0       -4.298447    1.360796    0.197024
     23          1           0       -4.516373   -1.098874   -1.541674
     24          1           0       -3.212801   -2.289320   -1.544126
     25          1           0       -4.799244   -2.716102   -0.893101
     26          1           0       -4.522632   -1.018356    0.909522
     27          1           0       -3.256636   -2.259855    0.991284
     28          1           0       -0.926512   -2.328721    1.366355
     29          1           0       -1.069428   -2.569328   -0.384568
     30          1           0        3.293070   -2.087171   -2.067946
     31          1           0        4.689908   -1.523908   -0.089242
     32          1           0        3.597155   -1.165794    2.114401
     33          1           0        1.767893    1.273176    0.532678
     34          1           0        1.372760    0.901201   -1.865341
     35          1           0        3.108799    1.030169   -1.578329
     36          1           0        2.226454    2.398117   -2.273574
     37          1           0        3.094701    3.891620   -0.357778
     38          1           0        2.764665    3.424255    1.312749
     39          1           0        3.944121    2.516974    0.358911
     40          1           0       -2.430508    2.951954   -0.015999
 ---------------------------------------------------------------------
 Rotational constants (GHZ):           0.3313263           0.2323693           0.1684541
 Leave Link  202 at Fri Nov  4 19:19:51 2022, MaxMem=   805306368 cpu:               0.1 elap:               0.0
 (Enter /home/wykgroup/appl/g16/l301.exe)
 Standard basis: 6-31G(d) (6D, 7F)
 Ernie: Thresh=  0.10000D-02 Tol=  0.10000D-05 Strict=F.
 There are   370 symmetry adapted cartesian basis functions of A   symmetry.
 There are   370 symmetry adapted basis functions of A   symmetry.
   370 basis functions,   712 primitive gaussians,   370 cartesian basis functions
    85 alpha electrons       85 beta electrons
       nuclear repulsion energy      2059.0719836004 Hartrees.
 IExCor=  402 DFT=T Ex+Corr=B3LYP ExCW=0 ScaHFX=  0.200000
 ScaDFX=  0.800000  0.720000  1.000000  0.810000 ScalE2=  1.000000  1.000000
 IRadAn=      5 IRanWt=     -1 IRanGd=            0 ICorTp=0 IEmpDi=  4
 NAtoms=   40 NActive=   40 NUniq=   40 SFac= 1.00D+00 NAtFMM=   60 NAOKFM=F Big=F
 Integral buffers will be    131072 words long.
 Raffenetti 2 integral format.
 Two-electron integral symmetry is turned on.
 Leave Link  301 at Fri Nov  4 19:19:51 2022, MaxMem=   805306368 cpu:               0.5 elap:               0.1
 (Enter /home/wykgroup/appl/g16/l302.exe)
 NPDir=0 NMtPBC=     1 NCelOv=     1 NCel=       1 NClECP=     1 NCelD=      1
         NCelK=      1 NCelE2=     1 NClLst=     1 CellRange=     0.0.
 One-electron integrals computed using PRISM.
 One-electron integral symmetry used in STVInt
 NBasis=   370 RedAO= T EigKep=  3.83D-04  NBF=   370
 NBsUse=   370 1.00D-06 EigRej= -1.00D+00 NBFU=   370
 Precomputing XC quadrature grid using
 IXCGrd= 4 IRadAn=           5 IRanWt=          -1 IRanGd=           0 AccXCQ= 0.00D+00.
 Generated NRdTot=       0 NPtTot=           0 NUsed=           0 NTot=          32
 NSgBfM=   369   369   369   369   369 MxSgAt=    40 MxSgA2=    40.
 Leave Link  302 at Fri Nov  4 19:19:51 2022, MaxMem=   805306368 cpu:               4.0 elap:               0.6
 (Enter /home/wykgroup/appl/g16/l303.exe)
 DipDrv:  MaxL=1.
 Leave Link  303 at Fri Nov  4 19:19:52 2022, MaxMem=   805306368 cpu:               0.4 elap:               0.1
 (Enter /home/wykgroup/appl/g16/l401.exe)
 ExpMin= 1.17D-01 ExpMax= 2.19D+04 ExpMxC= 3.30D+03 IAcc=3 IRadAn=         5 AccDes= 0.00D+00
 Harris functional with IExCor=  402 and IRadAn=       5 diagonalized for initial guess.
 HarFok:  IExCor=  402 AccDes= 0.00D+00 IRadAn=         5 IDoV= 1 UseB2=F ITyADJ=14
 ICtDFT=  3500011 ScaDFX=  1.000000  1.000000  1.000000  1.000000
 FoFCou: FMM=F IPFlag=           0 FMFlag=      100000 FMFlg1=           0
         NFxFlg=           0 DoJE=T BraDBF=F KetDBF=T FulRan=T
         wScrn=  0.000000 ICntrl=       500 IOpCl=  0 I1Cent=   200000004 NGrid=           0
         NMat0=    1 NMatS0=      1 NMatT0=    0 NMatD0=    1 NMtDS0=    0 NMtDT0=    0
 Petite list used in FoFCou.
 Harris En= -1403.14004702229    
 JPrj=0 DoOrth=F DoCkMO=F.
 Leave Link  401 at Fri Nov  4 19:19:55 2022, MaxMem=   805306368 cpu:              22.7 elap:               3.3
 (Enter /home/wykgroup/appl/g16/l502.exe)
 Integral symmetry usage will be decided dynamically.
 Closed shell SCF:
 Using DIIS extrapolation, IDIIS=  1040.
 NGot=   805306368 LenX=   805025857 LenY=   804888516
 Requested convergence on RMS density matrix=1.00D-08 within  32 cycles.
 Requested convergence on MAX density matrix=1.00D-06.
 Requested convergence on             energy=1.00D-06.
 No special actions if energy rises.
 Fock matrices will be formed incrementally for  20 cycles.
 Integral accuracy reduced to 1.0D-05 until final iterations.

 Cycle   1  Pass 0  IDiag  1:
 FoFJK:  IHMeth= 1 ICntrl=       0 DoSepK=F KAlg= 0 I1Cent=           0 FoldK=F
 IRaf= 810000000 NMat=       1 IRICut=       1 DoRegI=T DoRafI=F ISym2E= 0 IDoP0=0 IntGTp=1.
 FoFCou: FMM=F IPFlag=           0 FMFlag=      100000 FMFlg1=           0
         NFxFlg=           0 DoJE=F BraDBF=F KetDBF=F FulRan=T
         wScrn=  0.000000 ICntrl=         0 IOpCl=  0 I1Cent=           0 NGrid=           0
         NMat0=    1 NMatS0=      1 NMatT0=    0 NMatD0=    1 NMtDS0=    0 NMtDT0=    0
 Symmetry not used in FoFCou.
 E= -1402.56355221413    
 DIIS: error= 2.47D-02 at cycle   1 NSaved=   1.
 NSaved= 1 IEnMin= 1 EnMin= -1402.56355221413     IErMin= 1 ErrMin= 2.47D-02
 ErrMax= 2.47D-02  0.00D+00 EMaxC= 1.00D-01 BMatC= 6.08D-01 BMatP= 6.08D-01
 IDIUse=3 WtCom= 7.53D-01 WtEn= 2.47D-01
 Coeff-Com:  0.100D+01
 Coeff-En:   0.100D+01
 Coeff:      0.100D+01
 Gap=     0.378 Goal=   None    Shift=    0.000
 GapD=    0.378 DampG=1.000 DampE=0.500 DampFc=0.5000 IDamp=-1.
 Damping current iteration by 5.00D-01
 RMSDP=5.74D-03 MaxDP=3.32D-01              OVMax= 4.66D-01

 Cycle   2  Pass 0  IDiag  1:
 RMSU=  2.85D-03    CP:  9.83D-01
 E= -1402.73208042359     Delta-E=       -0.168528209465 Rises=F Damp=T
 DIIS: error= 1.11D-02 at cycle   2 NSaved=   2.
 NSaved= 2 IEnMin= 2 EnMin= -1402.73208042359     IErMin= 2 ErrMin= 1.11D-02
 ErrMax= 1.11D-02  0.00D+00 EMaxC= 1.00D-01 BMatC= 8.79D-02 BMatP= 6.08D-01
 IDIUse=3 WtCom= 8.89D-01 WtEn= 1.11D-01
 Coeff-Com:  0.195D+00 0.805D+00
 Coeff-En:   0.332D+00 0.668D+00
 Coeff:      0.210D+00 0.790D+00
 Gap=     0.320 Goal=   None    Shift=    0.000
 RMSDP=2.02D-03 MaxDP=1.83D-01 DE=-1.69D-01 OVMax= 3.31D-01

 Cycle   3  Pass 0  IDiag  1:
 RMSU=  1.62D-03    CP:  9.75D-01  5.83D-01
 E= -1403.07607320593     Delta-E=       -0.343992782333 Rises=F Damp=F
 DIIS: error= 1.54D-02 at cycle   3 NSaved=   3.
 NSaved= 3 IEnMin= 3 EnMin= -1403.07607320593     IErMin= 2 ErrMin= 1.11D-02
 ErrMax= 1.54D-02  0.00D+00 EMaxC= 1.00D-01 BMatC= 9.24D-02 BMatP= 8.79D-02
 IDIUse=3 WtCom= 8.46D-01 WtEn= 1.54D-01
 Coeff-Com:  0.583D-01 0.498D+00 0.444D+00
 Coeff-En:   0.000D+00 0.000D+00 0.100D+01
 Coeff:      0.493D-01 0.421D+00 0.529D+00
 Gap=     0.182 Goal=   None    Shift=    0.000
 RMSDP=1.26D-03 MaxDP=9.20D-02 DE=-3.44D-01 OVMax= 1.11D-01

 Cycle   4  Pass 0  IDiag  1:
 RMSU=  8.05D-04    CP:  9.79D-01  7.62D-01  4.98D-01
 E= -1403.14006330328     Delta-E=       -0.063990097355 Rises=F Damp=F
 DIIS: error= 7.72D-03 at cycle   4 NSaved=   4.
 NSaved= 4 IEnMin= 4 EnMin= -1403.14006330328     IErMin= 4 ErrMin= 7.72D-03
 ErrMax= 7.72D-03  0.00D+00 EMaxC= 1.00D-01 BMatC= 2.33D-02 BMatP= 8.79D-02
 IDIUse=3 WtCom= 9.23D-01 WtEn= 7.72D-02
 Coeff-Com:  0.660D-02 0.106D+00 0.338D+00 0.550D+00
 Coeff-En:   0.000D+00 0.000D+00 0.229D+00 0.771D+00
 Coeff:      0.609D-02 0.978D-01 0.329D+00 0.567D+00
 Gap=     0.184 Goal=   None    Shift=    0.000
 RMSDP=5.27D-04 MaxDP=4.05D-02 DE=-6.40D-02 OVMax= 5.10D-02

 Cycle   5  Pass 0  IDiag  1:
 RMSU=  2.62D-04    CP:  9.78D-01  7.09D-01  6.45D-01  5.55D-01
 E= -1403.15833386204     Delta-E=       -0.018270558756 Rises=F Damp=F
 DIIS: error= 2.26D-03 at cycle   5 NSaved=   5.
 NSaved= 5 IEnMin= 5 EnMin= -1403.15833386204     IErMin= 5 ErrMin= 2.26D-03
 ErrMax= 2.26D-03  0.00D+00 EMaxC= 1.00D-01 BMatC= 1.82D-03 BMatP= 2.33D-02
 IDIUse=3 WtCom= 9.77D-01 WtEn= 2.26D-02
 Coeff-Com: -0.137D-02 0.161D-01 0.150D+00 0.341D+00 0.495D+00
 Coeff-En:   0.000D+00 0.000D+00 0.000D+00 0.167D-01 0.983D+00
 Coeff:     -0.134D-02 0.158D-01 0.146D+00 0.334D+00 0.506D+00
 Gap=     0.182 Goal=   None    Shift=    0.000
 RMSDP=1.64D-04 MaxDP=9.26D-03 DE=-1.83D-02 OVMax= 1.90D-02

 Cycle   6  Pass 0  IDiag  1:
 RMSU=  7.44D-05    CP:  9.78D-01  7.09D-01  6.44D-01  6.48D-01  5.20D-01
 E= -1403.15979818622     Delta-E=       -0.001464324178 Rises=F Damp=F
 DIIS: error= 5.71D-04 at cycle   6 NSaved=   6.
 NSaved= 6 IEnMin= 6 EnMin= -1403.15979818622     IErMin= 6 ErrMin= 5.71D-04
 ErrMax= 5.71D-04  0.00D+00 EMaxC= 1.00D-01 BMatC= 2.21D-04 BMatP= 1.82D-03
 IDIUse=3 WtCom= 9.94D-01 WtEn= 5.71D-03
 Coeff-Com: -0.109D-02-0.174D-02 0.503D-01 0.138D+00 0.314D+00 0.501D+00
 Coeff-En:   0.000D+00 0.000D+00 0.000D+00 0.000D+00 0.739D-01 0.926D+00
 Coeff:     -0.109D-02-0.173D-02 0.501D-01 0.137D+00 0.312D+00 0.503D+00
 Gap=     0.182 Goal=   None    Shift=    0.000
 RMSDP=5.02D-05 MaxDP=3.12D-03 DE=-1.46D-03 OVMax= 5.82D-03

 Cycle   7  Pass 0  IDiag  1:
 RMSU=  3.02D-05    CP:  9.78D-01  7.09D-01  6.47D-01  6.37D-01  5.86D-01
                    CP:  5.32D-01
 E= -1403.15997267804     Delta-E=       -0.000174491820 Rises=F Damp=F
 DIIS: error= 2.22D-04 at cycle   7 NSaved=   7.
 NSaved= 7 IEnMin= 7 EnMin= -1403.15997267804     IErMin= 7 ErrMin= 2.22D-04
 ErrMax= 2.22D-04  0.00D+00 EMaxC= 1.00D-01 BMatC= 2.05D-05 BMatP= 2.21D-04
 IDIUse=3 WtCom= 9.98D-01 WtEn= 2.22D-03
 Coeff-Com: -0.410D-03-0.257D-02 0.105D-01 0.359D-01 0.121D+00 0.294D+00
 Coeff-Com:  0.541D+00
 Coeff-En:   0.000D+00 0.000D+00 0.000D+00 0.000D+00 0.000D+00 0.519D-01
 Coeff-En:   0.948D+00
 Coeff:     -0.409D-03-0.257D-02 0.105D-01 0.358D-01 0.121D+00 0.294D+00
 Coeff:      0.542D+00
 Gap=     0.182 Goal=   None    Shift=    0.000
 RMSDP=1.76D-05 MaxDP=8.07D-04 DE=-1.74D-04 OVMax= 1.81D-03

 Cycle   8  Pass 0  IDiag  1:
 RMSU=  9.45D-06    CP:  9.78D-01  7.09D-01  6.47D-01  6.40D-01  5.88D-01
                    CP:  6.15D-01  5.65D-01
 E= -1403.15999013851     Delta-E=       -0.000017460469 Rises=F Damp=F
 DIIS: error= 7.53D-05 at cycle   8 NSaved=   8.
 NSaved= 8 IEnMin= 8 EnMin= -1403.15999013851     IErMin= 8 ErrMin= 7.53D-05
 ErrMax= 7.53D-05  0.00D+00 EMaxC= 1.00D-01 BMatC= 2.53D-06 BMatP= 2.05D-05
 IDIUse=1 WtCom= 1.00D+00 WtEn= 0.00D+00
 Coeff-Com: -0.122D-03-0.128D-02 0.206D-02 0.929D-02 0.456D-01 0.129D+00
 Coeff-Com:  0.331D+00 0.484D+00
 Coeff:     -0.122D-03-0.128D-02 0.206D-02 0.929D-02 0.456D-01 0.129D+00
 Coeff:      0.331D+00 0.484D+00
 Gap=     0.182 Goal=   None    Shift=    0.000
 RMSDP=6.01D-06 MaxDP=2.39D-04 DE=-1.75D-05 OVMax= 5.92D-04

 Initial convergence to 1.0D-05 achieved.  Increase integral accuracy.
 Cycle   9  Pass 1  IDiag  1:
 E= -1403.15998501520     Delta-E=        0.000005123306 Rises=F Damp=F
 DIIS: error= 9.42D-05 at cycle   1 NSaved=   1.
 NSaved= 1 IEnMin= 1 EnMin= -1403.15998501520     IErMin= 1 ErrMin= 9.42D-05
 ErrMax= 9.42D-05  0.00D+00 EMaxC= 1.00D-01 BMatC= 1.02D-06 BMatP= 1.02D-06
 IDIUse=1 WtCom= 1.00D+00 WtEn= 0.00D+00
 Coeff-Com:  0.100D+01
 Coeff:      0.100D+01
 Gap=     0.182 Goal=   None    Shift=    0.000
 RMSDP=6.01D-06 MaxDP=2.39D-04 DE= 5.12D-06 OVMax= 3.79D-04

 Cycle  10  Pass 1  IDiag  1:
 RMSU=  3.47D-05    CP:  1.00D+00
 E= -1403.15998493316     Delta-E=        0.000000082036 Rises=F Damp=F
 DIIS: error= 3.64D-05 at cycle   2 NSaved=   2.
 NSaved= 2 IEnMin= 1 EnMin= -1403.15998501520     IErMin= 2 ErrMin= 3.64D-05
 ErrMax= 3.64D-05  0.00D+00 EMaxC= 1.00D-01 BMatC= 9.67D-07 BMatP= 1.02D-06
 IDIUse=1 WtCom= 1.00D+00 WtEn= 0.00D+00
 Coeff-Com:  0.490D+00 0.510D+00
 Coeff:      0.490D+00 0.510D+00
 Gap=     0.182 Goal=   None    Shift=    0.000
 RMSDP=4.47D-06 MaxDP=2.10D-04 DE= 8.20D-08 OVMax= 4.10D-04

 Cycle  11  Pass 1  IDiag  1:
 RMSU=  4.46D-06    CP:  1.00D+00  9.92D-01
 E= -1403.15998556672     Delta-E=       -0.000000633554 Rises=F Damp=F
 DIIS: error= 2.31D-05 at cycle   3 NSaved=   3.
 NSaved= 3 IEnMin= 3 EnMin= -1403.15998556672     IErMin= 3 ErrMin= 2.31D-05
 ErrMax= 2.31D-05  0.00D+00 EMaxC= 1.00D-01 BMatC= 3.27D-07 BMatP= 9.67D-07
 IDIUse=1 WtCom= 1.00D+00 WtEn= 0.00D+00
 Coeff-Com:  0.196D-01 0.365D+00 0.616D+00
 Coeff:      0.196D-01 0.365D+00 0.616D+00
 Gap=     0.182 Goal=   None    Shift=    0.000
 RMSDP=1.93D-06 MaxDP=8.28D-05 DE=-6.34D-07 OVMax= 2.00D-04

 Cycle  12  Pass 1  IDiag  1:
 RMSU=  7.20D-07    CP:  1.00D+00  1.00D+00  6.07D-01
 E= -1403.15998588014     Delta-E=       -0.000000313419 Rises=F Damp=F
 DIIS: error= 7.81D-06 at cycle   4 NSaved=   4.
 NSaved= 4 IEnMin= 4 EnMin= -1403.15998588014     IErMin= 4 ErrMin= 7.81D-06
 ErrMax= 7.81D-06  0.00D+00 EMaxC= 1.00D-01 BMatC= 2.24D-08 BMatP= 3.27D-07
 IDIUse=1 WtCom= 1.00D+00 WtEn= 0.00D+00
 Coeff-Com: -0.162D-02 0.224D+00 0.404D+00 0.374D+00
 Coeff:     -0.162D-02 0.224D+00 0.404D+00 0.374D+00
 Gap=     0.182 Goal=   None    Shift=    0.000
 RMSDP=4.70D-07 MaxDP=2.69D-05 DE=-3.13D-07 OVMax= 5.30D-05

 Cycle  13  Pass 1  IDiag  1:
 RMSU=  1.60D-07    CP:  1.00D+00  1.00D+00  6.29D-01  4.01D-01
 E= -1403.15998590063     Delta-E=       -0.000000020496 Rises=F Damp=F
 DIIS: error= 8.78D-07 at cycle   5 NSaved=   5.
 NSaved= 5 IEnMin= 5 EnMin= -1403.15998590063     IErMin= 5 ErrMin= 8.78D-07
 ErrMax= 8.78D-07  0.00D+00 EMaxC= 1.00D-01 BMatC= 5.80D-10 BMatP= 2.24D-08
 IDIUse=1 WtCom= 1.00D+00 WtEn= 0.00D+00
 Coeff-Com: -0.187D-02 0.114D+00 0.208D+00 0.216D+00 0.464D+00
 Coeff:     -0.187D-02 0.114D+00 0.208D+00 0.216D+00 0.464D+00
 Gap=     0.182 Goal=   None    Shift=    0.000
 RMSDP=8.79D-08 MaxDP=5.47D-06 DE=-2.05D-08 OVMax= 1.03D-05

 Cycle  14  Pass 1  IDiag  1:
 RMSU=  5.31D-08    CP:  1.00D+00  1.00D+00  6.30D-01  4.18D-01  5.70D-01
 E= -1403.15998590114     Delta-E=       -0.000000000509 Rises=F Damp=F
 DIIS: error= 3.08D-07 at cycle   6 NSaved=   6.
 NSaved= 6 IEnMin= 6 EnMin= -1403.15998590114     IErMin= 6 ErrMin= 3.08D-07
 ErrMax= 3.08D-07  0.00D+00 EMaxC= 1.00D-01 BMatC= 3.68D-11 BMatP= 5.80D-10
 IDIUse=1 WtCom= 1.00D+00 WtEn= 0.00D+00
 Coeff-Com: -0.934D-03 0.491D-01 0.895D-01 0.931D-01 0.267D+00 0.502D+00
 Coeff:     -0.934D-03 0.491D-01 0.895D-01 0.931D-01 0.267D+00 0.502D+00
 Gap=     0.182 Goal=   None    Shift=    0.000
 RMSDP=2.44D-08 MaxDP=1.33D-06 DE=-5.09D-10 OVMax= 2.07D-06

 Cycle  15  Pass 1  IDiag  1:
 RMSU=  1.82D-08    CP:  1.00D+00  1.00D+00  6.31D-01  4.11D-01  6.26D-01
                    CP:  7.76D-01
 E= -1403.15998590115     Delta-E=       -0.000000000007 Rises=F Damp=F
 DIIS: error= 9.79D-08 at cycle   7 NSaved=   7.
 NSaved= 7 IEnMin= 7 EnMin= -1403.15998590115     IErMin= 7 ErrMin= 9.79D-08
 ErrMax= 9.79D-08  0.00D+00 EMaxC= 1.00D-01 BMatC= 4.60D-12 BMatP= 3.68D-11
 IDIUse=1 WtCom= 1.00D+00 WtEn= 0.00D+00
 Coeff-Com: -0.322D-03 0.147D-01 0.267D-01 0.271D-01 0.103D+00 0.299D+00
 Coeff-Com:  0.529D+00
 Coeff:     -0.322D-03 0.147D-01 0.267D-01 0.271D-01 0.103D+00 0.299D+00
 Coeff:      0.529D+00
 Gap=     0.182 Goal=   None    Shift=    0.000
 RMSDP=7.76D-09 MaxDP=5.20D-07 DE=-6.82D-12 OVMax= 6.31D-07

 SCF Done:  E(RB3LYP) =  -1403.15998590     A.U. after   15 cycles
            NFock= 15  Conv=0.78D-08     -V/T= 2.0068
 KE= 1.393641425475D+03 PE=-7.409493151426D+03 EE= 2.553619756449D+03
 Leave Link  502 at Fri Nov  4 19:20:56 2022, MaxMem=   805306368 cpu:             429.5 elap:              61.4
 (Enter /home/wykgroup/appl/g16/l508.exe)
 QCSCF skips out because SCF is already converged.
 Leave Link  508 at Fri Nov  4 19:20:56 2022, MaxMem=   805306368 cpu:               0.0 elap:               0.0
 (Enter /home/wykgroup/appl/g16/l601.exe)
 Copying SCF densities to generalized density rwf, IOpCl= 0 IROHF=0.

 **********************************************************************

            Population analysis using the SCF Density.

 **********************************************************************

 Orbital symmetries:
       Occupied  (A) (A) (A) (A) (A) (A) (A) (A) (A) (A) (A) (A)
                 (A) (A) (A) (A) (A) (A) (A) (A) (A) (A) (A) (A)
                 (A) (A) (A) (A) (A) (A) (A) (A) (A) (A) (A) (A)
                 (A) (A) (A) (A) (A) (A) (A) (A) (A) (A) (A) (A)
                 (A) (A) (A) (A) (A) (A) (A) (A) (A) (A) (A) (A)
                 (A) (A) (A) (A) (A) (A) (A) (A) (A) (A) (A) (A)
                 (A) (A) (A) (A) (A) (A) (A) (A) (A) (A) (A) (A)
                 (A)
       Virtual   (A) (A) (A) (A) (A) (A) (A) (A) (A) (A) (A) (A)
                 (A) (A) (A) (A) (A) (A) (A) (A) (A) (A) (A) (A)
                 (A) (A) (A) (A) (A) (A) (A) (A) (A) (A) (A) (A)
                 (A) (A) (A) (A) (A) (A) (A) (A) (A) (A) (A) (A)
                 (A) (A) (A) (A) (A) (A) (A) (A) (A) (A) (A) (A)
                 (A) (A) (A) (A) (A) (A) (A) (A) (A) (A) (A) (A)
                 (A) (A) (A) (A) (A) (A) (A) (A) (A) (A) (A) (A)
                 (A) (A) (A) (A) (A) (A) (A) (A) (A) (A) (A) (A)
                 (A) (A) (A) (A) (A) (A) (A) (A) (A) (A) (A) (A)
                 (A) (A) (A) (A) (A) (A) (A) (A) (A) (A) (A) (A)
                 (A) (A) (A) (A) (A) (A) (A) (A) (A) (A) (A) (A)
                 (A) (A) (A) (A) (A) (A) (A) (A) (A) (A) (A) (A)
                 (A) (A) (A) (A) (A) (A) (A) (A) (A) (A) (A) (A)
                 (A) (A) (A) (A) (A) (A) (A) (A) (A) (A) (A) (A)
                 (A) (A) (A) (A) (A) (A) (A) (A) (A) (A) (A) (A)
                 (A) (A) (A) (A) (A) (A) (A) (A) (A) (A) (A) (A)
                 (A) (A) (A) (A) (A) (A) (A) (A) (A) (A) (A) (A)
                 (A) (A) (A) (A) (A) (A) (A) (A) (A) (A) (A) (A)
                 (A) (A) (A) (A) (A) (A) (A) (A) (A) (A) (A) (A)
                 (A) (A) (A) (A) (A) (A) (A) (A) (A) (A) (A) (A)
                 (A) (A) (A) (A) (A) (A) (A) (A) (A) (A) (A) (A)
                 (A) (A) (A) (A) (A) (A) (A) (A) (A) (A) (A) (A)
                 (A) (A) (A) (A) (A) (A) (A) (A) (A) (A) (A) (A)
                 (A) (A) (A) (A) (A) (A) (A) (A) (A)
 The electronic state is 1-A.
 Alpha  occ. eigenvalues --  -88.89478 -24.71454 -24.71427 -19.11099 -14.39766
 Alpha  occ. eigenvalues --  -14.32916 -10.30215 -10.28935 -10.27918 -10.27912
 Alpha  occ. eigenvalues --  -10.24011 -10.22804 -10.21001 -10.20797 -10.20553
 Alpha  occ. eigenvalues --  -10.19947 -10.19914 -10.19065 -10.18951 -10.18218
 Alpha  occ. eigenvalues --  -10.17809 -10.16999  -7.95787  -5.92277  -5.91853
 Alpha  occ. eigenvalues --   -5.91321  -1.22669  -1.22613  -1.04971  -0.99825
 Alpha  occ. eigenvalues --   -0.91588  -0.87902  -0.84438  -0.81635  -0.79574
 Alpha  occ. eigenvalues --   -0.76317  -0.75852  -0.72956  -0.71031  -0.69903
 Alpha  occ. eigenvalues --   -0.64961  -0.64540  -0.63126  -0.61442  -0.61031
 Alpha  occ. eigenvalues --   -0.57574  -0.56258  -0.55383  -0.53381  -0.53080
 Alpha  occ. eigenvalues --   -0.49754  -0.49441  -0.49232  -0.47447  -0.46810
 Alpha  occ. eigenvalues --   -0.46022  -0.45457  -0.44684  -0.44148  -0.43707
 Alpha  occ. eigenvalues --   -0.43216  -0.42677  -0.42479  -0.41921  -0.40403
 Alpha  occ. eigenvalues --   -0.40002  -0.39521  -0.38969  -0.37937  -0.37558
 Alpha  occ. eigenvalues --   -0.36768  -0.36027  -0.35918  -0.35610  -0.35443
 Alpha  occ. eigenvalues --   -0.35141  -0.34175  -0.32501  -0.30840  -0.28143
 Alpha  occ. eigenvalues --   -0.26233  -0.26017  -0.25009  -0.24770  -0.21841
 Alpha virt. eigenvalues --   -0.03617  -0.01397  -0.00171   0.00978   0.01232
 Alpha virt. eigenvalues --    0.06926   0.07378   0.09007   0.09717   0.11154
 Alpha virt. eigenvalues --    0.11516   0.13210   0.13922   0.14134   0.14350
 Alpha virt. eigenvalues --    0.14786   0.15218   0.15425   0.15829   0.16814
 Alpha virt. eigenvalues --    0.17753   0.17909   0.18192   0.18451   0.18659
 Alpha virt. eigenvalues --    0.19031   0.19953   0.20998   0.21305   0.21839
 Alpha virt. eigenvalues --    0.23041   0.25317   0.25982   0.26670   0.27571
 Alpha virt. eigenvalues --    0.28097   0.29040   0.30148   0.30555   0.32658
 Alpha virt. eigenvalues --    0.36131   0.37157   0.37635   0.38768   0.39012
 Alpha virt. eigenvalues --    0.40088   0.41654   0.41797   0.45797   0.45877
 Alpha virt. eigenvalues --    0.47927   0.48820   0.49513   0.50305   0.51007
 Alpha virt. eigenvalues --    0.51687   0.51909   0.52593   0.53593   0.54820
 Alpha virt. eigenvalues --    0.55048   0.55944   0.56737   0.57684   0.58344
 Alpha virt. eigenvalues --    0.58667   0.59656   0.60029   0.60783   0.61768
 Alpha virt. eigenvalues --    0.62848   0.63414   0.64486   0.65599   0.65875
 Alpha virt. eigenvalues --    0.66744   0.67343   0.68335   0.69045   0.70815
 Alpha virt. eigenvalues --    0.71454   0.72504   0.73067   0.75135   0.76557
 Alpha virt. eigenvalues --    0.77965   0.78161   0.78773   0.79262   0.80548
 Alpha virt. eigenvalues --    0.81860   0.82343   0.83320   0.83846   0.84277
 Alpha virt. eigenvalues --    0.85723   0.85830   0.86625   0.87211   0.87634
 Alpha virt. eigenvalues --    0.88136   0.88285   0.88691   0.89469   0.89900
 Alpha virt. eigenvalues --    0.90030   0.90724   0.91169   0.91866   0.93470
 Alpha virt. eigenvalues --    0.94288   0.94601   0.95732   0.96651   0.97475
 Alpha virt. eigenvalues --    0.98019   0.98566   1.00363   1.01075   1.02141
 Alpha virt. eigenvalues --    1.03718   1.03894   1.05143   1.05794   1.06913
 Alpha virt. eigenvalues --    1.08411   1.09820   1.11809   1.12793   1.14328
 Alpha virt. eigenvalues --    1.16528   1.18134   1.18942   1.20811   1.20934
 Alpha virt. eigenvalues --    1.22096   1.22649   1.23220   1.24028   1.24343
 Alpha virt. eigenvalues --    1.26198   1.30063   1.33066   1.37055   1.38007
 Alpha virt. eigenvalues --    1.39320   1.40207   1.41317   1.42347   1.42563
 Alpha virt. eigenvalues --    1.43322   1.43406   1.45073   1.45409   1.46316
 Alpha virt. eigenvalues --    1.47552   1.48060   1.48502   1.51486   1.52225
 Alpha virt. eigenvalues --    1.53660   1.53847   1.54963   1.58113   1.62709
 Alpha virt. eigenvalues --    1.63944   1.66706   1.69352   1.70227   1.73437
 Alpha virt. eigenvalues --    1.75620   1.76326   1.77622   1.77898   1.79967
 Alpha virt. eigenvalues --    1.81230   1.81720   1.81990   1.83049   1.83969
 Alpha virt. eigenvalues --    1.84383   1.86337   1.88642   1.89155   1.90117
 Alpha virt. eigenvalues --    1.91005   1.91375   1.92360   1.92902   1.93152
 Alpha virt. eigenvalues --    1.94871   1.96203   1.97165   1.99071   1.99710
 Alpha virt. eigenvalues --    1.99938   2.01670   2.01922   2.04926   2.06093
 Alpha virt. eigenvalues --    2.07648   2.09900   2.10708   2.11374   2.12432
 Alpha virt. eigenvalues --    2.13656   2.16989   2.19397   2.21155   2.21295
 Alpha virt. eigenvalues --    2.21709   2.22129   2.23319   2.24958   2.25723
 Alpha virt. eigenvalues --    2.26762   2.27226   2.28453   2.29018   2.30556
 Alpha virt. eigenvalues --    2.31843   2.34040   2.34660   2.35250   2.35906
 Alpha virt. eigenvalues --    2.36745   2.39055   2.39735   2.40978   2.43399
 Alpha virt. eigenvalues --    2.44110   2.45487   2.47632   2.48226   2.50804
 Alpha virt. eigenvalues --    2.54410   2.57388   2.58662   2.60747   2.63504
 Alpha virt. eigenvalues --    2.65128   2.67156   2.68588   2.69828   2.71296
 Alpha virt. eigenvalues --    2.71740   2.72858   2.73356   2.77156   2.80056
 Alpha virt. eigenvalues --    2.82230   2.83886   2.87324   2.91404   3.01441
 Alpha virt. eigenvalues --    3.03184   3.05980   3.07506   3.16696   3.21374
 Alpha virt. eigenvalues --    3.24762   3.44400   3.44864   3.92439   4.01547
 Alpha virt. eigenvalues --    4.06299   4.11535   4.12794   4.14915   4.16845
 Alpha virt. eigenvalues --    4.19240   4.21806   4.26211   4.28112   4.33230
 Alpha virt. eigenvalues --    4.34949   4.37187   4.43532   4.48781   4.51430
 Alpha virt. eigenvalues --    4.60470   4.70009   4.77414   5.57521   5.64082
          Condensed to atoms (all electrons):
               1          2          3          4          5          6
     1  C    5.080599   0.362387  -0.041329  -0.003938  -0.000584   0.000010
     2  C    0.362387   5.097720   0.370795  -0.063421  -0.010013   0.000615
     3  C   -0.041329   0.370795   5.233690   0.466425  -0.084947   0.002030
     4  C   -0.003938  -0.063421   0.466425   4.790651   0.306857  -0.038562
     5  C   -0.000584  -0.010013  -0.084947   0.306857   5.420711   0.288082
     6  C    0.000010   0.000615   0.002030  -0.038562   0.288082   5.271827
     7  C   -0.000000  -0.000016   0.000101  -0.001382  -0.055014   0.410642
     8  F   -0.000002  -0.000002   0.000004  -0.000205  -0.001229  -0.054816
     9  C   -0.000000   0.000000   0.000003  -0.000197   0.009699  -0.076473
    10  C    0.000000   0.000000  -0.000000   0.000035  -0.000759  -0.030019
    11  C   -0.000000   0.000000   0.000001  -0.000238   0.009459  -0.077974
    12  C   -0.000001   0.000003   0.000111  -0.003875  -0.056143   0.396345
    13  F   -0.000000   0.000001  -0.000002   0.000486   0.001157  -0.058413
    14  N   -0.000105   0.006221  -0.034052   0.420979  -0.108316  -0.003365
    15  C    0.000049   0.000139  -0.029935  -0.052034   0.012052  -0.001391
    16  S   -0.000001   0.000043   0.000109   0.005375  -0.000331   0.000092
    17  C    0.000000   0.000000   0.000010   0.000330   0.000109  -0.000469
    18  C   -0.000000   0.000000  -0.000023  -0.000142   0.000062   0.000257
    19  C    0.000000  -0.000000   0.000001   0.000001  -0.000003   0.000018
    20  N   -0.000205   0.006677  -0.092260  -0.031908  -0.000290   0.000003
    21  C   -0.003401  -0.052802   0.343149  -0.007388   0.003336  -0.000073
    22  O   -0.001987  -0.003581  -0.091852   0.003920  -0.000069   0.000000
    23  H    0.381517  -0.032453  -0.009193  -0.000459   0.000082   0.000001
    24  H    0.378177  -0.039120  -0.004115   0.002689  -0.000614  -0.000056
    25  H    0.369129  -0.030929   0.005148   0.000127  -0.000015  -0.000000
    26  H   -0.035853   0.360632  -0.031730   0.005759  -0.000159  -0.000010
    27  H   -0.039263   0.360991  -0.030354  -0.012668   0.005984   0.000362
    28  H   -0.000290  -0.000531  -0.003534  -0.028545   0.350901  -0.029073
    29  H    0.001844   0.001738  -0.006529  -0.026104   0.350568  -0.031325
    30  H    0.000000  -0.000000  -0.000000   0.000001  -0.000162   0.006891
    31  H   -0.000000   0.000000  -0.000000   0.000000   0.000006   0.000300
    32  H   -0.000000  -0.000000  -0.000000  -0.000001  -0.000162   0.006902
    33  H   -0.000000  -0.000001   0.000013  -0.000415  -0.000299   0.000521
    34  H    0.000000  -0.000001   0.000031   0.000345  -0.000205  -0.000116
    35  H   -0.000000  -0.000000   0.000000   0.000001  -0.000000  -0.000217
    36  H    0.000000  -0.000000   0.000000  -0.000003  -0.000001   0.000003
    37  H   -0.000000   0.000000  -0.000000   0.000000   0.000000  -0.000000
    38  H    0.000000   0.000000  -0.000000  -0.000000  -0.000000  -0.000000
    39  H    0.000000  -0.000000   0.000000  -0.000000  -0.000000  -0.000004
    40  H    0.000005  -0.000154   0.008129   0.000466   0.000050  -0.000000
               7          8          9         10         11         12
     1  C   -0.000000  -0.000002  -0.000000   0.000000  -0.000000  -0.000001
     2  C   -0.000016  -0.000002   0.000000   0.000000   0.000000   0.000003
     3  C    0.000101   0.000004   0.000003  -0.000000   0.000001   0.000111
     4  C   -0.001382  -0.000205  -0.000197   0.000035  -0.000238  -0.003875
     5  C   -0.055014  -0.001229   0.009699  -0.000759   0.009459  -0.056143
     6  C    0.410642  -0.054816  -0.076473  -0.030019  -0.077974   0.396345
     7  C    4.561567   0.307670   0.468808   0.002407  -0.053474   0.033477
     8  F    0.307670   9.078760  -0.048657   0.003193  -0.000022   0.002768
     9  C    0.468808  -0.048657   5.130208   0.483147  -0.029053  -0.052939
    10  C    0.002407   0.003193   0.483147   4.903028   0.480917   0.002266
    11  C   -0.053474  -0.000022  -0.029053   0.480917   5.141970   0.469110
    12  C    0.033477   0.002768  -0.052939   0.002266   0.469110   4.566291
    13  F    0.002697  -0.000001  -0.000029   0.003182  -0.049729   0.313961
    14  N   -0.000583  -0.000167   0.000244   0.000010  -0.000153  -0.001819
    15  C   -0.000255  -0.000001   0.000010   0.000007   0.000022  -0.000149
    16  S   -0.000001   0.000001  -0.000020  -0.000004   0.000061   0.000192
    17  C    0.000233   0.000002   0.000056  -0.000014  -0.000779  -0.001171
    18  C   -0.000461  -0.000212  -0.001009  -0.001527  -0.000289   0.000202
    19  C   -0.000004  -0.000000  -0.000004  -0.000113  -0.000060   0.000004
    20  N   -0.000006  -0.000000   0.000000   0.000000  -0.000000  -0.000006
    21  C    0.000000   0.000001   0.000000  -0.000000  -0.000000  -0.000000
    22  O    0.000000  -0.000000   0.000000  -0.000000   0.000000   0.000000
    23  H   -0.000000  -0.000000   0.000000   0.000000  -0.000000   0.000000
    24  H    0.000012  -0.000004   0.000000  -0.000000  -0.000000  -0.000002
    25  H    0.000000   0.000000   0.000000  -0.000000   0.000000  -0.000000
    26  H    0.000000  -0.000000   0.000000  -0.000000   0.000000   0.000000
    27  H   -0.000006   0.000000  -0.000000   0.000000  -0.000000  -0.000012
    28  H    0.003747   0.000204  -0.000126  -0.000024   0.000320  -0.003919
    29  H   -0.003868   0.008723   0.000413  -0.000037  -0.000117   0.004062
    30  H   -0.032407  -0.000515   0.346804  -0.042012   0.004909   0.000408
    31  H    0.003762  -0.000026  -0.038429   0.364122  -0.038667   0.003735
    32  H    0.000419   0.000001   0.004878  -0.041896   0.346977  -0.032877
    33  H   -0.000451   0.000000  -0.000084   0.000270   0.003949   0.002641
    34  H    0.001302   0.000736   0.000194  -0.000259   0.000005  -0.000119
    35  H   -0.000349   0.000003   0.002645   0.002897   0.000251  -0.000128
    36  H    0.000045  -0.000001   0.000145   0.000031  -0.000004  -0.000006
    37  H   -0.000000   0.000000   0.000000   0.000000   0.000000  -0.000000
    38  H    0.000000  -0.000000  -0.000000   0.000001  -0.000007  -0.000001
    39  H   -0.000004   0.000000  -0.000011   0.000214   0.000266   0.000009
    40  H   -0.000000  -0.000000  -0.000000  -0.000000  -0.000000  -0.000000
              13         14         15         16         17         18
     1  C   -0.000000  -0.000105   0.000049  -0.000001   0.000000  -0.000000
     2  C    0.000001   0.006221   0.000139   0.000043   0.000000   0.000000
     3  C   -0.000002  -0.034052  -0.029935   0.000109   0.000010  -0.000023
     4  C    0.000486   0.420979  -0.052034   0.005375   0.000330  -0.000142
     5  C    0.001157  -0.108316   0.012052  -0.000331   0.000109   0.000062
     6  C   -0.058413  -0.003365  -0.001391   0.000092  -0.000469   0.000257
     7  C    0.002697  -0.000583  -0.000255  -0.000001   0.000233  -0.000461
     8  F   -0.000001  -0.000167  -0.000001   0.000001   0.000002  -0.000212
     9  C   -0.000029   0.000244   0.000010  -0.000020   0.000056  -0.001009
    10  C    0.003182   0.000010   0.000007  -0.000004  -0.000014  -0.001527
    11  C   -0.049729  -0.000153   0.000022   0.000061  -0.000779  -0.000289
    12  C    0.313961  -0.001819  -0.000149   0.000192  -0.001171   0.000202
    13  F    9.074443  -0.000475   0.000027   0.000008  -0.000025   0.000001
    14  N   -0.000475   6.904952   0.475186  -0.080737  -0.020885  -0.003900
    15  C    0.000027   0.475186   4.746097   0.292873  -0.002310  -0.003052
    16  S    0.000008  -0.080737   0.292873  15.613394   0.258346  -0.060002
    17  C   -0.000025  -0.020885  -0.002310   0.258346   5.126334   0.366382
    18  C    0.000001  -0.003900  -0.003052  -0.060002   0.366382   5.127219
    19  C   -0.000000   0.000970   0.000898  -0.043789   0.354483  -0.056297
    20  N   -0.000000  -0.041564   0.276380  -0.068964   0.001428  -0.000045
    21  C    0.000001  -0.033136  -0.021210   0.000590  -0.000059   0.000006
    22  O   -0.000000   0.000186   0.003662  -0.000249   0.000000  -0.000000
    23  H    0.000000   0.000003  -0.000012   0.000001  -0.000000  -0.000000
    24  H   -0.000000  -0.000088  -0.000004  -0.000000  -0.000000  -0.000000
    25  H   -0.000000   0.000002  -0.000001   0.000000  -0.000000   0.000000
    26  H    0.000000  -0.000116  -0.000025   0.000000  -0.000000  -0.000000
    27  H   -0.000005  -0.000041  -0.000020   0.000000  -0.000000   0.000000
    28  H    0.006710   0.000895  -0.000235   0.000010  -0.000001  -0.000001
    29  H    0.000200   0.001724  -0.000191   0.000011  -0.000000   0.000001
    30  H    0.000001  -0.000001  -0.000000   0.000000   0.000002   0.000016
    31  H   -0.000026  -0.000001   0.000000   0.000000  -0.000009  -0.000018
    32  H   -0.000471   0.000005  -0.000000  -0.000000  -0.000012  -0.000001
    33  H   -0.000063   0.020920  -0.006336  -0.048458   0.361430  -0.038598
    34  H   -0.000000   0.009981   0.000237  -0.006683  -0.032340   0.375257
[...]
     8  F   -0.000000  -0.000005   0.000000  -0.000000  -0.000000   0.000000
     9  C    0.000007   0.000009  -0.000001   0.000000  -0.000000  -0.000002
    10  C    0.002866  -0.000011   0.000001  -0.000001   0.000003  -0.000057
    11  C   -0.046656  -0.000048  -0.000010  -0.000001  -0.000002  -0.000002
    12  C    0.293165   0.005975  -0.000092  -0.000040  -0.000015  -0.000015
    13  F    9.083163   0.001329   0.000176   0.000027  -0.001803   0.000111
    14  N    0.001329   6.933559   0.473282  -0.072404  -0.014772  -0.001756
    15  C    0.000176   0.473282   4.760273   0.284986  -0.002570  -0.002376
    16  S    0.000027  -0.072404   0.284986  15.602562   0.257085  -0.056694
    17  C   -0.001803  -0.014772  -0.002570   0.257085   5.127839   0.361249
    18  C    0.000111  -0.001756  -0.002376  -0.056694   0.361249   5.117079
    19  C    0.000008   0.000620   0.000961  -0.044208   0.351796  -0.053774
    20  N   -0.000000  -0.043476   0.269340  -0.064410   0.001289  -0.000033
    21  C    0.000000  -0.028925  -0.019369   0.000746  -0.000045   0.000003
    22  O   -0.000000   0.000149   0.003452  -0.000226   0.000000  -0.000000
    23  H    0.000000   0.000003  -0.000009   0.000000  -0.000000  -0.000000
    24  H    0.000000  -0.000040  -0.000004   0.000000  -0.000000   0.000000
    25  H    0.000000   0.000001  -0.000000   0.000000  -0.000000   0.000000
    26  H   -0.000000  -0.000106  -0.000012   0.000000  -0.000000   0.000000
    27  H   -0.000000  -0.000007  -0.000014   0.000000  -0.000000   0.000000
    28  H    0.007148  -0.002138  -0.000014  -0.000007  -0.000005  -0.000001
    29  H    0.000225   0.004387  -0.000155   0.000005   0.000000  -0.000000
    30  H    0.000001   0.000000  -0.000000  -0.000000   0.000000   0.000000
    31  H   -0.000025  -0.000000   0.000000  -0.000000  -0.000000  -0.000001
    32  H   -0.000212   0.000002  -0.000000   0.000000  -0.000006   0.000004
    33  H    0.008305   0.018270  -0.005314  -0.045786   0.355965  -0.038611
    34  H   -0.000129   0.007107   0.000813  -0.006151  -0.030259   0.374858
    35  H    0.000012  -0.000074   0.000098   0.006114  -0.029067   0.362068
    36  H    0.000000   0.000079  -0.000159  -0.001509  -0.039188   0.375687
    37  H   -0.000000  -0.000009   0.000034  -0.003270  -0.034550  -0.003859
    38  H   -0.000001   0.000005  -0.000017   0.000755  -0.031413   0.004661
    39  H    0.000003   0.000004  -0.000039   0.004797  -0.031709  -0.002521
    40  H    0.000000   0.003881  -0.025549   0.002817  -0.000018   0.000005
              19         20         21         22         23         24
     1  C    0.000000  -0.000173  -0.003466  -0.003461   0.377722   0.367735
     2  C   -0.000000   0.006423  -0.052719  -0.000443  -0.031489  -0.036303
     3  C    0.000000  -0.087675   0.337054  -0.091472  -0.009461  -0.003244
     4  C    0.000002  -0.032041  -0.005399   0.003545  -0.000333   0.002089
     5  C   -0.000001  -0.000156   0.003121  -0.000062  -0.000010   0.000540
     6  C    0.000000  -0.000015  -0.000039   0.000000   0.000005  -0.000528
     7  C    0.000000  -0.000002  -0.000008   0.000000  -0.000003   0.000521
     8  F   -0.000000   0.000000  -0.000003  -0.000000   0.000020   0.012283
     9  C    0.000000   0.000000  -0.000000   0.000000   0.000000   0.000059
    10  C   -0.000000  -0.000000  -0.000000  -0.000000   0.000000  -0.000002
    11  C   -0.000001   0.000000  -0.000000   0.000000  -0.000000   0.000000
    12  C    0.000001   0.000002   0.000003   0.000000  -0.000000  -0.000005
    13  F    0.000008  -0.000000   0.000000  -0.000000   0.000000   0.000000
    14  N    0.000620  -0.043476  -0.028925   0.000149   0.000003  -0.000040
    15  C    0.000961   0.269340  -0.019369   0.003452  -0.000009  -0.000004
    16  S   -0.044208  -0.064410   0.000746  -0.000226   0.000000   0.000000
    17  C    0.351796   0.001289  -0.000045   0.000000  -0.000000  -0.000000
    18  C   -0.053774  -0.000033   0.000003  -0.000000  -0.000000   0.000000
    19  C    5.114605  -0.000027   0.000000  -0.000000   0.000000   0.000000
    20  N   -0.000027   7.231149   0.200730  -0.098125  -0.000021   0.000003
    21  C    0.000000   0.200730   4.396194   0.589856   0.004375  -0.000202
    22  O   -0.000000  -0.098125   0.589856   8.095941   0.005906   0.000030
    23  H    0.000000  -0.000021   0.004375   0.005906   0.541825  -0.028703
    24  H    0.000000   0.000003  -0.000202   0.000030  -0.028703   0.561780
    25  H   -0.000000   0.000002   0.000029  -0.000002  -0.028389  -0.028874
    26  H    0.000000   0.000302  -0.007147   0.010736  -0.004551   0.004841
    27  H    0.000000  -0.000090   0.005141   0.000423   0.005082  -0.004322
    28  H    0.000000   0.000013  -0.000090   0.000001  -0.000000   0.000016
    29  H    0.000000  -0.000012   0.000216  -0.000001  -0.000007   0.000052
    30  H   -0.000000  -0.000000   0.000000  -0.000000  -0.000000   0.000004
    31  H   -0.000000  -0.000000  -0.000000   0.000000   0.000000   0.000000
    32  H   -0.000001   0.000000   0.000000  -0.000000  -0.000000  -0.000000
    33  H   -0.032020   0.000373   0.000018   0.000000   0.000000   0.000000
    34  H    0.004728  -0.000073   0.000010   0.000000   0.000000  -0.000000
    35  H   -0.003733   0.000001  -0.000000   0.000000   0.000000   0.000000
    36  H   -0.003724   0.000004   0.000000   0.000000   0.000000   0.000000
    37  H    0.373653  -0.000000   0.000000  -0.000000   0.000000   0.000000
    38  H    0.374781  -0.000001   0.000000  -0.000000  -0.000000  -0.000000
    39  H    0.371218   0.000000  -0.000000   0.000000  -0.000000  -0.000000
    40  H   -0.000003   0.268642  -0.003752   0.010140  -0.000001  -0.000000
              25         26         27         28         29         30
     1  C    0.366948  -0.036398  -0.038693  -0.000035   0.000248  -0.000000
     2  C   -0.029345   0.363042   0.359432   0.000136   0.001817  -0.000000
     3  C    0.004500  -0.032013  -0.033692   0.000519  -0.004860   0.000000
     4  C    0.000070   0.003800  -0.007104  -0.025775  -0.029689   0.000001
     5  C   -0.000030   0.000108   0.000510   0.352684   0.351216  -0.000140
     6  C   -0.000002  -0.000019   0.000262  -0.036619  -0.032238   0.006380
     7  C   -0.000001   0.000002  -0.000034   0.004419  -0.005253  -0.031771
     8  F    0.000016  -0.000000  -0.000117   0.000179   0.007027  -0.000363
     9  C   -0.000000   0.000000  -0.000001  -0.000081   0.000241   0.347481
    10  C   -0.000000  -0.000000   0.000000  -0.000040  -0.000021  -0.039341
    11  C   -0.000000   0.000000  -0.000000   0.000511  -0.000141   0.004427
    12  C   -0.000000   0.000000  -0.000007  -0.004845   0.004104   0.000339
    13  F    0.000000  -0.000000  -0.000000   0.007148   0.000225   0.000001
    14  N    0.000001  -0.000106  -0.000007  -0.002138   0.004387   0.000000
    15  C   -0.000000  -0.000012  -0.000014  -0.000014  -0.000155  -0.000000
    16  S    0.000000   0.000000   0.000000  -0.000007   0.000005  -0.000000
    17  C   -0.000000  -0.000000  -0.000000  -0.000005   0.000000   0.000000
    18  C    0.000000   0.000000   0.000000  -0.000001  -0.000000   0.000000
    19  C   -0.000000   0.000000   0.000000   0.000000   0.000000  -0.000000
    20  N    0.000002   0.000302  -0.000090   0.000013  -0.000012  -0.000000
    21  C    0.000029  -0.007147   0.005141  -0.000090   0.000216   0.000000
    22  O   -0.000002   0.010736   0.000423   0.000001  -0.000001  -0.000000
    23  H   -0.028389  -0.004551   0.005082  -0.000000  -0.000007  -0.000000
    24  H   -0.028874   0.004841  -0.004322   0.000016   0.000052   0.000004
    25  H    0.578508  -0.002394  -0.002654   0.000001  -0.000008   0.000000
    26  H   -0.002394   0.564394  -0.033504   0.000026  -0.000072   0.000000
    27  H   -0.002654  -0.033504   0.606296   0.000263   0.004877   0.000000
    28  H    0.000001   0.000026   0.000263   0.549263  -0.027992   0.000002
    29  H   -0.000008  -0.000072   0.004877  -0.027992   0.554921  -0.000004
    30  H    0.000000   0.000000   0.000000   0.000002  -0.000004   0.567797
    31  H    0.000000  -0.000000  -0.000000   0.000000   0.000000  -0.005424
    32  H    0.000000   0.000000   0.000000  -0.000004   0.000002  -0.000132
    33  H    0.000000   0.000000   0.000000   0.000031   0.000000  -0.000000
    34  H   -0.000000  -0.000000  -0.000000   0.000004   0.000001   0.000000
    35  H    0.000000   0.000000   0.000000   0.000000  -0.000000  -0.000000
    36  H   -0.000000   0.000000  -0.000000   0.000000   0.000000  -0.000000
    37  H    0.000000   0.000000   0.000000   0.000000  -0.000000   0.000000
    38  H   -0.000000  -0.000000  -0.000000  -0.000000   0.000000  -0.000000
    39  H   -0.000000  -0.000000  -0.000000  -0.000000  -0.000000   0.000000
    40  H   -0.000000  -0.000022   0.000002  -0.000001  -0.000000  -0.000000
              31         32         33         34         35         36
     1  C   -0.000000   0.000000  -0.000000   0.000000  -0.000000  -0.000000
     2  C    0.000000  -0.000000  -0.000001  -0.000000  -0.000000  -0.000000
     3  C   -0.000000  -0.000000   0.000009   0.000014   0.000000   0.000000
     4  C   -0.000000  -0.000000  -0.000396   0.000106   0.000000  -0.000001
     5  C    0.000005  -0.000131   0.000131  -0.000175   0.000001  -0.000000
     6  C    0.000304   0.006362  -0.000304   0.000617   0.000007   0.000001
     7  C    0.003544   0.000308  -0.000011   0.000080  -0.000008  -0.000000
     8  F   -0.000025   0.000001   0.000000  -0.000000   0.000000   0.000000
     9  C   -0.037024   0.004494   0.000003   0.000041   0.000001  -0.000001
    10  C    0.362642  -0.039284  -0.000003   0.000029   0.000023   0.000002
    11  C   -0.037074   0.346753  -0.000091   0.000454   0.000880   0.000019
    12  C    0.003562  -0.032262   0.000153   0.000684   0.000069   0.000020
    13  F   -0.000025  -0.000212   0.008305  -0.000129   0.000012   0.000000
    14  N   -0.000000   0.000002   0.018270   0.007107  -0.000074   0.000079
    15  C    0.000000  -0.000000  -0.005314   0.000813   0.000098  -0.000159
    16  S   -0.000000   0.000000  -0.045786  -0.006151   0.006114  -0.001509
    17  C   -0.000000  -0.000006   0.355965  -0.030259  -0.029067  -0.039188
    18  C   -0.000001   0.000004  -0.038611   0.374858   0.362068   0.375687
    19  C   -0.000000  -0.000001  -0.032020   0.004728  -0.003733  -0.003724
    20  N   -0.000000   0.000000   0.000373  -0.000073   0.000001   0.000004
    21  C   -0.000000   0.000000   0.000018   0.000010  -0.000000   0.000000
    22  O    0.000000  -0.000000   0.000000   0.000000   0.000000   0.000000
    23  H    0.000000  -0.000000   0.000000   0.000000   0.000000   0.000000
    24  H    0.000000  -0.000000   0.000000  -0.000000   0.000000   0.000000
    25  H    0.000000   0.000000   0.000000  -0.000000   0.000000  -0.000000
    26  H   -0.000000   0.000000   0.000000  -0.000000   0.000000   0.000000
    27  H   -0.000000   0.000000   0.000000  -0.000000   0.000000  -0.000000
    28  H    0.000000  -0.000004   0.000031   0.000004   0.000000   0.000000
    29  H    0.000000   0.000002   0.000000   0.000001  -0.000000   0.000000
    30  H   -0.005424  -0.000132  -0.000000   0.000000  -0.000000  -0.000000
    31  H    0.568290  -0.005491   0.000000  -0.000000  -0.000002   0.000000
    32  H   -0.005491   0.572387   0.000029  -0.000012   0.000392  -0.000000
    33  H    0.000000   0.000029   0.529418  -0.003386  -0.002620   0.004832
    34  H   -0.000000  -0.000012  -0.003386   0.532077  -0.028748  -0.027179
    35  H   -0.000002   0.000392  -0.002620  -0.028748   0.573905  -0.030706
    36  H    0.000000  -0.000000   0.004832  -0.027179  -0.030706   0.565340
    37  H   -0.000000   0.000000   0.004426  -0.000075  -0.000194   0.004365
    38  H    0.000000  -0.000000  -0.002696  -0.000159  -0.000060  -0.000008
    39  H   -0.000000   0.000001  -0.003588   0.000009   0.003485  -0.000372
    40  H    0.000000   0.000000  -0.000002  -0.000011   0.000000   0.000000
              37         38         39         40
     1  C   -0.000000   0.000000   0.000000   0.000006
     2  C    0.000000   0.000000  -0.000000  -0.000158
     3  C   -0.000000   0.000000   0.000000   0.008215
     4  C    0.000000  -0.000000  -0.000000   0.000376
     5  C    0.000000  -0.000000   0.000000   0.000040
     6  C    0.000000  -0.000000  -0.000000   0.000000
     7  C    0.000000  -0.000000  -0.000000  -0.000000
     8  F   -0.000000   0.000000   0.000000   0.000000
     9  C   -0.000000  -0.000000   0.000000  -0.000000
    10  C    0.000000   0.000000  -0.000000   0.000000
    11  C    0.000000   0.000000  -0.000002  -0.000000
    12  C    0.000000  -0.000000   0.000000  -0.000000
    13  F   -0.000000  -0.000001   0.000003   0.000000
    14  N   -0.000009   0.000005   0.000004   0.003881
    15  C    0.000034  -0.000017  -0.000039  -0.025549
    16  S   -0.003270   0.000755   0.004797   0.002817
    17  C   -0.034550  -0.031413  -0.031709  -0.000018
    18  C   -0.003859   0.004661  -0.002521   0.000005
    19  C    0.373653   0.374781   0.371218  -0.000003
    20  N   -0.000000  -0.000001   0.000000   0.268642
    21  C    0.000000   0.000000  -0.000000  -0.003752
    22  O   -0.000000  -0.000000   0.000000   0.010140
    23  H    0.000000  -0.000000  -0.000000  -0.000001
    24  H    0.000000  -0.000000  -0.000000  -0.000000
    25  H    0.000000  -0.000000  -0.000000  -0.000000
    26  H    0.000000  -0.000000  -0.000000  -0.000022
    27  H    0.000000  -0.000000  -0.000000   0.000002
    28  H    0.000000  -0.000000  -0.000000  -0.000001
    29  H   -0.000000   0.000000  -0.000000  -0.000000
    30  H    0.000000  -0.000000   0.000000  -0.000000
    31  H   -0.000000   0.000000  -0.000000   0.000000
    32  H    0.000000  -0.000000   0.000001   0.000000
    33  H    0.004426  -0.002696  -0.003588  -0.000002
    34  H   -0.000075  -0.000159   0.000009  -0.000011
    35  H   -0.000194  -0.000060   0.003485   0.000000
    36  H    0.004365  -0.000008  -0.000372   0.000000
    37  H    0.561037  -0.029111  -0.030648   0.000001
    38  H   -0.029111   0.541914  -0.027014  -0.000000
    39  H   -0.030648  -0.027014   0.557932   0.000000
    40  H    0.000001  -0.000000   0.000000   0.382339
 Mulliken charges:
               1
     1  C   -0.453475
     2  C   -0.331169
     3  C    0.028490
     4  C    0.254622
     5  C   -0.406380
     6  C    0.017865
     7  C    0.336085
     8  F   -0.288798
     9  C   -0.191781
    10  C   -0.135419
    11  C   -0.196992
    12  C    0.350368
    13  F   -0.294022
    14  N   -0.518017
    15  C    0.330815
    16  S    0.130321
    17  C   -0.240112
    18  C   -0.435839
    19  C   -0.454884
    20  N   -0.651945
    21  C    0.583666
    22  O   -0.526388
    23  H    0.168039
    24  H    0.152274
    25  H    0.141626
    26  H    0.168987
    27  H    0.137950
    28  H    0.182429
    29  H    0.171117
    30  H    0.150743
    31  H    0.146719
    32  H    0.146801
    33  H    0.212862
    34  H    0.174727
    35  H    0.148153
    36  H    0.152497
    37  H    0.158202
    38  H    0.168362
    39  H    0.158443
    40  H    0.353054
 Sum of Mulliken charges =  -0.00000
 Mulliken charges with hydrogens summed into heavy atoms:
               1
     1  C    0.008464
     2  C   -0.024232
     3  C    0.028490
     4  C    0.254622
     5  C   -0.052834
     6  C    0.017865
     7  C    0.336085
     8  F   -0.288798
     9  C   -0.041038
    10  C    0.011300
    11  C   -0.050191
    12  C    0.350368
    13  F   -0.294022
    14  N   -0.518017
    15  C    0.330815
    16  S    0.130321
    17  C   -0.027249
    18  C    0.039538
    19  C    0.030123
    20  N   -0.298891
    21  C    0.583666
    22  O   -0.526388
 Electronic spatial extent (au):  <R**2>=           7300.5133
 Charge=             -0.0000 electrons
 Dipole moment (field-independent basis, Debye):
    X=              3.7916    Y=             -2.6446    Z=             -0.1006  Tot=              4.6239
 Quadrupole moment (field-independent basis, Debye-Ang):
   XX=           -134.3674   YY=           -133.1660   ZZ=           -133.3627
   XY=              6.7524   XZ=             -5.1480   YZ=              3.3007
 Traceless Quadrupole moment (field-independent basis, Debye-Ang):
   XX=             -0.7354   YY=              0.4660   ZZ=              0.2693
   XY=              6.7524   XZ=             -5.1480   YZ=              3.3007
 Octapole moment (field-independent basis, Debye-Ang**2):
  XXX=             61.9681  YYY=            -51.1766  ZZZ=              4.5540  XYY=             48.0568
  XXY=            -43.7853  XXZ=             14.3777  XZZ=             -8.2397  YZZ=             -8.3952
  YYZ=            -19.2571  XYZ=             -0.1247
 Hexadecapole moment (field-independent basis, Debye-Ang**3):
 XXXX=          -4547.4405 YYYY=          -4178.2607 ZZZZ=           -664.7194 XXXY=            127.0473
 XXXZ=             -4.3577 YYYX=             33.0322 YYYZ=             77.1288 ZZZX=             39.2742
 ZZZY=              1.3819 XXYY=          -1596.8153 XXZZ=           -885.5743 YYZZ=           -789.2139
 XXYZ=             18.6349 YYXZ=            -19.5961 ZZXY=              6.4496
 N-N= 2.014312759339D+03 E-N=-7.319452420624D+03  KE= 1.392848602261D+03
 No NMR shielding tensors so no spin-rotation constants.
 Leave Link  601 at Fri Nov  4 19:47:10 2022, MaxMem=   805306368 cpu:               1.2 elap:               0.2
 (Enter /home/wykgroup/appl/g16/l9999.exe)
 1\1\GINC-NODE108\FOpt\RB3LYP\6-31G(d)\C16H18F2N2O1S1\WYKGROUP\04-Nov-2
 022\0\\#p b3lyp/6-31g(d) opt SCF=XQC\\Gaussian input prepared by ASE\\
 0,1\C,-2.5864355162,-3.0569645753,-1.9289143889\C,-1.3043420797,-2.551
 7161135,-2.6166012132\C,-0.2571565961,-2.0826313358,-1.6337244536\C,-0
 .0188196913,-0.785506203,-1.2482158104\C,-0.7697761717,0.4146061221,-1
 .8086470197\C,-1.3157681133,1.3356734022,-0.7397076954\C,-2.582064076,
 1.15380377,-0.1800828629\F,-3.3314656247,0.1186963096,-0.626882655\C,-
 3.1204562339,1.9817434495,0.7974426416\C,-2.3574221171,3.0587451662,1.
 2487846202\C,-1.086173659,3.2929498689,0.7237995925\C,-0.5987158308,2.
 4299224731,-0.2509752342\F,0.6289465856,2.6718216822,-0.762257888\N,0.
 9579225558,-0.4225227805,-0.3406148838\C,1.6897058895,-1.3568760601,0.
 1815094763\S,3.0123889405,-1.0120794967,1.3178611926\C,2.766518847,0.8
 040433862,1.6387403078\C,1.6699332547,1.0361410418,2.6780906629\C,4.12
 13542897,1.3776994991,2.0622002713\N,1.5187878776,-2.6749472172,-0.122
 0705757\C,0.5474202242,-3.1433019833,-1.0326653289\O,0.4520160681,-4.3
 46283983,-1.2474245193\H,-2.3537662863,-3.8900289079,-1.258633997\H,-3
 .0579748008,-2.2604301287,-1.3453450477\H,-3.307521673,-3.4123357912,-
 2.674027751\H,-0.8701499626,-3.3737402709,-3.1960454817\H,-1.551781012
 8,-1.7578682534,-3.32806645\H,-0.0665667874,0.9840957179,-2.4271444888
 \H,-1.5882531293,0.0889897777,-2.4503632822\H,-4.1134607865,1.77667462
 51,1.1817730496\H,-2.7567038647,3.7207276252,2.0111037318\H,-0.4743242
 842,4.1271327549,1.049321447\H,2.4552039988,1.2210785143,0.6780238156\
 H,0.7167590595,0.6199795727,2.342604237\H,1.5316672151,2.1143162264,2.
 8297943788\H,1.9329061662,0.5859570928,3.641678339\H,4.4864406993,0.91
 35742756,2.9861204459\H,4.8795446563,1.2417822873,1.2851471349\H,4.013
 6924946,2.4518861469,2.2524512167\H,2.0878904751,-3.3948056873,0.31196
 74658\\Version=ES64L-G16RevB.01\State=1-A\HF=-1403.170408\RMSD=3.907e-
 09\RMSF=7.513e-06\Dipole=0.1017916,1.6259313,0.8095614\Quadrupole=3.84
 86355,-7.3228224,3.4741869,-1.8840115,1.3781712,0.6335946\PG=C01 [X(C1
 6H18F2N2O1S1)]\\@


 EDUCATION DOESN'T COST 
           ... IT PAYS!

 -- POSTMARK, UNIV. OF MISSISSIPPI, DEC 78
 Job cpu time:       0 days  3 hours 10 minutes 10.9 seconds.
 Elapsed time:       0 days  0 hours 27 minutes 17.8 seconds.
 File lengths (MBytes):  RWF=     91 Int=      0 D2E=      0 Chk=     12 Scr=      1
 Normal termination of Gaussian 16 at Fri Nov  4 19:47:10 2022.
