 Entering Gaussian System, Link 0=/home/wykgroup/appl/g16/g16
 Input=./calculation/no_transfer_pubchem_sampling_2_b3lyp/135503718.com
 Output=./calculation/no_transfer_pubchem_sampling_2_b3lyp/135503718.log
 Initial command:
 /home/wykgroup/appl/g16/l1.exe "/userdata/scratch/wykgroup/khs/./calculation/no_transfer_pubchem_sampling_2_b3lyp/135503718/Gau-23362.inp" -scrdir="/userdata/scratch/wykgroup/khs/./calculation/no_transfer_pubchem_sampling_2_b3lyp/135503718/"
 Entering Link 1 = /home/wykgroup/appl/g16/l1.exe PID=     23363.
  
 Copyright (c) 1988-2017, Gaussian, Inc.  All Rights Reserved.
  
 This is part of the Gaussian(R) 16 program.  It is based on
 the Gaussian(R) 09 system (copyright 2009, Gaussian, Inc.),
 the Gaussian(R) 03 system (copyright 2003, Gaussian, Inc.),
 the Gaussian(R) 98 system (copyright 1998, Gaussian, Inc.),
 the Gaussian(R) 94 system (copyright 1995, Gaussian, Inc.),
 the Gaussian 92(TM) system (copyright 1992, Gaussian, Inc.),
 the Gaussian 90(TM) system (copyright 1990, Gaussian, Inc.),
 the Gaussian 88(TM) system (copyright 1988, Gaussian, Inc.),
 the Gaussian 86(TM) system (copyright 1986, Carnegie Mellon
 University), and the Gaussian 82(TM) system (copyright 1983,
 Carnegie Mellon University). Gaussian is a federally registered
 trademark of Gaussian, Inc.
  
 This software contains proprietary and confidential information,
 including trade secrets, belonging to Gaussian, Inc.
  
 This software is provided under written license and may be
 used, copied, transmitted, or stored only in accord with that
 written license.
  
 The following legend is applicable only to US Government
 contracts under FAR:
  
                    RESTRICTED RIGHTS LEGEND
  
 Use, reproduction and disclosure by the US Government is
 subject to restrictions as set forth in subparagraphs (a)
 and (c) of the Commercial Computer Software - Restricted
 Rights clause in FAR 52.227-19.
  
 Gaussian, Inc.
 340 Quinnipiac St., Bldg. 40, Wallingford CT 06492
  
  
 ---------------------------------------------------------------
 Warning -- This program may not be used in any manner that
 competes with the business of Gaussian, Inc. or will provide
 assistance to any competitor of Gaussian, Inc.  The licensee
 of this program is prohibited from giving any competitor of
 Gaussian, Inc. access to this program.  By using this program,
 the user acknowledges that Gaussian, Inc. is engaged in the
 business of creating and licensing software in the field of
 computational chemistry and represents and warrants to the
 licensee that it is not a competitor of Gaussian, Inc. and that
 it will not use this program in any manner prohibited above.
 ---------------------------------------------------------------
  

 Cite this work as:
 Gaussian 16, Revision B.01,
 M. J. Frisch, G. W. Trucks, H. B. Schlegel, G. E. Scuseria, 
 M. A. Robb, J. R. Cheeseman, G. Scalmani, V. Barone, 
 G. A. Petersson, H. Nakatsuji, X. Li, M. Caricato, A. V. Marenich, 
 J. Bloino, B. G. Janesko, R. Gomperts, B. Mennucci, H. P. Hratchian, 
 J. V. Ortiz, A. F. Izmaylov, J. L. Sonnenberg, D. Williams-Young, 
 F. Ding, F. Lipparini, F. Egidi, J. Goings, B. Peng, A. Petrone, 
 T. Henderson, D. Ranasinghe, V. G. Zakrzewski, J. Gao, N. Rega, 
 G. Zheng, W. Liang, M. Hada, M. Ehara, K. Toyota, R. Fukuda, 
 J. Hasegawa, M. Ishida, T. Nakajima, Y. Honda, O. Kitao, H. Nakai, 
 T. Vreven, K. Throssell, J. A. Montgomery, Jr., J. E. Peralta, 
 F. Ogliaro, M. J. Bearpark, J. J. Heyd, E. N. Brothers, K. N. Kudin, 
 V. N. Staroverov, T. A. Keith, R. Kobayashi, J. Normand, 
 K. Raghavachari, A. P. Rendell, J. C. Burant, S. S. Iyengar, 
 J. Tomasi, M. Cossi, J. M. Millam, M. Klene, C. Adamo, R. Cammi, 
 J. W. Ochterski, R. L. Martin, K. Morokuma, O. Farkas, 
 J. B. Foresman, and D. J. Fox, Gaussian, Inc., Wallingford CT, 2016.
 
 ******************************************
 Gaussian 16:  ES64L-G16RevB.01 20-Dec-2017
                 4-Nov-2022 
 ******************************************
 %chk=./calculation/no_transfer_pubchem_sampling_2_b3lyp/135503718.chk
 %nprocshared=7
 Will use up to    7 processors via shared memory.
 %mem=6GB
 -----------------------------
 #p b3lyp/6-31g(d) opt SCF=XQC
 -----------------------------
 1/18=20,19=15,26=3,38=1/1,3;
 2/9=110,12=2,17=6,18=5,40=1/2;
 3/5=1,6=6,7=1,11=2,25=1,30=1,71=1,74=-5/1,2,3;
 4//1;
 5/5=2,8=3,13=1,38=5/2,8;
 6/7=2,8=2,9=2,10=2,28=1/1;
 7//1,2,3,16;
 1/18=20,19=15,26=3/3(2);
 2/9=110/2;
 99//99;
 2/9=110/2;
 3/5=1,6=6,7=1,11=2,25=1,30=1,71=1,74=-5/1,2,3;
 4/5=5,16=3,69=1/1;
 5/5=2,8=3,13=1,38=5/2,8;
 7//1,2,3,16;
 1/18=20,19=15,26=3/3(-5);
 2/9=110/2;
 6/7=2,8=2,9=2,10=2,19=2,28=1/1;
 99/9=1/99;
 Leave Link    1 at Fri Nov  4 19:08:48 2022, MaxMem=   805306368 cpu:               1.0 elap:               0.2
 (Enter /home/wykgroup/appl/g16/l101.exe)
 ------------------------------
 Gaussian input prepared by ASE
 ------------------------------
 Symbolic Z-matrix:
 Charge =  0 Multiplicity = 1
 C                    -0.89773   0.81079   3.38674 
 C                    -0.70455   1.55016   2.04864 
 C                     0.54701   2.42173   2.23384 
 C                    -1.85632   2.53086   1.75686 
 C                    -0.53994   0.55006   0.89761 
 C                     0.63774   0.51498   0.1703 
 C                     0.81511  -0.3797   -0.87784 
 C                     2.05922  -0.38677  -1.61551 
 N                     2.28663  -1.21024  -2.61836 
 S                     3.7689   -0.97479  -3.24033 
 C                     4.06878   0.28     -2.09144 
 S                     5.58932   1.20807  -2.00343 
 C                     5.29038   2.34604  -0.63677 
 O                     5.71718   1.93764  -3.23216 
 O                     6.63324   0.28679  -1.65713 
 N                     3.06857   0.47324  -1.30016 
 C                    -0.20608  -1.26415  -1.21236 
 C                    -1.40012  -1.27251  -0.51952 
 C                    -2.51712  -2.24366  -0.88778 
 C                    -2.13382  -3.14578  -2.06565 
 C                    -2.82522  -3.15248   0.31029 
 C                    -3.77004  -1.45647  -1.29614 
 C                    -1.55773  -0.3555    0.54124 
 O                    -2.74182  -0.38487   1.20741 
 H                    -1.78113   0.17945   3.43762 
 H                    -0.96614   1.53408   4.19748 
 H                    -0.03472   0.17395   3.57122 
 H                     0.37638   3.11662   3.05389 
 H                     0.759     3.00573   1.34216 
 H                     1.41583   1.81834   2.4834 
 H                    -2.82048   2.06179   1.57901 
 H                    -1.61441   3.11163   0.86883 
 H                    -1.97264   3.21933   2.59202 
 H                     1.45559   1.1768    0.39019 
 H                     4.43501   2.95412  -0.89746 
 H                     5.10016   1.75353   0.24761 
 H                     6.17893   2.95306  -0.51652 
 H                    -0.02264  -1.93705  -2.03041 
 H                    -1.93009  -2.56289  -2.96044 
 H                    -2.96374  -3.81474  -2.28407 
 H                    -1.26561  -3.75626  -1.8302 
 H                    -3.19111  -2.57794   1.1541 
 H                    -3.58547  -3.88031   0.03605 
 H                    -1.92765  -3.68737   0.61399 
 H                    -4.14565  -0.86192  -0.47066 
 H                    -4.55324  -2.14397  -1.60735 
 H                    -3.54031  -0.79406  -2.12826 
 H                    -2.73744   0.27464   1.90946 
 
 ITRead=  0  0  0  0  0  0  0  0  0  0  0  0  0  0  0  0  0  0  0  0
 ITRead=  0  0  0  0  0  0  0  0  0  0  0  0  0  0  0  0  0  0  0  0
 ITRead=  0  0  0  0  0  0  0  0
 MicOpt= -1 -1 -1 -1 -1 -1 -1 -1 -1 -1 -1 -1 -1 -1 -1 -1 -1 -1 -1 -1
 MicOpt= -1 -1 -1 -1 -1 -1 -1 -1 -1 -1 -1 -1 -1 -1 -1 -1 -1 -1 -1 -1
 MicOpt= -1 -1 -1 -1 -1 -1 -1 -1
 NAtoms=     48 NQM=       48 NQMF=       0 NMMI=      0 NMMIF=      0
                NMic=       0 NMicF=      0.
                    Isotopes and Nuclear Properties:
 (Nuclear quadrupole moments (NQMom) in fm**2, nuclear magnetic moments (NMagM)
  in nuclear magnetons)

  Atom         1           2           3           4           5           6           7           8           9          10
 IAtWgt=          12          12          12          12          12          12          12          12          14          32
 AtmWgt=  12.0000000  12.0000000  12.0000000  12.0000000  12.0000000  12.0000000  12.0000000  12.0000000  14.0030740  31.9720718
 NucSpn=           0           0           0           0           0           0           0           0           2           0
 AtZEff=  -0.0000000  -0.0000000  -0.0000000  -0.0000000  -0.0000000  -0.0000000  -0.0000000  -0.0000000  -0.0000000  -0.0000000
 NQMom=    0.0000000   0.0000000   0.0000000   0.0000000   0.0000000   0.0000000   0.0000000   0.0000000   2.0440000   0.0000000
 NMagM=    0.0000000   0.0000000   0.0000000   0.0000000   0.0000000   0.0000000   0.0000000   0.0000000   0.4037610   0.0000000
 AtZNuc=   6.0000000   6.0000000   6.0000000   6.0000000   6.0000000   6.0000000   6.0000000   6.0000000   7.0000000  16.0000000

  Atom        11          12          13          14          15          16          17          18          19          20
 IAtWgt=          12          32          12          16          16          14          12          12          12          12
 AtmWgt=  12.0000000  31.9720718  12.0000000  15.9949146  15.9949146  14.0030740  12.0000000  12.0000000  12.0000000  12.0000000
 NucSpn=           0           0           0           0           0           2           0           0           0           0
 AtZEff=  -0.0000000  -0.0000000  -0.0000000  -0.0000000  -0.0000000  -0.0000000  -0.0000000  -0.0000000  -0.0000000  -0.0000000
 NQMom=    0.0000000   0.0000000   0.0000000   0.0000000   0.0000000   2.0440000   0.0000000   0.0000000   0.0000000   0.0000000
 NMagM=    0.0000000   0.0000000   0.0000000   0.0000000   0.0000000   0.4037610   0.0000000   0.0000000   0.0000000   0.0000000
 AtZNuc=   6.0000000  16.0000000   6.0000000   8.0000000   8.0000000   7.0000000   6.0000000   6.0000000   6.0000000   6.0000000

  Atom        21          22          23          24          25          26          27          28          29          30
 IAtWgt=          12          12          12          16           1           1           1           1           1           1
 AtmWgt=  12.0000000  12.0000000  12.0000000  15.9949146   1.0078250   1.0078250   1.0078250   1.0078250   1.0078250   1.0078250
 NucSpn=           0           0           0           0           1           1           1           1           1           1
 AtZEff=  -0.0000000  -0.0000000  -0.0000000  -0.0000000  -0.0000000  -0.0000000  -0.0000000  -0.0000000  -0.0000000  -0.0000000
 NQMom=    0.0000000   0.0000000   0.0000000   0.0000000   0.0000000   0.0000000   0.0000000   0.0000000   0.0000000   0.0000000
 NMagM=    0.0000000   0.0000000   0.0000000   0.0000000   2.7928460   2.7928460   2.7928460   2.7928460   2.7928460   2.7928460
 AtZNuc=   6.0000000   6.0000000   6.0000000   8.0000000   1.0000000   1.0000000   1.0000000   1.0000000   1.0000000   1.0000000

  Atom        31          32          33          34          35          36          37          38          39          40
 IAtWgt=           1           1           1           1           1           1           1           1           1           1
 AtmWgt=   1.0078250   1.0078250   1.0078250   1.0078250   1.0078250   1.0078250   1.0078250   1.0078250   1.0078250   1.0078250
 NucSpn=           1           1           1           1           1           1           1           1           1           1
 AtZEff=  -0.0000000  -0.0000000  -0.0000000  -0.0000000  -0.0000000  -0.0000000  -0.0000000  -0.0000000  -0.0000000  -0.0000000
 NQMom=    0.0000000   0.0000000   0.0000000   0.0000000   0.0000000   0.0000000   0.0000000   0.0000000   0.0000000   0.0000000
 NMagM=    2.7928460   2.7928460   2.7928460   2.7928460   2.7928460   2.7928460   2.7928460   2.7928460   2.7928460   2.7928460
 AtZNuc=   1.0000000   1.0000000   1.0000000   1.0000000   1.0000000   1.0000000   1.0000000   1.0000000   1.0000000   1.0000000

  Atom        41          42          43          44          45          46          47          48
 IAtWgt=           1           1           1           1           1           1           1           1
 AtmWgt=   1.0078250   1.0078250   1.0078250   1.0078250   1.0078250   1.0078250   1.0078250   1.0078250
 NucSpn=           1           1           1           1           1           1           1           1
 AtZEff=  -0.0000000  -0.0000000  -0.0000000  -0.0000000  -0.0000000  -0.0000000  -0.0000000  -0.0000000
 NQMom=    0.0000000   0.0000000   0.0000000   0.0000000   0.0000000   0.0000000   0.0000000   0.0000000
 NMagM=    2.7928460   2.7928460   2.7928460   2.7928460   2.7928460   2.7928460   2.7928460   2.7928460
 AtZNuc=   1.0000000   1.0000000   1.0000000   1.0000000   1.0000000   1.0000000   1.0000000   1.0000000
 Leave Link  101 at Fri Nov  4 19:08:48 2022, MaxMem=   805306368 cpu:               1.4 elap:               0.2
 (Enter /home/wykgroup/appl/g16/l103.exe)

 GradGradGradGradGradGradGradGradGradGradGradGradGradGradGradGradGradGrad
 Berny optimization.
 Initialization pass.
                           ----------------------------
                           !    Initial Parameters    !
                           ! (Angstroms and Degrees)  !
 --------------------------                            --------------------------
 ! Name  Definition              Value          Derivative Info.                !
 --------------------------------------------------------------------------------
 ! R1    R(1,2)                  1.5409         estimate D2E/DX2                !
 ! R2    R(1,25)                 1.087          estimate D2E/DX2                !
 ! R3    R(1,26)                 1.0886         estimate D2E/DX2                !
 ! R4    R(1,27)                 1.0883         estimate D2E/DX2                !
 ! R5    R(2,3)                  1.5363         estimate D2E/DX2                !
 ! R6    R(2,4)                  1.5406         estimate D2E/DX2                !
 ! R7    R(2,5)                  1.5337         estimate D2E/DX2                !
 ! R8    R(3,28)                 1.0883         estimate D2E/DX2                !
 ! R9    R(3,29)                 1.0868         estimate D2E/DX2                !
 ! R10   R(3,30)                 1.0868         estimate D2E/DX2                !
 ! R11   R(4,31)                 1.0869         estimate D2E/DX2                !
 ! R12   R(4,32)                 1.0883         estimate D2E/DX2                !
 ! R13   R(4,33)                 1.0886         estimate D2E/DX2                !
 ! R14   R(5,6)                  1.3846         estimate D2E/DX2                !
 ! R15   R(5,23)                 1.4082         estimate D2E/DX2                !
 ! R16   R(6,7)                  1.3894         estimate D2E/DX2                !
 ! R17   R(6,34)                 1.0748         estimate D2E/DX2                !
 ! R18   R(7,8)                  1.4464         estimate D2E/DX2                !
 ! R19   R(7,17)                 1.3917         estimate D2E/DX2                !
 ! R20   R(8,9)                  1.3174         estimate D2E/DX2                !
 ! R21   R(8,16)                 1.363          estimate D2E/DX2                !
 ! R22   R(9,10)                 1.6246         estimate D2E/DX2                !
 ! R23   R(10,11)                1.7275         estimate D2E/DX2                !
 ! R24   R(11,12)                1.7836         estimate D2E/DX2                !
 ! R25   R(11,16)                1.2899         estimate D2E/DX2                !
 ! R26   R(12,13)                1.8034         estimate D2E/DX2                !
 ! R27   R(12,14)                1.4347         estimate D2E/DX2                !
 ! R28   R(12,15)                1.4347         estimate D2E/DX2                !
 ! R29   R(13,35)                1.0814         estimate D2E/DX2                !
 ! R30   R(13,36)                1.0814         estimate D2E/DX2                !
 ! R31   R(13,37)                1.0828         estimate D2E/DX2                !
 ! R32   R(17,18)                1.3805         estimate D2E/DX2                !
 ! R33   R(17,38)                1.075          estimate D2E/DX2                !
 ! R34   R(18,19)                1.5253         estimate D2E/DX2                !
 ! R35   R(18,23)                1.411          estimate D2E/DX2                !
 ! R36   R(19,20)                1.5324         estimate D2E/DX2                !
 ! R37   R(19,21)                1.535          estimate D2E/DX2                !
 ! R38   R(19,22)                1.535          estimate D2E/DX2                !
 ! R39   R(20,39)                1.0872         estimate D2E/DX2                !
 ! R40   R(20,40)                1.0881         estimate D2E/DX2                !
 ! R41   R(20,41)                1.0872         estimate D2E/DX2                !
 ! R42   R(21,42)                1.0844         estimate D2E/DX2                !
 ! R43   R(21,43)                1.0876         estimate D2E/DX2                !
 ! R44   R(21,44)                1.0881         estimate D2E/DX2                !
 ! R45   R(22,45)                1.0844         estimate D2E/DX2                !
 ! R46   R(22,46)                1.0876         estimate D2E/DX2                !
 ! R47   R(22,47)                1.0881         estimate D2E/DX2                !
 ! R48   R(23,24)                1.3589         estimate D2E/DX2                !
 ! R49   R(24,48)                0.9632         estimate D2E/DX2                !
 ! A1    A(2,1,25)             114.911          estimate D2E/DX2                !
 ! A2    A(2,1,26)             109.6205         estimate D2E/DX2                !
 ! A3    A(2,1,27)             109.1815         estimate D2E/DX2                !
 ! A4    A(25,1,26)            107.4553         estimate D2E/DX2                !
 ! A5    A(25,1,27)            107.257          estimate D2E/DX2                !
 ! A6    A(26,1,27)            108.2021         estimate D2E/DX2                !
 ! A7    A(1,2,3)              105.6433         estimate D2E/DX2                !
 ! A8    A(1,2,4)              112.0969         estimate D2E/DX2                !
 ! A9    A(1,2,5)              110.6267         estimate D2E/DX2                !
 ! A10   A(3,2,4)              105.7081         estimate D2E/DX2                !
 ! A11   A(3,2,5)              111.8991         estimate D2E/DX2                !
 ! A12   A(4,2,5)              110.6832         estimate D2E/DX2                !
 ! A13   A(2,3,28)             108.9853         estimate D2E/DX2                !
 ! A14   A(2,3,29)             111.3983         estimate D2E/DX2                !
 ! A15   A(2,3,30)             111.3431         estimate D2E/DX2                !
 ! A16   A(28,3,29)            107.8005         estimate D2E/DX2                !
 ! A17   A(28,3,30)            107.8661         estimate D2E/DX2                !
 ! A18   A(29,3,30)            109.3173         estimate D2E/DX2                !
 ! A19   A(2,4,31)             114.8005         estimate D2E/DX2                !
 ! A20   A(2,4,32)             109.1509         estimate D2E/DX2                !
 ! A21   A(2,4,33)             109.7046         estimate D2E/DX2                !
 ! A22   A(31,4,32)            107.0962         estimate D2E/DX2                !
 ! A23   A(31,4,33)            107.6807         estimate D2E/DX2                !
 ! A24   A(32,4,33)            108.1963         estimate D2E/DX2                !
 ! A25   A(2,5,6)              120.1345         estimate D2E/DX2                !
 ! A26   A(2,5,23)             122.1206         estimate D2E/DX2                !
 ! A27   A(6,5,23)             117.7448         estimate D2E/DX2                !
 ! A28   A(5,6,7)              121.409          estimate D2E/DX2                !
 ! A29   A(5,6,34)             121.6102         estimate D2E/DX2                !
 ! A30   A(7,6,34)             116.9808         estimate D2E/DX2                !
 ! A31   A(6,7,8)              119.8469         estimate D2E/DX2                !
 ! A32   A(6,7,17)             119.7926         estimate D2E/DX2                !
 ! A33   A(8,7,17)             120.3605         estimate D2E/DX2                !
 ! A34   A(7,8,9)              122.6685         estimate D2E/DX2                !
 ! A35   A(7,8,16)             121.0565         estimate D2E/DX2                !
 ! A36   A(9,8,16)             116.275          estimate D2E/DX2                !
 ! A37   A(8,9,10)             110.998          estimate D2E/DX2                !
 ! A38   A(9,10,11)             90.5181         estimate D2E/DX2                !
 ! A39   A(10,11,12)           123.97           estimate D2E/DX2                !
 ! A40   A(10,11,16)           112.4688         estimate D2E/DX2                !
 ! A41   A(12,11,16)           123.5612         estimate D2E/DX2                !
 ! A42   A(11,12,13)           102.9694         estimate D2E/DX2                !
 ! A43   A(11,12,14)           107.3565         estimate D2E/DX2                !
 ! A44   A(11,12,15)           107.3427         estimate D2E/DX2                !
 ! A45   A(13,12,14)           110.0555         estimate D2E/DX2                !
 ! A46   A(13,12,15)           110.0532         estimate D2E/DX2                !
 ! A47   A(14,12,15)           117.9306         estimate D2E/DX2                !
 ! A48   A(12,13,35)           107.6539         estimate D2E/DX2                !
 ! A49   A(12,13,36)           107.6497         estimate D2E/DX2                !
 ! A50   A(12,13,37)           107.571          estimate D2E/DX2                !
 ! A51   A(35,13,36)           111.4762         estimate D2E/DX2                !
 ! A52   A(35,13,37)           111.1386         estimate D2E/DX2                !
 ! A53   A(36,13,37)           111.143          estimate D2E/DX2                !
 ! A54   A(8,16,11)            109.74           estimate D2E/DX2                !
 ! A55   A(7,17,18)            121.1883         estimate D2E/DX2                !
 ! A56   A(7,17,38)            117.0962         estimate D2E/DX2                !
 ! A57   A(18,17,38)           121.7156         estimate D2E/DX2                !
 ! A58   A(17,18,19)           121.0708         estimate D2E/DX2                !
 ! A59   A(17,18,23)           118.0318         estimate D2E/DX2                !
 ! A60   A(19,18,23)           120.8974         estimate D2E/DX2                !
 ! A61   A(18,19,20)           112.1629         estimate D2E/DX2                !
 ! A62   A(18,19,21)           109.6037         estimate D2E/DX2                !
 ! A63   A(18,19,22)           109.6004         estimate D2E/DX2                !
 ! A64   A(20,19,21)           107.5536         estimate D2E/DX2                !
 ! A65   A(20,19,22)           107.5534         estimate D2E/DX2                !
 ! A66   A(21,19,22)           110.3303         estimate D2E/DX2                !
 ! A67   A(19,20,39)           111.3387         estimate D2E/DX2                !
 ! A68   A(19,20,40)           108.9929         estimate D2E/DX2                !
 ! A69   A(19,20,41)           111.3383         estimate D2E/DX2                !
 ! A70   A(39,20,40)           107.899          estimate D2E/DX2                !
 ! A71   A(39,20,41)           109.249          estimate D2E/DX2                !
 ! A72   A(40,20,41)           107.8998         estimate D2E/DX2                !
 ! A73   A(19,21,42)           111.1835         estimate D2E/DX2                !
 ! A74   A(19,21,43)           109.8584         estimate D2E/DX2                !
 ! A75   A(19,21,44)           110.079          estimate D2E/DX2                !
 ! A76   A(42,21,43)           108.355          estimate D2E/DX2                !
 ! A77   A(42,21,44)           108.7595         estimate D2E/DX2                !
 ! A78   A(43,21,44)           108.543          estimate D2E/DX2                !
 ! A79   A(19,22,45)           111.1845         estimate D2E/DX2                !
 ! A80   A(19,22,46)           109.86           estimate D2E/DX2                !
 ! A81   A(19,22,47)           110.0784         estimate D2E/DX2                !
 ! A82   A(45,22,46)           108.3585         estimate D2E/DX2                !
 ! A83   A(45,22,47)           108.7532         estimate D2E/DX2                !
 ! A84   A(46,22,47)           108.5436         estimate D2E/DX2                !
 ! A85   A(5,23,18)            121.8334         estimate D2E/DX2                !
 ! A86   A(5,23,24)            121.3069         estimate D2E/DX2                !
 ! A87   A(18,23,24)           116.8597         estimate D2E/DX2                !
 ! A88   A(23,24,48)           109.7871         estimate D2E/DX2                !
 ! D1    D(25,1,2,3)           177.1987         estimate D2E/DX2                !
 ! D2    D(25,1,2,4)            62.5456         estimate D2E/DX2                !
 ! D3    D(25,1,2,5)           -61.5192         estimate D2E/DX2                !
 ! D4    D(26,1,2,3)            56.0891         estimate D2E/DX2                !
 ! D5    D(26,1,2,4)           -58.5641         estimate D2E/DX2                !
 ! D6    D(26,1,2,5)           177.3711         estimate D2E/DX2                !
 ! D7    D(27,1,2,3)           -62.2789         estimate D2E/DX2                !
 ! D8    D(27,1,2,4)          -176.9321         estimate D2E/DX2                !
 ! D9    D(27,1,2,5)            59.0032         estimate D2E/DX2                !
 ! D10   D(1,2,3,28)           -59.9971         estimate D2E/DX2                !
 ! D11   D(1,2,3,29)          -178.816          estimate D2E/DX2                !
 ! D12   D(1,2,3,30)            58.8691         estimate D2E/DX2                !
 ! D13   D(4,2,3,28)            58.986          estimate D2E/DX2                !
 ! D14   D(4,2,3,29)           -59.8329         estimate D2E/DX2                !
 ! D15   D(4,2,3,30)           177.8522         estimate D2E/DX2                !
 ! D16   D(5,2,3,28)           179.5492         estimate D2E/DX2                !
 ! D17   D(5,2,3,29)            60.7304         estimate D2E/DX2                !
 ! D18   D(5,2,3,30)           -61.5846         estimate D2E/DX2                !
 ! D19   D(1,2,4,31)           -66.6038         estimate D2E/DX2                !
 ! D20   D(1,2,4,32)           173.1788         estimate D2E/DX2                !
 ! D21   D(1,2,4,33)            54.7866         estimate D2E/DX2                !
 ! D22   D(3,2,4,31)           178.7827         estimate D2E/DX2                !
 ! D23   D(3,2,4,32)            58.5652         estimate D2E/DX2                !
 ! D24   D(3,2,4,33)           -59.8269         estimate D2E/DX2                !
 ! D25   D(5,2,4,31)            57.4295         estimate D2E/DX2                !
 ! D26   D(5,2,4,32)           -62.7879         estimate D2E/DX2                !
 ! D27   D(5,2,4,33)           178.8199         estimate D2E/DX2                !
 ! D28   D(1,2,5,6)           -117.5007         estimate D2E/DX2                !
 ! D29   D(1,2,5,23)            62.4414         estimate D2E/DX2                !
 ! D30   D(3,2,5,6)              0.0047         estimate D2E/DX2                !
 ! D31   D(3,2,5,23)           179.9468         estimate D2E/DX2                !
 ! D32   D(4,2,5,6)            117.6278         estimate D2E/DX2                !
 ! D33   D(4,2,5,23)           -62.4301         estimate D2E/DX2                !
 ! D34   D(2,5,6,7)           -179.9752         estimate D2E/DX2                !
 ! D35   D(2,5,6,34)             0.0576         estimate D2E/DX2                !
 ! D36   D(23,5,6,7)             0.0802         estimate D2E/DX2                !
 ! D37   D(23,5,6,34)         -179.887          estimate D2E/DX2                !
 ! D38   D(2,5,23,18)          179.9563         estimate D2E/DX2                !
 ! D39   D(2,5,23,24)           -0.0363         estimate D2E/DX2                !
 ! D40   D(6,5,23,18)           -0.1002         estimate D2E/DX2                !
 ! D41   D(6,5,23,24)          179.9071         estimate D2E/DX2                !
 ! D42   D(5,6,7,8)            179.9713         estimate D2E/DX2                !
 ! D43   D(5,6,7,17)            -0.0095         estimate D2E/DX2                !
 ! D44   D(34,6,7,8)            -0.0601         estimate D2E/DX2                !
 ! D45   D(34,6,7,17)          179.9591         estimate D2E/DX2                !
 ! D46   D(6,7,8,9)           -179.9848         estimate D2E/DX2                !
 ! D47   D(6,7,8,16)             0.0096         estimate D2E/DX2                !
 ! D48   D(17,7,8,9)            -0.0041         estimate D2E/DX2                !
 ! D49   D(17,7,8,16)          179.9904         estimate D2E/DX2                !
 ! D50   D(6,7,17,18)           -0.0459         estimate D2E/DX2                !
 ! D51   D(6,7,17,38)          179.9859         estimate D2E/DX2                !
 ! D52   D(8,7,17,18)          179.9733         estimate D2E/DX2                !
 ! D53   D(8,7,17,38)            0.0051         estimate D2E/DX2                !
 ! D54   D(7,8,9,10)           179.9866         estimate D2E/DX2                !
 ! D55   D(16,8,9,10)           -0.0081         estimate D2E/DX2                !
 ! D56   D(7,8,16,11)         -179.9924         estimate D2E/DX2                !
 ! D57   D(9,8,16,11)            0.0024         estimate D2E/DX2                !
 ! D58   D(8,9,10,11)            0.0084         estimate D2E/DX2                !
 ! D59   D(9,10,11,12)         179.9737         estimate D2E/DX2                !
 ! D60   D(9,10,11,16)          -0.0075         estimate D2E/DX2                !
 ! D61   D(10,11,12,13)        179.7899         estimate D2E/DX2                !
 ! D62   D(10,11,12,14)         63.6428         estimate D2E/DX2                !
 ! D63   D(10,11,12,15)        -64.0713         estimate D2E/DX2                !
 ! D64   D(16,11,12,13)         -0.231          estimate D2E/DX2                !
 ! D65   D(16,11,12,14)       -116.3781         estimate D2E/DX2                !
 ! D66   D(16,11,12,15)        115.9078         estimate D2E/DX2                !
 ! D67   D(10,11,16,8)           0.0042         estimate D2E/DX2                !
 ! D68   D(12,11,16,8)        -179.9771         estimate D2E/DX2                !
 ! D69   D(11,12,13,35)        -60.1847         estimate D2E/DX2                !
 ! D70   D(11,12,13,36)         60.1101         estimate D2E/DX2                !
 ! D71   D(11,12,13,37)        179.9641         estimate D2E/DX2                !
 ! D72   D(14,12,13,35)         54.0179         estimate D2E/DX2                !
 ! D73   D(14,12,13,36)        174.3127         estimate D2E/DX2                !
 ! D74   D(14,12,13,37)        -65.8332         estimate D2E/DX2                !
 ! D75   D(15,12,13,35)       -174.3705         estimate D2E/DX2                !
 ! D76   D(15,12,13,36)        -54.0757         estimate D2E/DX2                !
 ! D77   D(15,12,13,37)         65.7783         estimate D2E/DX2                !
 ! D78   D(7,17,18,19)        -179.9561         estimate D2E/DX2                !
 ! D79   D(7,17,18,23)           0.0263         estimate D2E/DX2                !
 ! D80   D(38,17,18,19)          0.0107         estimate D2E/DX2                !
 ! D81   D(38,17,18,23)        179.9931         estimate D2E/DX2                !
 ! D82   D(17,18,19,20)         -0.0206         estimate D2E/DX2                !
 ! D83   D(17,18,19,21)        119.3708         estimate D2E/DX2                !
 ! D84   D(17,18,19,22)       -119.4096         estimate D2E/DX2                !
 ! D85   D(23,18,19,20)        179.9975         estimate D2E/DX2                !
 ! D86   D(23,18,19,21)        -60.6111         estimate D2E/DX2                !
 ! D87   D(23,18,19,22)         60.6085         estimate D2E/DX2                !
 ! D88   D(17,18,23,5)           0.048          estimate D2E/DX2                !
 ! D89   D(17,18,23,24)       -179.959          estimate D2E/DX2                !
 ! D90   D(19,18,23,5)        -179.9695         estimate D2E/DX2                !
 ! D91   D(19,18,23,24)          0.0234         estimate D2E/DX2                !
 ! D92   D(18,19,20,39)        -61.0793         estimate D2E/DX2                !
 ! D93   D(18,19,20,40)       -179.9882         estimate D2E/DX2                !
 ! D94   D(18,19,20,41)         61.1021         estimate D2E/DX2                !
 ! D95   D(21,19,20,39)        178.3352         estimate D2E/DX2                !
 ! D96   D(21,19,20,40)         59.4262         estimate D2E/DX2                !
 ! D97   D(21,19,20,41)        -59.4835         estimate D2E/DX2                !
 ! D98   D(22,19,20,39)         59.5021         estimate D2E/DX2                !
 ! D99   D(22,19,20,40)        -59.4068         estimate D2E/DX2                !
 ! D100  D(22,19,20,41)       -178.3165         estimate D2E/DX2                !
 ! D101  D(18,19,21,42)         62.9579         estimate D2E/DX2                !
 ! D102  D(18,19,21,43)       -177.1051         estimate D2E/DX2                !
 ! D103  D(18,19,21,44)        -57.6314         estimate D2E/DX2                !
 ! D104  D(20,19,21,42)       -174.8559         estimate D2E/DX2                !
 ! D105  D(20,19,21,43)        -54.9189         estimate D2E/DX2                !
 ! D106  D(20,19,21,44)         64.5548         estimate D2E/DX2                !
 ! D107  D(22,19,21,42)        -57.8203         estimate D2E/DX2                !
 ! D108  D(22,19,21,43)         62.1167         estimate D2E/DX2                !
 ! D109  D(22,19,21,44)       -178.4097         estimate D2E/DX2                !
 ! D110  D(18,19,22,45)        -62.8784         estimate D2E/DX2                !
 ! D111  D(18,19,22,46)        177.1785         estimate D2E/DX2                !
 ! D112  D(18,19,22,47)         57.7034         estimate D2E/DX2                !
 ! D113  D(20,19,22,45)        174.9374         estimate D2E/DX2                !
 ! D114  D(20,19,22,46)         54.9944         estimate D2E/DX2                !
 ! D115  D(20,19,22,47)        -64.4808         estimate D2E/DX2                !
 ! D116  D(21,19,22,45)         57.9018         estimate D2E/DX2                !
 ! D117  D(21,19,22,46)        -62.0412         estimate D2E/DX2                !
 ! D118  D(21,19,22,47)        178.4836         estimate D2E/DX2                !
 ! D119  D(5,23,24,48)          -0.3484         estimate D2E/DX2                !
 ! D120  D(18,23,24,48)        179.6586         estimate D2E/DX2                !
 --------------------------------------------------------------------------------
 Trust Radius=3.00D-01 FncErr=1.00D-07 GrdErr=1.00D-06 EigMax=2.50D+02 EigMin=1.00D-04
 Number of steps in this run=    267 maximum allowed number of steps=    288.
 GradGradGradGradGradGradGradGradGradGradGradGradGradGradGradGradGradGrad

 Leave Link  103 at Fri Nov  4 19:08:49 2022, MaxMem=   805306368 cpu:               0.3 elap:               0.1
 (Enter /home/wykgroup/appl/g16/l202.exe)
                          Input orientation:                          
 ---------------------------------------------------------------------
 Center     Atomic      Atomic             Coordinates (Angstroms)
 Number     Number       Type             X           Y           Z
 ---------------------------------------------------------------------
      1          6           0       -0.897731    0.810789    3.386739
      2          6           0       -0.704551    1.550162    2.048638
      3          6           0        0.547012    2.421730    2.233843
      4          6           0       -1.856325    2.530864    1.756857
      5          6           0       -0.539945    0.550060    0.897611
      6          6           0        0.637743    0.514980    0.170302
      7          6           0        0.815105   -0.379698   -0.877843
      8          6           0        2.059217   -0.386768   -1.615511
      9          7           0        2.286634   -1.210245   -2.618365
     10         16           0        3.768900   -0.974790   -3.240325
     11          6           0        4.068776    0.279996   -2.091438
     12         16           0        5.589317    1.208072   -2.003426
     13          6           0        5.290383    2.346036   -0.636767
     14          8           0        5.717176    1.937640   -3.232163
     15          8           0        6.633241    0.286790   -1.657126
     16          7           0        3.068573    0.473243   -1.300159
     17          6           0       -0.206078   -1.264146   -1.212364
     18          6           0       -1.400125   -1.272514   -0.519520
     19          6           0       -2.517124   -2.243664   -0.887782
     20          6           0       -2.133821   -3.145780   -2.065650
     21          6           0       -2.825220   -3.152480    0.310294
     22          6           0       -3.770042   -1.456468   -1.296137
     23          6           0       -1.557735   -0.355495    0.541244
     24          8           0       -2.741821   -0.384871    1.207415
     25          1           0       -1.781130    0.179449    3.437616
     26          1           0       -0.966139    1.534077    4.197484
     27          1           0       -0.034720    0.173954    3.571222
     28          1           0        0.376379    3.116617    3.053894
     29          1           0        0.759004    3.005733    1.342163
     30          1           0        1.415833    1.818339    2.483401
     31          1           0       -2.820483    2.061786    1.579005
     32          1           0       -1.614414    3.111626    0.868827
     33          1           0       -1.972641    3.219330    2.592019
     34          1           0        1.455592    1.176798    0.390194
     35          1           0        4.435010    2.954120   -0.897456
     36          1           0        5.100161    1.753534    0.247614
     37          1           0        6.178932    2.953061   -0.516525
     38          1           0       -0.022636   -1.937049   -2.030409
     39          1           0       -1.930094   -2.562887   -2.960438
     40          1           0       -2.963738   -3.814743   -2.284074
     41          1           0       -1.265610   -3.756261   -1.830197
     42          1           0       -3.191113   -2.577936    1.154096
     43          1           0       -3.585466   -3.880312    0.036048
     44          1           0       -1.927650   -3.687366    0.613987
     45          1           0       -4.145647   -0.861923   -0.470661
     46          1           0       -4.553239   -2.143970   -1.607349
     47          1           0       -3.540309   -0.794058   -2.128258
     48          1           0       -2.737444    0.274637    1.909458
 ---------------------------------------------------------------------
                    Distance matrix (angstroms):
                    1          2          3          4          5
     1  C    0.000000
     2  C    1.540943   0.000000
     3  C    2.451853   1.536340   0.000000
     4  C    2.556184   1.540616   2.452642   0.000000
     5  C    2.528190   1.533675   2.543646   2.528783   0.000000
     6  C    3.576401   2.530118   2.811072   3.577893   1.384614
     7  C    4.747392   3.820734   4.195529   4.748637   2.419267
     8  C    5.932975   4.981576   4.999195   5.934384   3.734846
     9  N    7.091264   6.192572   6.305667   7.092430   4.842552
    10  S    8.299621   7.372942   7.203015   8.300879   6.165536
    11  C    7.413390   6.445014   5.974772   7.415025   5.499787
    12  S    8.443548   7.493265   6.697182   8.445537   6.812991
    13  C    7.539121   6.616952   5.544881   7.539167   6.290673
    14  O    9.425320   8.323196   7.539374   9.088463   7.624433
    15  O    9.079135   8.316970   7.532582   9.421458   7.619093
    16  N    6.149189   5.158552   4.758576   6.150916   4.225813
    17  C    5.092689   4.336235   5.101878   5.093298   2.802643
    18  C    4.455492   3.879015   5.001978   4.455973   2.463727
    19  C    5.497603   5.128459   6.395261   5.497899   3.860280
    20  C    6.849153   6.404845   7.527926   6.849296   4.998059
    21  C    5.374684   5.443704   6.792923   5.944048   4.390471
    22  C    5.943059   5.442846   6.792505   5.374188   4.390013
    23  C    3.145261   2.575207   3.873994   3.146100   1.408164
    24  O    3.095113   2.932998   4.443758   3.096369   2.412122
    25  H    1.087001   2.228707   3.449223   2.891324   2.851231
    26  H    1.088638   2.164769   2.633143   2.782566   3.469739
    27  H    1.088293   2.158907   2.679457   3.487863   2.746798
    28  H    2.655370   2.152378   1.088332   2.647712   3.475114
    29  H    3.426783   2.181694   1.086781   2.690245   2.813400
    30  H    2.680253   2.181047   1.086835   3.426744   2.819278
    31  H    2.920594   2.226989   3.449404   1.086860   2.819657
    32  H    3.485307   2.158234   2.647827   1.088303   2.777936
    33  H    2.754647   2.165511   2.667041   1.088582   3.471114
    34  H    3.827712   2.748828   2.403001   3.830151   2.152311
    35  H    7.168426   6.088157   5.020458   6.841449   5.809643
    36  H    6.835026   6.081096   5.012260   7.160639   5.803588
    37  H    8.360858   7.478671   6.290100   8.361331   7.274441
    38  H    6.136929   5.409646   6.124320   6.137430   3.876419
    39  H    7.261826   6.596209   7.613344   6.942954   5.148544
    40  H    7.604080   7.256619   8.463482   7.604092   5.920253
    41  H    6.943320   6.596838   7.613776   7.262496   5.148974
    42  H    4.661303   4.901468   6.335305   5.314586   4.108386
    43  H    6.360619   6.468403   7.850058   6.859613   5.444786
    44  H    5.383519   5.566497   6.787410   6.322786   4.467880
    45  H    5.312857   4.899608   6.333859   4.659811   4.106940
    46  H    6.858152   6.467244   7.849390   6.359662   5.444186
    47  H    6.322494   5.566269   6.787886   5.383775   4.468190
    48  H    2.419579   2.403952   3.937370   2.426977   2.434891
                    6          7          8          9         10
     6  C    0.000000
     7  C    1.389430   0.000000
     8  C    2.454154   1.446381   0.000000
     9  N    3.670410   2.425823   1.317402   0.000000
    10  S    4.863737   3.828884   2.430803   1.624618   0.000000
    11  C    4.116148   3.534739   2.170117   2.382121   1.727529
    12  S    5.451931   5.155681   3.893019   4.139338   3.099795
    13  C    5.064700   5.245556   4.343569   5.059285   4.485679
    14  O    6.277052   5.911275   4.625700   4.696227   3.504012
    15  O    6.271966   5.907807   4.623538   4.696603   3.507499
    16  N    2.841291   2.446216   1.363035   2.276669   2.520218
    17  C    2.406053   1.391750   2.462495   2.862404   4.471778
    18  C    2.797123   2.415111   3.735344   4.242784   5.848952
    19  C    4.322365   3.818143   4.992048   5.209507   6.830709
    20  C    5.107075   4.214055   5.039478   4.857182   6.398060
    21  C    5.045987   4.727787   5.934275   6.203256   7.799465
    22  C    5.046347   4.728423   5.935194   6.204211   7.800483
    23  C    2.390700   2.764917   4.211284   5.049049   6.561770
    24  O    3.647847   4.123112   5.569460   6.372063   7.906951
    25  H    4.079077   5.067176   6.372045   7.426497   8.759566
    26  H    4.452997   5.709143   6.828860   8.035398   9.167115
    27  H    3.483498   4.563213   5.621493   6.753937   7.885703
    28  H    3.892547   5.279702   6.075277   7.385480   8.238082
    29  H    2.755324   4.048792   4.684811   5.982800   6.775192
    30  H    2.766694   4.060813   4.698672   5.996551   6.789664
    31  H    4.041828   5.021399   6.325490   7.376093   8.710149
    32  H    3.507523   4.598126   5.648563   6.786549   7.909741
    33  H    4.471277   5.724026   6.852965   8.056715   9.196313
    34  H    1.074817   2.107326   2.613801   3.929380   4.812628
    35  H    4.637753   4.921223   4.161914   4.991892   4.622670
    36  H    4.631756   4.917218   4.159262   4.991368   4.624038
    37  H    6.092679   6.325224   5.416112   6.074605   5.353070
    38  H    3.360310   2.110820   2.628617   2.491318   4.094580
    39  H    5.086117   4.079171   4.739085   4.441560   5.922746
    40  H    6.143381   5.296855   6.117848   5.870397   7.369407
    41  H    5.086084   4.078913   4.738570   4.440928   5.922105
    42  H    5.019374   5.001081   6.327551   6.790269   8.385868
    43  H    6.096894   5.696888   6.840684   6.975438   8.559403
    44  H    4.943462   4.548509   5.635576   5.860411   7.393542
    45  H    5.018717   5.000740   6.327464   6.790302   8.385931
    46  H    6.097242   5.697715   6.841959   6.976952   8.561050
    47  H    4.945005   4.550260   5.637685   5.862310   7.395532
    48  H    3.804512   4.562654   5.989226   6.924407   8.391296
                   11         12         13         14         15
    11  C    0.000000
    12  S    1.783568   0.000000
    13  C    2.806584   1.803352   0.000000
    14  O    2.601204   1.434717   2.661770   0.000000
    15  O    2.600990   1.434734   2.661746   2.458703   0.000000
    16  N    1.289912   2.718218   2.980585   3.590571   3.587345
    17  C    4.629419   6.350137   6.601198   7.029649   7.027055
    18  C    5.898313   7.563569   7.607270   8.265561   8.261994
    19  C    7.154839   8.881077   9.060106   9.528018   9.524928
    20  C    7.085818   8.866045   9.344547   9.425501   9.423948
    21  C    8.067056   9.755622   9.848535  10.556082  10.254843
    22  C    8.068140   9.756927   9.848102  10.260384  10.554504
    23  C    6.244396   7.745995   7.455381   8.510077   8.505142
    24  O    7.596625   9.069445   8.681887   9.831508   9.825910
    25  H    8.049966   9.218812   8.443992  10.188316   9.837152
    26  H    8.153136   9.029483   7.948165  10.001461   9.673818
    27  H    6.993971   7.985981   7.126137   9.081902   8.474081
    28  H    6.939355   7.509577   6.193723   8.332383   8.327661
    29  H    5.493073   6.144629   4.988463   6.829989   7.134076
    30  H    5.507609   6.158085   5.002605   7.154262   6.834541
    31  H    8.006798   9.180815   8.412882   9.800734  10.148697
    32  H    7.005708   7.985430   7.108387   8.482251   9.076560
    33  H    8.189821   9.074496   7.996201   9.731245  10.035747
    34  H    3.713688   4.776827   4.138525   5.644595   5.638411
    35  H    2.951383   2.367335   1.081382   2.850972   3.538922
    36  H    2.950632   2.367274   1.081376   3.538849   2.851264
    37  H    3.752117   2.367173   1.082800   2.935812   2.935365
    38  H    4.653888   6.433237   6.965288   7.028718   7.027482
    39  H    6.695042   8.466259   9.035057   8.877462   9.118661
    40  H    8.140040   9.922811  10.430692  10.456914  10.455507
    41  H    6.694422   8.465496   9.035671   9.118405   8.875137
    42  H    8.450281  10.069744   9.969376  10.908131  10.612612
    43  H    8.967819  10.687739  10.862817  11.448534  11.164835
    44  H    7.682214   9.344568   9.490328  10.240944   9.707766
    45  H    8.450304  10.069944   9.967811  10.617850  10.904662
    46  H    8.969342  10.689458  10.862738  11.170541  11.447637
    47  H    7.684603   9.347415   9.490303   9.715030  10.241646
    48  H    7.895051   9.247535   8.672944  10.034065  10.026485
                   16         17         18         19         20
    16  N    0.000000
    17  C    3.708041   0.000000
    18  C    4.860692   1.380525   0.000000
    19  C    6.225082   2.530956   1.525265   0.000000
    20  C    6.383432   2.825745   2.537312   1.532353   0.000000
    21  C    7.104663   3.569902   2.500752   1.535011   2.474508
    22  C    7.105664   3.570132   2.500696   1.535004   2.474500
    23  C    5.047801   2.393274   1.411022   2.554941   3.861795
    24  O    6.386311   3.613647   2.360162   2.809884   4.324955
    25  H    6.786195   5.117330   4.232291   5.012208   6.439524
    26  H    6.901330   6.137931   5.505944   6.522025   7.905149
    27  H    5.783628   4.998018   4.548711   5.647116   6.870312
    28  H    5.761346   6.142580   5.932093   7.255465   8.469265
    29  H    4.327757   5.068417   5.141119   6.577373   7.604126
    30  H    4.342368   5.078483   5.147867   6.582773   7.611596
    31  H    6.744927   5.068400   4.187933   4.971314   6.393259
    32  H    5.796200   5.046002   4.603706   5.707862   6.930806
    33  H    6.935696   6.139676   5.494189   6.499983   7.888883
    34  H    2.440080   3.359694   3.870637   5.395855   6.131862
    35  H    2.860782   6.279541   7.214990   8.680393   9.040078
    36  H    2.856938   6.276472   7.211045   8.676966   9.037973
    37  H    4.054370   7.683578   8.677419  10.137315  10.425809
    38  H    3.987273   1.075011   2.149853   2.760811   2.432976
    39  H    6.079579   2.777539   2.811407   2.177707   1.087159
    40  H    7.466169   3.906251   3.467198   2.148810   1.088109
    41  H    6.079044   2.777582   2.811577   2.177701   1.087159
    42  H    7.383544   4.029468   2.777185   2.176067   3.436143
    43  H    8.063196   4.452317   3.447460   2.161814   2.657809
    44  H    6.777674   3.488748   2.719307   2.164964   2.741583
    45  H    7.383475   4.028909   2.776484   2.176071   3.436195
    46  H    8.064501   4.452854   3.447453   2.161823   2.658429
    47  H    6.780053   3.489547   2.719806   2.164957   2.740935
    48  H    6.637087   4.303654   3.175222   3.770270   5.278740
                   21         22         23         24         25
    21  C    0.000000
    22  C    2.519875   0.000000
    23  C    3.079445   3.079352   0.000000
    24  O    2.910574   2.910898   1.358936   0.000000
    25  H    4.687432   5.388916   2.953818   2.493026   0.000000
    26  H    6.366337   6.854568   4.157951   3.971891   1.754031
    27  H    5.430074   6.348393   3.432296   3.637068   1.751522
    28  H    7.555075   7.551734   4.702103   5.039154   3.664566
    29  H    7.199653   6.883612   4.160121   4.875462   4.339480
    30  H    6.886071   7.204344   4.164089   4.875281   3.717131
    31  H    5.366398   4.641790   2.918001   2.475964   2.842161
    32  H    6.404454   5.495569   3.483023   3.689333   3.901811
    33  H    6.821519   6.341253   4.142125   3.936881   3.161105
    34  H    6.088875   6.089750   3.383915   4.552465   4.556079
    35  H    9.563482   9.323900   6.995456   8.190620   8.070443
    36  H    9.321189   9.558649   6.990121   8.184783   7.746355
    37  H   10.910363  10.910262   8.480650   9.679545   9.310786
    38  H    3.848460   3.848788   3.386922   4.504079   6.121370
    39  H    3.441884   2.716518   4.156080   4.772175   6.962592
    40  H    2.681142   2.680971   4.682484   4.899363   7.077419
    41  H    2.716365   3.441867   4.156233   4.772060   6.595865
    42  H    1.084426   2.756174   2.825377   2.239250   3.847816
    43  H    1.087623   2.771968   4.097713   3.781791   5.595351
    44  H    1.088102   3.466972   3.353132   3.452753   4.790262
    45  H    2.756822   1.084423   2.824484   2.239251   4.685085
    46  H    2.771371   1.087617   4.097333   3.781344   6.207619
    47  H    3.466993   1.088112   3.353979   3.454233   5.917886
    48  H    3.782878   3.786664   1.913319   0.963242   1.805232
                   26         27         28         29         30
    26  H    0.000000
    27  H    1.763428   0.000000
    28  H    2.369512   3.015940   0.000000
    29  H    3.646196   3.690213   1.757475   0.000000
    30  H    2.948334   2.447746   1.758252   1.773063   0.000000
    31  H    3.251691   3.910666   3.675308   3.709428   4.338614
    32  H    3.740171   4.292818   2.955977   2.422473   3.669038
    33  H    2.535870   3.740145   2.396200   3.011586   3.668287
    34  H    4.526355   3.653172   3.467404   2.176346   2.189674
    35  H    7.559586   6.904845   5.666750   4.304832   4.672860
    36  H    7.242211   6.317313   5.661034   4.648837   4.310129
    37  H    8.676833   7.939935   6.815002   5.730018   5.742321
    38  H    7.192049   5.986213   7.179756   6.034592   6.045380
    39  H    8.303624   7.331120   8.587710   7.533469   7.747629
    40  H    8.637758   7.666377   9.364509   8.574805   8.581438
    41  H    8.025602   6.792423   8.589931   7.738701   7.541448
    42  H    5.578653   4.835102   6.983134   6.842233   6.505247
    43  H    7.313961   6.445334   8.588401   8.246088   7.967256
    44  H    6.405421   5.219024   7.586559   7.248857   6.707189
    45  H    6.135280   5.857438   6.978538   6.503899   6.844001
    46  H    7.751864   7.253095   8.584992   7.964860   8.250088
    47  H    7.215370   6.760937   7.582118   6.705693   7.256401
    48  H    3.155752   3.174321   4.368350   4.472791   4.467901
                   31         32         33         34         35
    31  H    0.000000
    32  H    1.749605   0.000000
    33  H    1.756400   1.763326   0.000000
    34  H    4.525626   3.660271   4.557713   0.000000
    35  H    7.718244   6.303975   7.301011   3.700520   0.000000
    36  H    8.037675   6.878651   7.594032   3.692673   1.787462
    37  H    9.283053   7.917107   8.728235   5.127103   1.785041
    38  H    6.070132   6.035598   7.194276   4.211950   6.713996
    39  H    6.541173   6.852957   8.016584   6.055976   8.672244
    40  H    7.034024   7.728909   8.616074   7.183151  10.123324
    41  H    6.920257   7.387439   8.289436   6.055588   8.854168
    42  H    4.673857   5.910877   6.095948   6.022744   9.642109
    43  H    6.186635   7.312029   7.716159   7.149270  10.578702
    44  H    5.897556   6.810973   7.184503   5.929292   9.320796
    45  H    3.808578   4.898006   5.546043   6.022569   9.400640
    46  H    5.553709   6.510716   7.284172   7.150086  10.357755
    47  H    4.734744   5.286393   6.391078   5.931770   8.897720
    48  H    1.819339   3.223757   3.118016   4.550122   8.154906
                   36         37         38         39         40
    36  H    0.000000
    37  H    1.785083   0.000000
    38  H    6.712142   8.041422   0.000000
    39  H    8.851416  10.107160   2.212470   0.000000
    40  H   10.121344  11.511551   3.498593   1.758702   0.000000
    41  H    8.671688  10.107518   2.212374   1.772886   1.758711
    42  H    9.398327  11.008207   4.537736   4.303462   3.660929
    43  H   10.354955  11.930792   4.554149   3.668078   2.402876
    44  H    8.895377  10.539924   3.699394   3.747129   3.080335
    45  H    9.635429  11.006958   4.537392   3.741783   3.661218
    46  H   10.574476  11.931015   4.555014   2.981146   2.403321
    47  H    9.316260  10.540504   3.700003   2.532601   3.079163
    48  H    8.147202   9.620868   5.271081   5.693790   5.861735
                   41         42         43         44         45
    41  H    0.000000
    42  H    3.741927   0.000000
    43  H    2.979932   1.761173   0.000000
    44  H    2.533196   1.766038   1.766238   0.000000
    45  H    4.303503   2.548660   3.111467   3.752213   0.000000
    46  H    3.668466   3.109549   2.579190   3.769632   1.761203
    47  H    3.746697   3.752066   3.769777   4.300210   1.765975
    48  H    5.692052   2.985559   4.635991   4.246349   2.989945
                   46         47         48
    46  H    0.000000
    47  H    1.766249   0.000000
    48  H    4.638395   4.253216   0.000000
 Stoichiometry    C17H24N2O3S2
 Framework group  C1[X(C17H24N2O3S2)]
 Deg. of freedom   138
 Full point group                 C1      NOp   1
 Largest Abelian subgroup         C1      NOp   1
 Largest concise Abelian subgroup C1      NOp   1
                         Standard orientation:                         
 ---------------------------------------------------------------------
 Center     Atomic      Atomic             Coordinates (Angstroms)
 Number     Number       Type             X           Y           Z
 ---------------------------------------------------------------------
      1          6           0       -2.995920    3.212568    1.277936
      2          6           0       -2.229293    2.823550   -0.000912
      3          6           0       -0.958213    3.686509   -0.000624
      4          6           0       -2.997558    3.213011   -1.278247
      5          6           0       -1.903248    1.324933   -0.000598
      6          6           0       -0.585363    0.900274   -0.000016
      7          6           0       -0.259861   -0.450490   -0.000232
      8          6           0        1.128396   -0.856399   -0.000235
      9          7           0        1.499696   -2.120394   -0.000727
     10         16           0        3.119018   -2.251471   -0.000940
     11          6           0        3.273964   -0.530905   -0.000082
     12         16           0        4.836555    0.328993    0.000891
     13          6           0        4.343889    2.063733   -0.004927
     14          8           0        5.505089    0.003273   -1.226049
     15          8           0        5.499495    0.009981    1.232639
     16          7           0        2.130992    0.066999    0.000168
     17          6           0       -1.272050   -1.405707   -0.000849
     18          6           0       -2.602557   -1.037464   -0.000306
     19          6           0       -3.709700   -2.086591    0.000018
     20          6           0       -3.153174   -3.514311   -0.000839
     21          6           0       -4.570879   -1.926150    1.260530
     22          6           0       -4.572373   -1.925228   -1.259345
     23          6           0       -2.909433    0.339784    0.000322
     24          8           0       -4.226272    0.675401    0.001715
     25          1           0       -3.955863    2.718530    1.404456
     26          1           0       -3.177885    4.285879    1.282828
     27          1           0       -2.389198    2.966662    2.147303
     28          1           0       -1.243320    4.736800   -0.008959
     29          1           0       -0.351994    3.499801   -0.883082
     30          1           0       -0.360663    3.510274    0.889929
     31          1           0       -3.924173    2.667643   -1.437073
     32          1           0       -2.365585    3.029264   -2.144993
     33          1           0       -3.238797    4.274209   -1.252283
     34          1           0        0.231575    1.598731    0.001148
     35          1           0        3.763347    2.236774   -0.900703
     36          1           0        3.758425    2.241290    0.886746
     37          1           0        5.247594    2.660200   -0.003991
     38          1           0       -0.971320   -2.437797   -0.001230
     39          1           0       -2.553790   -3.704727   -0.887628
     40          1           0       -3.983179   -4.217926   -0.000778
     41          1           0       -2.553005   -3.705475    0.885258
     42          1           0       -5.068364   -0.962682    1.275215
     43          1           0       -5.330250   -2.704206    1.290680
     44          1           0       -3.950633   -2.013311    2.150285
     45          1           0       -5.068761   -0.961188   -1.273445
     46          1           0       -5.332631   -2.702446   -1.288508
     47          1           0       -3.953386   -2.013039   -2.149924
     48          1           0       -4.318404    1.634210    0.007432
 ---------------------------------------------------------------------
 Rotational constants (GHZ):           0.3273522           0.1106082           0.0873300
 Leave Link  202 at Fri Nov  4 19:08:49 2022, MaxMem=   805306368 cpu:               0.2 elap:               0.1
 (Enter /home/wykgroup/appl/g16/l301.exe)
 Standard basis: 6-31G(d) (6D, 7F)
 Ernie: Thresh=  0.10000D-02 Tol=  0.10000D-05 Strict=F.
 There are   416 symmetry adapted cartesian basis functions of A   symmetry.
 There are   416 symmetry adapted basis functions of A   symmetry.
   416 basis functions,   816 primitive gaussians,   416 cartesian basis functions
    98 alpha electrons       98 beta electrons
       nuclear repulsion energy      2474.7079587264 Hartrees.
 IExCor=  402 DFT=T Ex+Corr=B3LYP ExCW=0 ScaHFX=  0.200000
 ScaDFX=  0.800000  0.720000  1.000000  0.810000 ScalE2=  1.000000  1.000000
 IRadAn=      5 IRanWt=     -1 IRanGd=            0 ICorTp=0 IEmpDi=  4
 NAtoms=   48 NActive=   48 NUniq=   48 SFac= 1.00D+00 NAtFMM=   60 NAOKFM=F Big=F
 Integral buffers will be    131072 words long.
 Raffenetti 2 integral format.
 Two-electron integral symmetry is turned on.
 Leave Link  301 at Fri Nov  4 19:08:49 2022, MaxMem=   805306368 cpu:               0.7 elap:               0.1
 (Enter /home/wykgroup/appl/g16/l302.exe)
 NPDir=0 NMtPBC=     1 NCelOv=     1 NCel=       1 NClECP=     1 NCelD=      1
         NCelK=      1 NCelE2=     1 NClLst=     1 CellRange=     0.0.
 One-electron integrals computed using PRISM.
 One-electron integral symmetry used in STVInt
 NBasis=   416 RedAO= T EigKep=  2.84D-04  NBF=   416
 NBsUse=   416 1.00D-06 EigRej= -1.00D+00 NBFU=   416
 Precomputing XC quadrature grid using
 IXCGrd= 4 IRadAn=           5 IRanWt=          -1 IRanGd=           0 AccXCQ= 0.00D+00.
 Generated NRdTot=       0 NPtTot=           0 NUsed=           0 NTot=          32
 NSgBfM=   411   411   411   411   411 MxSgAt=    48 MxSgA2=    48.
 Leave Link  302 at Fri Nov  4 19:08:50 2022, MaxMem=   805306368 cpu:               5.3 elap:               0.8
 (Enter /home/wykgroup/appl/g16/l303.exe)
 DipDrv:  MaxL=1.
 Leave Link  303 at Fri Nov  4 19:08:50 2022, MaxMem=   805306368 cpu:               0.3 elap:               0.1
 (Enter /home/wykgroup/appl/g16/l401.exe)
 ExpMin= 1.17D-01 ExpMax= 2.19D+04 ExpMxC= 3.30D+03 IAcc=3 IRadAn=         5 AccDes= 0.00D+00
 Harris functional with IExCor=  402 and IRadAn=       5 diagonalized for initial guess.
 HarFok:  IExCor=  402 AccDes= 0.00D+00 IRadAn=         5 IDoV= 1 UseB2=F ITyADJ=14
 ICtDFT=  3500011 ScaDFX=  1.000000  1.000000  1.000000  1.000000
 FoFCou: FMM=F IPFlag=           0 FMFlag=      100000 FMFlg1=           0
         NFxFlg=           0 DoJE=T BraDBF=F KetDBF=T FulRan=T
         wScrn=  0.000000 ICntrl=       500 IOpCl=  0 I1Cent=   200000004 NGrid=           0
         NMat0=    1 NMatS0=      1 NMatT0=    0 NMatD0=    1 NMtDS0=    0 NMtDT0=    0
 Petite list used in FoFCou.
 Harris En= -1793.81783642977    
 JPrj=0 DoOrth=F DoCkMO=F.
 Leave Link  401 at Fri Nov  4 19:08:53 2022, MaxMem=   805306368 cpu:              22.6 elap:               3.3
 (Enter /home/wykgroup/appl/g16/l502.exe)
 Integral symmetry usage will be decided dynamically.
 Closed shell SCF:
 Using DIIS extrapolation, IDIIS=  1040.
 NGot=   805306368 LenX=   804952632 LenY=   804779135
 Requested convergence on RMS density matrix=1.00D-08 within  32 cycles.
 Requested convergence on MAX density matrix=1.00D-06.
 Requested convergence on             energy=1.00D-06.
 No special actions if energy rises.
 Fock matrices will be formed incrementally for  20 cycles.
 Integral accuracy reduced to 1.0D-05 until final iterations.

 Cycle   1  Pass 0  IDiag  1:
 FoFJK:  IHMeth= 1 ICntrl=       0 DoSepK=F KAlg= 0 I1Cent=           0 FoldK=F
 IRaf= 730000000 NMat=       1 IRICut=       1 DoRegI=T DoRafI=F ISym2E= 0 IDoP0=0 IntGTp=1.
 FoFCou: FMM=F IPFlag=           0 FMFlag=      100000 FMFlg1=           0
         NFxFlg=           0 DoJE=F BraDBF=F KetDBF=F FulRan=T
         wScrn=  0.000000 ICntrl=         0 IOpCl=  0 I1Cent=           0 NGrid=           0
         NMat0=    1 NMatS0=      1 NMatT0=    0 NMatD0=    1 NMtDS0=    0 NMtDT0=    0
 Symmetry not used in FoFCou.
 E= -1792.81259614260    
 DIIS: error= 5.32D-02 at cycle   1 NSaved=   1.
 NSaved= 1 IEnMin= 1 EnMin= -1792.81259614260     IErMin= 1 ErrMin= 5.32D-02
 ErrMax= 5.32D-02  0.00D+00 EMaxC= 1.00D-01 BMatC= 9.85D-01 BMatP= 9.85D-01
 IDIUse=3 WtCom= 4.68D-01 WtEn= 5.32D-01
 Coeff-Com:  0.100D+01
 Coeff-En:   0.100D+01
 Coeff:      0.100D+01
 Gap=     0.306 Goal=   None    Shift=    0.000
 GapD=    0.306 DampG=1.000 DampE=0.500 DampFc=0.5000 IDamp=-1.
 Damping current iteration by 5.00D-01
 RMSDP=6.66D-03 MaxDP=5.17D-01              OVMax= 3.22D-01

 Cycle   2  Pass 0  IDiag  1:
 RMSU=  3.32D-03    CP:  9.88D-01
 E= -1793.03403288862     Delta-E=       -0.221436746018 Rises=F Damp=T
 DIIS: error= 2.07D-02 at cycle   2 NSaved=   2.
 NSaved= 2 IEnMin= 2 EnMin= -1793.03403288862     IErMin= 2 ErrMin= 2.07D-02
 ErrMax= 2.07D-02  0.00D+00 EMaxC= 1.00D-01 BMatC= 1.46D-01 BMatP= 9.85D-01
 IDIUse=3 WtCom= 7.93D-01 WtEn= 2.07D-01
 Coeff-Com:  0.220D+00 0.780D+00
 Coeff-En:   0.372D+00 0.628D+00
 Coeff:      0.252D+00 0.748D+00
 Gap=     0.252 Goal=   None    Shift=    0.000
 RMSDP=2.19D-03 MaxDP=1.78D-01 DE=-2.21D-01 OVMax= 3.09D-01

 Cycle   3  Pass 0  IDiag  1:
 RMSU=  1.75D-03    CP:  9.75D-01  6.12D-01
 E= -1793.62488537411     Delta-E=       -0.590852485493 Rises=F Damp=F
 DIIS: error= 1.46D-02 at cycle   3 NSaved=   3.
 NSaved= 3 IEnMin= 3 EnMin= -1793.62488537411     IErMin= 3 ErrMin= 1.46D-02
 ErrMax= 1.46D-02  0.00D+00 EMaxC= 1.00D-01 BMatC= 1.16D-01 BMatP= 1.46D-01
 IDIUse=3 WtCom= 8.54D-01 WtEn= 1.46D-01
 Coeff-Com:  0.944D-01 0.466D+00 0.440D+00
 Coeff-En:   0.000D+00 0.000D+00 0.100D+01
 Coeff:      0.806D-01 0.398D+00 0.522D+00
 Gap=     0.157 Goal=   None    Shift=    0.000
 RMSDP=1.19D-03 MaxDP=7.74D-02 DE=-5.91D-01 OVMax= 9.38D-02

 Cycle   4  Pass 0  IDiag  1:
 RMSU=  8.34D-04    CP:  9.81D-01  7.02D-01  5.52D-01
 E= -1793.71410416587     Delta-E=       -0.089218791758 Rises=F Damp=F
 DIIS: error= 7.05D-03 at cycle   4 NSaved=   4.
 NSaved= 4 IEnMin= 4 EnMin= -1793.71410416587     IErMin= 4 ErrMin= 7.05D-03
 ErrMax= 7.05D-03  0.00D+00 EMaxC= 1.00D-01 BMatC= 2.44D-02 BMatP= 1.16D-01
 IDIUse=3 WtCom= 9.30D-01 WtEn= 7.05D-02
 Coeff-Com:  0.134D-01 0.745D-01 0.315D+00 0.597D+00
 Coeff-En:   0.000D+00 0.000D+00 0.201D+00 0.799D+00
 Coeff:      0.124D-01 0.693D-01 0.307D+00 0.611D+00
 Gap=     0.145 Goal=   None    Shift=    0.000
 RMSDP=4.90D-04 MaxDP=3.22D-02 DE=-8.92D-02 OVMax= 3.83D-02

 Cycle   5  Pass 0  IDiag  1:
 RMSU=  2.72D-04    CP:  9.80D-01  6.86D-01  6.82D-01  6.00D-01
 E= -1793.73428029480     Delta-E=       -0.020176128926 Rises=F Damp=F
 DIIS: error= 2.47D-03 at cycle   5 NSaved=   5.
 NSaved= 5 IEnMin= 5 EnMin= -1793.73428029480     IErMin= 5 ErrMin= 2.47D-03
 ErrMax= 2.47D-03  0.00D+00 EMaxC= 1.00D-01 BMatC= 2.79D-03 BMatP= 2.44D-02
 IDIUse=3 WtCom= 9.75D-01 WtEn= 2.47D-02
 Coeff-Com:  0.180D-02 0.107D-01 0.159D+00 0.391D+00 0.438D+00
 Coeff-En:   0.000D+00 0.000D+00 0.000D+00 0.714D-01 0.929D+00
 Coeff:      0.175D-02 0.105D-01 0.155D+00 0.383D+00 0.450D+00
 Gap=     0.148 Goal=   None    Shift=    0.000
 RMSDP=1.79D-04 MaxDP=7.27D-03 DE=-2.02D-02 OVMax= 2.15D-02

 Cycle   6  Pass 0  IDiag  1:
 RMSU=  8.90D-05    CP:  9.80D-01  6.86D-01  6.70D-01  6.78D-01  4.88D-01
 E= -1793.73683809293     Delta-E=       -0.002557798131 Rises=F Damp=F
 DIIS: error= 7.26D-04 at cycle   6 NSaved=   6.
 NSaved= 6 IEnMin= 6 EnMin= -1793.73683809293     IErMin= 6 ErrMin= 7.26D-04
 ErrMax= 7.26D-04  0.00D+00 EMaxC= 1.00D-01 BMatC= 2.52D-04 BMatP= 2.79D-03
 IDIUse=3 WtCom= 9.93D-01 WtEn= 7.26D-03
 Coeff-Com:  0.466D-04-0.354D-02 0.515D-01 0.145D+00 0.271D+00 0.536D+00
 Coeff-En:   0.000D+00 0.000D+00 0.000D+00 0.000D+00 0.657D-01 0.934D+00
 Coeff:      0.462D-04-0.351D-02 0.511D-01 0.144D+00 0.270D+00 0.538D+00
 Gap=     0.148 Goal=   None    Shift=    0.000
 RMSDP=5.55D-05 MaxDP=3.90D-03 DE=-2.56D-03 OVMax= 5.76D-03

 Cycle   7  Pass 0  IDiag  1:
 RMSU=  2.86D-05    CP:  9.80D-01  6.82D-01  6.77D-01  6.74D-01  5.59D-01
                    CP:  5.57D-01
 E= -1793.73707695516     Delta-E=       -0.000238862236 Rises=F Damp=F
 DIIS: error= 1.32D-04 at cycle   7 NSaved=   7.
 NSaved= 7 IEnMin= 7 EnMin= -1793.73707695516     IErMin= 7 ErrMin= 1.32D-04
 ErrMax= 1.32D-04  0.00D+00 EMaxC= 1.00D-01 BMatC= 1.96D-05 BMatP= 2.52D-04
 IDIUse=3 WtCom= 9.99D-01 WtEn= 1.32D-03
 Coeff-Com:  0.519D-04-0.288D-02 0.140D-01 0.422D-01 0.107D+00 0.296D+00
 Coeff-Com:  0.544D+00
 Coeff-En:   0.000D+00 0.000D+00 0.000D+00 0.000D+00 0.000D+00 0.141D-03
 Coeff-En:   0.100D+01
 Coeff:      0.519D-04-0.287D-02 0.140D-01 0.422D-01 0.107D+00 0.296D+00
 Coeff:      0.544D+00
 Gap=     0.149 Goal=   None    Shift=    0.000
 RMSDP=1.45D-05 MaxDP=1.31D-03 DE=-2.39D-04 OVMax= 1.43D-03

 Cycle   8  Pass 0  IDiag  1:
 RMSU=  8.94D-06    CP:  9.80D-01  6.83D-01  6.77D-01  6.75D-01  5.52D-01
                    CP:  6.20D-01  6.62D-01
 E= -1793.73709591748     Delta-E=       -0.000018962316 Rises=F Damp=F
 DIIS: error= 4.00D-05 at cycle   8 NSaved=   8.
 NSaved= 8 IEnMin= 8 EnMin= -1793.73709591748     IErMin= 8 ErrMin= 4.00D-05
 ErrMax= 4.00D-05  0.00D+00 EMaxC= 1.00D-01 BMatC= 1.38D-06 BMatP= 1.96D-05
 IDIUse=1 WtCom= 1.00D+00 WtEn= 0.00D+00
 Coeff-Com:  0.726D-04-0.116D-02 0.193D-02 0.623D-02 0.259D-01 0.893D-01
 Coeff-Com:  0.267D+00 0.611D+00
 Coeff:      0.726D-04-0.116D-02 0.193D-02 0.623D-02 0.259D-01 0.893D-01
 Coeff:      0.267D+00 0.611D+00
 Gap=     0.149 Goal=   None    Shift=    0.000
 RMSDP=4.87D-06 MaxDP=1.91D-04 DE=-1.90D-05 OVMax= 5.49D-04

 Initial convergence to 1.0D-05 achieved.  Increase integral accuracy.
 Cycle   9  Pass 1  IDiag  1:
 E= -1793.73712049163     Delta-E=       -0.000024574150 Rises=F Damp=F
 DIIS: error= 1.20D-04 at cycle   1 NSaved=   1.
 NSaved= 1 IEnMin= 1 EnMin= -1793.73712049163     IErMin= 1 ErrMin= 1.20D-04
 ErrMax= 1.20D-04  0.00D+00 EMaxC= 1.00D-01 BMatC= 1.53D-06 BMatP= 1.53D-06
 IDIUse=3 WtCom= 9.99D-01 WtEn= 1.20D-03
 Coeff-Com:  0.100D+01
 Coeff-En:   0.100D+01
 Coeff:      0.100D+01
 Gap=     0.149 Goal=   None    Shift=    0.000
 RMSDP=4.87D-06 MaxDP=1.91D-04 DE=-2.46D-05 OVMax= 4.03D-04

 Cycle  10  Pass 1  IDiag  1:
 RMSU=  3.85D-05    CP:  1.00D+00
 E= -1793.73712086416     Delta-E=       -0.000000372526 Rises=F Damp=F
 DIIS: error= 5.81D-05 at cycle   2 NSaved=   2.
 NSaved= 2 IEnMin= 2 EnMin= -1793.73712086416     IErMin= 2 ErrMin= 5.81D-05
 ErrMax= 5.81D-05  0.00D+00 EMaxC= 1.00D-01 BMatC= 9.57D-07 BMatP= 1.53D-06
 IDIUse=1 WtCom= 1.00D+00 WtEn= 0.00D+00
 Coeff-Com:  0.415D+00 0.585D+00
 Coeff:      0.415D+00 0.585D+00
 Gap=     0.149 Goal=   None    Shift=    0.000
 RMSDP=5.01D-06 MaxDP=3.57D-04 DE=-3.73D-07 OVMax= 5.38D-04

 Cycle  11  Pass 1  IDiag  1:
 RMSU=  5.00D-06    CP:  1.00D+00  9.95D-01
 E= -1793.73712101871     Delta-E=       -0.000000154551 Rises=F Damp=F
 DIIS: error= 5.92D-05 at cycle   3 NSaved=   3.
 NSaved= 3 IEnMin= 3 EnMin= -1793.73712101871     IErMin= 2 ErrMin= 5.81D-05
 ErrMax= 5.92D-05  0.00D+00 EMaxC= 1.00D-01 BMatC= 8.08D-07 BMatP= 9.57D-07
 IDIUse=1 WtCom= 1.00D+00 WtEn= 0.00D+00
 Coeff-Com:  0.195D-01 0.474D+00 0.507D+00
 Coeff:      0.195D-01 0.474D+00 0.507D+00
 Gap=     0.149 Goal=   None    Shift=    0.000
 RMSDP=2.57D-06 MaxDP=2.15D-04 DE=-1.55D-07 OVMax= 3.09D-04

 Cycle  12  Pass 1  IDiag  1:
 RMSU=  9.77D-07    CP:  1.00D+00  1.00D+00  5.31D-01
 E= -1793.73712177188     Delta-E=       -0.000000753173 Rises=F Damp=F
 DIIS: error= 9.12D-06 at cycle   4 NSaved=   4.
 NSaved= 4 IEnMin= 4 EnMin= -1793.73712177188     IErMin= 4 ErrMin= 9.12D-06
 ErrMax= 9.12D-06  0.00D+00 EMaxC= 1.00D-01 BMatC= 4.48D-08 BMatP= 8.08D-07
 IDIUse=1 WtCom= 1.00D+00 WtEn= 0.00D+00
 Coeff-Com: -0.234D-02 0.296D+00 0.340D+00 0.366D+00
 Coeff:     -0.234D-02 0.296D+00 0.340D+00 0.366D+00
 Gap=     0.149 Goal=   None    Shift=    0.000
 RMSDP=6.39D-07 MaxDP=3.95D-05 DE=-7.53D-07 OVMax= 8.88D-05

 Cycle  13  Pass 1  IDiag  1:
 RMSU=  2.10D-07    CP:  1.00D+00  1.01D+00  5.43D-01  3.86D-01
 E= -1793.73712181600     Delta-E=       -0.000000044121 Rises=F Damp=F
 DIIS: error= 1.22D-06 at cycle   5 NSaved=   5.
 NSaved= 5 IEnMin= 5 EnMin= -1793.73712181600     IErMin= 5 ErrMin= 1.22D-06
 ErrMax= 1.22D-06  0.00D+00 EMaxC= 1.00D-01 BMatC= 1.14D-09 BMatP= 4.48D-08
 IDIUse=1 WtCom= 1.00D+00 WtEn= 0.00D+00
 Coeff-Com: -0.230D-02 0.160D+00 0.185D+00 0.221D+00 0.436D+00
 Coeff:     -0.230D-02 0.160D+00 0.185D+00 0.221D+00 0.436D+00
 Gap=     0.149 Goal=   None    Shift=    0.000
 RMSDP=1.08D-07 MaxDP=5.91D-06 DE=-4.41D-08 OVMax= 1.07D-05

 Cycle  14  Pass 1  IDiag  1:
 RMSU=  5.51D-08    CP:  1.00D+00  1.01D+00  5.42D-01  3.98D-01  5.61D-01
 E= -1793.73712181711     Delta-E=       -0.000000001111 Rises=F Damp=F
 DIIS: error= 2.73D-07 at cycle   6 NSaved=   6.
 NSaved= 6 IEnMin= 6 EnMin= -1793.73712181711     IErMin= 6 ErrMin= 2.73D-07
 ErrMax= 2.73D-07  0.00D+00 EMaxC= 1.00D-01 BMatC= 2.75D-11 BMatP= 1.14D-09
 IDIUse=1 WtCom= 1.00D+00 WtEn= 0.00D+00
 Coeff-Com: -0.980D-03 0.621D-01 0.723D-01 0.885D-01 0.212D+00 0.566D+00
 Coeff:     -0.980D-03 0.621D-01 0.723D-01 0.885D-01 0.212D+00 0.566D+00
 Gap=     0.149 Goal=   None    Shift=    0.000
 RMSDP=1.87D-08 MaxDP=1.02D-06 DE=-1.11D-09 OVMax= 1.96D-06

 Cycle  15  Pass 1  IDiag  1:
 RMSU=  1.59D-08    CP:  1.00D+00  1.01D+00  5.41D-01  3.95D-01  5.78D-01
                    CP:  8.41D-01
 E= -1793.73712181713     Delta-E=       -0.000000000018 Rises=F Damp=F
 DIIS: error= 8.52D-08 at cycle   7 NSaved=   7.
 NSaved= 7 IEnMin= 7 EnMin= -1793.73712181713     IErMin= 7 ErrMin= 8.52D-08
 ErrMax= 8.52D-08  0.00D+00 EMaxC= 1.00D-01 BMatC= 3.31D-12 BMatP= 2.75D-11
 IDIUse=1 WtCom= 1.00D+00 WtEn= 0.00D+00
 Coeff-Com: -0.200D-03 0.108D-01 0.127D-01 0.162D-01 0.492D-01 0.287D+00
 Coeff-Com:  0.624D+00
 Coeff:     -0.200D-03 0.108D-01 0.127D-01 0.162D-01 0.492D-01 0.287D+00
 Coeff:      0.624D+00
 Gap=     0.149 Goal=   None    Shift=    0.000
 RMSDP=6.75D-09 MaxDP=5.17D-07 DE=-1.82D-11 OVMax= 7.04D-07

 SCF Done:  E(RB3LYP) =  -1793.73712182     A.U. after   15 cycles
            NFock= 15  Conv=0.67D-08     -V/T= 2.0062
 KE= 1.782660481666D+03 PE=-9.158351804736D+03 EE= 3.107246242526D+03
 Leave Link  502 at Fri Nov  4 19:10:01 2022, MaxMem=   805306368 cpu:             476.1 elap:              68.3
 (Enter /home/wykgroup/appl/g16/l508.exe)
 QCSCF skips out because SCF is already converged.
 Leave Link  508 at Fri Nov  4 19:10:01 2022, MaxMem=   805306368 cpu:               0.2 elap:               0.1
 (Enter /home/wykgroup/appl/g16/l601.exe)
 Copying SCF densities to generalized density rwf, IOpCl= 0 IROHF=0.

 **********************************************************************

            Population analysis using the SCF Density.

 **********************************************************************

 Orbital symmetries:
       Occupied  (A) (A) (A) (A) (A) (A) (A) (A) (A) (A) (A) (A)
                 (A) (A) (A) (A) (A) (A) (A) (A) (A) (A) (A) (A)
                 (A) (A) (A) (A) (A) (A) (A) (A) (A) (A) (A) (A)
                 (A) (A) (A) (A) (A) (A) (A) (A) (A) (A) (A) (A)
                 (A) (A) (A) (A) (A) (A) (A) (A) (A) (A) (A) (A)
                 (A) (A) (A) (A) (A) (A) (A) (A) (A) (A) (A) (A)
                 (A) (A) (A) (A) (A) (A) (A) (A) (A) (A) (A) (A)
                 (A) (A) (A) (A) (A) (A) (A) (A) (A) (A) (A) (A)
                 (A) (A)
       Virtual   (A) (A) (A) (A) (A) (A) (A) (A) (A) (A) (A) (A)
                 (A) (A) (A) (A) (A) (A) (A) (A) (A) (A) (A) (A)
                 (A) (A) (A) (A) (A) (A) (A) (A) (A) (A) (A) (A)
                 (A) (A) (A) (A) (A) (A) (A) (A) (A) (A) (A) (A)
                 (A) (A) (A) (A) (A) (A) (A) (A) (A) (A) (A) (A)
                 (A) (A) (A) (A) (A) (A) (A) (A) (A) (A) (A) (A)
                 (A) (A) (A) (A) (A) (A) (A) (A) (A) (A) (A) (A)
                 (A) (A) (A) (A) (A) (A) (A) (A) (A) (A) (A) (A)
                 (A) (A) (A) (A) (A) (A) (A) (A) (A) (A) (A) (A)
                 (A) (A) (A) (A) (A) (A) (A) (A) (A) (A) (A) (A)
                 (A) (A) (A) (A) (A) (A) (A) (A) (A) (A) (A) (A)
                 (A) (A) (A) (A) (A) (A) (A) (A) (A) (A) (A) (A)
                 (A) (A) (A) (A) (A) (A) (A) (A) (A) (A) (A) (A)
                 (A) (A) (A) (A) (A) (A) (A) (A) (A) (A) (A) (A)
                 (A) (A) (A) (A) (A) (A) (A) (A) (A) (A) (A) (A)
                 (A) (A) (A) (A) (A) (A) (A) (A) (A) (A) (A) (A)
                 (A) (A) (A) (A) (A) (A) (A) (A) (A) (A) (A) (A)
                 (A) (A) (A) (A) (A) (A) (A) (A) (A) (A) (A) (A)
                 (A) (A) (A) (A) (A) (A) (A) (A) (A) (A) (A) (A)
                 (A) (A) (A) (A) (A) (A) (A) (A) (A) (A) (A) (A)
                 (A) (A) (A) (A) (A) (A) (A) (A) (A) (A) (A) (A)
                 (A) (A) (A) (A) (A) (A) (A) (A) (A) (A) (A) (A)
                 (A) (A) (A) (A) (A) (A) (A) (A) (A) (A) (A) (A)
                 (A) (A) (A) (A) (A) (A) (A) (A) (A) (A) (A) (A)
                 (A) (A) (A) (A) (A) (A) (A) (A) (A) (A) (A) (A)
                 (A) (A) (A) (A) (A) (A) (A) (A) (A) (A) (A) (A)
                 (A) (A) (A) (A) (A) (A)
 The electronic state is 1-A.
 Alpha  occ. eigenvalues --  -89.10962 -88.96021 -19.19058 -19.14832 -19.14829
 Alpha  occ. eigenvalues --  -14.36845 -14.36576 -10.28858 -10.27382 -10.25806
 Alpha  occ. eigenvalues --  -10.23257 -10.22178 -10.20064 -10.19636 -10.19617
 Alpha  occ. eigenvalues --  -10.19410 -10.19272 -10.19220 -10.19189 -10.18765
 Alpha  occ. eigenvalues --  -10.18684 -10.16686 -10.16105 -10.16104  -8.13960
 Alpha  occ. eigenvalues --   -8.01921  -6.10367  -6.10353  -6.10265  -5.98413
 Alpha  occ. eigenvalues --   -5.97919  -5.97591  -1.13148  -1.07958  -1.04186
 Alpha  occ. eigenvalues --   -1.01878  -0.90694  -0.87618  -0.84343  -0.82764
 Alpha  occ. eigenvalues --   -0.80328  -0.78722  -0.74386  -0.74183  -0.71037
 Alpha  occ. eigenvalues --   -0.70418  -0.68704  -0.68497  -0.67983  -0.65047
 Alpha  occ. eigenvalues --   -0.62675  -0.60544  -0.58317  -0.57723  -0.54754
 Alpha  occ. eigenvalues --   -0.53292  -0.53009  -0.49976  -0.48992  -0.48486
 Alpha  occ. eigenvalues --   -0.48465  -0.47255  -0.46493  -0.46254  -0.45643
 Alpha  occ. eigenvalues --   -0.45055  -0.44703  -0.43980  -0.43754  -0.43453
 Alpha  occ. eigenvalues --   -0.42733  -0.42045  -0.40487  -0.40408  -0.39773
 Alpha  occ. eigenvalues --   -0.38822  -0.38648  -0.38367  -0.37610  -0.36843
 Alpha  occ. eigenvalues --   -0.36504  -0.35787  -0.35481  -0.35209  -0.34812
 Alpha  occ. eigenvalues --   -0.34041  -0.33828  -0.33526  -0.32821  -0.32476
 Alpha  occ. eigenvalues --   -0.31836  -0.30974  -0.30968  -0.30536  -0.29671
 Alpha  occ. eigenvalues --   -0.28524  -0.25053  -0.21837
 Alpha virt. eigenvalues --   -0.06966  -0.02712  -0.00495  -0.00166   0.02586
 Alpha virt. eigenvalues --    0.05277   0.06209   0.07796   0.09237   0.09701
 Alpha virt. eigenvalues --    0.09995   0.10588   0.11535   0.12269   0.12408
 Alpha virt. eigenvalues --    0.12847   0.13315   0.13736   0.14367   0.14849
 Alpha virt. eigenvalues --    0.15332   0.15573   0.15799   0.16787   0.16888
 Alpha virt. eigenvalues --    0.17363   0.17941   0.18323   0.18721   0.19324
 Alpha virt. eigenvalues --    0.19558   0.20352   0.21043   0.21111   0.21234
 Alpha virt. eigenvalues --    0.21525   0.22777   0.23530   0.23762   0.24222
 Alpha virt. eigenvalues --    0.24363   0.25500   0.26683   0.26941   0.27695
 Alpha virt. eigenvalues --    0.29313   0.30335   0.32091   0.33117   0.33464
 Alpha virt. eigenvalues --    0.35198   0.35747   0.36941   0.37823   0.38809
 Alpha virt. eigenvalues --    0.43131   0.43779   0.44467   0.45267   0.46038
 Alpha virt. eigenvalues --    0.48379   0.48829   0.49265   0.49792   0.49849
 Alpha virt. eigenvalues --    0.51117   0.51658   0.52286   0.52474   0.53348
 Alpha virt. eigenvalues --    0.53550   0.54914   0.54960   0.55558   0.56546
 Alpha virt. eigenvalues --    0.57655   0.58974   0.59598   0.59808   0.61279
 Alpha virt. eigenvalues --    0.61341   0.61535   0.62100   0.62798   0.64144
 Alpha virt. eigenvalues --    0.65237   0.66076   0.67091   0.67682   0.68070
 Alpha virt. eigenvalues --    0.68218   0.69642   0.70978   0.72057   0.72758
 Alpha virt. eigenvalues --    0.73461   0.74503   0.76153   0.76385   0.77261
[...]
    19  C    0.000000  -0.000000   0.000000  -0.000000   0.000000   0.000000
    20  C    0.000000   0.000000  -0.000000   0.000000  -0.000000   0.000000
    21  C   -0.000016   0.000000   0.000001  -0.000000  -0.000000   0.000000
    22  C    0.000001   0.000000  -0.000000  -0.000000   0.000000  -0.000000
    23  C    0.001259   0.000039   0.000068  -0.000050  -0.000137  -0.000138
    24  O    0.004252   0.000133   0.000148  -0.000001   0.000001   0.000001
    25  H    0.585643  -0.029988  -0.028491  -0.000022  -0.000193  -0.000033
    26  H   -0.029988   0.570628  -0.027253   0.004403  -0.000036  -0.000080
    27  H   -0.028491  -0.027253   0.546185  -0.000107  -0.000024   0.004643
    28  H   -0.000022   0.004403  -0.000107   0.575409  -0.029381  -0.028824
    29  H   -0.000193  -0.000036  -0.000024  -0.029381   0.569540  -0.032050
    30  H   -0.000033  -0.000080   0.004643  -0.028824  -0.032050   0.558276
    31  H   -0.000333   0.000124  -0.000018  -0.000021  -0.000036  -0.000189
    32  H   -0.000018  -0.000025  -0.000169  -0.000105   0.004765  -0.000024
    33  H    0.000119   0.003657  -0.000025   0.004429  -0.000080  -0.000036
    34  H   -0.000010  -0.000011  -0.000036  -0.000051   0.001790   0.001702
    35  H   -0.000000   0.000000  -0.000000   0.000000  -0.000000  -0.000000
    36  H   -0.000000  -0.000000  -0.000000  -0.000000   0.000008  -0.000000
    37  H    0.000000  -0.000000   0.000000  -0.000000  -0.000000  -0.000000
    38  H   -0.000000   0.000000  -0.000000  -0.000000   0.000000   0.000000
    39  H   -0.000000   0.000000   0.000000   0.000000  -0.000000   0.000000
    40  H    0.000000  -0.000000   0.000000  -0.000000   0.000000   0.000000
    41  H   -0.000000  -0.000000  -0.000000   0.000000   0.000000  -0.000000
    42  H    0.000092  -0.000000  -0.000001   0.000000  -0.000000  -0.000000
    43  H   -0.000000  -0.000000  -0.000000  -0.000000   0.000000  -0.000000
    44  H   -0.000001  -0.000000  -0.000000   0.000000   0.000000  -0.000000
    45  H   -0.000002   0.000000  -0.000000   0.000000  -0.000000  -0.000000
    46  H    0.000000  -0.000000   0.000000  -0.000000  -0.000000   0.000000
    47  H    0.000000   0.000000   0.000000   0.000000  -0.000000   0.000000
    48  H    0.012378  -0.000408  -0.000540   0.000013  -0.000001  -0.000001
              31         32         33         34         35         36
     1  C   -0.004977   0.005405  -0.004123   0.000273  -0.000000   0.000000
     2  C   -0.032674  -0.026743  -0.028924  -0.015413  -0.000000  -0.000000
     3  C    0.005814  -0.005780  -0.005988   0.008364   0.000000   0.000000
     4  C    0.355459   0.368426   0.362702   0.000272   0.000000  -0.000000
     5  C   -0.007161  -0.002348   0.005023  -0.043454   0.000000   0.000000
     6  C   -0.000204   0.000815  -0.000014   0.348038   0.000000  -0.000012
     7  C    0.000027  -0.000009   0.000001  -0.040270  -0.000001  -0.000031
     8  C    0.000000  -0.000000  -0.000000  -0.012715  -0.000013   0.000050
     9  N   -0.000000  -0.000000   0.000000   0.000385  -0.000001   0.000008
    10  S    0.000000   0.000000  -0.000000   0.000091  -0.000002   0.000226
    11  C    0.000000   0.000000  -0.000000  -0.000611   0.000763  -0.001576
    12  S    0.000000   0.000000  -0.000000   0.000089  -0.005070  -0.005613
    13  C    0.000000  -0.000000  -0.000000  -0.000013   0.339386   0.339170
    14  O   -0.000000  -0.000000   0.000000   0.000000   0.000221   0.001640
    15  O   -0.000000  -0.000000   0.000000  -0.000000   0.001736  -0.000253
    16  N   -0.000000  -0.000000   0.000000   0.017847   0.000263   0.004694
    17  C   -0.000005  -0.000014   0.000000   0.006354   0.000000  -0.000000
    18  C   -0.000211   0.000020   0.000002   0.000239   0.000000  -0.000000
    19  C    0.000000   0.000000  -0.000000   0.000010  -0.000000   0.000000
    20  C    0.000000  -0.000000   0.000000  -0.000000   0.000000   0.000000
    21  C    0.000001  -0.000000   0.000000  -0.000000  -0.000000  -0.000000
    22  C   -0.000017   0.000001   0.000000  -0.000000   0.000000   0.000000
    23  C    0.001109   0.000091   0.000043   0.004340  -0.000000   0.000000
    24  O    0.004807   0.000146   0.000133  -0.000045   0.000000  -0.000000
    25  H   -0.000333  -0.000018   0.000119  -0.000010  -0.000000  -0.000000
    26  H    0.000124  -0.000025   0.003657  -0.000011   0.000000  -0.000000
    27  H   -0.000018  -0.000169  -0.000025  -0.000036  -0.000000  -0.000000
    28  H   -0.000021  -0.000105   0.004429  -0.000051   0.000000  -0.000000
    29  H   -0.000036   0.004765  -0.000080   0.001790  -0.000000   0.000008
    30  H   -0.000189  -0.000024  -0.000036   0.001702  -0.000000  -0.000000
    31  H    0.585088  -0.028723  -0.029930  -0.000011   0.000000  -0.000000
    32  H   -0.028723   0.551327  -0.027536  -0.000037  -0.000000   0.000000
    33  H   -0.029930  -0.027536   0.571043  -0.000011   0.000000   0.000000
    34  H   -0.000011  -0.000037  -0.000011   0.566269  -0.000000   0.000117
    35  H    0.000000  -0.000000   0.000000  -0.000000   0.493932  -0.023089
    36  H   -0.000000   0.000000   0.000000   0.000117  -0.023089   0.477348
    37  H   -0.000000   0.000000  -0.000000  -0.000000  -0.018579  -0.017704
    38  H   -0.000000  -0.000000   0.000000  -0.000192   0.000000  -0.000000
    39  H   -0.000000  -0.000000  -0.000000   0.000000   0.000000   0.000000
    40  H    0.000000   0.000000  -0.000000  -0.000000   0.000000  -0.000000
    41  H   -0.000000   0.000000   0.000000   0.000000   0.000000   0.000000
    42  H   -0.000002  -0.000000   0.000000   0.000000  -0.000000   0.000000
    43  H    0.000000   0.000000  -0.000000   0.000000   0.000000   0.000000
    44  H    0.000000   0.000000   0.000000  -0.000000   0.000000  -0.000000
    45  H    0.000095  -0.000001  -0.000000   0.000000   0.000000  -0.000000
    46  H   -0.000000  -0.000000  -0.000000   0.000000  -0.000000   0.000000
    47  H   -0.000001  -0.000000  -0.000000  -0.000000  -0.000000  -0.000000
    48  H    0.011697  -0.000516  -0.000382  -0.000008  -0.000000   0.000000
              37         38         39         40         41         42
     1  C    0.000000  -0.000000  -0.000000  -0.000000   0.000000  -0.000014
     2  C    0.000000   0.000009   0.000000  -0.000000   0.000000  -0.000006
     3  C    0.000000  -0.000000   0.000000   0.000000   0.000000   0.000000
     4  C    0.000000  -0.000000   0.000000  -0.000000  -0.000000   0.000001
     5  C    0.000000   0.000205   0.000001   0.000002   0.000001   0.000114
     6  C    0.000000   0.006387  -0.000004   0.000000  -0.000004  -0.000014
     7  C   -0.000000  -0.041956   0.000103  -0.000007   0.000105   0.000028
     8  C    0.000004  -0.012189  -0.000003  -0.000000  -0.000003   0.000000
     9  N    0.000000   0.013302   0.000001  -0.000000   0.000004  -0.000000
    10  S   -0.000022  -0.000233   0.000000   0.000000   0.000000   0.000000
    11  C    0.003018   0.000005  -0.000000   0.000000  -0.000000   0.000000
    12  S   -0.016155  -0.000000  -0.000000   0.000000  -0.000000   0.000000
    13  C    0.358133   0.000000   0.000000  -0.000000   0.000000   0.000000
    14  O   -0.000228  -0.000000  -0.000000   0.000000   0.000000  -0.000000
    15  O    0.000370   0.000000   0.000000  -0.000000   0.000000  -0.000000
    16  N    0.000095   0.000288  -0.000000  -0.000000  -0.000000  -0.000000
    17  C   -0.000000   0.353651   0.001328   0.000559   0.001291  -0.000253
    18  C   -0.000000  -0.044241  -0.006784   0.004266  -0.006804  -0.009159
    19  C    0.000000  -0.015714  -0.023905  -0.028273  -0.023740  -0.024198
    20  C    0.000000   0.008912   0.362716   0.365281   0.363168   0.005393
    21  C    0.000000   0.000323   0.006092  -0.005846  -0.005292   0.366276
    22  C   -0.000000   0.000322  -0.005325  -0.005867   0.006075  -0.004583
    23  C    0.000000   0.005456  -0.000209  -0.000054  -0.000212   0.002301
    24  O   -0.000000  -0.000049   0.000001  -0.000001   0.000001   0.011382
    25  H    0.000000  -0.000000  -0.000000   0.000000  -0.000000   0.000092
    26  H   -0.000000   0.000000   0.000000  -0.000000  -0.000000  -0.000000
    27  H    0.000000  -0.000000   0.000000   0.000000  -0.000000  -0.000001
    28  H   -0.000000  -0.000000   0.000000  -0.000000   0.000000   0.000000
    29  H   -0.000000   0.000000  -0.000000   0.000000   0.000000  -0.000000
    30  H   -0.000000   0.000000   0.000000   0.000000  -0.000000  -0.000000
    31  H   -0.000000  -0.000000  -0.000000   0.000000  -0.000000  -0.000002
    32  H    0.000000  -0.000000  -0.000000   0.000000   0.000000  -0.000000
    33  H   -0.000000   0.000000  -0.000000  -0.000000   0.000000   0.000000
    34  H   -0.000000  -0.000192   0.000000  -0.000000   0.000000   0.000000
    35  H   -0.018579   0.000000   0.000000   0.000000   0.000000  -0.000000
    36  H   -0.017704  -0.000000   0.000000  -0.000000   0.000000   0.000000
    37  H    0.466557  -0.000000   0.000000   0.000000  -0.000000   0.000000
    38  H   -0.000000   0.558986   0.002060  -0.000133   0.002036  -0.000013
    39  H    0.000000   0.002060   0.576387  -0.029530  -0.033770  -0.000189
    40  H    0.000000  -0.000133  -0.029530   0.578280  -0.029399   0.000004
    41  H   -0.000000   0.002036  -0.033770  -0.029399   0.573800  -0.000039
    42  H    0.000000  -0.000013  -0.000189   0.000004  -0.000039   0.539985
    43  H   -0.000000  -0.000013  -0.000021   0.004507  -0.000091  -0.027787
    44  H   -0.000000  -0.000023  -0.000053  -0.000099   0.004599  -0.028843
    45  H   -0.000000  -0.000013  -0.000040   0.000004  -0.000188   0.002354
    46  H    0.000000  -0.000012  -0.000090   0.004520  -0.000021   0.000117
    47  H    0.000000  -0.000022   0.004630  -0.000098  -0.000053  -0.000035
    48  H    0.000000   0.000005  -0.000000  -0.000000  -0.000000   0.000034
              43         44         45         46         47         48
     1  C    0.000000   0.000001   0.000001  -0.000000  -0.000000   0.007346
     2  C   -0.000000   0.000000  -0.000005  -0.000000   0.000000   0.011217
     3  C    0.000000  -0.000000   0.000000   0.000000  -0.000000   0.000020
     4  C   -0.000000  -0.000000  -0.000014   0.000000   0.000001   0.006969
     5  C    0.000004   0.000020   0.000112   0.000004   0.000020  -0.017649
     6  C    0.000000  -0.000016  -0.000013   0.000000  -0.000016   0.000080
     7  C    0.000001  -0.000013   0.000028   0.000001  -0.000013  -0.000023
     8  C   -0.000000   0.000000   0.000000  -0.000000   0.000000  -0.000000
     9  N    0.000000  -0.000000  -0.000000   0.000000  -0.000000  -0.000000
    10  S   -0.000000  -0.000000   0.000000  -0.000000  -0.000000   0.000000
    11  C   -0.000000   0.000000   0.000000  -0.000000   0.000000  -0.000000
    12  S    0.000000  -0.000000   0.000000   0.000000  -0.000000   0.000000
    13  C   -0.000000  -0.000000  -0.000000   0.000000   0.000000  -0.000000
    14  O   -0.000000   0.000000  -0.000000  -0.000000   0.000000  -0.000000
    15  O   -0.000000  -0.000000   0.000000  -0.000000   0.000000  -0.000000
    16  N    0.000000  -0.000000  -0.000000   0.000000  -0.000000   0.000000
    17  C   -0.000052   0.000696  -0.000253  -0.000056   0.000686  -0.000165
    18  C    0.004967  -0.002910  -0.009147   0.004969  -0.002879   0.007553
    19  C   -0.030531  -0.029614  -0.024147  -0.030476  -0.029702  -0.000224
    20  C   -0.005665  -0.005328   0.005395  -0.005641  -0.005351   0.000005
    21  C    0.362099   0.365481  -0.004567  -0.005125   0.005581   0.000314
    22  C   -0.005143   0.005570   0.366291   0.362125   0.365026   0.000317
    23  C    0.000189   0.000316   0.002284   0.000193   0.000326  -0.019087
    24  O    0.000205   0.000015   0.011361   0.000203   0.000015   0.218760
    25  H   -0.000000  -0.000001  -0.000002   0.000000   0.000000   0.012378
    26  H   -0.000000  -0.000000   0.000000  -0.000000   0.000000  -0.000408
    27  H   -0.000000  -0.000000  -0.000000   0.000000   0.000000  -0.000540
    28  H   -0.000000   0.000000   0.000000  -0.000000   0.000000   0.000013
    29  H    0.000000   0.000000  -0.000000  -0.000000  -0.000000  -0.000001
    30  H   -0.000000  -0.000000  -0.000000   0.000000   0.000000  -0.000001
    31  H    0.000000   0.000000   0.000095  -0.000000  -0.000001   0.011697
    32  H    0.000000   0.000000  -0.000001  -0.000000  -0.000000  -0.000516
    33  H   -0.000000   0.000000  -0.000000  -0.000000  -0.000000  -0.000382
    34  H    0.000000  -0.000000   0.000000   0.000000  -0.000000  -0.000008
    35  H    0.000000   0.000000   0.000000  -0.000000  -0.000000  -0.000000
    36  H    0.000000  -0.000000  -0.000000   0.000000  -0.000000   0.000000
    37  H   -0.000000  -0.000000  -0.000000   0.000000   0.000000   0.000000
    38  H   -0.000013  -0.000023  -0.000013  -0.000012  -0.000022   0.000005
    39  H   -0.000021  -0.000053  -0.000040  -0.000090   0.004630  -0.000000
    40  H    0.004507  -0.000099   0.000004   0.004520  -0.000098  -0.000000
    41  H   -0.000091   0.004599  -0.000188  -0.000021  -0.000053  -0.000000
    42  H   -0.027787  -0.028843   0.002354   0.000117  -0.000035   0.000034
    43  H    0.589316  -0.030338   0.000116   0.003872  -0.000042  -0.000005
    44  H   -0.030338   0.581046  -0.000035  -0.000042  -0.000193  -0.000020
    45  H    0.000116  -0.000035   0.539814  -0.027754  -0.028972   0.000030
    46  H    0.003872  -0.000042  -0.027754   0.589125  -0.030438  -0.000005
    47  H   -0.000042  -0.000193  -0.028972  -0.030438   0.583475  -0.000019
    48  H   -0.000005  -0.000020   0.000030  -0.000005  -0.000019   0.343963
 Mulliken charges:
               1
     1  C   -0.458898
     2  C   -0.019341
     3  C   -0.456612
     4  C   -0.458067
     5  C    0.172321
     6  C   -0.294550
     7  C    0.166898
     8  C    0.364284
     9  N   -0.543328
    10  S    0.461180
    11  C   -0.166778
    12  S    1.128929
    13  C   -0.635322
    14  O   -0.527506
    15  O   -0.493358
    16  N   -0.412967
    17  C   -0.283897
    18  C    0.149398
    19  C    0.032575
    20  C   -0.456861
    21  C   -0.450253
    22  C   -0.450275
    23  C    0.201791
    24  O   -0.646933
    25  H    0.139918
    26  H    0.150164
    27  H    0.164936
    28  H    0.145120
    29  H    0.150811
    30  H    0.159348
    31  H    0.140291
    32  H    0.161052
    33  H    0.149897
    34  H    0.156708
    35  H    0.210455
    36  H    0.225017
    37  H    0.224511
    38  H    0.162853
    39  H    0.146602
    40  H    0.141883
    41  H    0.148534
    42  H    0.167052
    43  H    0.134411
    44  H    0.139782
    45  H    0.167266
    46  H    0.134530
    47  H    0.138073
    48  H    0.418352
 Sum of Mulliken charges =  -0.00000
 Mulliken charges with hydrogens summed into heavy atoms:
               1
     1  C   -0.003880
     2  C   -0.019341
     3  C   -0.001333
     4  C   -0.006826
     5  C    0.172321
     6  C   -0.137842
     7  C    0.166898
     8  C    0.364284
     9  N   -0.543328
    10  S    0.461180
    11  C   -0.166778
    12  S    1.128929
    13  C    0.024661
    14  O   -0.527506
    15  O   -0.493358
    16  N   -0.412967
    17  C   -0.121044
    18  C    0.149398
    19  C    0.032575
    20  C   -0.019841
    21  C   -0.009008
    22  C   -0.010405
    23  C    0.201791
    24  O   -0.228581
 Electronic spatial extent (au):  <R**2>=          12286.7068
 Charge=              0.0000 electrons
 Dipole moment (field-independent basis, Debye):
    X=             -3.4579    Y=              3.3098    Z=             -2.9455  Tot=              5.6203
 Quadrupole moment (field-independent basis, Debye-Ang):
   XX=           -172.7434   YY=           -148.0847   ZZ=           -158.1969
   XY=             -1.2156   XZ=            -15.2384   YZ=             -4.9674
 Traceless Quadrupole moment (field-independent basis, Debye-Ang):
   XX=            -13.0684   YY=             11.5904   ZZ=              1.4781
   XY=             -1.2156   XZ=            -15.2384   YZ=             -4.9674
 Octapole moment (field-independent basis, Debye-Ang**2):
  XXX=           -110.4518  YYY=             32.0072  ZZZ=             -4.5067  XYY=            -10.6493
  XXY=             62.5031  XXZ=            -70.8250  XZZ=             20.5547  YZZ=              2.5575
  YYZ=             -5.0283  XYZ=            -27.1968
 Hexadecapole moment (field-independent basis, Debye-Ang**3):
 XXXX=         -12428.0440 YYYY=          -3998.1746 ZZZZ=           -669.8806 XXXY=            154.5178
 XXXZ=           -345.5854 YYYX=            -66.2001 YYYZ=             -4.8285 ZZZX=            -26.1274
 ZZZY=             -2.7621 XXYY=          -2436.1594 XXZZ=          -2042.1430 YYZZ=           -799.5028
 XXYZ=           -130.3686 YYXZ=            -30.0310 ZZXY=            -14.5896
 N-N= 2.446729515593D+03 E-N=-9.101728849019D+03  KE= 1.781545972863D+03
 No NMR shielding tensors so no spin-rotation constants.
 Leave Link  601 at Fri Nov  4 19:47:07 2022, MaxMem=   805306368 cpu:               1.1 elap:               0.2
 (Enter /home/wykgroup/appl/g16/l9999.exe)
 1\1\GINC-NODE83\FOpt\RB3LYP\6-31G(d)\C17H24N2O3S2\WYKGROUP\04-Nov-2022
 \0\\#p b3lyp/6-31g(d) opt SCF=XQC\\Gaussian input prepared by ASE\\0,1
 \C,-0.9824549689,0.6506245932,3.5576405468\C,-0.7111062859,1.446123156
 8,2.2512183475\C,0.5675662393,2.2705603728,2.514948116\C,-1.8375001023
 ,2.4808085156,1.9794101302\C,-0.5382503086,0.4866634865,1.045392202\C,
 0.6691638063,0.4393857322,0.3445718315\C,0.8582004279,-0.4155899877,-0
 .7435746868\C,2.1451942935,-0.4403803141,-1.4502931859\N,2.377899421,-
 1.2716058054,-2.4565162926\S,3.9267824357,-1.0265668666,-3.0256307027\
 C,4.1936927716,0.209175087,-1.8361728631\S,5.7668347067,1.0834389277,-
 1.6683385187\C,5.2560459059,2.8113253901,-1.762280436\O,6.5286606562,0
 .7296550653,-2.8740735475\O,6.3059149452,0.8332510945,-0.3292247317\N,
 3.1661397142,0.419293566,-1.0732464042\C,-0.1903829794,-1.2504819981,-
 1.1479664734\C,-1.4225340131,-1.2575152986,-0.4987784165\C,-2.56482875
 35,-2.1892521545,-0.9665935469\C,-2.141859403,-3.0416763327,-2.1814967
 668\C,-2.9569107058,-3.171808875,0.1650961837\C,-3.7964740553,-1.35610
 36737,-1.401017418\C,-1.5738722112,-0.375461171,0.6031993211\O,-2.7957
 701729,-0.4037633414,1.2252531262\H,-1.8766537474,0.0180261854,3.53147
 06931\H,-1.0996432793,1.3408941815,4.4010957067\H,-0.1389200594,-0.012
 822753,3.7757547035\H,0.3991335511,2.9320841634,3.3718298481\H,0.83239
 24728,2.9003653176,1.6591029882\H,1.4254544569,1.6334471986,2.75337839
 26\H,-2.8226069182,2.0439482311,1.7825447271\H,-1.5865561025,3.0883442
 727,1.1033267844\H,-1.9470462259,3.1522957232,2.8389235227\H,1.4961135
 101,1.0705560885,0.6379087365\H,4.8277696915,3.0038101198,-2.747609492
 4\H,4.5328091121,3.0018188517,-0.9678080264\H,6.1617496359,3.404584213
 7,-1.6131691731\H,-0.0155417972,-1.9025751169,-1.9927978825\H,-1.87888
 37167,-2.4254649445,-3.0487006558\H,-2.979803561,-3.6828232394,-2.4764
 75774\H,-1.2926081602,-3.6955385998,-1.9534812718\H,-3.3186664153,-2.6
 50389983,1.0525240328\H,-3.7506654392,-3.8429648449,-0.1854273991\H,-2
 .0987440279,-3.7904280022,0.4533775063\H,-4.1941804511,-0.7557493909,-
 0.5814339624\H,-4.5913714748,-2.0253659196,-1.7525719084\H,-3.53565748
 07,-0.6838241409,-2.2271230462\H,-2.798023937,0.2176692187,1.963863135
 7\\Version=ES64L-G16RevB.01\State=1-A\HF=-1793.7484511\RMSD=7.747e-09\
 RMSF=2.943e-06\Dipole=-1.5527641,1.444157,0.6266756\Quadrupole=-15.963
 4919,10.612414,5.3510778,3.9648734,-3.6139017,0.9575851\PG=C01 [X(C17H
 24N2O3S2)]\\@


 PATIENCE IS THE ABILITY TO IDLE YOUR MOTOR WHEN
 YOU FEEL LIKE STRIPPING YOUR GEARS.
 Job cpu time:       0 days  4 hours 24 minutes 30.8 seconds.
 Elapsed time:       0 days  0 hours 38 minutes 15.7 seconds.
 File lengths (MBytes):  RWF=    113 Int=      0 D2E=      0 Chk=     16 Scr=      1
 Normal termination of Gaussian 16 at Fri Nov  4 19:47:07 2022.
