 Entering Gaussian System, Link 0=/home/wykgroup/appl/g16/g16
 Input=./calculation/no_transfer_pubchem_sampling_2_b3lyp/150193432.com
 Output=./calculation/no_transfer_pubchem_sampling_2_b3lyp/150193432.log
 Initial command:
 /home/wykgroup/appl/g16/l1.exe "/userdata/scratch/wykgroup/khs/./calculation/no_transfer_pubchem_sampling_2_b3lyp/150193432/Gau-9400.inp" -scrdir="/userdata/scratch/wykgroup/khs/./calculation/no_transfer_pubchem_sampling_2_b3lyp/150193432/"
 Entering Link 1 = /home/wykgroup/appl/g16/l1.exe PID=      9401.
  
 Copyright (c) 1988-2017, Gaussian, Inc.  All Rights Reserved.
  
 This is part of the Gaussian(R) 16 program.  It is based on
 the Gaussian(R) 09 system (copyright 2009, Gaussian, Inc.),
 the Gaussian(R) 03 system (copyright 2003, Gaussian, Inc.),
 the Gaussian(R) 98 system (copyright 1998, Gaussian, Inc.),
 the Gaussian(R) 94 system (copyright 1995, Gaussian, Inc.),
 the Gaussian 92(TM) system (copyright 1992, Gaussian, Inc.),
 the Gaussian 90(TM) system (copyright 1990, Gaussian, Inc.),
 the Gaussian 88(TM) system (copyright 1988, Gaussian, Inc.),
 the Gaussian 86(TM) system (copyright 1986, Carnegie Mellon
 University), and the Gaussian 82(TM) system (copyright 1983,
 Carnegie Mellon University). Gaussian is a federally registered
 trademark of Gaussian, Inc.
  
 This software contains proprietary and confidential information,
 including trade secrets, belonging to Gaussian, Inc.
  
 This software is provided under written license and may be
 used, copied, transmitted, or stored only in accord with that
 written license.
  
 The following legend is applicable only to US Government
 contracts under FAR:
  
                    RESTRICTED RIGHTS LEGEND
  
 Use, reproduction and disclosure by the US Government is
 subject to restrictions as set forth in subparagraphs (a)
 and (c) of the Commercial Computer Software - Restricted
 Rights clause in FAR 52.227-19.
  
 Gaussian, Inc.
 340 Quinnipiac St., Bldg. 40, Wallingford CT 06492
  
  
 ---------------------------------------------------------------
 Warning -- This program may not be used in any manner that
 competes with the business of Gaussian, Inc. or will provide
 assistance to any competitor of Gaussian, Inc.  The licensee
 of this program is prohibited from giving any competitor of
 Gaussian, Inc. access to this program.  By using this program,
 the user acknowledges that Gaussian, Inc. is engaged in the
 business of creating and licensing software in the field of
 computational chemistry and represents and warrants to the
 licensee that it is not a competitor of Gaussian, Inc. and that
 it will not use this program in any manner prohibited above.
 ---------------------------------------------------------------
  

 Cite this work as:
 Gaussian 16, Revision B.01,
 M. J. Frisch, G. W. Trucks, H. B. Schlegel, G. E. Scuseria, 
 M. A. Robb, J. R. Cheeseman, G. Scalmani, V. Barone, 
 G. A. Petersson, H. Nakatsuji, X. Li, M. Caricato, A. V. Marenich, 
 J. Bloino, B. G. Janesko, R. Gomperts, B. Mennucci, H. P. Hratchian, 
 J. V. Ortiz, A. F. Izmaylov, J. L. Sonnenberg, D. Williams-Young, 
 F. Ding, F. Lipparini, F. Egidi, J. Goings, B. Peng, A. Petrone, 
 T. Henderson, D. Ranasinghe, V. G. Zakrzewski, J. Gao, N. Rega, 
 G. Zheng, W. Liang, M. Hada, M. Ehara, K. Toyota, R. Fukuda, 
 J. Hasegawa, M. Ishida, T. Nakajima, Y. Honda, O. Kitao, H. Nakai, 
 T. Vreven, K. Throssell, J. A. Montgomery, Jr., J. E. Peralta, 
 F. Ogliaro, M. J. Bearpark, J. J. Heyd, E. N. Brothers, K. N. Kudin, 
 V. N. Staroverov, T. A. Keith, R. Kobayashi, J. Normand, 
 K. Raghavachari, A. P. Rendell, J. C. Burant, S. S. Iyengar, 
 J. Tomasi, M. Cossi, J. M. Millam, M. Klene, C. Adamo, R. Cammi, 
 J. W. Ochterski, R. L. Martin, K. Morokuma, O. Farkas, 
 J. B. Foresman, and D. J. Fox, Gaussian, Inc., Wallingford CT, 2016.
 
 ******************************************
 Gaussian 16:  ES64L-G16RevB.01 20-Dec-2017
                 4-Nov-2022 
 ******************************************
 %chk=./calculation/no_transfer_pubchem_sampling_2_b3lyp/150193432.chk
 %nprocshared=7
 Will use up to    7 processors via shared memory.
 %mem=6GB
 -----------------------------
 #p b3lyp/6-31g(d) opt SCF=XQC
 -----------------------------
 1/18=20,19=15,26=3,38=1/1,3;
 2/9=110,12=2,17=6,18=5,40=1/2;
 3/5=1,6=6,7=1,11=2,25=1,30=1,71=1,74=-5/1,2,3;
 4//1;
 5/5=2,8=3,13=1,38=5/2,8;
 6/7=2,8=2,9=2,10=2,28=1/1;
 7//1,2,3,16;
 1/18=20,19=15,26=3/3(2);
 2/9=110/2;
 99//99;
 2/9=110/2;
 3/5=1,6=6,7=1,11=2,25=1,30=1,71=1,74=-5/1,2,3;
 4/5=5,16=3,69=1/1;
 5/5=2,8=3,13=1,38=5/2,8;
 7//1,2,3,16;
 1/18=20,19=15,26=3/3(-5);
 2/9=110/2;
 6/7=2,8=2,9=2,10=2,19=2,28=1/1;
 99/9=1/99;
 Leave Link    1 at Fri Nov  4 19:28:54 2022, MaxMem=   805306368 cpu:               1.0 elap:               0.2
 (Enter /home/wykgroup/appl/g16/l101.exe)
 ------------------------------
 Gaussian input prepared by ASE
 ------------------------------
 Symbolic Z-matrix:
 Charge =  0 Multiplicity = 1
 C                    -7.325     0.38857  -2.44328 
 O                    -6.08255   0.36269  -1.78649 
 C                    -5.74499  -0.74915  -1.07106 
 C                    -6.57496  -1.85649  -0.91599 
 C                    -6.14947  -2.93372  -0.16236 
 C                    -4.90982  -2.93765   0.44828 
 C                    -4.07564  -1.83636   0.29588 
 O                    -2.83778  -1.72244   0.84834 
 C                    -2.27727  -2.81917   1.5247 
 C                    -4.4872   -0.73493  -0.46423 
 C                    -3.55349   0.43291  -0.60416 
 N                    -2.39216   0.06597  -1.42497 
 N                    -1.36027   1.04017  -1.26327 
 P                     0.09417   0.58623  -0.55879 
 O                     0.03509  -0.7134    0.12954 
 C                     0.54384   2.03873   0.47749 
 C                    -0.59804   2.48464   1.38827 
 C                    -0.92123   1.41041   2.42093 
 C                    -0.2362    3.80026   2.07559 
 N                     1.22827   0.64298  -1.84339 
 N                     2.4517   -0.05101  -1.63499 
 C                     3.51306   0.87528  -1.23632 
 C                     4.59061   0.1641   -0.46836 
 C                     5.88408   0.02613  -0.97924 
 O                     6.11271   0.58859  -2.20006 
 C                     7.3828    0.43922  -2.78391 
 C                     6.85212  -0.64915  -0.24058 
 C                     6.52959  -1.17656   0.99499 
 C                     5.25831  -1.04558   1.52041 
 C                     4.2868   -0.37437   0.78747 
 O                     3.0042   -0.18021   1.21081 
 C                     2.55671  -0.84932   2.36508 
 H                    -7.36533   1.34886  -2.95573 
 H                    -7.40948  -0.41645  -3.1804 
 H                    -8.15858   0.32325  -1.73594 
 H                    -7.54879  -1.89008  -1.37639 
 H                    -6.79969  -3.78827  -0.04726 
 H                    -4.60608  -3.78892   1.03562 
 H                    -1.24998  -2.52564   1.73557 
 H                    -2.80448  -3.02762   2.46193 
 H                    -2.27346  -3.71752   0.89986 
 H                    -3.23341   0.75377   0.39841 
 H                    -4.06123   1.26121  -1.10191 
 H                    -2.01858  -0.80958  -1.05525 
 H                    -1.29509   1.65089  -2.06742 
 H                     1.41806   1.76005   1.0682 
 H                     0.82359   2.84741  -0.19929 
 H                    -1.48479   2.64574   0.76483 
 H                    -0.06716   1.2476    3.07643 
 H                    -1.77056   1.71124   3.03172 
 H                    -1.16368   0.47419   1.92629 
 H                     0.65602   3.67616   2.68651 
 H                    -0.04415   4.58044   1.34213 
 H                    -1.04928   4.1283    2.71945 
 H                     0.80947   0.3212   -2.71325 
 H                     2.31155  -0.73993  -0.8945 
 H                     3.92879   1.31233  -2.14671 
 H                     3.10828   1.68338  -0.61057 
 H                     7.32037   0.93717  -3.75052 
 H                     8.16359   0.91727  -2.18284 
 H                     7.63565  -0.61476  -2.9375 
 H                     7.8546   -0.76943  -0.61727 
 H                     7.28609  -1.69842   1.56194 
 H                     5.03712  -1.45889   2.49094 
 H                     2.76966  -1.92085   2.31397 
 H                     3.00506  -0.42976   3.27237 
 H                     1.47792  -0.70174   2.38024 
 
 ITRead=  0  0  0  0  0  0  0  0  0  0  0  0  0  0  0  0  0  0  0  0
 ITRead=  0  0  0  0  0  0  0  0  0  0  0  0  0  0  0  0  0  0  0  0
 ITRead=  0  0  0  0  0  0  0  0  0  0  0  0  0  0  0  0  0  0  0  0
 ITRead=  0  0  0  0  0  0  0
 MicOpt= -1 -1 -1 -1 -1 -1 -1 -1 -1 -1 -1 -1 -1 -1 -1 -1 -1 -1 -1 -1
 MicOpt= -1 -1 -1 -1 -1 -1 -1 -1 -1 -1 -1 -1 -1 -1 -1 -1 -1 -1 -1 -1
 MicOpt= -1 -1 -1 -1 -1 -1 -1 -1 -1 -1 -1 -1 -1 -1 -1 -1 -1 -1 -1 -1
 MicOpt= -1 -1 -1 -1 -1 -1 -1
 NAtoms=     67 NQM=       67 NQMF=       0 NMMI=      0 NMMIF=      0
                NMic=       0 NMicF=      0.
                    Isotopes and Nuclear Properties:
 (Nuclear quadrupole moments (NQMom) in fm**2, nuclear magnetic moments (NMagM)
  in nuclear magnetons)

  Atom         1           2           3           4           5           6           7           8           9          10
 IAtWgt=          12          16          12          12          12          12          12          16          12          12
 AtmWgt=  12.0000000  15.9949146  12.0000000  12.0000000  12.0000000  12.0000000  12.0000000  15.9949146  12.0000000  12.0000000
 NucSpn=           0           0           0           0           0           0           0           0           0           0
 AtZEff=  -0.0000000  -0.0000000  -0.0000000  -0.0000000  -0.0000000  -0.0000000  -0.0000000  -0.0000000  -0.0000000  -0.0000000
 NQMom=    0.0000000   0.0000000   0.0000000   0.0000000   0.0000000   0.0000000   0.0000000   0.0000000   0.0000000   0.0000000
 NMagM=    0.0000000   0.0000000   0.0000000   0.0000000   0.0000000   0.0000000   0.0000000   0.0000000   0.0000000   0.0000000
 AtZNuc=   6.0000000   8.0000000   6.0000000   6.0000000   6.0000000   6.0000000   6.0000000   8.0000000   6.0000000   6.0000000

  Atom        11          12          13          14          15          16          17          18          19          20
 IAtWgt=          12          14          14          31          16          12          12          12          12          14
 AtmWgt=  12.0000000  14.0030740  14.0030740  30.9737634  15.9949146  12.0000000  12.0000000  12.0000000  12.0000000  14.0030740
 NucSpn=           0           2           2           1           0           0           0           0           0           2
 AtZEff=  -0.0000000  -0.0000000  -0.0000000  -0.0000000  -0.0000000  -0.0000000  -0.0000000  -0.0000000  -0.0000000  -0.0000000
 NQMom=    0.0000000   2.0440000   2.0440000   0.0000000   0.0000000   0.0000000   0.0000000   0.0000000   0.0000000   2.0440000
 NMagM=    0.0000000   0.4037610   0.4037610   1.1316000   0.0000000   0.0000000   0.0000000   0.0000000   0.0000000   0.4037610
 AtZNuc=   6.0000000   7.0000000   7.0000000  15.0000000   8.0000000   6.0000000   6.0000000   6.0000000   6.0000000   7.0000000

  Atom        21          22          23          24          25          26          27          28          29          30
 IAtWgt=          14          12          12          12          16          12          12          12          12          12
 AtmWgt=  14.0030740  12.0000000  12.0000000  12.0000000  15.9949146  12.0000000  12.0000000  12.0000000  12.0000000  12.0000000
 NucSpn=           2           0           0           0           0           0           0           0           0           0
 AtZEff=  -0.0000000  -0.0000000  -0.0000000  -0.0000000  -0.0000000  -0.0000000  -0.0000000  -0.0000000  -0.0000000  -0.0000000
 NQMom=    2.0440000   0.0000000   0.0000000   0.0000000   0.0000000   0.0000000   0.0000000   0.0000000   0.0000000   0.0000000
 NMagM=    0.4037610   0.0000000   0.0000000   0.0000000   0.0000000   0.0000000   0.0000000   0.0000000   0.0000000   0.0000000
 AtZNuc=   7.0000000   6.0000000   6.0000000   6.0000000   8.0000000   6.0000000   6.0000000   6.0000000   6.0000000   6.0000000

  Atom        31          32          33          34          35          36          37          38          39          40
 IAtWgt=          16          12           1           1           1           1           1           1           1           1
 AtmWgt=  15.9949146  12.0000000   1.0078250   1.0078250   1.0078250   1.0078250   1.0078250   1.0078250   1.0078250   1.0078250
 NucSpn=           0           0           1           1           1           1           1           1           1           1
 AtZEff=  -0.0000000  -0.0000000  -0.0000000  -0.0000000  -0.0000000  -0.0000000  -0.0000000  -0.0000000  -0.0000000  -0.0000000
 NQMom=    0.0000000   0.0000000   0.0000000   0.0000000   0.0000000   0.0000000   0.0000000   0.0000000   0.0000000   0.0000000
 NMagM=    0.0000000   0.0000000   2.7928460   2.7928460   2.7928460   2.7928460   2.7928460   2.7928460   2.7928460   2.7928460
 AtZNuc=   8.0000000   6.0000000   1.0000000   1.0000000   1.0000000   1.0000000   1.0000000   1.0000000   1.0000000   1.0000000

  Atom        41          42          43          44          45          46          47          48          49          50
 IAtWgt=           1           1           1           1           1           1           1           1           1           1
 AtmWgt=   1.0078250   1.0078250   1.0078250   1.0078250   1.0078250   1.0078250   1.0078250   1.0078250   1.0078250   1.0078250
 NucSpn=           1           1           1           1           1           1           1           1           1           1
 AtZEff=  -0.0000000  -0.0000000  -0.0000000  -0.0000000  -0.0000000  -0.0000000  -0.0000000  -0.0000000  -0.0000000  -0.0000000
 NQMom=    0.0000000   0.0000000   0.0000000   0.0000000   0.0000000   0.0000000   0.0000000   0.0000000   0.0000000   0.0000000
 NMagM=    2.7928460   2.7928460   2.7928460   2.7928460   2.7928460   2.7928460   2.7928460   2.7928460   2.7928460   2.7928460
 AtZNuc=   1.0000000   1.0000000   1.0000000   1.0000000   1.0000000   1.0000000   1.0000000   1.0000000   1.0000000   1.0000000

  Atom        51          52          53          54          55          56          57          58          59          60
 IAtWgt=           1           1           1           1           1           1           1           1           1           1
 AtmWgt=   1.0078250   1.0078250   1.0078250   1.0078250   1.0078250   1.0078250   1.0078250   1.0078250   1.0078250   1.0078250
 NucSpn=           1           1           1           1           1           1           1           1           1           1
 AtZEff=  -0.0000000  -0.0000000  -0.0000000  -0.0000000  -0.0000000  -0.0000000  -0.0000000  -0.0000000  -0.0000000  -0.0000000
 NQMom=    0.0000000   0.0000000   0.0000000   0.0000000   0.0000000   0.0000000   0.0000000   0.0000000   0.0000000   0.0000000
 NMagM=    2.7928460   2.7928460   2.7928460   2.7928460   2.7928460   2.7928460   2.7928460   2.7928460   2.7928460   2.7928460
 AtZNuc=   1.0000000   1.0000000   1.0000000   1.0000000   1.0000000   1.0000000   1.0000000   1.0000000   1.0000000   1.0000000

  Atom        61          62          63          64          65          66          67
 IAtWgt=           1           1           1           1           1           1           1
 AtmWgt=   1.0078250   1.0078250   1.0078250   1.0078250   1.0078250   1.0078250   1.0078250
 NucSpn=           1           1           1           1           1           1           1
 AtZEff=  -0.0000000  -0.0000000  -0.0000000  -0.0000000  -0.0000000  -0.0000000  -0.0000000
 NQMom=    0.0000000   0.0000000   0.0000000   0.0000000   0.0000000   0.0000000   0.0000000
 NMagM=    2.7928460   2.7928460   2.7928460   2.7928460   2.7928460   2.7928460   2.7928460
 AtZNuc=   1.0000000   1.0000000   1.0000000   1.0000000   1.0000000   1.0000000   1.0000000
 Leave Link  101 at Fri Nov  4 19:28:54 2022, MaxMem=   805306368 cpu:               1.5 elap:               0.2
 (Enter /home/wykgroup/appl/g16/l103.exe)

 GradGradGradGradGradGradGradGradGradGradGradGradGradGradGradGradGradGrad
 Berny optimization.
 Initialization pass.
                           ----------------------------
                           !    Initial Parameters    !
                           ! (Angstroms and Degrees)  !
 --------------------------                            --------------------------
 ! Name  Definition              Value          Derivative Info.                !
 --------------------------------------------------------------------------------
 ! R1    R(1,2)                  1.4056         estimate D2E/DX2                !
 ! R2    R(1,33)                 1.0892         estimate D2E/DX2                !
 ! R3    R(1,34)                 1.0948         estimate D2E/DX2                !
 ! R4    R(1,35)                 1.0952         estimate D2E/DX2                !
 ! R5    R(2,3)                  1.3645         estimate D2E/DX2                !
 ! R6    R(3,4)                  1.3925         estimate D2E/DX2                !
 ! R7    R(3,10)                 1.3966         estimate D2E/DX2                !
 ! R8    R(4,5)                  1.3818         estimate D2E/DX2                !
 ! R9    R(4,36)                 1.0777         estimate D2E/DX2                !
 ! R10   R(5,6)                  1.3819         estimate D2E/DX2                !
 ! R11   R(5,37)                 1.0799         estimate D2E/DX2                !
 ! R12   R(6,7)                  1.3899         estimate D2E/DX2                !
 ! R13   R(6,38)                 1.0779         estimate D2E/DX2                !
 ! R14   R(7,8)                  1.3603         estimate D2E/DX2                !
 ! R15   R(7,10)                 1.4001         estimate D2E/DX2                !
 ! R16   R(8,9)                  1.4052         estimate D2E/DX2                !
 ! R17   R(9,39)                 1.089          estimate D2E/DX2                !
 ! R18   R(9,40)                 1.0954         estimate D2E/DX2                !
 ! R19   R(9,41)                 1.0943         estimate D2E/DX2                !
 ! R20   R(10,11)                1.5017         estimate D2E/DX2                !
 ! R21   R(11,12)                1.4687         estimate D2E/DX2                !
 ! R22   R(11,42)                1.1002         estimate D2E/DX2                !
 ! R23   R(11,43)                1.0916         estimate D2E/DX2                !
 ! R24   R(12,13)                1.4283         estimate D2E/DX2                !
 ! R25   R(12,44)                1.0212         estimate D2E/DX2                !
 ! R26   R(13,14)                1.6786         estimate D2E/DX2                !
 ! R27   R(13,45)                1.0119         estimate D2E/DX2                !
 ! R28   R(14,15)                1.4718         estimate D2E/DX2                !
 ! R29   R(14,16)                1.8401         estimate D2E/DX2                !
 ! R30   R(14,20)                1.7145         estimate D2E/DX2                !
 ! R31   R(16,17)                1.5272         estimate D2E/DX2                !
 ! R32   R(16,46)                1.0913         estimate D2E/DX2                !
 ! R33   R(16,47)                1.091          estimate D2E/DX2                !
 ! R34   R(17,18)                1.5247         estimate D2E/DX2                !
 ! R35   R(17,19)                1.5278         estimate D2E/DX2                !
 ! R36   R(17,48)                1.0959         estimate D2E/DX2                !
 ! R37   R(18,49)                1.0889         estimate D2E/DX2                !
 ! R38   R(18,50)                1.0885         estimate D2E/DX2                !
 ! R39   R(18,51)                1.0863         estimate D2E/DX2                !
 ! R40   R(19,52)                1.0884         estimate D2E/DX2                !
 ! R41   R(19,53)                1.0879         estimate D2E/DX2                !
 ! R42   R(19,54)                1.0878         estimate D2E/DX2                !
 ! R43   R(20,21)                1.4219         estimate D2E/DX2                !
 ! R44   R(20,55)                1.0176         estimate D2E/DX2                !
 ! R45   R(21,22)                1.464          estimate D2E/DX2                !
 ! R46   R(21,56)                1.0211         estimate D2E/DX2                !
 ! R47   R(22,23)                1.5022         estimate D2E/DX2                !
 ! R48   R(22,57)                1.0921         estimate D2E/DX2                !
 ! R49   R(22,58)                1.0993         estimate D2E/DX2                !
 ! R50   R(23,24)                1.3975         estimate D2E/DX2                !
 ! R51   R(23,30)                1.3998         estimate D2E/DX2                !
 ! R52   R(24,25)                1.3635         estimate D2E/DX2                !
 ! R53   R(24,27)                1.3924         estimate D2E/DX2                !
 ! R54   R(25,26)                1.4058         estimate D2E/DX2                !
 ! R55   R(26,59)                1.0891         estimate D2E/DX2                !
 ! R56   R(26,60)                1.0952         estimate D2E/DX2                !
 ! R57   R(26,61)                1.0947         estimate D2E/DX2                !
 ! R58   R(27,28)                1.3816         estimate D2E/DX2                !
 ! R59   R(27,62)                1.0777         estimate D2E/DX2                !
 ! R60   R(28,29)                1.3818         estimate D2E/DX2                !
 ! R61   R(28,63)                1.0798         estimate D2E/DX2                !
 ! R62   R(29,30)                1.3898         estimate D2E/DX2                !
 ! R63   R(29,64)                1.0778         estimate D2E/DX2                !
 ! R64   R(30,31)                1.3645         estimate D2E/DX2                !
 ! R65   R(31,32)                1.4072         estimate D2E/DX2                !
 ! R66   R(32,65)                1.0937         estimate D2E/DX2                !
 ! R67   R(32,66)                1.0955         estimate D2E/DX2                !
 ! R68   R(32,67)                1.0889         estimate D2E/DX2                !
 ! A1    A(2,1,33)             105.5929         estimate D2E/DX2                !
 ! A2    A(2,1,34)             111.6713         estimate D2E/DX2                !
 ! A3    A(2,1,35)             111.7092         estimate D2E/DX2                !
 ! A4    A(33,1,34)            109.1869         estimate D2E/DX2                !
 ! A5    A(33,1,35)            109.1632         estimate D2E/DX2                !
 ! A6    A(34,1,35)            109.4069         estimate D2E/DX2                !
 ! A7    A(1,2,3)              118.5976         estimate D2E/DX2                !
 ! A8    A(2,3,4)              123.9788         estimate D2E/DX2                !
 ! A9    A(2,3,10)             116.2515         estimate D2E/DX2                !
 ! A10   A(4,3,10)             119.768          estimate D2E/DX2                !
 ! A11   A(3,4,5)              119.811          estimate D2E/DX2                !
 ! A12   A(3,4,36)             121.05           estimate D2E/DX2                !
 ! A13   A(5,4,36)             119.139          estimate D2E/DX2                !
 ! A14   A(4,5,6)              121.2941         estimate D2E/DX2                !
 ! A15   A(4,5,37)             119.3148         estimate D2E/DX2                !
 ! A16   A(6,5,37)             119.391          estimate D2E/DX2                !
 ! A17   A(5,6,7)              119.1885         estimate D2E/DX2                !
 ! A18   A(5,6,38)             119.7225         estimate D2E/DX2                !
 ! A19   A(7,6,38)             121.0888         estimate D2E/DX2                !
 ! A20   A(6,7,8)              124.6075         estimate D2E/DX2                !
 ! A21   A(6,7,10)             120.4254         estimate D2E/DX2                !
 ! A22   A(8,7,10)             114.9667         estimate D2E/DX2                !
 ! A23   A(7,8,9)              119.5453         estimate D2E/DX2                !
 ! A24   A(8,9,39)             105.0178         estimate D2E/DX2                !
 ! A25   A(8,9,40)             111.6164         estimate D2E/DX2                !
 ! A26   A(8,9,41)             111.5487         estimate D2E/DX2                !
 ! A27   A(39,9,40)            109.8551         estimate D2E/DX2                !
 ! A28   A(39,9,41)            109.1813         estimate D2E/DX2                !
 ! A29   A(40,9,41)            109.513          estimate D2E/DX2                !
 ! A30   A(3,10,7)             119.5128         estimate D2E/DX2                !
 ! A31   A(3,10,11)            121.8287         estimate D2E/DX2                !
 ! A32   A(7,10,11)            118.6584         estimate D2E/DX2                !
 ! A33   A(10,11,12)           110.4513         estimate D2E/DX2                !
 ! A34   A(10,11,42)           108.8298         estimate D2E/DX2                !
 ! A35   A(10,11,43)           110.0822         estimate D2E/DX2                !
 ! A36   A(12,11,42)           110.6148         estimate D2E/DX2                !
 ! A37   A(12,11,43)           107.6094         estimate D2E/DX2                !
 ! A38   A(42,11,43)           109.2399         estimate D2E/DX2                !
 ! A39   A(11,12,13)           109.7299         estimate D2E/DX2                !
 ! A40   A(11,12,44)           107.5258         estimate D2E/DX2                !
 ! A41   A(13,12,44)           106.2311         estimate D2E/DX2                !
 ! A42   A(12,13,14)           119.2776         estimate D2E/DX2                !
 ! A43   A(12,13,45)           111.6066         estimate D2E/DX2                !
 ! A44   A(14,13,45)           116.1634         estimate D2E/DX2                !
 ! A45   A(13,14,15)           113.5951         estimate D2E/DX2                !
 ! A46   A(13,14,16)           103.5696         estimate D2E/DX2                !
 ! A47   A(13,14,20)           104.4618         estimate D2E/DX2                !
 ! A48   A(15,14,16)           116.324          estimate D2E/DX2                !
 ! A49   A(15,14,20)           113.9646         estimate D2E/DX2                !
 ! A50   A(16,14,20)           103.5435         estimate D2E/DX2                !
 ! A51   A(14,16,17)           112.5587         estimate D2E/DX2                !
 ! A52   A(14,16,46)           107.3998         estimate D2E/DX2                !
 ! A53   A(14,16,47)           107.3625         estimate D2E/DX2                !
 ! A54   A(17,16,46)           110.5322         estimate D2E/DX2                !
 ! A55   A(17,16,47)           110.1971         estimate D2E/DX2                !
 ! A56   A(46,16,47)           108.6433         estimate D2E/DX2                !
 ! A57   A(16,17,18)           110.8968         estimate D2E/DX2                !
 ! A58   A(16,17,19)           110.0381         estimate D2E/DX2                !
 ! A59   A(16,17,48)           107.9787         estimate D2E/DX2                !
 ! A60   A(18,17,19)           110.6225         estimate D2E/DX2                !
 ! A61   A(18,17,48)           108.5028         estimate D2E/DX2                !
 ! A62   A(19,17,48)           108.7224         estimate D2E/DX2                !
 ! A63   A(17,18,49)           110.2918         estimate D2E/DX2                !
 ! A64   A(17,18,50)           110.53           estimate D2E/DX2                !
 ! A65   A(17,18,51)           110.251          estimate D2E/DX2                !
 ! A66   A(49,18,50)           108.3926         estimate D2E/DX2                !
 ! A67   A(49,18,51)           108.6833         estimate D2E/DX2                !
 ! A68   A(50,18,51)           108.6357         estimate D2E/DX2                !
 ! A69   A(17,19,52)           110.3932         estimate D2E/DX2                !
 ! A70   A(17,19,53)           110.8577         estimate D2E/DX2                !
 ! A71   A(17,19,54)           110.4224         estimate D2E/DX2                !
 ! A72   A(52,19,53)           108.3896         estimate D2E/DX2                !
 ! A73   A(52,19,54)           108.3536         estimate D2E/DX2                !
 ! A74   A(53,19,54)           108.3457         estimate D2E/DX2                !
 ! A75   A(14,20,21)           116.3064         estimate D2E/DX2                !
 ! A76   A(14,20,55)           110.9625         estimate D2E/DX2                !
 ! A77   A(21,20,55)           108.9687         estimate D2E/DX2                !
 ! A78   A(20,21,22)           110.7859         estimate D2E/DX2                !
 ! A79   A(20,21,56)           108.5108         estimate D2E/DX2                !
 ! A80   A(22,21,56)           109.2023         estimate D2E/DX2                !
 ! A81   A(21,22,23)           111.0817         estimate D2E/DX2                !
 ! A82   A(21,22,57)           107.5879         estimate D2E/DX2                !
 ! A83   A(21,22,58)           110.6813         estimate D2E/DX2                !
 ! A84   A(23,22,57)           110.0332         estimate D2E/DX2                !
 ! A85   A(23,22,58)           108.7317         estimate D2E/DX2                !
 ! A86   A(57,22,58)           108.693          estimate D2E/DX2                !
 ! A87   A(22,23,24)           121.5845         estimate D2E/DX2                !
 ! A88   A(22,23,30)           119.0175         estimate D2E/DX2                !
 ! A89   A(24,23,30)           119.3979         estimate D2E/DX2                !
 ! A90   A(23,24,25)           116.2178         estimate D2E/DX2                !
 ! A91   A(23,24,27)           119.8294         estimate D2E/DX2                !
 ! A92   A(25,24,27)           123.9516         estimate D2E/DX2                !
 ! A93   A(24,25,26)           118.6538         estimate D2E/DX2                !
 ! A94   A(25,26,59)           105.5584         estimate D2E/DX2                !
 ! A95   A(25,26,60)           111.7026         estimate D2E/DX2                !
 ! A96   A(25,26,61)           111.6691         estimate D2E/DX2                !
 ! A97   A(59,26,60)           109.1705         estimate D2E/DX2                !
 ! A98   A(59,26,61)           109.2024         estimate D2E/DX2                !
 ! A99   A(60,26,61)           109.4265         estimate D2E/DX2                !
 ! A100  A(24,27,28)           119.8194         estimate D2E/DX2                !
 ! A101  A(24,27,62)           121.0266         estimate D2E/DX2                !
 ! A102  A(28,27,62)           119.154          estimate D2E/DX2                !
 ! A103  A(27,28,29)           121.2415         estimate D2E/DX2                !
 ! A104  A(27,28,63)           119.3715         estimate D2E/DX2                !
 ! A105  A(29,28,63)           119.3868         estimate D2E/DX2                !
 ! A106  A(28,29,30)           119.2328         estimate D2E/DX2                !
 ! A107  A(28,29,64)           119.6602         estimate D2E/DX2                !
 ! A108  A(30,29,64)           121.1061         estimate D2E/DX2                !
 ! A109  A(23,30,29)           120.478          estimate D2E/DX2                !
 ! A110  A(23,30,31)           115.3162         estimate D2E/DX2                !
 ! A111  A(29,30,31)           124.2047         estimate D2E/DX2                !
 ! A112  A(30,31,32)           119.0592         estimate D2E/DX2                !
 ! A113  A(31,32,65)           111.445          estimate D2E/DX2                !
 ! A114  A(31,32,66)           111.5347         estimate D2E/DX2                !
 ! A115  A(31,32,67)           105.1893         estimate D2E/DX2                !
 ! A116  A(65,32,66)           109.5256         estimate D2E/DX2                !
 ! A117  A(65,32,67)           109.046          estimate D2E/DX2                !
 ! A118  A(66,32,67)           109.9982         estimate D2E/DX2                !
 ! D1    D(33,1,2,3)          -178.8962         estimate D2E/DX2                !
 ! D2    D(34,1,2,3)           -60.3378         estimate D2E/DX2                !
 ! D3    D(35,1,2,3)            62.5537         estimate D2E/DX2                !
 ! D4    D(1,2,3,4)             -1.9087         estimate D2E/DX2                !
 ! D5    D(1,2,3,10)           178.5673         estimate D2E/DX2                !
 ! D6    D(2,3,4,5)           -179.4725         estimate D2E/DX2                !
 ! D7    D(2,3,4,36)             0.5928         estimate D2E/DX2                !
 ! D8    D(10,3,4,5)             0.0357         estimate D2E/DX2                !
 ! D9    D(10,3,4,36)         -179.899          estimate D2E/DX2                !
 ! D10   D(2,3,10,7)           179.4701         estimate D2E/DX2                !
 ! D11   D(2,3,10,11)           -0.6343         estimate D2E/DX2                !
 ! D12   D(4,3,10,7)            -0.0752         estimate D2E/DX2                !
 ! D13   D(4,3,10,11)          179.8205         estimate D2E/DX2                !
 ! D14   D(3,4,5,6)              0.1017         estimate D2E/DX2                !
 ! D15   D(3,4,5,37)           179.9909         estimate D2E/DX2                !
 ! D16   D(36,4,5,6)          -179.9623         estimate D2E/DX2                !
 ! D17   D(36,4,5,37)           -0.0732         estimate D2E/DX2                !
 ! D18   D(4,5,6,7)             -0.196          estimate D2E/DX2                !
 ! D19   D(4,5,6,38)           179.6123         estimate D2E/DX2                !
 ! D20   D(37,5,6,7)           179.915          estimate D2E/DX2                !
 ! D21   D(37,5,6,38)           -0.2768         estimate D2E/DX2                !
 ! D22   D(5,6,7,8)            179.8818         estimate D2E/DX2                !
 ! D23   D(5,6,7,10)             0.1539         estimate D2E/DX2                !
 ! D24   D(38,6,7,8)             0.0763         estimate D2E/DX2                !
 ! D25   D(38,6,7,10)         -179.6517         estimate D2E/DX2                !
 ! D26   D(6,7,8,9)              6.1953         estimate D2E/DX2                !
 ! D27   D(10,7,8,9)          -174.0634         estimate D2E/DX2                !
 ! D28   D(6,7,10,3)            -0.0201         estimate D2E/DX2                !
 ! D29   D(6,7,10,11)         -179.919          estimate D2E/DX2                !
 ! D30   D(8,7,10,3)          -179.7731         estimate D2E/DX2                !
 ! D31   D(8,7,10,11)            0.328          estimate D2E/DX2                !
 ! D32   D(7,8,9,39)           171.8826         estimate D2E/DX2                !
 ! D33   D(7,8,9,40)           -69.1334         estimate D2E/DX2                !
 ! D34   D(7,8,9,41)            53.739          estimate D2E/DX2                !
 ! D35   D(3,10,11,12)        -110.7839         estimate D2E/DX2                !
 ! D36   D(3,10,11,42)         127.6028         estimate D2E/DX2                !
 ! D37   D(3,10,11,43)           7.909          estimate D2E/DX2                !
 ! D38   D(7,10,11,12)          69.1126         estimate D2E/DX2                !
 ! D39   D(7,10,11,42)         -52.5007         estimate D2E/DX2                !
 ! D40   D(7,10,11,43)        -172.1945         estimate D2E/DX2                !
 ! D41   D(10,11,12,13)       -164.7988         estimate D2E/DX2                !
 ! D42   D(10,11,12,44)        -49.6699         estimate D2E/DX2                !
 ! D43   D(42,11,12,13)        -44.2471         estimate D2E/DX2                !
 ! D44   D(42,11,12,44)         70.8818         estimate D2E/DX2                !
 ! D45   D(43,11,12,13)         75.0127         estimate D2E/DX2                !
 ! D46   D(43,11,12,44)       -169.8584         estimate D2E/DX2                !
 ! D47   D(11,12,13,14)        115.4669         estimate D2E/DX2                !
 ! D48   D(11,12,13,45)       -104.5578         estimate D2E/DX2                !
 ! D49   D(44,12,13,14)         -0.4841         estimate D2E/DX2                !
 ! D50   D(44,12,13,45)        139.4913         estimate D2E/DX2                !
 ! D51   D(12,13,14,15)        -14.4425         estimate D2E/DX2                !
 ! D52   D(12,13,14,16)       -141.5436         estimate D2E/DX2                !
 ! D53   D(12,13,14,20)        110.3343         estimate D2E/DX2                !
 ! D54   D(45,13,14,15)       -152.6692         estimate D2E/DX2                !
 ! D55   D(45,13,14,16)         80.2297         estimate D2E/DX2                !
 ! D56   D(45,13,14,20)        -27.8923         estimate D2E/DX2                !
 ! D57   D(13,14,16,17)         50.8693         estimate D2E/DX2                !
 ! D58   D(13,14,16,46)        172.7523         estimate D2E/DX2                !
 ! D59   D(13,14,16,47)        -70.5695         estimate D2E/DX2                !
 ! D60   D(15,14,16,17)        -74.4984         estimate D2E/DX2                !
 ! D61   D(15,14,16,46)         47.3846         estimate D2E/DX2                !
 ! D62   D(15,14,16,47)        164.0628         estimate D2E/DX2                !
 ! D63   D(20,14,16,17)        159.6771         estimate D2E/DX2                !
 ! D64   D(20,14,16,46)        -78.4399         estimate D2E/DX2                !
 ! D65   D(20,14,16,47)         38.2383         estimate D2E/DX2                !
 ! D66   D(13,14,20,21)       -162.6033         estimate D2E/DX2                !
 ! D67   D(13,14,20,55)        -37.3142         estimate D2E/DX2                !
 ! D68   D(15,14,20,21)        -38.062          estimate D2E/DX2                !
 ! D69   D(15,14,20,55)         87.2271         estimate D2E/DX2                !
 ! D70   D(16,14,20,21)         89.2554         estimate D2E/DX2                !
 ! D71   D(16,14,20,55)       -145.4554         estimate D2E/DX2                !
 ! D72   D(14,16,17,18)         65.0918         estimate D2E/DX2                !
 ! D73   D(14,16,17,19)       -172.1872         estimate D2E/DX2                !
 ! D74   D(14,16,17,48)        -53.661          estimate D2E/DX2                !
 ! D75   D(46,16,17,18)        -54.9984         estimate D2E/DX2                !
 ! D76   D(46,16,17,19)         67.7227         estimate D2E/DX2                !
 ! D77   D(46,16,17,48)       -173.7512         estimate D2E/DX2                !
 ! D78   D(47,16,17,18)       -175.0979         estimate D2E/DX2                !
 ! D79   D(47,16,17,19)        -52.3768         estimate D2E/DX2                !
 ! D80   D(47,16,17,48)         66.1494         estimate D2E/DX2                !
 ! D81   D(16,17,18,49)         63.2195         estimate D2E/DX2                !
 ! D82   D(16,17,18,50)       -176.9337         estimate D2E/DX2                !
 ! D83   D(16,17,18,51)        -56.8102         estimate D2E/DX2                !
 ! D84   D(19,17,18,49)        -59.1623         estimate D2E/DX2                !
 ! D85   D(19,17,18,50)         60.6844         estimate D2E/DX2                !
 ! D86   D(19,17,18,51)       -179.1921         estimate D2E/DX2                !
 ! D87   D(48,17,18,49)       -178.3446         estimate D2E/DX2                !
 ! D88   D(48,17,18,50)        -58.4979         estimate D2E/DX2                !
 ! D89   D(48,17,18,51)         61.6256         estimate D2E/DX2                !
 ! D90   D(16,17,19,52)        -60.7053         estimate D2E/DX2                !
 ! D91   D(16,17,19,53)         59.4154         estimate D2E/DX2                !
 ! D92   D(16,17,19,54)        179.5003         estimate D2E/DX2                !
 ! D93   D(18,17,19,52)         62.1772         estimate D2E/DX2                !
 ! D94   D(18,17,19,53)       -177.7022         estimate D2E/DX2                !
 ! D95   D(18,17,19,54)        -57.6173         estimate D2E/DX2                !
 ! D96   D(48,17,19,52)       -178.7733         estimate D2E/DX2                !
 ! D97   D(48,17,19,53)        -58.6526         estimate D2E/DX2                !
 ! D98   D(48,17,19,54)         61.4323         estimate D2E/DX2                !
 ! D99   D(14,20,21,22)        -99.5588         estimate D2E/DX2                !
 ! D100  D(14,20,21,56)         20.3144         estimate D2E/DX2                !
 ! D101  D(55,20,21,22)        134.1474         estimate D2E/DX2                !
 ! D102  D(55,20,21,56)       -105.9794         estimate D2E/DX2                !
 ! D103  D(20,21,22,23)        155.7743         estimate D2E/DX2                !
 ! D104  D(20,21,22,57)        -83.7389         estimate D2E/DX2                !
 ! D105  D(20,21,22,58)         34.8834         estimate D2E/DX2                !
 ! D106  D(56,21,22,23)         36.3158         estimate D2E/DX2                !
 ! D107  D(56,21,22,57)        156.8026         estimate D2E/DX2                !
 ! D108  D(56,21,22,58)        -84.5751         estimate D2E/DX2                !
 ! D109  D(21,22,23,24)        113.7849         estimate D2E/DX2                !
 ! D110  D(21,22,23,30)        -66.0739         estimate D2E/DX2                !
 ! D111  D(57,22,23,24)         -5.2449         estimate D2E/DX2                !
 ! D112  D(57,22,23,30)        174.8963         estimate D2E/DX2                !
 ! D113  D(58,22,23,24)       -124.1829         estimate D2E/DX2                !
 ! D114  D(58,22,23,30)         55.9583         estimate D2E/DX2                !
 ! D115  D(22,23,24,25)          0.8937         estimate D2E/DX2                !
 ! D116  D(22,23,24,27)       -179.5072         estimate D2E/DX2                !
 ! D117  D(30,23,24,25)       -179.248          estimate D2E/DX2                !
 ! D118  D(30,23,24,27)          0.3511         estimate D2E/DX2                !
 ! D119  D(22,23,30,29)        179.6009         estimate D2E/DX2                !
 ! D120  D(22,23,30,31)         -0.7591         estimate D2E/DX2                !
 ! D121  D(24,23,30,29)         -0.261          estimate D2E/DX2                !
 ! D122  D(24,23,30,31)        179.3789         estimate D2E/DX2                !
 ! D123  D(23,24,25,26)       -177.7523         estimate D2E/DX2                !
 ! D124  D(27,24,25,26)          2.6669         estimate D2E/DX2                !
 ! D125  D(23,24,27,28)         -0.1502         estimate D2E/DX2                !
 ! D126  D(23,24,27,62)        179.8121         estimate D2E/DX2                !
 ! D127  D(25,24,27,28)        179.4162         estimate D2E/DX2                !
 ! D128  D(25,24,27,62)         -0.6215         estimate D2E/DX2                !
 ! D129  D(24,25,26,59)        178.3838         estimate D2E/DX2                !
 ! D130  D(24,25,26,60)        -63.0817         estimate D2E/DX2                !
 ! D131  D(24,25,26,61)         59.8288         estimate D2E/DX2                !
 ! D132  D(24,27,28,29)         -0.149          estimate D2E/DX2                !
 ! D133  D(24,27,28,63)       -179.967          estimate D2E/DX2                !
 ! D134  D(62,27,28,29)        179.888          estimate D2E/DX2                !
 ! D135  D(62,27,28,63)          0.0699         estimate D2E/DX2                !
 ! D136  D(27,28,29,30)          0.2397         estimate D2E/DX2                !
 ! D137  D(27,28,29,64)       -179.4199         estimate D2E/DX2                !
 ! D138  D(63,28,29,30)       -179.9423         estimate D2E/DX2                !
 ! D139  D(63,28,29,64)          0.3981         estimate D2E/DX2                !
 ! D140  D(28,29,30,23)         -0.0321         estimate D2E/DX2                !
 ! D141  D(28,29,30,31)       -179.6385         estimate D2E/DX2                !
 ! D142  D(64,29,30,23)        179.6225         estimate D2E/DX2                !
 ! D143  D(64,29,30,31)          0.016          estimate D2E/DX2                !
 ! D144  D(23,30,31,32)        170.8557         estimate D2E/DX2                !
 ! D145  D(29,30,31,32)         -9.5195         estimate D2E/DX2                !
 ! D146  D(30,31,32,65)        -50.7742         estimate D2E/DX2                !
 ! D147  D(30,31,32,66)         71.9802         estimate D2E/DX2                !
 ! D148  D(30,31,32,67)       -168.8042         estimate D2E/DX2                !
 --------------------------------------------------------------------------------
 Trust Radius=3.00D-01 FncErr=1.00D-07 GrdErr=1.00D-06 EigMax=2.50D+02 EigMin=1.00D-04
 Number of steps in this run=    344 maximum allowed number of steps=    402.
 GradGradGradGradGradGradGradGradGradGradGradGradGradGradGradGradGradGrad

 Leave Link  103 at Fri Nov  4 19:28:54 2022, MaxMem=   805306368 cpu:               0.2 elap:               0.1
 (Enter /home/wykgroup/appl/g16/l202.exe)
 Stoichiometry    C22H35N4O5P
 Framework group  C1[X(C22H35N4O5P)]
 Deg. of freedom   195
 Full point group                 C1      NOp   1
 Largest Abelian subgroup         C1      NOp   1
 Largest concise Abelian subgroup C1      NOp   1
                         Standard orientation:                         
 ---------------------------------------------------------------------
 Center     Atomic      Atomic             Coordinates (Angstroms)
 Number     Number       Type             X           Y           Z
 ---------------------------------------------------------------------
      1          6           0        7.318415   -2.267929   -0.807983
      2          8           0        6.070865   -1.738851   -0.434623
      3          6           0        5.816695   -0.422742   -0.690025
      4          6           0        6.735496    0.449400   -1.268173
      5          6           0        6.390074    1.770719   -1.478492
      6          6           0        5.144273    2.252167   -1.123777
      7          6           0        4.221737    1.386475   -0.548077
      8          8           0        2.968703    1.742171   -0.155836
      9          6           0        2.491862    3.031793   -0.445584
     10          6           0        4.551336    0.043785   -0.327091
     11          6           0        3.523729   -0.856976    0.295719
     12          7           0        2.413439   -1.090714   -0.636857
     13          7           0        1.299058   -1.639564    0.068080
     14         15           0       -0.123871   -0.754970    0.170687
     15          8           0        0.033670    0.659788   -0.203413
     16          6           0       -0.715380   -1.085630    1.881425
     17          6           0        0.367113   -0.847192    2.931956
     18          6           0        0.762080    0.624660    2.981510
     19          6           0       -0.118741   -1.320347    4.300995
     20          7           0       -1.234790   -1.615502   -0.811622
     21          7           0       -2.397885   -0.905635   -1.217976
     22          6           0       -3.541880   -1.256442   -0.374399
     23          6           0       -4.568499   -0.159763   -0.372782
     24          6           0       -5.835751   -0.342596   -0.932909
     25          8           0       -6.089198   -1.574070   -1.460435
     26          6           0       -7.330841   -1.799510   -2.079964
     27          6           0       -6.755806    0.702421   -0.920494
     28          6           0       -6.412094    1.913664   -0.351669
     29          6           0       -5.166617    2.112633    0.212753
     30          6           0       -4.242856    1.074308    0.202006
     31          8           0       -2.989632    1.156989    0.735465
     32          6           0       -2.507805    2.409924    1.157703
     33          1           0        7.285746   -3.320134   -0.528339
     34          1           0        7.485137   -2.187415   -1.886990
     35          1           0        8.141345   -1.779722   -0.275176
     36          1           0        7.716947    0.111109   -1.557591
     37          1           0        7.108894    2.440156   -1.927299
     38          1           0        4.903828    3.289091   -1.293640
     39          1           0        1.439485    3.012928   -0.166116
     40          1           0        3.017631    3.796578    0.136199
     41          1           0        2.576565    3.261411   -1.512153
     42          1           0        3.158910   -0.391377    1.223435
     43          1           0        3.967711   -1.826286    0.530173
     44          1           0        2.109514   -0.180972   -0.987333
     45          1           0        1.196619   -2.630312   -0.110289
     46          1           0       -1.573233   -0.435613    2.061446
     47          1           0       -1.050869   -2.123208    1.915057
     48          1           0        1.248138   -1.434367    2.649131
     49          1           0       -0.086833    1.233297    3.288964
     50          1           0        1.571101    0.779064    3.693250
     51          1           0        1.092944    0.958345    2.002155
     52          1           0       -1.008152   -0.768433    4.599364
     53          1           0       -0.363394   -2.380177    4.280149
     54          1           0        0.651230   -1.161428    5.052758
     55          1           0       -0.773993   -1.994896   -1.635835
     56          1           0       -2.212882    0.095003   -1.133813
     57          1           0       -3.976684   -2.175336   -0.773460
     58          1           0       -3.219446   -1.439699    0.660441
     59          1           0       -7.293507   -2.825160   -2.444447
     60          1           0       -8.160665   -1.699300   -1.372303
     61          1           0       -7.489568   -1.122492   -2.925443
     62          1           0       -7.737183    0.583592   -1.349590
     63          1           0       -7.131415    2.719021   -0.345525
     64          1           0       -4.928751    3.064957    0.657907
     65          1           0       -2.627170    3.167639    0.378126
     66          1           0       -3.007099    2.744969    2.073491
     67          1           0       -1.446095    2.258471    1.346458
 ---------------------------------------------------------------------
 Rotational constants (GHZ):           0.2606006           0.0531444           0.0522781
 Leave Link  202 at Fri Nov  4 19:28:54 2022, MaxMem=   805306368 cpu:               0.6 elap:               0.1
 (Enter /home/wykgroup/appl/g16/l301.exe)
 Standard basis: 6-31G(d) (6D, 7F)
 Ernie: Thresh=  0.10000D-02 Tol=  0.10000D-05 Strict=F.
 There are   554 symmetry adapted cartesian basis functions of A   symmetry.
 There are   554 symmetry adapted basis functions of A   symmetry.
   554 basis functions,  1060 primitive gaussians,   554 cartesian basis functions
   125 alpha electrons      125 beta electrons
       nuclear repulsion energy      3643.7718883458 Hartrees.
 IExCor=  402 DFT=T Ex+Corr=B3LYP ExCW=0 ScaHFX=  0.200000
 ScaDFX=  0.800000  0.720000  1.000000  0.810000 ScalE2=  1.000000  1.000000
 IRadAn=      5 IRanWt=     -1 IRanGd=            0 ICorTp=0 IEmpDi=  4
 NAtoms=   67 NActive=   67 NUniq=   67 SFac= 1.00D+00 NAtFMM=   60 NAOKFM=T Big=T
 Integral buffers will be    131072 words long.
 Raffenetti 2 integral format.
 Two-electron integral symmetry is turned on.
 Leave Link  301 at Fri Nov  4 19:28:54 2022, MaxMem=   805306368 cpu:               0.7 elap:               0.1
 (Enter /home/wykgroup/appl/g16/l302.exe)
 NPDir=0 NMtPBC=     1 NCelOv=     1 NCel=       1 NClECP=     1 NCelD=      1
         NCelK=      1 NCelE2=     1 NClLst=     1 CellRange=     0.0.
 One-electron integrals computed using PRISM.
 One-electron integral symmetry used in STVInt
 NBasis=   554 RedAO= T EigKep=  3.40D-04  NBF=   554
 NBsUse=   554 1.00D-06 EigRej= -1.00D+00 NBFU=   554
 Precomputing XC quadrature grid using
 IXCGrd= 4 IRadAn=           5 IRanWt=          -1 IRanGd=           0 AccXCQ= 0.00D+00.
 Generated NRdTot=       0 NPtTot=           0 NUsed=           0 NTot=          32
 NSgBfM=   539   539   539   539   539 MxSgAt=    67 MxSgA2=    67.
 Leave Link  302 at Fri Nov  4 19:28:56 2022, MaxMem=   805306368 cpu:               9.6 elap:               1.4
 (Enter /home/wykgroup/appl/g16/l303.exe)
 DipDrv:  MaxL=1.
 Leave Link  303 at Fri Nov  4 19:28:56 2022, MaxMem=   805306368 cpu:               1.0 elap:               0.2
 (Enter /home/wykgroup/appl/g16/l401.exe)
 ExpMin= 9.98D-02 ExpMax= 1.94D+04 ExpMxC= 2.91D+03 IAcc=3 IRadAn=         5 AccDes= 0.00D+00
 Harris functional with IExCor=  402 and IRadAn=       5 diagonalized for initial guess.
 HarFok:  IExCor=  402 AccDes= 0.00D+00 IRadAn=         5 IDoV= 1 UseB2=F ITyADJ=14
 ICtDFT=  3500011 ScaDFX=  1.000000  1.000000  1.000000  1.000000
 FoFCou: FMM=F IPFlag=           0 FMFlag=      100000 FMFlg1=        2001
         NFxFlg=           0 DoJE=T BraDBF=F KetDBF=T FulRan=T
         wScrn=  0.000000 ICntrl=       500 IOpCl=  0 I1Cent=   200000004 NGrid=           0
         NMat0=    1 NMatS0=      1 NMatT0=    0 NMatD0=    1 NMtDS0=    0 NMtDT0=    0
 Petite list used in FoFCou.
 Harris En= -1795.86629246721    
 JPrj=0 DoOrth=F DoCkMO=F.
 Leave Link  401 at Fri Nov  4 19:29:02 2022, MaxMem=   805306368 cpu:              41.9 elap:               6.1
 (Enter /home/wykgroup/appl/g16/l502.exe)
 Integral symmetry usage will be decided dynamically.
 Closed shell SCF:
 Using DIIS extrapolation, IDIIS=  1040.
 NGot=   805306368 LenX=   804682338 LenY=   804374868
 Requested convergence on RMS density matrix=1.00D-08 within  32 cycles.
 Requested convergence on MAX density matrix=1.00D-06.
 Requested convergence on             energy=1.00D-06.
 No special actions if energy rises.
 Fock matrices will be formed incrementally for  20 cycles.
 Integral accuracy reduced to 1.0D-05 until final iterations.

 Cycle   1  Pass 0  IDiag  1:
 FoFJK:  IHMeth= 1 ICntrl=       0 DoSepK=F KAlg= 0 I1Cent=           0 FoldK=F
 IRaf= 920000000 NMat=       1 IRICut=       1 DoRegI=T DoRafI=F ISym2E= 0 IDoP0=0 IntGTp=1.
 FoFCou: FMM=T IPFlag=           0 FMFlag=      100000 FMFlg1=        2001
         NFxFlg=           0 DoJE=F BraDBF=F KetDBF=F FulRan=T
         wScrn=  0.000000 ICntrl=         0 IOpCl=  0 I1Cent=           0 NGrid=           0
         NMat0=    1 NMatS0=      1 NMatT0=    0 NMatD0=    1 NMtDS0=    0 NMtDT0=    0
 Symmetry not used in FoFCou.
 FMM levels:  10  Number of levels for PrismC:   9
 E= -1794.93278312628    
 DIIS: error= 2.67D-02 at cycle   1 NSaved=   1.
 NSaved= 1 IEnMin= 1 EnMin= -1794.93278312628     IErMin= 1 ErrMin= 2.67D-02
 ErrMax= 2.67D-02  0.00D+00 EMaxC= 1.00D-01 BMatC= 9.15D-01 BMatP= 9.15D-01
 IDIUse=3 WtCom= 7.33D-01 WtEn= 2.67D-01
 Coeff-Com:  0.100D+01
 Coeff-En:   0.100D+01
 Coeff:      0.100D+01
 Gap=     0.248 Goal=   None    Shift=    0.000
 GapD=    0.248 DampG=1.000 DampE=0.500 DampFc=0.5000 IDamp=-1.
 Damping current iteration by 5.00D-01
 RMSDP=4.06D-03 MaxDP=3.22D-01              OVMax= 2.86D-01

 Cycle   2  Pass 0  IDiag  1:
 RMSU=  2.01D-03    CP:  9.83D-01
 E= -1795.27777595033     Delta-E=       -0.344992824046 Rises=F Damp=T
 DIIS: error= 1.41D-02 at cycle   2 NSaved=   2.
 NSaved= 2 IEnMin= 2 EnMin= -1795.27777595033     IErMin= 2 ErrMin= 1.41D-02
 ErrMax= 1.41D-02  0.00D+00 EMaxC= 1.00D-01 BMatC= 8.34D-02 BMatP= 9.15D-01
 IDIUse=3 WtCom= 8.59D-01 WtEn= 1.41D-01
 Coeff-Com:  0.120D+00 0.880D+00
 Coeff-En:   0.197D+00 0.803D+00
 Coeff:      0.131D+00 0.869D+00
 Gap=     0.317 Goal=   None    Shift=    0.000
 RMSDP=1.22D-03 MaxDP=1.25D-01 DE=-3.45D-01 OVMax= 2.10D-01

 Cycle   3  Pass 0  IDiag  1:
 RMSU=  1.13D-03    CP:  9.74D-01  7.84D-01
 E= -1795.72838913960     Delta-E=       -0.450613189275 Rises=F Damp=F
 DIIS: error= 1.88D-02 at cycle   3 NSaved=   3.
 NSaved= 3 IEnMin= 3 EnMin= -1795.72838913960     IErMin= 2 ErrMin= 1.41D-02
 ErrMax= 1.88D-02  0.00D+00 EMaxC= 1.00D-01 BMatC= 1.00D-01 BMatP= 8.34D-02
 IDIUse=2 WtCom= 0.00D+00 WtEn= 1.00D+00
 Coeff-En:   0.000D+00 0.000D+00 0.100D+01
 Coeff:      0.000D+00 0.000D+00 0.100D+01
 Gap=     0.229 Goal=   None    Shift=    0.000
 RMSDP=1.91D-03 MaxDP=1.82D-01 DE=-4.51D-01 OVMax= 2.80D-01

 Cycle   4  Pass 0  IDiag  1:
 RMSU=  1.02D-03    CP:  9.79D-01  1.14D+00 -2.78D-01
 E= -1795.38288240184     Delta-E=        0.345506737759 Rises=F Damp=F
 DIIS: error= 4.42D-02 at cycle   4 NSaved=   4.
 NSaved= 4 IEnMin= 3 EnMin= -1795.72838913960     IErMin= 2 ErrMin= 1.41D-02
 ErrMax= 4.42D-02  0.00D+00 EMaxC= 1.00D-01 BMatC= 5.28D-01 BMatP= 8.34D-02
 IDIUse=2 WtCom= 0.00D+00 WtEn= 1.00D+00
 Coeff-En:   0.000D+00 0.000D+00 0.790D+00 0.210D+00
 Coeff:      0.000D+00 0.000D+00 0.790D+00 0.210D+00
 Gap=     0.227 Goal=   None    Shift=    0.000
 RMSDP=1.09D-03 MaxDP=9.21D-02 DE= 3.46D-01 OVMax= 1.42D-01

 Cycle   5  Pass 0  IDiag  1:
 RMSU=  2.09D-04    CP:  9.77D-01  8.91D-01  4.03D-01  4.65D-01
 E= -1795.78235917460     Delta-E=       -0.399476772755 Rises=F Damp=F
 DIIS: error= 1.09D-02 at cycle   5 NSaved=   5.
 NSaved= 5 IEnMin= 5 EnMin= -1795.78235917460     IErMin= 5 ErrMin= 1.09D-02
 ErrMax= 1.09D-02  0.00D+00 EMaxC= 1.00D-01 BMatC= 3.52D-02 BMatP= 8.34D-02
 IDIUse=3 WtCom= 8.91D-01 WtEn= 1.09D-01
 Coeff-Com: -0.282D-02 0.198D-01 0.301D+00-0.715D-01 0.753D+00
 Coeff-En:   0.000D+00 0.000D+00 0.298D+00 0.000D+00 0.702D+00
 Coeff:     -0.251D-02 0.177D-01 0.301D+00-0.637D-01 0.748D+00
 Gap=     0.205 Goal=   None    Shift=    0.000
 RMSDP=3.35D-04 MaxDP=3.28D-02 DE=-3.99D-01 OVMax= 4.08D-02

 Cycle   6  Pass 0  IDiag  1:
 RMSU=  6.78D-05    CP:  9.76D-01  8.48D-01  6.24D-01  2.85D-01  7.32D-01
 E= -1795.81013498416     Delta-E=       -0.027775809565 Rises=F Damp=F
 DIIS: error= 6.85D-04 at cycle   6 NSaved=   6.
 NSaved= 6 IEnMin= 6 EnMin= -1795.81013498416     IErMin= 6 ErrMin= 6.85D-04
 ErrMax= 6.85D-04  0.00D+00 EMaxC= 1.00D-01 BMatC= 2.91D-04 BMatP= 3.52D-02
 IDIUse=3 WtCom= 9.93D-01 WtEn= 6.85D-03
 Coeff-Com: -0.285D-02 0.113D-01 0.155D+00-0.533D-01 0.456D+00 0.434D+00
 Coeff-En:   0.000D+00 0.000D+00 0.000D+00 0.000D+00 0.000D+00 0.100D+01
 Coeff:     -0.283D-02 0.112D-01 0.154D+00-0.530D-01 0.453D+00 0.438D+00
 Gap=     0.205 Goal=   None    Shift=    0.000
 RMSDP=4.24D-05 MaxDP=1.86D-03 DE=-2.78D-02 OVMax= 6.08D-03

 Cycle   7  Pass 0  IDiag  1:
 RMSU=  1.78D-05    CP:  9.76D-01  8.49D-01  6.17D-01  2.93D-01  7.92D-01
                    CP:  4.93D-01
 E= -1795.81042078615     Delta-E=       -0.000285801989 Rises=F Damp=F
 DIIS: error= 1.96D-04 at cycle   7 NSaved=   7.
 NSaved= 7 IEnMin= 7 EnMin= -1795.81042078615     IErMin= 7 ErrMin= 1.96D-04
 ErrMax= 1.96D-04  0.00D+00 EMaxC= 1.00D-01 BMatC= 2.49D-05 BMatP= 2.91D-04
 IDIUse=3 WtCom= 9.98D-01 WtEn= 1.96D-03
 Coeff-Com: -0.820D-03 0.284D-02 0.534D-01-0.209D-01 0.160D+00 0.222D+00
 Coeff-Com:  0.584D+00
 Coeff-En:   0.000D+00 0.000D+00 0.000D+00 0.000D+00 0.000D+00 0.478D-02
 Coeff-En:   0.995D+00
 Coeff:     -0.818D-03 0.284D-02 0.533D-01-0.209D-01 0.159D+00 0.222D+00
 Coeff:      0.585D+00
 Gap=     0.205 Goal=   None    Shift=    0.000
 RMSDP=1.07D-05 MaxDP=5.42D-04 DE=-2.86D-04 OVMax= 1.22D-03

 Cycle   8  Pass 0  IDiag  1:
 RMSU=  6.01D-06    CP:  9.76D-01  8.48D-01  6.21D-01  2.90D-01  7.87D-01
                    CP:  5.30D-01  6.31D-01
 E= -1795.81044336833     Delta-E=       -0.000022582181 Rises=F Damp=F
 DIIS: error= 6.27D-05 at cycle   8 NSaved=   8.
 NSaved= 8 IEnMin= 8 EnMin= -1795.81044336833     IErMin= 8 ErrMin= 6.27D-05
 ErrMax= 6.27D-05  0.00D+00 EMaxC= 1.00D-01 BMatC= 3.11D-06 BMatP= 2.49D-05
 IDIUse=1 WtCom= 1.00D+00 WtEn= 0.00D+00
 Coeff-Com:  0.149D-03-0.577D-03 0.978D-02-0.374D-02 0.240D-01 0.596D-01
 Coeff-Com:  0.317D+00 0.594D+00
 Coeff:      0.149D-03-0.577D-03 0.978D-02-0.374D-02 0.240D-01 0.596D-01
 Coeff:      0.317D+00 0.594D+00
 Gap=     0.205 Goal=   None    Shift=    0.000
 RMSDP=3.58D-06 MaxDP=1.55D-04 DE=-2.26D-05 OVMax= 2.83D-04

 Initial convergence to 1.0D-05 achieved.  Increase integral accuracy.
 Cycle   9  Pass 1  IDiag  1:
 E= -1795.81041599430     Delta-E=        0.000027374033 Rises=F Damp=F
 DIIS: error= 9.56D-05 at cycle   1 NSaved=   1.
 NSaved= 1 IEnMin= 1 EnMin= -1795.81041599430     IErMin= 1 ErrMin= 9.56D-05
 ErrMax= 9.56D-05  0.00D+00 EMaxC= 1.00D-01 BMatC= 2.89D-06 BMatP= 2.89D-06
 IDIUse=1 WtCom= 1.00D+00 WtEn= 0.00D+00
 Coeff-Com:  0.100D+01
 Coeff:      0.100D+01
 Gap=     0.205 Goal=   None    Shift=    0.000
 RMSDP=3.58D-06 MaxDP=1.55D-04 DE= 2.74D-05 OVMax= 3.33D-04

 Cycle  10  Pass 1  IDiag  1:
 RMSU=  3.81D-05    CP:  1.00D+00
 E= -1795.81041845902     Delta-E=       -0.000002464716 Rises=F Damp=F
 DIIS: error= 1.72D-05 at cycle   2 NSaved=   2.
 NSaved= 2 IEnMin= 2 EnMin= -1795.81041845902     IErMin= 2 ErrMin= 1.72D-05
 ErrMax= 1.72D-05  0.00D+00 EMaxC= 1.00D-01 BMatC= 3.09D-07 BMatP= 2.89D-06
 IDIUse=1 WtCom= 1.00D+00 WtEn= 0.00D+00
 Coeff-Com:  0.132D+00 0.868D+00
 Coeff:      0.132D+00 0.868D+00
 Gap=     0.205 Goal=   None    Shift=    0.000
 RMSDP=2.41D-06 MaxDP=1.63D-04 DE=-2.46D-06 OVMax= 2.04D-04

 Cycle  11  Pass 1  IDiag  1:
 RMSU=  2.38D-06    CP:  1.00D+00  1.01D+00
 E= -1795.81041822321     Delta-E=        0.000000235807 Rises=F Damp=F
 DIIS: error= 2.63D-05 at cycle   3 NSaved=   3.
 NSaved= 3 IEnMin= 2 EnMin= -1795.81041845902     IErMin= 2 ErrMin= 1.72D-05
 ErrMax= 2.63D-05  0.00D+00 EMaxC= 1.00D-01 BMatC= 5.76D-07 BMatP= 3.09D-07
 IDIUse=1 WtCom= 1.00D+00 WtEn= 0.00D+00
 Coeff-Com: -0.316D-02 0.579D+00 0.424D+00
 Coeff:     -0.316D-02 0.579D+00 0.424D+00
 Gap=     0.205 Goal=   None    Shift=    0.000
 RMSDP=1.43D-06 MaxDP=1.03D-04 DE= 2.36D-07 OVMax= 1.45D-04

 Cycle  12  Pass 1  IDiag  1:
 RMSU=  3.18D-07    CP:  1.00D+00  1.01D+00  4.17D-01
 E= -1795.81041871540     Delta-E=       -0.000000492189 Rises=F Damp=F
 DIIS: error= 2.94D-06 at cycle   4 NSaved=   4.
 NSaved= 4 IEnMin= 4 EnMin= -1795.81041871540     IErMin= 4 ErrMin= 2.94D-06
 ErrMax= 2.94D-06  0.00D+00 EMaxC= 1.00D-01 BMatC= 7.99D-09 BMatP= 3.09D-07
 IDIUse=1 WtCom= 1.00D+00 WtEn= 0.00D+00
 Coeff-Com: -0.368D-02 0.345D+00 0.262D+00 0.396D+00
 Coeff:     -0.368D-02 0.345D+00 0.262D+00 0.396D+00
 Gap=     0.205 Goal=   None    Shift=    0.000
 RMSDP=1.80D-07 MaxDP=1.01D-05 DE=-4.92D-07 OVMax= 2.12D-05

 Cycle  13  Pass 1  IDiag  1:
 RMSU=  8.65D-08    CP:  1.00D+00  1.01D+00  4.34D-01  5.23D-01
 E= -1795.81041872306     Delta-E=       -0.000000007659 Rises=F Damp=F
 DIIS: error= 3.46D-07 at cycle   5 NSaved=   5.
 NSaved= 5 IEnMin= 5 EnMin= -1795.81041872306     IErMin= 5 ErrMin= 3.46D-07
 ErrMax= 3.46D-07  0.00D+00 EMaxC= 1.00D-01 BMatC= 1.49D-10 BMatP= 7.99D-09
 IDIUse=1 WtCom= 1.00D+00 WtEn= 0.00D+00
 Coeff-Com: -0.171D-02 0.148D+00 0.114D+00 0.200D+00 0.540D+00
 Coeff:     -0.171D-02 0.148D+00 0.114D+00 0.200D+00 0.540D+00
 Gap=     0.205 Goal=   None    Shift=    0.000
 RMSDP=2.86D-08 MaxDP=1.80D-06 DE=-7.66D-09 OVMax= 2.02D-06

 Cycle  14  Pass 1  IDiag  1:
 RMSU=  2.48D-08    CP:  1.00D+00  1.01D+00  4.33D-01  5.27D-01  8.40D-01
 E= -1795.81041872325     Delta-E=       -0.000000000191 Rises=F Damp=F
 DIIS: error= 1.19D-07 at cycle   6 NSaved=   6.
 NSaved= 6 IEnMin= 6 EnMin= -1795.81041872325     IErMin= 6 ErrMin= 1.19D-07
 ErrMax= 1.19D-07  0.00D+00 EMaxC= 1.00D-01 BMatC= 8.08D-12 BMatP= 1.49D-10
 IDIUse=1 WtCom= 1.00D+00 WtEn= 0.00D+00
 Coeff-Com: -0.347D-03 0.277D-01 0.214D-01 0.438D-01 0.224D+00 0.683D+00
 Coeff:     -0.347D-03 0.277D-01 0.214D-01 0.438D-01 0.224D+00 0.683D+00
 Gap=     0.205 Goal=   None    Shift=    0.000
 RMSDP=7.66D-09 MaxDP=7.65D-07 DE=-1.91D-10 OVMax= 7.77D-07

 SCF Done:  E(RB3LYP) =  -1795.81041872     A.U. after   14 cycles
            NFock= 14  Conv=0.77D-08     -V/T= 2.0078
 KE= 1.781918010555D+03 PE=-1.148721191471D+04 EE= 4.265711597081D+03
 Leave Link  502 at Fri Nov  4 19:30:50 2022, MaxMem=   805306368 cpu:             750.4 elap:             108.3
 (Enter /home/wykgroup/appl/g16/l508.exe)
 QCSCF skips out because SCF is already converged.
 Leave Link  508 at Fri Nov  4 19:30:50 2022, MaxMem=   805306368 cpu:               0.2 elap:               0.1
 (Enter /home/wykgroup/appl/g16/l601.exe)
 Copying SCF densities to generalized density rwf, IOpCl= 0 IROHF=0.

 **********************************************************************

            Population analysis using the SCF Density.

 **********************************************************************

 Orbital symmetries:
       Occupied  (A) (A) (A) (A) (A) (A) (A) (A) (A) (A) (A) (A)
                 (A) (A) (A) (A) (A) (A) (A) (A) (A) (A) (A) (A)
                 (A) (A) (A) (A) (A) (A) (A) (A) (A) (A) (A) (A)
                 (A) (A) (A) (A) (A) (A) (A) (A) (A) (A) (A) (A)
                 (A) (A) (A) (A) (A) (A) (A) (A) (A) (A) (A) (A)
                 (A) (A) (A) (A) (A) (A) (A) (A) (A) (A) (A) (A)
                 (A) (A) (A) (A) (A) (A) (A) (A) (A) (A) (A) (A)
                 (A) (A) (A) (A) (A) (A) (A) (A) (A) (A) (A) (A)
                 (A) (A) (A) (A) (A) (A) (A) (A) (A) (A) (A) (A)
                 (A) (A) (A) (A) (A) (A) (A) (A) (A) (A) (A) (A)
                 (A) (A) (A) (A) (A)
       Virtual   (A) (A) (A) (A) (A) (A) (A) (A) (A) (A) (A) (A)
                 (A) (A) (A) (A) (A) (A) (A) (A) (A) (A) (A) (A)
                 (A) (A) (A) (A) (A) (A) (A) (A) (A) (A) (A) (A)
                 (A) (A) (A) (A) (A) (A) (A) (A) (A) (A) (A) (A)
                 (A) (A) (A) (A) (A) (A) (A) (A) (A) (A) (A) (A)
                 (A) (A) (A) (A) (A) (A) (A) (A) (A) (A) (A) (A)
                 (A) (A) (A) (A) (A) (A) (A) (A) (A) (A) (A) (A)
                 (A) (A) (A) (A) (A) (A) (A) (A) (A) (A) (A) (A)
                 (A) (A) (A) (A) (A) (A) (A) (A) (A) (A) (A) (A)
                 (A) (A) (A) (A) (A) (A) (A) (A) (A) (A) (A) (A)
                 (A) (A) (A) (A) (A) (A) (A) (A) (A) (A) (A) (A)
                 (A) (A) (A) (A) (A) (A) (A) (A) (A) (A) (A) (A)
                 (A) (A) (A) (A) (A) (A) (A) (A) (A) (A) (A) (A)
                 (A) (A) (A) (A) (A) (A) (A) (A) (A) (A) (A) (A)
                 (A) (A) (A) (A) (A) (A) (A) (A) (A) (A) (A) (A)
                 (A) (A) (A) (A) (A) (A) (A) (A) (A) (A) (A) (A)
                 (A) (A) (A) (A) (A) (A) (A) (A) (A) (A) (A) (A)
                 (A) (A) (A) (A) (A) (A) (A) (A) (A) (A) (A) (A)
                 (A) (A) (A) (A) (A) (A) (A) (A) (A) (A) (A) (A)
                 (A) (A) (A) (A) (A) (A) (A) (A) (A) (A) (A) (A)
                 (A) (A) (A) (A) (A) (A) (A) (A) (A) (A) (A) (A)
                 (A) (A) (A) (A) (A) (A) (A) (A) (A) (A) (A) (A)
                 (A) (A) (A) (A) (A) (A) (A) (A) (A) (A) (A) (A)
                 (A) (A) (A) (A) (A) (A) (A) (A) (A) (A) (A) (A)
                 (A) (A) (A) (A) (A) (A) (A) (A) (A) (A) (A) (A)
                 (A) (A) (A) (A) (A) (A) (A) (A) (A) (A) (A) (A)
                 (A) (A) (A) (A) (A) (A) (A) (A) (A) (A) (A) (A)
                 (A) (A) (A) (A) (A) (A) (A) (A) (A) (A) (A) (A)
                 (A) (A) (A) (A) (A) (A) (A) (A) (A) (A) (A) (A)
                 (A) (A) (A) (A) (A) (A) (A) (A) (A) (A) (A) (A)
                 (A) (A) (A) (A) (A) (A) (A) (A) (A) (A) (A) (A)
                 (A) (A) (A) (A) (A) (A) (A) (A) (A) (A) (A) (A)
                 (A) (A) (A) (A) (A) (A) (A) (A) (A) (A) (A) (A)
                 (A) (A) (A) (A) (A) (A) (A) (A) (A) (A) (A) (A)
                 (A) (A) (A) (A) (A) (A) (A) (A) (A) (A) (A) (A)
                 (A) (A) (A) (A) (A) (A) (A) (A) (A)
 The electronic state is 1-A.
 Alpha  occ. eigenvalues --  -77.16661 -19.17719 -19.17409 -19.17253 -19.17144
 Alpha  occ. eigenvalues --  -19.08721 -14.34389 -14.33732 -14.33320 -14.33003
 Alpha  occ. eigenvalues --  -10.24215 -10.24145 -10.23965 -10.23804 -10.23688
 Alpha  occ. eigenvalues --  -10.23587 -10.23007 -10.22702 -10.18989 -10.18820
 Alpha  occ. eigenvalues --  -10.18577 -10.18327 -10.17893 -10.17797 -10.17575
 Alpha  occ. eigenvalues --  -10.17562 -10.17560 -10.17298 -10.17270 -10.17238
 Alpha  occ. eigenvalues --  -10.16270 -10.15425  -6.62096  -4.78477  -4.78381
 Alpha  occ. eigenvalues --   -4.78188  -1.06729  -1.06436  -1.06385  -1.06193
 Alpha  occ. eigenvalues --   -0.98779  -0.95184  -0.93658  -0.85197  -0.84933
 Alpha  occ. eigenvalues --   -0.81196  -0.79699  -0.78838  -0.75598  -0.75279
 Alpha  occ. eigenvalues --   -0.75024  -0.74078  -0.70153  -0.69905  -0.69461
 Alpha  occ. eigenvalues --   -0.68591  -0.68352  -0.67379  -0.64615  -0.64156
 Alpha  occ. eigenvalues --   -0.58774  -0.58615  -0.58286  -0.57976  -0.57523
 Alpha  occ. eigenvalues --   -0.55324  -0.53783  -0.53448  -0.51102  -0.50295
 Alpha  occ. eigenvalues --   -0.49752  -0.49572  -0.48661  -0.48602  -0.48331
 Alpha  occ. eigenvalues --   -0.47335  -0.46982  -0.46666  -0.46495  -0.46358
 Alpha  occ. eigenvalues --   -0.45998  -0.45376  -0.44851  -0.44402  -0.43830
 Alpha  occ. eigenvalues --   -0.43243  -0.42363  -0.42070  -0.41107  -0.40983
 Alpha  occ. eigenvalues --   -0.40348  -0.40168  -0.39396  -0.39140  -0.38456
 Alpha  occ. eigenvalues --   -0.37858  -0.37713  -0.37435  -0.37101  -0.36775
 Alpha  occ. eigenvalues --   -0.36605  -0.35810  -0.35684  -0.35230  -0.34056
 Alpha  occ. eigenvalues --   -0.33717  -0.33226  -0.33109  -0.32902  -0.32117
 Alpha  occ. eigenvalues --   -0.31845  -0.31407  -0.31023  -0.30109  -0.29838
 Alpha  occ. eigenvalues --   -0.28821  -0.27925  -0.26456  -0.24112  -0.22314
 Alpha  occ. eigenvalues --   -0.21784  -0.21519  -0.21140  -0.20986  -0.20028
 Alpha virt. eigenvalues --    0.00476   0.00745   0.02673   0.03017   0.06834
 Alpha virt. eigenvalues --    0.07946   0.08984   0.09502   0.09866   0.10362
 Alpha virt. eigenvalues --    0.10704   0.10923   0.11420   0.11679   0.12876
 Alpha virt. eigenvalues --    0.13011   0.13613   0.14091   0.14235   0.14682
 Alpha virt. eigenvalues --    0.14784   0.14931   0.15279   0.15675   0.15741
 Alpha virt. eigenvalues --    0.16452   0.16797   0.17019   0.17143   0.17204
 Alpha virt. eigenvalues --    0.17457   0.17579   0.17805   0.18281   0.18505
 Alpha virt. eigenvalues --    0.18681   0.18815   0.19102   0.19629   0.20000
 Alpha virt. eigenvalues --    0.20208   0.20380   0.20898   0.21197   0.21728
 Alpha virt. eigenvalues --    0.22046   0.22942   0.23627   0.24124   0.24700
 Alpha virt. eigenvalues --    0.25208   0.25538   0.26076   0.26368   0.26595
 Alpha virt. eigenvalues --    0.26820   0.28177   0.28400   0.29237   0.30251
 Alpha virt. eigenvalues --    0.30586   0.31240   0.34620   0.34794   0.35170
 Alpha virt. eigenvalues --    0.35608   0.37669   0.37939   0.40698   0.41398
 Alpha virt. eigenvalues --    0.41588   0.44512   0.47173   0.48148   0.48889
 Alpha virt. eigenvalues --    0.49160   0.50085   0.50378   0.50877   0.51631
 Alpha virt. eigenvalues --    0.52172   0.52459   0.52847   0.52961   0.53531
 Alpha virt. eigenvalues --    0.53866   0.54166   0.55211   0.55575   0.55623
 Alpha virt. eigenvalues --    0.56314   0.56875   0.56970   0.57312   0.57668
 Alpha virt. eigenvalues --    0.57936   0.58287   0.58866   0.59178   0.59630
 Alpha virt. eigenvalues --    0.60532   0.60787   0.61057   0.61600   0.61887
 Alpha virt. eigenvalues --    0.63134   0.63358   0.63499   0.64200   0.64632
 Alpha virt. eigenvalues --    0.65171   0.65631   0.65987   0.66905   0.67718
 Alpha virt. eigenvalues --    0.68457   0.69058   0.69406   0.70471   0.70728
 Alpha virt. eigenvalues --    0.70925   0.71190   0.71973   0.72440   0.73300
 Alpha virt. eigenvalues --    0.73811   0.74553   0.75068   0.75407   0.76591
 Alpha virt. eigenvalues --    0.77717   0.78451   0.78954   0.80246   0.81256
 Alpha virt. eigenvalues --    0.81755   0.83363   0.83839   0.84150   0.84673
 Alpha virt. eigenvalues --    0.84910   0.85121   0.85290   0.85481   0.85886
 Alpha virt. eigenvalues --    0.86070   0.86245   0.86848   0.87017   0.87319
 Alpha virt. eigenvalues --    0.87996   0.88325   0.88740   0.89970   0.90278
 Alpha virt. eigenvalues --    0.90380   0.90704   0.91024   0.91309   0.92083
 Alpha virt. eigenvalues --    0.92340   0.92429   0.92912   0.93700   0.93816
 Alpha virt. eigenvalues --    0.94114   0.94219   0.94823   0.95374   0.95431
 Alpha virt. eigenvalues --    0.96186   0.96547   0.97162   0.98678   0.98760
 Alpha virt. eigenvalues --    0.99027   0.99297   0.99818   1.00773   1.00779
 Alpha virt. eigenvalues --    1.01368   1.02016   1.02682   1.02878   1.03101
 Alpha virt. eigenvalues --    1.04021   1.04314   1.04667   1.04852   1.06481
 Alpha virt. eigenvalues --    1.07026   1.08137   1.08341   1.08506   1.09343
 Alpha virt. eigenvalues --    1.10382   1.11413   1.12166   1.13170   1.14257
 Alpha virt. eigenvalues --    1.14929   1.16451   1.17758   1.19023   1.20767
 Alpha virt. eigenvalues --    1.21221   1.21831   1.22530   1.22693   1.23505
 Alpha virt. eigenvalues --    1.24809   1.25559   1.26500   1.26891   1.27739
 Alpha virt. eigenvalues --    1.29724   1.30672   1.31454   1.31800   1.33124
 Alpha virt. eigenvalues --    1.33407   1.34639   1.35900   1.36027   1.36791
 Alpha virt. eigenvalues --    1.38598   1.39622   1.39729   1.39987   1.42275
 Alpha virt. eigenvalues --    1.43673   1.45455   1.45806   1.46741   1.47416
 Alpha virt. eigenvalues --    1.47698   1.47823   1.48044   1.48753   1.49219
 Alpha virt. eigenvalues --    1.50110   1.51411   1.51778   1.52480   1.52759
 Alpha virt. eigenvalues --    1.55255   1.56154   1.56866   1.58159   1.60282
 Alpha virt. eigenvalues --    1.63420   1.64557   1.66839   1.67973   1.68741
 Alpha virt. eigenvalues --    1.69085   1.72192   1.72652   1.72966   1.76154
 Alpha virt. eigenvalues --    1.76597   1.77034   1.80061   1.80488   1.80606
 Alpha virt. eigenvalues --    1.81685   1.82452   1.83559   1.84164   1.84609
 Alpha virt. eigenvalues --    1.85910   1.86866   1.87492   1.87708   1.89071
 Alpha virt. eigenvalues --    1.89673   1.90973   1.92324   1.92841   1.93894
 Alpha virt. eigenvalues --    1.94005   1.95163   1.95284   1.95420   1.95822
 Alpha virt. eigenvalues --    1.96613   1.96897   1.97663   1.98576   2.00769
 Alpha virt. eigenvalues --    2.01991   2.02284   2.03166   2.03435   2.03801
 Alpha virt. eigenvalues --    2.05254   2.05329   2.06432   2.07631   2.08110
 Alpha virt. eigenvalues --    2.08202   2.08690   2.09663   2.10336   2.10665
 Alpha virt. eigenvalues --    2.11367   2.11633   2.12744   2.13039   2.13746
 Alpha virt. eigenvalues --    2.13828   2.14605   2.14994   2.15739   2.16958
 Alpha virt. eigenvalues --    2.17819   2.18612   2.18854   2.19158   2.20999
 Alpha virt. eigenvalues --    2.21847   2.22217   2.23091   2.25343   2.25584
 Alpha virt. eigenvalues --    2.25963   2.26109   2.26882   2.27029   2.27379
 Alpha virt. eigenvalues --    2.27580   2.28129   2.28545   2.29388   2.30508
 Alpha virt. eigenvalues --    2.31604   2.32240   2.33624   2.34024   2.35021
 Alpha virt. eigenvalues --    2.36221   2.37323   2.38498   2.39387   2.40196
 Alpha virt. eigenvalues --    2.40587   2.41667   2.43145   2.44120   2.45272
 Alpha virt. eigenvalues --    2.46244   2.49780   2.51401   2.51958   2.52523
 Alpha virt. eigenvalues --    2.52740   2.54208   2.54793   2.55397   2.56031
 Alpha virt. eigenvalues --    2.59615   2.59889   2.62857   2.62981   2.64779
 Alpha virt. eigenvalues --    2.65155   2.67021   2.67636   2.69670   2.69857
 Alpha virt. eigenvalues --    2.70342   2.70850   2.72750   2.72963   2.74056
 Alpha virt. eigenvalues --    2.76850   2.77531   2.78280   2.79795   2.80007
 Alpha virt. eigenvalues --    2.83959   2.84310   2.85876   2.86168   2.91783
 Alpha virt. eigenvalues --    2.92759   2.93502   3.01743   3.01941   3.05067
 Alpha virt. eigenvalues --    3.06047   3.10306   3.10774   3.28164   3.28725
 Alpha virt. eigenvalues --    3.47933   3.48292   3.56934   3.84906   3.89323
 Alpha virt. eigenvalues --    3.98115   4.04923   4.07314   4.08026   4.09299
 Alpha virt. eigenvalues --    4.10080   4.11629   4.12094   4.15199   4.22190
 Alpha virt. eigenvalues --    4.22579   4.23151   4.24304   4.24686   4.31650
 Alpha virt. eigenvalues --    4.35016   4.35973   4.36527   4.36739   4.39147
 Alpha virt. eigenvalues --    4.40593   4.41380   4.54785   4.56097   4.60687
 Alpha virt. eigenvalues --    4.63766   4.64441   4.84274   4.85239
          Condensed to atoms (all electrons):
 Mulliken charges:
               1
     1  C   -0.212279
     2  O   -0.510244
     3  C    0.333309
     4  C   -0.198089
     5  C   -0.139430
     6  C   -0.194203
     7  C    0.333272
     8  O   -0.505180
     9  C   -0.220103
    10  C    0.020071
    11  C   -0.157176
    12  N   -0.474046
    13  N   -0.590089
    14  P    1.115414
    15  O   -0.609971
    16  C   -0.482256
    17  C   -0.088150
    18  C   -0.469397
    19  C   -0.441001
    20  N   -0.572429
    21  N   -0.472819
    22  C   -0.151024
    23  C    0.014238
    24  C    0.331568
    25  O   -0.508002
    26  C   -0.213050
    27  C   -0.196507
    28  C   -0.139964
    29  C   -0.195441
    30  C    0.332958
    31  O   -0.513911
    32  C   -0.228289
    33  H    0.166877
    34  H    0.151802
    35  H    0.149443
    36  H    0.123789
    37  H    0.127120
    38  H    0.126459
    39  H    0.193274
    40  H    0.142081
    41  H    0.148197
    42  H    0.146606
    43  H    0.157379
    44  H    0.348961
    45  H    0.333184
    46  H    0.185025
    47  H    0.165931
    48  H    0.147422
    49  H    0.128134
    50  H    0.134123
    51  H    0.197135
    52  H    0.137469
    53  H    0.136865
    54  H    0.141418
    55  H    0.329454
    56  H    0.334092
    57  H    0.165127
    58  H    0.139499
    59  H    0.168776
    60  H    0.149536
    61  H    0.152183
    62  H    0.125228
    63  H    0.128435
    64  H    0.127793
    65  H    0.151565
    66  H    0.143167
    67  H    0.198670
 Sum of Mulliken charges =  -0.00000
 Mulliken charges with hydrogens summed into heavy atoms:
               1
     1  C    0.255843
     2  O   -0.510244
     3  C    0.333309
     4  C   -0.074301
     5  C   -0.012311
     6  C   -0.067744
     7  C    0.333272
     8  O   -0.505180
     9  C    0.263449
    10  C    0.020071
    11  C    0.146809
    12  N   -0.125086
    13  N   -0.256904
    14  P    1.115414
    15  O   -0.609971
    16  C   -0.131299
    17  C    0.059272
    18  C   -0.010005
    19  C   -0.025249
    20  N   -0.242975
    21  N   -0.138727
    22  C    0.153602
    23  C    0.014238
    24  C    0.331568
    25  O   -0.508002
    26  C    0.257446
    27  C   -0.071279
    28  C   -0.011529
    29  C   -0.067647
    30  C    0.332958
    31  O   -0.513911
    32  C    0.265114
 Electronic spatial extent (au):  <R**2>=          21099.8924
 Charge=              0.0000 electrons
 Dipole moment (field-independent basis, Debye):
    X=             -0.2618    Y=              0.6401    Z=              0.1607  Tot=              0.7100
 Quadrupole moment (field-independent basis, Debye-Ang):
   XX=           -155.5475   YY=           -178.2345   ZZ=           -197.9027
   XY=             -4.3965   XZ=             -0.0548   YZ=              1.9633
 Traceless Quadrupole moment (field-independent basis, Debye-Ang):
   XX=             21.6807   YY=             -1.0062   ZZ=            -20.6745
   XY=             -4.3965   XZ=             -0.0548   YZ=              1.9633
 Octapole moment (field-independent basis, Debye-Ang**2):
  XXX=            -13.3862  YYY=             10.3197  ZZZ=            -11.6487  XYY=             14.6971
  XXY=            -59.4418  XXZ=           -118.1279  XZZ=            -10.7704  YZZ=             -6.6754
  YYZ=            -11.8218  XYZ=            -25.5248
 Hexadecapole moment (field-independent basis, Debye-Ang**3):
 XXXX=         -18673.2583 YYYY=          -2764.5219 ZZZZ=          -2784.3493 XXXY=           -233.5612
 XXXZ=            261.2422 YYYX=            -40.8882 YYYZ=             43.3013 ZZZX=             88.4600
 ZZZY=             59.4931 XXYY=          -3814.9671 XXZZ=          -4088.2402 YYZZ=           -935.3405
 XXYZ=            139.0303 YYXZ=            -38.4058 ZZXY=             45.6108
 N-N= 3.643771888346D+03 E-N=-1.148721192057D+04  KE= 1.781918010555D+03
 No NMR shielding tensors so no spin-rotation constants.
[...]
 (Enter /home/wykgroup/appl/g16/l601.exe)
 Copying SCF densities to generalized density rwf, IOpCl= 0 IROHF=0.

 **********************************************************************

            Population analysis using the SCF Density.

 **********************************************************************

 Orbital symmetries:
       Occupied  (A) (A) (A) (A) (A) (A) (A) (A) (A) (A) (A) (A)
                 (A) (A) (A) (A) (A) (A) (A) (A) (A) (A) (A) (A)
                 (A) (A) (A) (A) (A) (A) (A) (A) (A) (A) (A) (A)
                 (A) (A) (A) (A) (A) (A) (A) (A) (A) (A) (A) (A)
                 (A) (A) (A) (A) (A) (A) (A) (A) (A) (A) (A) (A)
                 (A) (A) (A) (A) (A) (A) (A) (A) (A) (A) (A) (A)
                 (A) (A) (A) (A) (A) (A) (A) (A) (A) (A) (A) (A)
                 (A) (A) (A) (A) (A) (A) (A) (A) (A) (A) (A) (A)
                 (A) (A) (A) (A) (A) (A) (A) (A) (A) (A) (A) (A)
                 (A) (A) (A) (A) (A) (A) (A) (A) (A) (A) (A) (A)
                 (A) (A) (A) (A) (A)
       Virtual   (A) (A) (A) (A) (A) (A) (A) (A) (A) (A) (A) (A)
                 (A) (A) (A) (A) (A) (A) (A) (A) (A) (A) (A) (A)
                 (A) (A) (A) (A) (A) (A) (A) (A) (A) (A) (A) (A)
                 (A) (A) (A) (A) (A) (A) (A) (A) (A) (A) (A) (A)
                 (A) (A) (A) (A) (A) (A) (A) (A) (A) (A) (A) (A)
                 (A) (A) (A) (A) (A) (A) (A) (A) (A) (A) (A) (A)
                 (A) (A) (A) (A) (A) (A) (A) (A) (A) (A) (A) (A)
                 (A) (A) (A) (A) (A) (A) (A) (A) (A) (A) (A) (A)
                 (A) (A) (A) (A) (A) (A) (A) (A) (A) (A) (A) (A)
                 (A) (A) (A) (A) (A) (A) (A) (A) (A) (A) (A) (A)
                 (A) (A) (A) (A) (A) (A) (A) (A) (A) (A) (A) (A)
                 (A) (A) (A) (A) (A) (A) (A) (A) (A) (A) (A) (A)
                 (A) (A) (A) (A) (A) (A) (A) (A) (A) (A) (A) (A)
                 (A) (A) (A) (A) (A) (A) (A) (A) (A) (A) (A) (A)
                 (A) (A) (A) (A) (A) (A) (A) (A) (A) (A) (A) (A)
                 (A) (A) (A) (A) (A) (A) (A) (A) (A) (A) (A) (A)
                 (A) (A) (A) (A) (A) (A) (A) (A) (A) (A) (A) (A)
                 (A) (A) (A) (A) (A) (A) (A) (A) (A) (A) (A) (A)
                 (A) (A) (A) (A) (A) (A) (A) (A) (A) (A) (A) (A)
                 (A) (A) (A) (A) (A) (A) (A) (A) (A) (A) (A) (A)
                 (A) (A) (A) (A) (A) (A) (A) (A) (A) (A) (A) (A)
                 (A) (A) (A) (A) (A) (A) (A) (A) (A) (A) (A) (A)
                 (A) (A) (A) (A) (A) (A) (A) (A) (A) (A) (A) (A)
                 (A) (A) (A) (A) (A) (A) (A) (A) (A) (A) (A) (A)
                 (A) (A) (A) (A) (A) (A) (A) (A) (A) (A) (A) (A)
                 (A) (A) (A) (A) (A) (A) (A) (A) (A) (A) (A) (A)
                 (A) (A) (A) (A) (A) (A) (A) (A) (A) (A) (A) (A)
                 (A) (A) (A) (A) (A) (A) (A) (A) (A) (A) (A) (A)
                 (A) (A) (A) (A) (A) (A) (A) (A) (A) (A) (A) (A)
                 (A) (A) (A) (A) (A) (A) (A) (A) (A) (A) (A) (A)
                 (A) (A) (A) (A) (A) (A) (A) (A) (A) (A) (A) (A)
                 (A) (A) (A) (A) (A) (A) (A) (A) (A) (A) (A) (A)
                 (A) (A) (A) (A) (A) (A) (A) (A) (A) (A) (A) (A)
                 (A) (A) (A) (A) (A) (A) (A) (A) (A) (A) (A) (A)
                 (A) (A) (A) (A) (A) (A) (A) (A) (A) (A) (A) (A)
                 (A) (A) (A) (A) (A) (A) (A) (A) (A)
 The electronic state is 1-A.
 Alpha  occ. eigenvalues --  -77.16767 -19.18277 -19.17631 -19.16964 -19.16732
 Alpha  occ. eigenvalues --  -19.08124 -14.34428 -14.33991 -14.33899 -14.33037
 Alpha  occ. eigenvalues --  -10.24747 -10.24716 -10.24247 -10.24046 -10.23906
 Alpha  occ. eigenvalues --  -10.23701 -10.23530 -10.22784 -10.19775 -10.19221
 Alpha  occ. eigenvalues --  -10.18778 -10.18595 -10.18498 -10.18432 -10.18210
 Alpha  occ. eigenvalues --  -10.18127 -10.17951 -10.17538 -10.17337 -10.17314
 Alpha  occ. eigenvalues --  -10.16771 -10.15726  -6.62037  -4.78432  -4.78305
 Alpha  occ. eigenvalues --   -4.78160  -1.06614  -1.06245  -1.05617  -1.05373
 Alpha  occ. eigenvalues --   -0.97446  -0.94536  -0.92363  -0.84993  -0.84096
 Alpha  occ. eigenvalues --   -0.80732  -0.79450  -0.78390  -0.75451  -0.75279
 Alpha  occ. eigenvalues --   -0.74440  -0.73837  -0.70388  -0.69626  -0.69420
 Alpha  occ. eigenvalues --   -0.68911  -0.68094  -0.67068  -0.64816  -0.63806
 Alpha  occ. eigenvalues --   -0.58953  -0.58520  -0.58053  -0.57698  -0.57377
 Alpha  occ. eigenvalues --   -0.55092  -0.53820  -0.52906  -0.50951  -0.49932
 Alpha  occ. eigenvalues --   -0.49528  -0.49175  -0.48598  -0.48186  -0.47681
 Alpha  occ. eigenvalues --   -0.47288  -0.46754  -0.46654  -0.46543  -0.46039
 Alpha  occ. eigenvalues --   -0.45530  -0.45173  -0.44663  -0.44420  -0.43517
 Alpha  occ. eigenvalues --   -0.43360  -0.42597  -0.42041  -0.41358  -0.40798
 Alpha  occ. eigenvalues --   -0.40600  -0.39796  -0.39406  -0.38631  -0.38264
 Alpha  occ. eigenvalues --   -0.37910  -0.37751  -0.37411  -0.37140  -0.36704
 Alpha  occ. eigenvalues --   -0.36647  -0.35900  -0.35193  -0.34641  -0.34236
 Alpha  occ. eigenvalues --   -0.33794  -0.33322  -0.32847  -0.32608  -0.32312
 Alpha  occ. eigenvalues --   -0.31809  -0.31702  -0.30781  -0.30276  -0.29363
 Alpha  occ. eigenvalues --   -0.28841  -0.26557  -0.25265  -0.24109  -0.22191
 Alpha  occ. eigenvalues --   -0.21904  -0.21606  -0.21469  -0.20717  -0.20629
 Alpha virt. eigenvalues --    0.00007   0.00827   0.02243   0.03150   0.06577
 Alpha virt. eigenvalues --    0.08089   0.08656   0.08784   0.09685   0.09782
 Alpha virt. eigenvalues --    0.10429   0.11064   0.11354   0.11399   0.12117
 Alpha virt. eigenvalues --    0.12564   0.13162   0.13293   0.13640   0.14364
 Alpha virt. eigenvalues --    0.14457   0.14652   0.15166   0.15390   0.15759
 Alpha virt. eigenvalues --    0.15955   0.16271   0.16497   0.16649   0.16774
 Alpha virt. eigenvalues --    0.16996   0.17185   0.17531   0.17762   0.17861
 Alpha virt. eigenvalues --    0.18358   0.18478   0.18834   0.18988   0.19488
 Alpha virt. eigenvalues --    0.19796   0.19948   0.20684   0.20813   0.21292
 Alpha virt. eigenvalues --    0.21668   0.22416   0.23118   0.23590   0.24025
 Alpha virt. eigenvalues --    0.24674   0.25023   0.25362   0.25655   0.26088
 Alpha virt. eigenvalues --    0.26419   0.27687   0.27759   0.28884   0.29432
 Alpha virt. eigenvalues --    0.30041   0.31039   0.33653   0.34330   0.34416
 Alpha virt. eigenvalues --    0.35807   0.37212   0.38084   0.40105   0.40881
 Alpha virt. eigenvalues --    0.41140   0.43317   0.44414   0.47085   0.48193
 Alpha virt. eigenvalues --    0.48653   0.49465   0.50184   0.50497   0.51218
 Alpha virt. eigenvalues --    0.51883   0.52274   0.52523   0.52705   0.53023
 Alpha virt. eigenvalues --    0.53749   0.54398   0.54546   0.55198   0.55310
 Alpha virt. eigenvalues --    0.55528   0.56116   0.56409   0.57147   0.57224
 Alpha virt. eigenvalues --    0.57700   0.57750   0.58267   0.58600   0.59063
 Alpha virt. eigenvalues --    0.59178   0.60144   0.60850   0.61066   0.61632
 Alpha virt. eigenvalues --    0.62539   0.62856   0.63087   0.63325   0.63588
 Alpha virt. eigenvalues --    0.63777   0.64364   0.65021   0.66020   0.66490
 Alpha virt. eigenvalues --    0.67797   0.68563   0.69355   0.69872   0.70502
 Alpha virt. eigenvalues --    0.71211   0.71524   0.72331   0.72903   0.73035
 Alpha virt. eigenvalues --    0.73463   0.74271   0.75312   0.75778   0.76102
 Alpha virt. eigenvalues --    0.77040   0.77753   0.78471   0.78889   0.79850
 Alpha virt. eigenvalues --    0.81512   0.83013   0.83280   0.83510   0.84175
 Alpha virt. eigenvalues --    0.84506   0.84660   0.84984   0.85226   0.85338
 Alpha virt. eigenvalues --    0.85480   0.85923   0.86034   0.86534   0.86710
 Alpha virt. eigenvalues --    0.87164   0.88020   0.88329   0.88494   0.89117
 Alpha virt. eigenvalues --    0.89653   0.90272   0.90499   0.90636   0.91428
 Alpha virt. eigenvalues --    0.91799   0.92175   0.92452   0.92709   0.93310
 Alpha virt. eigenvalues --    0.93717   0.93918   0.93998   0.94564   0.94788
 Alpha virt. eigenvalues --    0.95432   0.95693   0.96211   0.96735   0.97765
 Alpha virt. eigenvalues --    0.97992   0.98744   0.99304   0.99440   1.00192
 Alpha virt. eigenvalues --    1.00702   1.01427   1.01986   1.02648   1.03117
 Alpha virt. eigenvalues --    1.03277   1.03728   1.04052   1.04938   1.05623
 Alpha virt. eigenvalues --    1.06940   1.07743   1.07980   1.08419   1.09235
 Alpha virt. eigenvalues --    1.09558   1.10195   1.11479   1.12454   1.12848
 Alpha virt. eigenvalues --    1.13243   1.14076   1.15311   1.17274   1.17439
 Alpha virt. eigenvalues --    1.18745   1.19753   1.20309   1.21030   1.21610
 Alpha virt. eigenvalues --    1.24019   1.24334   1.24808   1.25433   1.26555
 Alpha virt. eigenvalues --    1.28259   1.30508   1.32032   1.32175   1.32540
 Alpha virt. eigenvalues --    1.32772   1.33219   1.34494   1.36364   1.37025
 Alpha virt. eigenvalues --    1.37459   1.38915   1.39716   1.40070   1.40366
 Alpha virt. eigenvalues --    1.44352   1.45046   1.45415   1.45802   1.46659
 Alpha virt. eigenvalues --    1.46952   1.47446   1.47819   1.48268   1.48429
 Alpha virt. eigenvalues --    1.49772   1.51077   1.51234   1.52155   1.52614
 Alpha virt. eigenvalues --    1.53155   1.53921   1.55499   1.57239   1.58669
 Alpha virt. eigenvalues --    1.61813   1.62841   1.65039   1.66013   1.67695
 Alpha virt. eigenvalues --    1.68824   1.70944   1.72000   1.72304   1.74313
 Alpha virt. eigenvalues --    1.74804   1.76200   1.78604   1.79425   1.79957
 Alpha virt. eigenvalues --    1.80889   1.81775   1.81846   1.82700   1.83117
 Alpha virt. eigenvalues --    1.83955   1.84951   1.85875   1.86089   1.86417
 Alpha virt. eigenvalues --    1.88120   1.89609   1.91934   1.92310   1.92608
 Alpha virt. eigenvalues --    1.93224   1.93546   1.94357   1.94869   1.95162
 Alpha virt. eigenvalues --    1.95629   1.95871   1.96291   1.97581   1.99061
 Alpha virt. eigenvalues --    2.00248   2.00755   2.01857   2.02281   2.02705
 Alpha virt. eigenvalues --    2.04471   2.05157   2.05492   2.05875   2.06559
 Alpha virt. eigenvalues --    2.06944   2.07741   2.08032   2.08647   2.09191
 Alpha virt. eigenvalues --    2.10015   2.10227   2.10988   2.11673   2.11740
 Alpha virt. eigenvalues --    2.12268   2.12865   2.13489   2.13776   2.15151
 Alpha virt. eigenvalues --    2.16024   2.16386   2.16705   2.18058   2.20119
 Alpha virt. eigenvalues --    2.20573   2.21116   2.21598   2.24188   2.24458
 Alpha virt. eigenvalues --    2.25136   2.25254   2.25370   2.25528   2.26081
 Alpha virt. eigenvalues --    2.26267   2.26359   2.27091   2.28051   2.29002
 Alpha virt. eigenvalues --    2.29615   2.30606   2.31956   2.32726   2.33137
 Alpha virt. eigenvalues --    2.33954   2.35014   2.37983   2.38510   2.39390
 Alpha virt. eigenvalues --    2.39877   2.41200   2.42142   2.43275   2.43695
 Alpha virt. eigenvalues --    2.44294   2.48709   2.49714   2.50900   2.51125
 Alpha virt. eigenvalues --    2.52071   2.52895   2.53179   2.53418   2.55010
 Alpha virt. eigenvalues --    2.57421   2.58438   2.61814   2.62220   2.62920
 Alpha virt. eigenvalues --    2.62951   2.65735   2.66377   2.68111   2.68313
 Alpha virt. eigenvalues --    2.68769   2.69321   2.70737   2.71862   2.72280
 Alpha virt. eigenvalues --    2.75716   2.76509   2.76752   2.77670   2.78646
 Alpha virt. eigenvalues --    2.83321   2.83731   2.84588   2.84950   2.87878
 Alpha virt. eigenvalues --    2.92202   2.94464   2.99898   3.01005   3.04293
 Alpha virt. eigenvalues --    3.05194   3.09358   3.10610   3.25175   3.26635
 Alpha virt. eigenvalues --    3.44488   3.45445   3.56943   3.82677   3.83241
 Alpha virt. eigenvalues --    3.92893   4.04472   4.06404   4.06452   4.08237
 Alpha virt. eigenvalues --    4.08852   4.10621   4.10937   4.12650   4.18740
 Alpha virt. eigenvalues --    4.21501   4.22062   4.23014   4.23655   4.29824
 Alpha virt. eigenvalues --    4.33049   4.33606   4.34086   4.34943   4.36073
 Alpha virt. eigenvalues --    4.39517   4.40344   4.53809   4.55636   4.60465
 Alpha virt. eigenvalues --    4.61533   4.63668   4.82005   4.82692
          Condensed to atoms (all electrons):
 Mulliken charges:
               1
     1  C   -0.211534
     2  O   -0.511748
     3  C    0.325742
     4  C   -0.196683
     5  C   -0.145957
     6  C   -0.192074
     7  C    0.328703
     8  O   -0.506654
     9  C   -0.218691
    10  C    0.032951
    11  C   -0.166367
    12  N   -0.463549
    13  N   -0.590334
    14  P    1.050843
    15  O   -0.592583
    16  C   -0.471956
    17  C   -0.082440
    18  C   -0.460593
    19  C   -0.443482
    20  N   -0.572444
    21  N   -0.470131
    22  C   -0.157354
    23  C    0.029206
    24  C    0.329879
    25  O   -0.510305
    26  C   -0.213461
    27  C   -0.194307
    28  C   -0.145836
    29  C   -0.193154
    30  C    0.329706
    31  O   -0.523170
    32  C   -0.222254
    33  H    0.166934
    34  H    0.152011
    35  H    0.149818
    36  H    0.124747
    37  H    0.126582
    38  H    0.127097
    39  H    0.194470
    40  H    0.145007
    41  H    0.147547
    42  H    0.147153
    43  H    0.160915
    44  H    0.348512
    45  H    0.335970
    46  H    0.182654
    47  H    0.167936
    48  H    0.148630
    49  H    0.124039
    50  H    0.133497
    51  H    0.197404
    52  H    0.136691
    53  H    0.140066
    54  H    0.142318
    55  H    0.335022
    56  H    0.335487
    57  H    0.169247
    58  H    0.134198
    59  H    0.170066
    60  H    0.151153
    61  H    0.154108
    62  H    0.128594
    63  H    0.130442
    64  H    0.129701
    65  H    0.157511
    66  H    0.153477
    67  H    0.181026
 Sum of Mulliken charges =  -0.00000
 Mulliken charges with hydrogens summed into heavy atoms:
               1
     1  C    0.257228
     2  O   -0.511748
     3  C    0.325742
     4  C   -0.071936
     5  C   -0.019374
     6  C   -0.064977
     7  C    0.328703
     8  O   -0.506654
     9  C    0.268334
    10  C    0.032951
    11  C    0.141701
    12  N   -0.115037
    13  N   -0.254364
    14  P    1.050843
    15  O   -0.592583
    16  C   -0.121367
    17  C    0.066190
    18  C   -0.005653
    19  C   -0.024407
    20  N   -0.237422
    21  N   -0.134643
    22  C    0.146092
    23  C    0.029206
    24  C    0.329879
    25  O   -0.510305
    26  C    0.261866
    27  C   -0.065713
    28  C   -0.015394
    29  C   -0.063453
    30  C    0.329706
    31  O   -0.523170
    32  C    0.269760
 Electronic spatial extent (au):  <R**2>=          23296.0995
 Charge=             -0.0000 electrons
 Dipole moment (field-independent basis, Debye):
    X=             -1.6960    Y=              0.0937    Z=              0.3728  Tot=              1.7390
 Quadrupole moment (field-independent basis, Debye-Ang):
   XX=           -152.2283   YY=           -177.9691   ZZ=           -192.8119
   XY=             -2.4423   XZ=              2.9387   YZ=             -6.2006
 Traceless Quadrupole moment (field-independent basis, Debye-Ang):
   XX=             22.1081   YY=             -3.6327   ZZ=            -18.4755
   XY=             -2.4423   XZ=              2.9387   YZ=             -6.2006
 Octapole moment (field-independent basis, Debye-Ang**2):
  XXX=            -21.7351  YYY=            -25.3846  ZZZ=            -17.0080  XYY=            -61.8708
  XXY=           -101.9398  XXZ=            -33.0149  XZZ=             45.2342  YZZ=              4.8131
  YYZ=             -8.2358  XYZ=            -39.6124
 Hexadecapole moment (field-independent basis, Debye-Ang**3):
 XXXX=         -21724.4109 YYYY=          -3129.0052 ZZZZ=          -2410.6372 XXXY=            -59.2815
 XXXZ=            485.0669 YYYX=             60.3354 YYYZ=            -67.2340 ZZZX=            -46.0240
 ZZZY=            -96.6103 XXYY=          -4073.4099 XXZZ=          -4502.0501 YYZZ=           -927.1610
 XXYZ=           -228.3503 YYXZ=             94.5860 ZZXY=             43.1401
 N-N= 3.532408781003D+03 E-N=-1.126378302486D+04  KE= 1.780876850285D+03
 No NMR shielding tensors so no spin-rotation constants.
 Leave Link  601 at Fri Nov  4 20:20:53 2022, MaxMem=   805306368 cpu:               2.0 elap:               0.4
 (Enter /home/wykgroup/appl/g16/l9999.exe)
 1\1\GINC-NODE102\FOpt\RB3LYP\6-31G(d)\C22H35N4O5P1\WYKGROUP\04-Nov-202
 2\0\\#p b3lyp/6-31g(d) opt SCF=XQC\\Gaussian input prepared by ASE\\0,
 1\C,-7.1033737158,0.9712404029,-2.8682761185\O,-5.9432812622,0.6540945
 31,-2.1196699941\C,-5.927397649,-0.5078121406,-1.3972012862\C,-7.01300
 88023,-1.3956133163,-1.3440292277\C,-6.9080799761,-2.5540378983,-0.577
 3728295\C,-5.7490583759,-2.8497696996,0.1376427421\C,-4.6767524666,-1.
 9525882585,0.0727508508\O,-3.4867466812,-2.1335580974,0.7172087457\C,-
 3.2606837418,-3.3175110477,1.4636759074\C,-4.7449915286,-0.7696376937,
 -0.6853392526\C,-3.5580670842,0.1674160266,-0.7094911964\N,-2.43824691
 52,-0.4373293062,-1.4664268903\N,-1.2793959125,0.4046536551,-1.4096503
 6\P,-0.0126944748,0.0439868638,-0.3331664909\O,-0.3327150285,-1.138383
 9112,0.5344767816\C,0.4049653254,1.568687855,0.5944189183\C,-0.6507607
 919,2.0251670553,1.626744049\C,-0.6798152922,1.1203156956,2.8674924533
 \C,-0.3949030431,3.4884581969,2.0204004161\N,1.2821995642,-0.112618302
 ,-1.4484866517\N,2.5939041274,-0.4459665378,-0.9708211252\C,3.47991862
 09,0.7306300744,-0.9231061074\C,4.8226581953,0.347186027,-0.3431188646
 \C,5.9742918722,0.2413453242,-1.1432715716\O,5.8006522361,0.5094823883
 ,-2.4717800428\C,6.9184940535,0.4092762291,-3.3377444448\C,7.212606248
 4,-0.1069938993,-0.5841054644\C,7.294202106,-0.3580483516,0.7830899763
 \C,6.173085672,-0.2701448692,1.605689811\C,4.9453359032,0.0791862425,1
 .0312298991\O,3.7766200414,0.1803132249,1.7452257819\C,3.8038629455,-0
 .0912759102,3.139330672\H,-6.8890196165,1.9211817251,-3.3620505224\H,-
 7.3160127974,0.2084267256,-3.6289368988\H,-7.9838074277,1.0901961585,-
 2.2225970713\H,-7.9264346445,-1.1941340756,-1.8900674067\H,-7.74863043
 46,-3.2419876519,-0.5376234424\H,-5.6857664412,-3.7569203171,0.7268014
 217\H,-2.2304885386,-3.2403478856,1.8136029513\H,-3.9434588614,-3.3891
 470159,2.3208536832\H,-3.3713587644,-4.2134396592,0.8386912008\H,-3.26
 03193042,0.3996341512,0.3248030892\H,-3.8275948778,1.1009675271,-1.204
 3886912\H,-2.1957076892,-1.3108485875,-0.9966847647\H,-1.0019429299,0.
 7084170525,-2.3368920897\H,1.3699307194,1.4038397657,1.0916773389\H,0.
 5620919004,2.351371159,-0.157629065\H,-1.6358920657,1.9784511104,1.141
 9071251\H,0.2756792811,1.1799375558,3.4079124408\H,-1.4691281115,1.438
 476424,3.5592085898\H,-0.850903004,0.0763784987,2.5927478465\H,0.59420
 43244,3.6038430395,2.4830260468\H,-0.4366475528,4.1535709775,1.1495710
 685\H,-1.1422640438,3.8347245231,2.7443379178\H,1.0309371965,-0.774807
 8905,-2.1814683909\H,2.5283586411,-0.8721471213,-0.0468869206\H,3.6038
 631556,1.086735157,-1.9462850624\H,3.0575364817,1.5555441857,-0.330502
 3264\H,6.5452457461,0.6531014658,-4.334187895\H,7.7091109599,1.1202548
 358,-3.0633810754\H,7.3339482063,-0.6068561502,-3.3455752443\H,8.10070
 91292,-0.185269483,-1.1989741025\H,8.2525250588,-0.629971068,1.2174391
 606\H,6.2608292814,-0.4747329212,2.6655808322\H,4.1341172292,-1.117946
 6112,3.3413018272\H,4.4569698862,0.6116312527,3.6721756538\H,2.7764947
 38,0.0317275948,3.4861776893\\Version=ES64L-G16RevB.01\State=1-A\HF=-1
 795.8218329\RMSD=5.936e-09\RMSF=2.851e-06\Dipole=0.6449143,0.2123154,0
 .0843295\Quadrupole=16.2920772,-13.1037881,-3.188289,1.0747752,3.29881
 07,-5.1676675\PG=C01 [X(C22H35N4O5P1)]\\@


 PERICLES, SOPHOCLES,
 PELOPONESIAN WAR,
 FRENCH VERBS, LATIN VERBS
 H2SO4.
 Job cpu time:       0 days  5 hours 58 minutes 48.6 seconds.
 Elapsed time:       0 days  0 hours 51 minutes 56.2 seconds.
 File lengths (MBytes):  RWF=    195 Int=      0 D2E=      0 Chk=     26 Scr=      1
 Normal termination of Gaussian 16 at Fri Nov  4 20:20:53 2022.
