 Entering Gaussian System, Link 0=/home/wykgroup/appl/g16/g16
 Input=calculation/no_transfer_pubchem_sampling_2_b3lyp/42827716_rwf.com
 Output=calculation/no_transfer_pubchem_sampling_2_b3lyp/42827716_rwf.log
 Initial command:
 /home/wykgroup/appl/g16/l1.exe "/userdata/scratch/wykgroup/khs/calculation/no_transfer_pubchem_sampling_2_b3lyp/42827716_rwf/Gau-13746.inp" -scrdir="/userdata/scratch/wykgroup/khs/calculation/no_transfer_pubchem_sampling_2_b3lyp/42827716_rwf/"
 Entering Link 1 = /home/wykgroup/appl/g16/l1.exe PID=     13747.
  
 Copyright (c) 1988-2017, Gaussian, Inc.  All Rights Reserved.
  
 This is part of the Gaussian(R) 16 program.  It is based on
 the Gaussian(R) 09 system (copyright 2009, Gaussian, Inc.),
 the Gaussian(R) 03 system (copyright 2003, Gaussian, Inc.),
 the Gaussian(R) 98 system (copyright 1998, Gaussian, Inc.),
 the Gaussian(R) 94 system (copyright 1995, Gaussian, Inc.),
 the Gaussian 92(TM) system (copyright 1992, Gaussian, Inc.),
 the Gaussian 90(TM) system (copyright 1990, Gaussian, Inc.),
 the Gaussian 88(TM) system (copyright 1988, Gaussian, Inc.),
 the Gaussian 86(TM) system (copyright 1986, Carnegie Mellon
 University), and the Gaussian 82(TM) system (copyright 1983,
 Carnegie Mellon University). Gaussian is a federally registered
 trademark of Gaussian, Inc.
  
 This software contains proprietary and confidential information,
 including trade secrets, belonging to Gaussian, Inc.
  
 This software is provided under written license and may be
 used, copied, transmitted, or stored only in accord with that
 written license.
  
 The following legend is applicable only to US Government
 contracts under FAR:
  
                    RESTRICTED RIGHTS LEGEND
  
 Use, reproduction and disclosure by the US Government is
 subject to restrictions as set forth in subparagraphs (a)
 and (c) of the Commercial Computer Software - Restricted
 Rights clause in FAR 52.227-19.
  
 Gaussian, Inc.
 340 Quinnipiac St., Bldg. 40, Wallingford CT 06492
  
  
 ---------------------------------------------------------------
 Warning -- This program may not be used in any manner that
 competes with the business of Gaussian, Inc. or will provide
 assistance to any competitor of Gaussian, Inc.  The licensee
 of this program is prohibited from giving any competitor of
 Gaussian, Inc. access to this program.  By using this program,
 the user acknowledges that Gaussian, Inc. is engaged in the
 business of creating and licensing software in the field of
 computational chemistry and represents and warrants to the
 licensee that it is not a competitor of Gaussian, Inc. and that
 it will not use this program in any manner prohibited above.
 ---------------------------------------------------------------
  

 Cite this work as:
 Gaussian 16, Revision B.01,
 M. J. Frisch, G. W. Trucks, H. B. Schlegel, G. E. Scuseria, 
 M. A. Robb, J. R. Cheeseman, G. Scalmani, V. Barone, 
 G. A. Petersson, H. Nakatsuji, X. Li, M. Caricato, A. V. Marenich, 
 J. Bloino, B. G. Janesko, R. Gomperts, B. Mennucci, H. P. Hratchian, 
 J. V. Ortiz, A. F. Izmaylov, J. L. Sonnenberg, D. Williams-Young, 
 F. Ding, F. Lipparini, F. Egidi, J. Goings, B. Peng, A. Petrone, 
 T. Henderson, D. Ranasinghe, V. G. Zakrzewski, J. Gao, N. Rega, 
 G. Zheng, W. Liang, M. Hada, M. Ehara, K. Toyota, R. Fukuda, 
 J. Hasegawa, M. Ishida, T. Nakajima, Y. Honda, O. Kitao, H. Nakai, 
 T. Vreven, K. Throssell, J. A. Montgomery, Jr., J. E. Peralta, 
 F. Ogliaro, M. J. Bearpark, J. J. Heyd, E. N. Brothers, K. N. Kudin, 
 V. N. Staroverov, T. A. Keith, R. Kobayashi, J. Normand, 
 K. Raghavachari, A. P. Rendell, J. C. Burant, S. S. Iyengar, 
 J. Tomasi, M. Cossi, J. M. Millam, M. Klene, C. Adamo, R. Cammi, 
 J. W. Ochterski, R. L. Martin, K. Morokuma, O. Farkas, 
 J. B. Foresman, and D. J. Fox, Gaussian, Inc., Wallingford CT, 2016.
 
 ******************************************
 Gaussian 16:  ES64L-G16RevB.01 20-Dec-2017
                 5-Nov-2022 
 ******************************************
 %chk=calculation/no_transfer_pubchem_sampling_2_b3lyp/42827716_rwf.chk
 %rwf=calculation/no_transfer_pubchem_sampling_2_b3lyp/42827716_rwf.rwf
 %nprocshared=14
 Will use up to   14 processors via shared memory.
 %mem=3GB
 -------------------------------------------------------------------
 #p b3lyp/6-31g(d) 6D 10F nosymm GFInput td=(50-50,nstate=2) SCF=XQC
 -------------------------------------------------------------------
 1/38=1,172=1/1;
 2/12=2,15=1,17=6,18=5,40=1/2;
 3/5=1,6=6,7=1,8=22,11=9,24=10,25=1,30=1,74=-5/1,2,3,8;
 4//1;
 5/5=2,8=3,13=1,38=5/2,8;
 8/6=1,10=2,108=2/1;
 9/41=2,42=1,48=2,70=2/14;
 6/7=2,8=2,9=2,10=2/1;
 99/5=1,9=1/99;
 Leave Link    1 at Sat Nov  5 11:40:43 2022, MaxMem=   402653184 cpu:               1.9 elap:               0.3
 (Enter /home/wykgroup/appl/g16/l101.exe)
 ------------------------------
 Gaussian input prepared by ASE
 ------------------------------
 Symbolic Z-matrix:
 Charge =  0 Multiplicity = 1
 C                    -7.43554   0.36226   0.96367 
 O                    -6.08229   0.0005    1.15399 
 C                    -5.37537   0.83541   2.05301 
 C                    -4.97939   2.18886   1.46801 
 O                    -4.18901   2.02278   0.28091 
 C                    -2.84976   1.85821   0.4572 
 O                    -2.31506   1.99441   1.55423 
 C                    -2.10854   1.55341  -0.76181 
 C                    -2.63084   1.3128   -2.01369 
 C                    -4.099     1.1765   -2.33585 
 N                    -1.82831   1.19375  -3.13135 
 C                    -0.56281   1.46474  -2.97584 
 S                     0.557     1.58949  -4.32803 
 C                     1.86982   1.96398  -3.22959 
 C                     1.46553   1.98553  -1.94117 
 C                     2.34681   2.26691  -0.74565 
 C                     3.65063   1.45817  -0.82551 
 O                     4.54836   1.79905  -1.58643 
 N                     3.68763   0.35967  -0.00867 
 C                     4.72434  -0.59496   0.13233 
 C                     5.93662  -0.52483  -0.57237 
 C                     6.9112   -1.50247  -0.37317 
 C                     6.6753   -2.53757   0.52156 
 F                     7.62419  -3.48115   0.7093 
 C                     5.48309  -2.62598   1.22988 
 C                     4.50898  -1.65122   1.03212 
 N                     0.09436   1.71556  -1.80079 
 C                    -0.60226   1.47867  -0.51473 
 C                    -0.13784   0.16516   0.12072 
 C                     0.22258   0.12298   1.47694 
 C                     0.67049  -1.05602   2.06451 
 C                     0.76405  -2.23126   1.30272 
 O                     1.24268  -3.32611   1.96076 
 C                     1.35394  -4.54835   1.24282 
 C                     0.3898   -2.20955  -0.0467 
 C                    -0.05787  -1.01751  -0.62028 
 H                    -7.8834   -0.41108   0.33422 
 H                    -7.55057   1.332     0.45662 
 H                    -7.98062   0.4031    1.9208 
 H                    -4.46849   0.28727   2.3243 
 H                    -5.96057   1.00646   2.97353 
 H                    -4.42117   2.76306   2.21229 
 H                    -5.85151   2.76367   1.14598 
 H                    -4.18861   0.71031  -3.3197 
 H                    -4.57944   2.16125  -2.37743 
 H                    -4.63447   0.59372  -1.58421 
 H                     2.87742   2.13152  -3.57983 
 H                     2.63769   3.3229   -0.73948 
 H                     1.81203   2.07035   0.18447 
 H                     2.85411   0.17049   0.53686 
 H                     6.10442   0.28708  -1.2651 
 H                     7.85366  -1.46331  -0.90962 
 H                     5.32652  -3.44401   1.92517 
 H                     3.57398  -1.71769   1.58136 
 H                    -0.33315   2.2905    0.1672 
 H                     0.12078   1.01935   2.08166 
 H                     0.94175  -1.09399   3.11526 
 H                     1.73894  -5.27851   1.95659 
 H                     2.05351  -4.45727   0.40208 
 H                     0.37826  -4.88502   0.87015 
 H                     0.44805  -3.10305  -0.6573 
 H                    -0.34262  -1.02095  -1.66893 
 
 ITRead=  0  0  0  0  0  0  0  0  0  0  0  0  0  0  0  0  0  0  0  0
 ITRead=  0  0  0  0  0  0  0  0  0  0  0  0  0  0  0  0  0  0  0  0
 ITRead=  0  0  0  0  0  0  0  0  0  0  0  0  0  0  0  0  0  0  0  0
 ITRead=  0  0
 MicOpt= -1 -1 -1 -1 -1 -1 -1 -1 -1 -1 -1 -1 -1 -1 -1 -1 -1 -1 -1 -1
 MicOpt= -1 -1 -1 -1 -1 -1 -1 -1 -1 -1 -1 -1 -1 -1 -1 -1 -1 -1 -1 -1
 MicOpt= -1 -1 -1 -1 -1 -1 -1 -1 -1 -1 -1 -1 -1 -1 -1 -1 -1 -1 -1 -1
 MicOpt= -1 -1
 NAtoms=     62 NQM=       62 NQMF=       0 NMMI=      0 NMMIF=      0
                NMic=       0 NMicF=      0.
                    Isotopes and Nuclear Properties:
 (Nuclear quadrupole moments (NQMom) in fm**2, nuclear magnetic moments (NMagM)
  in nuclear magnetons)

  Atom         1           2           3           4           5           6           7           8           9          10
 IAtWgt=          12          16          12          12          16          12          16          12          12          12
 AtmWgt=  12.0000000  15.9949146  12.0000000  12.0000000  15.9949146  12.0000000  15.9949146  12.0000000  12.0000000  12.0000000
 NucSpn=           0           0           0           0           0           0           0           0           0           0
 AtZEff=  -0.0000000  -0.0000000  -0.0000000  -0.0000000  -0.0000000  -0.0000000  -0.0000000  -0.0000000  -0.0000000  -0.0000000
 NQMom=    0.0000000   0.0000000   0.0000000   0.0000000   0.0000000   0.0000000   0.0000000   0.0000000   0.0000000   0.0000000
 NMagM=    0.0000000   0.0000000   0.0000000   0.0000000   0.0000000   0.0000000   0.0000000   0.0000000   0.0000000   0.0000000
 AtZNuc=   6.0000000   8.0000000   6.0000000   6.0000000   8.0000000   6.0000000   8.0000000   6.0000000   6.0000000   6.0000000

  Atom        11          12          13          14          15          16          17          18          19          20
 IAtWgt=          14          12          32          12          12          12          12          16          14          12
 AtmWgt=  14.0030740  12.0000000  31.9720718  12.0000000  12.0000000  12.0000000  12.0000000  15.9949146  14.0030740  12.0000000
 NucSpn=           2           0           0           0           0           0           0           0           2           0
 AtZEff=  -0.0000000  -0.0000000  -0.0000000  -0.0000000  -0.0000000  -0.0000000  -0.0000000  -0.0000000  -0.0000000  -0.0000000
 NQMom=    2.0440000   0.0000000   0.0000000   0.0000000   0.0000000   0.0000000   0.0000000   0.0000000   2.0440000   0.0000000
 NMagM=    0.4037610   0.0000000   0.0000000   0.0000000   0.0000000   0.0000000   0.0000000   0.0000000   0.4037610   0.0000000
 AtZNuc=   7.0000000   6.0000000  16.0000000   6.0000000   6.0000000   6.0000000   6.0000000   8.0000000   7.0000000   6.0000000

  Atom        21          22          23          24          25          26          27          28          29          30
 IAtWgt=          12          12          12          19          12          12          14          12          12          12
 AtmWgt=  12.0000000  12.0000000  12.0000000  18.9984032  12.0000000  12.0000000  14.0030740  12.0000000  12.0000000  12.0000000
 NucSpn=           0           0           0           1           0           0           2           0           0           0
 AtZEff=  -0.0000000  -0.0000000  -0.0000000  -0.0000000  -0.0000000  -0.0000000  -0.0000000  -0.0000000  -0.0000000  -0.0000000
 NQMom=    0.0000000   0.0000000   0.0000000   0.0000000   0.0000000   0.0000000   2.0440000   0.0000000   0.0000000   0.0000000
 NMagM=    0.0000000   0.0000000   0.0000000   2.6288670   0.0000000   0.0000000   0.4037610   0.0000000   0.0000000   0.0000000
 AtZNuc=   6.0000000   6.0000000   6.0000000   9.0000000   6.0000000   6.0000000   7.0000000   6.0000000   6.0000000   6.0000000

  Atom        31          32          33          34          35          36          37          38          39          40
 IAtWgt=          12          12          16          12          12          12           1           1           1           1
 AtmWgt=  12.0000000  12.0000000  15.9949146  12.0000000  12.0000000  12.0000000   1.0078250   1.0078250   1.0078250   1.0078250
 NucSpn=           0           0           0           0           0           0           1           1           1           1
 AtZEff=  -0.0000000  -0.0000000  -0.0000000  -0.0000000  -0.0000000  -0.0000000  -0.0000000  -0.0000000  -0.0000000  -0.0000000
 NQMom=    0.0000000   0.0000000   0.0000000   0.0000000   0.0000000   0.0000000   0.0000000   0.0000000   0.0000000   0.0000000
 NMagM=    0.0000000   0.0000000   0.0000000   0.0000000   0.0000000   0.0000000   2.7928460   2.7928460   2.7928460   2.7928460
 AtZNuc=   6.0000000   6.0000000   8.0000000   6.0000000   6.0000000   6.0000000   1.0000000   1.0000000   1.0000000   1.0000000

  Atom        41          42          43          44          45          46          47          48          49          50
 IAtWgt=           1           1           1           1           1           1           1           1           1           1
 AtmWgt=   1.0078250   1.0078250   1.0078250   1.0078250   1.0078250   1.0078250   1.0078250   1.0078250   1.0078250   1.0078250
 NucSpn=           1           1           1           1           1           1           1           1           1           1
 AtZEff=  -0.0000000  -0.0000000  -0.0000000  -0.0000000  -0.0000000  -0.0000000  -0.0000000  -0.0000000  -0.0000000  -0.0000000
 NQMom=    0.0000000   0.0000000   0.0000000   0.0000000   0.0000000   0.0000000   0.0000000   0.0000000   0.0000000   0.0000000
 NMagM=    2.7928460   2.7928460   2.7928460   2.7928460   2.7928460   2.7928460   2.7928460   2.7928460   2.7928460   2.7928460
 AtZNuc=   1.0000000   1.0000000   1.0000000   1.0000000   1.0000000   1.0000000   1.0000000   1.0000000   1.0000000   1.0000000

  Atom        51          52          53          54          55          56          57          58          59          60
 IAtWgt=           1           1           1           1           1           1           1           1           1           1
 AtmWgt=   1.0078250   1.0078250   1.0078250   1.0078250   1.0078250   1.0078250   1.0078250   1.0078250   1.0078250   1.0078250
 NucSpn=           1           1           1           1           1           1           1           1           1           1
 AtZEff=  -0.0000000  -0.0000000  -0.0000000  -0.0000000  -0.0000000  -0.0000000  -0.0000000  -0.0000000  -0.0000000  -0.0000000
 NQMom=    0.0000000   0.0000000   0.0000000   0.0000000   0.0000000   0.0000000   0.0000000   0.0000000   0.0000000   0.0000000
 NMagM=    2.7928460   2.7928460   2.7928460   2.7928460   2.7928460   2.7928460   2.7928460   2.7928460   2.7928460   2.7928460
 AtZNuc=   1.0000000   1.0000000   1.0000000   1.0000000   1.0000000   1.0000000   1.0000000   1.0000000   1.0000000   1.0000000

  Atom        61          62
 IAtWgt=           1           1
 AtmWgt=   1.0078250   1.0078250
 NucSpn=           1           1
 AtZEff=  -0.0000000  -0.0000000
 NQMom=    0.0000000   0.0000000
 NMagM=    2.7928460   2.7928460
 AtZNuc=   1.0000000   1.0000000
 Leave Link  101 at Sat Nov  5 11:40:43 2022, MaxMem=   402653184 cpu:               1.4 elap:               0.2
 (Enter /home/wykgroup/appl/g16/l202.exe)
 Symmetry turned off by external request.
 Stoichiometry    C26H26FN3O5S
 Framework group  C1[X(C26H26FN3O5S)]
 Deg. of freedom   180
 Full point group                 C1      NOp   1
                          Input orientation:                          
 ---------------------------------------------------------------------
 Center     Atomic      Atomic             Coordinates (Angstroms)
 Number     Number       Type             X           Y           Z
 ---------------------------------------------------------------------
      1          6           0       -7.435545    0.362257    0.963672
      2          8           0       -6.082287    0.000503    1.153990
      3          6           0       -5.375374    0.835412    2.053010
      4          6           0       -4.979391    2.188865    1.468005
      5          8           0       -4.189006    2.022776    0.280913
      6          6           0       -2.849762    1.858208    0.457202
      7          8           0       -2.315064    1.994412    1.554234
      8          6           0       -2.108538    1.553415   -0.761811
      9          6           0       -2.630841    1.312796   -2.013687
     10          6           0       -4.099002    1.176503   -2.335855
     11          7           0       -1.828311    1.193753   -3.131353
     12          6           0       -0.562813    1.464740   -2.975841
     13         16           0        0.557002    1.589486   -4.328033
     14          6           0        1.869824    1.963980   -3.229589
     15          6           0        1.465526    1.985531   -1.941174
     16          6           0        2.346808    2.266910   -0.745649
     17          6           0        3.650632    1.458174   -0.825509
     18          8           0        4.548358    1.799054   -1.586434
     19          7           0        3.687629    0.359672   -0.008671
     20          6           0        4.724342   -0.594963    0.132329
     21          6           0        5.936620   -0.524830   -0.572375
     22          6           0        6.911201   -1.502466   -0.373168
     23          6           0        6.675304   -2.537571    0.521564
     24          9           0        7.624195   -3.481154    0.709304
     25          6           0        5.483089   -2.625975    1.229883
     26          6           0        4.508982   -1.651220    1.032119
     27          7           0        0.094359    1.715565   -1.800789
     28          6           0       -0.602260    1.478669   -0.514730
     29          6           0       -0.137840    0.165165    0.120725
     30          6           0        0.222576    0.122975    1.476937
     31          6           0        0.670489   -1.056017    2.064511
     32          6           0        0.764046   -2.231259    1.302717
     33          8           0        1.242678   -3.326115    1.960762
     34          6           0        1.353939   -4.548345    1.242819
     35          6           0        0.389798   -2.209548   -0.046701
     36          6           0       -0.057869   -1.017509   -0.620281
     37          1           0       -7.883398   -0.411084    0.334222
     38          1           0       -7.550571    1.331998    0.456617
     39          1           0       -7.980619    0.403099    1.920797
     40          1           0       -4.468489    0.287269    2.324302
     41          1           0       -5.960566    1.006456    2.973529
     42          1           0       -4.421174    2.763059    2.212288
     43          1           0       -5.851508    2.763667    1.145978
     44          1           0       -4.188613    0.710305   -3.319702
     45          1           0       -4.579443    2.161247   -2.377426
     46          1           0       -4.634467    0.593723   -1.584210
     47          1           0        2.877419    2.131516   -3.579834
     48          1           0        2.637691    3.322901   -0.739478
     49          1           0        1.812032    2.070348    0.184472
     50          1           0        2.854112    0.170493    0.536865
     51          1           0        6.104416    0.287084   -1.265104
     52          1           0        7.853662   -1.463309   -0.909617
     53          1           0        5.326524   -3.444007    1.925168
     54          1           0        3.573981   -1.717687    1.581360
     55          1           0       -0.333154    2.290504    0.167200
     56          1           0        0.120783    1.019350    2.081659
     57          1           0        0.941749   -1.093986    3.115264
     58          1           0        1.738943   -5.278512    1.956591
     59          1           0        2.053506   -4.457266    0.402084
     60          1           0        0.378258   -4.885023    0.870150
     61          1           0        0.448049   -3.103045   -0.657298
     62          1           0       -0.342616   -1.020946   -1.668925
 ---------------------------------------------------------------------
 Rotational constants (GHZ):           0.1656278           0.0581675           0.0481809
 Leave Link  202 at Sat Nov  5 11:40:43 2022, MaxMem=   402653184 cpu:               0.3 elap:               0.1
 (Enter /home/wykgroup/appl/g16/l301.exe)
 Standard basis: 6-31G(d) (6D, 10F)
 Ernie: Thresh=  0.10000D-02 Tol=  0.10000D-05 Strict=F.
 AO basis set in the form of general basis input (Overlap normalization):
      1 0
 S   6 1.00       0.000000000000
      0.3047524880D+04  0.1834737132D-02
      0.4573695180D+03  0.1403732281D-01
      0.1039486850D+03  0.6884262226D-01
      0.2921015530D+02  0.2321844432D+00
      0.9286662960D+01  0.4679413484D+00
      0.3163926960D+01  0.3623119853D+00
 SP   3 1.00       0.000000000000
      0.7868272350D+01 -0.1193324198D+00  0.6899906659D-01
      0.1881288540D+01 -0.1608541517D+00  0.3164239610D+00
      0.5442492580D+00  0.1143456438D+01  0.7443082909D+00
 SP   1 1.00       0.000000000000
      0.1687144782D+00  0.1000000000D+01  0.1000000000D+01
 D   1 1.00       0.000000000000
      0.8000000000D+00  0.1000000000D+01
 ****
      2 0
 S   6 1.00       0.000000000000
      0.5484671660D+04  0.1831074430D-02
      0.8252349460D+03  0.1395017220D-01
      0.1880469580D+03  0.6844507810D-01
      0.5296450000D+02  0.2327143360D+00
      0.1689757040D+02  0.4701928980D+00
      0.5799635340D+01  0.3585208530D+00
 SP   3 1.00       0.000000000000
      0.1553961625D+02 -0.1107775495D+00  0.7087426823D-01
      0.3599933586D+01 -0.1480262627D+00  0.3397528391D+00
      0.1013761750D+01  0.1130767015D+01  0.7271585773D+00
 SP   1 1.00       0.000000000000
      0.2700058226D+00  0.1000000000D+01  0.1000000000D+01
 D   1 1.00       0.000000000000
      0.8000000000D+00  0.1000000000D+01
 ****
      3 0
 S   6 1.00       0.000000000000
      0.3047524880D+04  0.1834737132D-02
      0.4573695180D+03  0.1403732281D-01
      0.1039486850D+03  0.6884262226D-01
      0.2921015530D+02  0.2321844432D+00
      0.9286662960D+01  0.4679413484D+00
      0.3163926960D+01  0.3623119853D+00
 SP   3 1.00       0.000000000000
      0.7868272350D+01 -0.1193324198D+00  0.6899906659D-01
      0.1881288540D+01 -0.1608541517D+00  0.3164239610D+00
      0.5442492580D+00  0.1143456438D+01  0.7443082909D+00
 SP   1 1.00       0.000000000000
      0.1687144782D+00  0.1000000000D+01  0.1000000000D+01
 D   1 1.00       0.000000000000
      0.8000000000D+00  0.1000000000D+01
 ****
      4 0
 S   6 1.00       0.000000000000
      0.3047524880D+04  0.1834737132D-02
      0.4573695180D+03  0.1403732281D-01
      0.1039486850D+03  0.6884262226D-01
      0.2921015530D+02  0.2321844432D+00
      0.9286662960D+01  0.4679413484D+00
      0.3163926960D+01  0.3623119853D+00
 SP   3 1.00       0.000000000000
      0.7868272350D+01 -0.1193324198D+00  0.6899906659D-01
      0.1881288540D+01 -0.1608541517D+00  0.3164239610D+00
      0.5442492580D+00  0.1143456438D+01  0.7443082909D+00
 SP   1 1.00       0.000000000000
      0.1687144782D+00  0.1000000000D+01  0.1000000000D+01
 D   1 1.00       0.000000000000
      0.8000000000D+00  0.1000000000D+01
 ****
      5 0
 S   6 1.00       0.000000000000
      0.5484671660D+04  0.1831074430D-02
      0.8252349460D+03  0.1395017220D-01
      0.1880469580D+03  0.6844507810D-01
      0.5296450000D+02  0.2327143360D+00
      0.1689757040D+02  0.4701928980D+00
      0.5799635340D+01  0.3585208530D+00
 SP   3 1.00       0.000000000000
      0.1553961625D+02 -0.1107775495D+00  0.7087426823D-01
      0.3599933586D+01 -0.1480262627D+00  0.3397528391D+00
      0.1013761750D+01  0.1130767015D+01  0.7271585773D+00
 SP   1 1.00       0.000000000000
      0.2700058226D+00  0.1000000000D+01  0.1000000000D+01
 D   1 1.00       0.000000000000
      0.8000000000D+00  0.1000000000D+01
 ****
      6 0
 S   6 1.00       0.000000000000
      0.3047524880D+04  0.1834737132D-02
      0.4573695180D+03  0.1403732281D-01
      0.1039486850D+03  0.6884262226D-01
      0.2921015530D+02  0.2321844432D+00
      0.9286662960D+01  0.4679413484D+00
      0.3163926960D+01  0.3623119853D+00
 SP   3 1.00       0.000000000000
      0.7868272350D+01 -0.1193324198D+00  0.6899906659D-01
      0.1881288540D+01 -0.1608541517D+00  0.3164239610D+00
      0.5442492580D+00  0.1143456438D+01  0.7443082909D+00
 SP   1 1.00       0.000000000000
      0.1687144782D+00  0.1000000000D+01  0.1000000000D+01
 D   1 1.00       0.000000000000
      0.8000000000D+00  0.1000000000D+01
 ****
      7 0
 S   6 1.00       0.000000000000
      0.5484671660D+04  0.1831074430D-02
      0.8252349460D+03  0.1395017220D-01
      0.1880469580D+03  0.6844507810D-01
      0.5296450000D+02  0.2327143360D+00
      0.1689757040D+02  0.4701928980D+00
      0.5799635340D+01  0.3585208530D+00
 SP   3 1.00       0.000000000000
      0.1553961625D+02 -0.1107775495D+00  0.7087426823D-01
      0.3599933586D+01 -0.1480262627D+00  0.3397528391D+00
      0.1013761750D+01  0.1130767015D+01  0.7271585773D+00
 SP   1 1.00       0.000000000000
      0.2700058226D+00  0.1000000000D+01  0.1000000000D+01
 D   1 1.00       0.000000000000
      0.8000000000D+00  0.1000000000D+01
 ****
      8 0
 S   6 1.00       0.000000000000
      0.3047524880D+04  0.1834737132D-02
      0.4573695180D+03  0.1403732281D-01
      0.1039486850D+03  0.6884262226D-01
      0.2921015530D+02  0.2321844432D+00
      0.9286662960D+01  0.4679413484D+00
      0.3163926960D+01  0.3623119853D+00
 SP   3 1.00       0.000000000000
      0.7868272350D+01 -0.1193324198D+00  0.6899906659D-01
      0.1881288540D+01 -0.1608541517D+00  0.3164239610D+00
      0.5442492580D+00  0.1143456438D+01  0.7443082909D+00
 SP   1 1.00       0.000000000000
      0.1687144782D+00  0.1000000000D+01  0.1000000000D+01
 D   1 1.00       0.000000000000
      0.8000000000D+00  0.1000000000D+01
 ****
      9 0
 S   6 1.00       0.000000000000
      0.3047524880D+04  0.1834737132D-02
      0.4573695180D+03  0.1403732281D-01
      0.1039486850D+03  0.6884262226D-01
      0.2921015530D+02  0.2321844432D+00
      0.9286662960D+01  0.4679413484D+00
      0.3163926960D+01  0.3623119853D+00
 SP   3 1.00       0.000000000000
      0.7868272350D+01 -0.1193324198D+00  0.6899906659D-01
      0.1881288540D+01 -0.1608541517D+00  0.3164239610D+00
      0.5442492580D+00  0.1143456438D+01  0.7443082909D+00
 SP   1 1.00       0.000000000000
      0.1687144782D+00  0.1000000000D+01  0.1000000000D+01
 D   1 1.00       0.000000000000
      0.8000000000D+00  0.1000000000D+01
 ****
     10 0
 S   6 1.00       0.000000000000
      0.3047524880D+04  0.1834737132D-02
      0.4573695180D+03  0.1403732281D-01
      0.1039486850D+03  0.6884262226D-01
      0.2921015530D+02  0.2321844432D+00
      0.9286662960D+01  0.4679413484D+00
      0.3163926960D+01  0.3623119853D+00
 SP   3 1.00       0.000000000000
      0.7868272350D+01 -0.1193324198D+00  0.6899906659D-01
      0.1881288540D+01 -0.1608541517D+00  0.3164239610D+00
      0.5442492580D+00  0.1143456438D+01  0.7443082909D+00
 SP   1 1.00       0.000000000000
      0.1687144782D+00  0.1000000000D+01  0.1000000000D+01
 D   1 1.00       0.000000000000
      0.8000000000D+00  0.1000000000D+01
 ****
     11 0
 S   6 1.00       0.000000000000
      0.4173511460D+04  0.1834772160D-02
      0.6274579110D+03  0.1399462700D-01
      0.1429020930D+03  0.6858655181D-01
      0.4023432930D+02  0.2322408730D+00
      0.1282021290D+02  0.4690699481D+00
      0.4390437010D+01  0.3604551991D+00
 SP   3 1.00       0.000000000000
      0.1162636186D+02 -0.1149611817D+00  0.6757974388D-01
      0.2716279807D+01 -0.1691174786D+00  0.3239072959D+00
      0.7722183966D+00  0.1145851947D+01  0.7408951398D+00
 SP   1 1.00       0.000000000000
      0.2120314975D+00  0.1000000000D+01  0.1000000000D+01
 D   1 1.00       0.000000000000
      0.8000000000D+00  0.1000000000D+01
 ****
     12 0
 S   6 1.00       0.000000000000
      0.3047524880D+04  0.1834737132D-02
      0.4573695180D+03  0.1403732281D-01
      0.1039486850D+03  0.6884262226D-01
      0.2921015530D+02  0.2321844432D+00
      0.9286662960D+01  0.4679413484D+00
      0.3163926960D+01  0.3623119853D+00
 SP   3 1.00       0.000000000000
      0.7868272350D+01 -0.1193324198D+00  0.6899906659D-01
      0.1881288540D+01 -0.1608541517D+00  0.3164239610D+00
      0.5442492580D+00  0.1143456438D+01  0.7443082909D+00
 SP   1 1.00       0.000000000000
      0.1687144782D+00  0.1000000000D+01  0.1000000000D+01
 D   1 1.00       0.000000000000
      0.8000000000D+00  0.1000000000D+01
 ****
     13 0
 S   6 1.00       0.000000000000
      0.2191710000D+05  0.1869240849D-02
      0.3301490000D+04  0.1423030646D-01
      0.7541460000D+03  0.6969623166D-01
      0.2127110000D+03  0.2384871083D+00
      0.6798960000D+02  0.4833072195D+00
      0.2305150000D+02  0.3380741536D+00
 SP   6 1.00       0.000000000000
      0.4237350000D+03 -0.2376770499D-02  0.4061009982D-02
      0.1007100000D+03 -0.3169300665D-01  0.3068129986D-01
      0.3215990000D+02 -0.1133170238D+00  0.1304519994D+00
      0.1180790000D+02  0.5609001177D-01  0.3272049985D+00
      0.4631100000D+01  0.5922551243D+00  0.4528509980D+00
      0.1870250000D+01  0.4550060955D+00  0.2560419989D+00
 SP   3 1.00       0.000000000000
      0.2615840000D+01 -0.2503731142D+00 -0.1451048955D-01
      0.9221670000D+00  0.6695676310D-01  0.3102627765D+00
      0.3412870000D+00  0.1054506269D+01  0.7544824565D+00
 SP   1 1.00       0.000000000000
      0.1171670000D+00  0.1000000000D+01  0.1000000000D+01
 D   1 1.00       0.000000000000
      0.6500000000D+00  0.1000000000D+01
 ****
     14 0
 S   6 1.00       0.000000000000
      0.3047524880D+04  0.1834737132D-02
      0.4573695180D+03  0.1403732281D-01
      0.1039486850D+03  0.6884262226D-01
      0.2921015530D+02  0.2321844432D+00
      0.9286662960D+01  0.4679413484D+00
      0.3163926960D+01  0.3623119853D+00
 SP   3 1.00       0.000000000000
      0.7868272350D+01 -0.1193324198D+00  0.6899906659D-01
      0.1881288540D+01 -0.1608541517D+00  0.3164239610D+00
      0.5442492580D+00  0.1143456438D+01  0.7443082909D+00
 SP   1 1.00       0.000000000000
      0.1687144782D+00  0.1000000000D+01  0.1000000000D+01
 D   1 1.00       0.000000000000
      0.8000000000D+00  0.1000000000D+01
 ****
     15 0
 S   6 1.00       0.000000000000
      0.3047524880D+04  0.1834737132D-02
      0.4573695180D+03  0.1403732281D-01
      0.1039486850D+03  0.6884262226D-01
      0.2921015530D+02  0.2321844432D+00
      0.9286662960D+01  0.4679413484D+00
      0.3163926960D+01  0.3623119853D+00
 SP   3 1.00       0.000000000000
      0.7868272350D+01 -0.1193324198D+00  0.6899906659D-01
      0.1881288540D+01 -0.1608541517D+00  0.3164239610D+00
      0.5442492580D+00  0.1143456438D+01  0.7443082909D+00
 SP   1 1.00       0.000000000000
      0.1687144782D+00  0.1000000000D+01  0.1000000000D+01
 D   1 1.00       0.000000000000
      0.8000000000D+00  0.1000000000D+01
 ****
     16 0
 S   6 1.00       0.000000000000
      0.3047524880D+04  0.1834737132D-02
      0.4573695180D+03  0.1403732281D-01
      0.1039486850D+03  0.6884262226D-01
      0.2921015530D+02  0.2321844432D+00
      0.9286662960D+01  0.4679413484D+00
      0.3163926960D+01  0.3623119853D+00
 SP   3 1.00       0.000000000000
      0.7868272350D+01 -0.1193324198D+00  0.6899906659D-01
      0.1881288540D+01 -0.1608541517D+00  0.3164239610D+00
      0.5442492580D+00  0.1143456438D+01  0.7443082909D+00
 SP   1 1.00       0.000000000000
      0.1687144782D+00  0.1000000000D+01  0.1000000000D+01
 D   1 1.00       0.000000000000
      0.8000000000D+00  0.1000000000D+01
 ****
     17 0
 S   6 1.00       0.000000000000
      0.3047524880D+04  0.1834737132D-02
      0.4573695180D+03  0.1403732281D-01
      0.1039486850D+03  0.6884262226D-01
      0.2921015530D+02  0.2321844432D+00
      0.9286662960D+01  0.4679413484D+00
      0.3163926960D+01  0.3623119853D+00
 SP   3 1.00       0.000000000000
      0.7868272350D+01 -0.1193324198D+00  0.6899906659D-01
      0.1881288540D+01 -0.1608541517D+00  0.3164239610D+00
      0.5442492580D+00  0.1143456438D+01  0.7443082909D+00
 SP   1 1.00       0.000000000000
      0.1687144782D+00  0.1000000000D+01  0.1000000000D+01
 D   1 1.00       0.000000000000
      0.8000000000D+00  0.1000000000D+01
 ****
     18 0
 S   6 1.00       0.000000000000
      0.5484671660D+04  0.1831074430D-02
      0.8252349460D+03  0.1395017220D-01
      0.1880469580D+03  0.6844507810D-01
      0.5296450000D+02  0.2327143360D+00
      0.1689757040D+02  0.4701928980D+00
      0.5799635340D+01  0.3585208530D+00
 SP   3 1.00       0.000000000000
      0.1553961625D+02 -0.1107775495D+00  0.7087426823D-01
      0.3599933586D+01 -0.1480262627D+00  0.3397528391D+00
      0.1013761750D+01  0.1130767015D+01  0.7271585773D+00
 SP   1 1.00       0.000000000000
      0.2700058226D+00  0.1000000000D+01  0.1000000000D+01
 D   1 1.00       0.000000000000
      0.8000000000D+00  0.1000000000D+01
 ****
     19 0
 S   6 1.00       0.000000000000
      0.4173511460D+04  0.1834772160D-02
      0.6274579110D+03  0.1399462700D-01
      0.1429020930D+03  0.6858655181D-01
      0.4023432930D+02  0.2322408730D+00
      0.1282021290D+02  0.4690699481D+00
      0.4390437010D+01  0.3604551991D+00
 SP   3 1.00       0.000000000000
      0.1162636186D+02 -0.1149611817D+00  0.6757974388D-01
      0.2716279807D+01 -0.1691174786D+00  0.3239072959D+00
      0.7722183966D+00  0.1145851947D+01  0.7408951398D+00
 SP   1 1.00       0.000000000000
      0.2120314975D+00  0.1000000000D+01  0.1000000000D+01
 D   1 1.00       0.000000000000
      0.8000000000D+00  0.1000000000D+01
 ****
     20 0
 S   6 1.00       0.000000000000
      0.3047524880D+04  0.1834737132D-02
      0.4573695180D+03  0.1403732281D-01
      0.1039486850D+03  0.6884262226D-01
      0.2921015530D+02  0.2321844432D+00
      0.9286662960D+01  0.4679413484D+00
      0.3163926960D+01  0.3623119853D+00
 SP   3 1.00       0.000000000000
      0.7868272350D+01 -0.1193324198D+00  0.6899906659D-01
      0.1881288540D+01 -0.1608541517D+00  0.3164239610D+00
      0.5442492580D+00  0.1143456438D+01  0.7443082909D+00
 SP   1 1.00       0.000000000000
      0.1687144782D+00  0.1000000000D+01  0.1000000000D+01
 D   1 1.00       0.000000000000
      0.8000000000D+00  0.1000000000D+01
 ****
     21 0
 S   6 1.00       0.000000000000
      0.3047524880D+04  0.1834737132D-02
      0.4573695180D+03  0.1403732281D-01
      0.1039486850D+03  0.6884262226D-01
      0.2921015530D+02  0.2321844432D+00
      0.9286662960D+01  0.4679413484D+00
      0.3163926960D+01  0.3623119853D+00
 SP   3 1.00       0.000000000000
      0.7868272350D+01 -0.1193324198D+00  0.6899906659D-01
      0.1881288540D+01 -0.1608541517D+00  0.3164239610D+00
      0.5442492580D+00  0.1143456438D+01  0.7443082909D+00
 SP   1 1.00       0.000000000000
      0.1687144782D+00  0.1000000000D+01  0.1000000000D+01
 D   1 1.00       0.000000000000
      0.8000000000D+00  0.1000000000D+01
 ****
     22 0
 S   6 1.00       0.000000000000
      0.3047524880D+04  0.1834737132D-02
      0.4573695180D+03  0.1403732281D-01
      0.1039486850D+03  0.6884262226D-01
      0.2921015530D+02  0.2321844432D+00
      0.9286662960D+01  0.4679413484D+00
      0.3163926960D+01  0.3623119853D+00
 SP   3 1.00       0.000000000000
      0.7868272350D+01 -0.1193324198D+00  0.6899906659D-01
      0.1881288540D+01 -0.1608541517D+00  0.3164239610D+00
      0.5442492580D+00  0.1143456438D+01  0.7443082909D+00
 SP   1 1.00       0.000000000000
      0.1687144782D+00  0.1000000000D+01  0.1000000000D+01
 D   1 1.00       0.000000000000
      0.8000000000D+00  0.1000000000D+01
 ****
     23 0
 S   6 1.00       0.000000000000
      0.3047524880D+04  0.1834737132D-02
      0.4573695180D+03  0.1403732281D-01
      0.1039486850D+03  0.6884262226D-01
      0.2921015530D+02  0.2321844432D+00
      0.9286662960D+01  0.4679413484D+00
      0.3163926960D+01  0.3623119853D+00
 SP   3 1.00       0.000000000000
      0.7868272350D+01 -0.1193324198D+00  0.6899906659D-01
      0.1881288540D+01 -0.1608541517D+00  0.3164239610D+00
      0.5442492580D+00  0.1143456438D+01  0.7443082909D+00
 SP   1 1.00       0.000000000000
      0.1687144782D+00  0.1000000000D+01  0.1000000000D+01
 D   1 1.00       0.000000000000
      0.8000000000D+00  0.1000000000D+01
 ****
     24 0
 S   6 1.00       0.000000000000
      0.7001713090D+04  0.1819616901D-02
      0.1051366090D+04  0.1391607961D-01
      0.2392856900D+03  0.6840532453D-01
      0.6739744530D+02  0.2331857601D+00
      0.2151995730D+02  0.4712674392D+00
      0.7403101300D+01  0.3566185462D+00
 SP   3 1.00       0.000000000000
      0.2084795280D+02 -0.1085069751D+00  0.7162872424D-01
      0.4808308340D+01 -0.1464516581D+00  0.3459121027D+00
      0.1344069860D+01  0.1128688581D+01  0.7224699564D+00
 SP   1 1.00       0.000000000000
      0.3581513930D+00  0.1000000000D+01  0.1000000000D+01
 D   1 1.00       0.000000000000
      0.8000000000D+00  0.1000000000D+01
 ****
     25 0
 S   6 1.00       0.000000000000
      0.3047524880D+04  0.1834737132D-02
      0.4573695180D+03  0.1403732281D-01
      0.1039486850D+03  0.6884262226D-01
      0.2921015530D+02  0.2321844432D+00
      0.9286662960D+01  0.4679413484D+00
      0.3163926960D+01  0.3623119853D+00
 SP   3 1.00       0.000000000000
      0.7868272350D+01 -0.1193324198D+00  0.6899906659D-01
      0.1881288540D+01 -0.1608541517D+00  0.3164239610D+00
      0.5442492580D+00  0.1143456438D+01  0.7443082909D+00
 SP   1 1.00       0.000000000000
      0.1687144782D+00  0.1000000000D+01  0.1000000000D+01
 D   1 1.00       0.000000000000
      0.8000000000D+00  0.1000000000D+01
 ****
     26 0
 S   6 1.00       0.000000000000
      0.3047524880D+04  0.1834737132D-02
      0.4573695180D+03  0.1403732281D-01
      0.1039486850D+03  0.6884262226D-01
      0.2921015530D+02  0.2321844432D+00
      0.9286662960D+01  0.4679413484D+00
      0.3163926960D+01  0.3623119853D+00
 SP   3 1.00       0.000000000000
      0.7868272350D+01 -0.1193324198D+00  0.6899906659D-01
      0.1881288540D+01 -0.1608541517D+00  0.3164239610D+00
      0.5442492580D+00  0.1143456438D+01  0.7443082909D+00
 SP   1 1.00       0.000000000000
      0.1687144782D+00  0.1000000000D+01  0.1000000000D+01
 D   1 1.00       0.000000000000
      0.8000000000D+00  0.1000000000D+01
 ****
     27 0
 S   6 1.00       0.000000000000
      0.4173511460D+04  0.1834772160D-02
      0.6274579110D+03  0.1399462700D-01
      0.1429020930D+03  0.6858655181D-01
      0.4023432930D+02  0.2322408730D+00
      0.1282021290D+02  0.4690699481D+00
      0.4390437010D+01  0.3604551991D+00
 SP   3 1.00       0.000000000000
      0.1162636186D+02 -0.1149611817D+00  0.6757974388D-01
      0.2716279807D+01 -0.1691174786D+00  0.3239072959D+00
      0.7722183966D+00  0.1145851947D+01  0.7408951398D+00
 SP   1 1.00       0.000000000000
      0.2120314975D+00  0.1000000000D+01  0.1000000000D+01
 D   1 1.00       0.000000000000
      0.8000000000D+00  0.1000000000D+01
 ****
     28 0
 S   6 1.00       0.000000000000
      0.3047524880D+04  0.1834737132D-02
      0.4573695180D+03  0.1403732281D-01
      0.1039486850D+03  0.6884262226D-01
      0.2921015530D+02  0.2321844432D+00
      0.9286662960D+01  0.4679413484D+00
      0.3163926960D+01  0.3623119853D+00
 SP   3 1.00       0.000000000000
      0.7868272350D+01 -0.1193324198D+00  0.6899906659D-01
      0.1881288540D+01 -0.1608541517D+00  0.3164239610D+00
      0.5442492580D+00  0.1143456438D+01  0.7443082909D+00
 SP   1 1.00       0.000000000000
      0.1687144782D+00  0.1000000000D+01  0.1000000000D+01
 D   1 1.00       0.000000000000
      0.8000000000D+00  0.1000000000D+01
 ****
     29 0
 S   6 1.00       0.000000000000
      0.3047524880D+04  0.1834737132D-02
      0.4573695180D+03  0.1403732281D-01
      0.1039486850D+03  0.6884262226D-01
      0.2921015530D+02  0.2321844432D+00
      0.9286662960D+01  0.4679413484D+00
      0.3163926960D+01  0.3623119853D+00
 SP   3 1.00       0.000000000000
      0.7868272350D+01 -0.1193324198D+00  0.6899906659D-01
      0.1881288540D+01 -0.1608541517D+00  0.3164239610D+00
      0.5442492580D+00  0.1143456438D+01  0.7443082909D+00
 SP   1 1.00       0.000000000000
      0.1687144782D+00  0.1000000000D+01  0.1000000000D+01
 D   1 1.00       0.000000000000
      0.8000000000D+00  0.1000000000D+01
 ****
     30 0
 S   6 1.00       0.000000000000
      0.3047524880D+04  0.1834737132D-02
      0.4573695180D+03  0.1403732281D-01
      0.1039486850D+03  0.6884262226D-01
      0.2921015530D+02  0.2321844432D+00
      0.9286662960D+01  0.4679413484D+00
      0.3163926960D+01  0.3623119853D+00
 SP   3 1.00       0.000000000000
      0.7868272350D+01 -0.1193324198D+00  0.6899906659D-01
      0.1881288540D+01 -0.1608541517D+00  0.3164239610D+00
      0.5442492580D+00  0.1143456438D+01  0.7443082909D+00
 SP   1 1.00       0.000000000000
      0.1687144782D+00  0.1000000000D+01  0.1000000000D+01
 D   1 1.00       0.000000000000
      0.8000000000D+00  0.1000000000D+01
 ****
     31 0
 S   6 1.00       0.000000000000
      0.3047524880D+04  0.1834737132D-02
      0.4573695180D+03  0.1403732281D-01
      0.1039486850D+03  0.6884262226D-01
      0.2921015530D+02  0.2321844432D+00
      0.9286662960D+01  0.4679413484D+00
      0.3163926960D+01  0.3623119853D+00
 SP   3 1.00       0.000000000000
      0.7868272350D+01 -0.1193324198D+00  0.6899906659D-01
      0.1881288540D+01 -0.1608541517D+00  0.3164239610D+00
      0.5442492580D+00  0.1143456438D+01  0.7443082909D+00
 SP   1 1.00       0.000000000000
      0.1687144782D+00  0.1000000000D+01  0.1000000000D+01
 D   1 1.00       0.000000000000
      0.8000000000D+00  0.1000000000D+01
 ****
     32 0
 S   6 1.00       0.000000000000
      0.3047524880D+04  0.1834737132D-02
      0.4573695180D+03  0.1403732281D-01
      0.1039486850D+03  0.6884262226D-01
      0.2921015530D+02  0.2321844432D+00
      0.9286662960D+01  0.4679413484D+00
      0.3163926960D+01  0.3623119853D+00
 SP   3 1.00       0.000000000000
      0.7868272350D+01 -0.1193324198D+00  0.6899906659D-01
      0.1881288540D+01 -0.1608541517D+00  0.3164239610D+00
      0.5442492580D+00  0.1143456438D+01  0.7443082909D+00
 SP   1 1.00       0.000000000000
      0.1687144782D+00  0.1000000000D+01  0.1000000000D+01
 D   1 1.00       0.000000000000
      0.8000000000D+00  0.1000000000D+01
 ****
     33 0
 S   6 1.00       0.000000000000
      0.5484671660D+04  0.1831074430D-02
      0.8252349460D+03  0.1395017220D-01
      0.1880469580D+03  0.6844507810D-01
      0.5296450000D+02  0.2327143360D+00
      0.1689757040D+02  0.4701928980D+00
      0.5799635340D+01  0.3585208530D+00
 SP   3 1.00       0.000000000000
      0.1553961625D+02 -0.1107775495D+00  0.7087426823D-01
      0.3599933586D+01 -0.1480262627D+00  0.3397528391D+00
      0.1013761750D+01  0.1130767015D+01  0.7271585773D+00
 SP   1 1.00       0.000000000000
      0.2700058226D+00  0.1000000000D+01  0.1000000000D+01
 D   1 1.00       0.000000000000
      0.8000000000D+00  0.1000000000D+01
 ****
     34 0
 S   6 1.00       0.000000000000
      0.3047524880D+04  0.1834737132D-02
      0.4573695180D+03  0.1403732281D-01
      0.1039486850D+03  0.6884262226D-01
      0.2921015530D+02  0.2321844432D+00
      0.9286662960D+01  0.4679413484D+00
      0.3163926960D+01  0.3623119853D+00
 SP   3 1.00       0.000000000000
      0.7868272350D+01 -0.1193324198D+00  0.6899906659D-01
      0.1881288540D+01 -0.1608541517D+00  0.3164239610D+00
      0.5442492580D+00  0.1143456438D+01  0.7443082909D+00
 SP   1 1.00       0.000000000000
      0.1687144782D+00  0.1000000000D+01  0.1000000000D+01
 D   1 1.00       0.000000000000
      0.8000000000D+00  0.1000000000D+01
 ****
     35 0
 S   6 1.00       0.000000000000
      0.3047524880D+04  0.1834737132D-02
      0.4573695180D+03  0.1403732281D-01
      0.1039486850D+03  0.6884262226D-01
      0.2921015530D+02  0.2321844432D+00
      0.9286662960D+01  0.4679413484D+00
      0.3163926960D+01  0.3623119853D+00
 SP   3 1.00       0.000000000000
      0.7868272350D+01 -0.1193324198D+00  0.6899906659D-01
      0.1881288540D+01 -0.1608541517D+00  0.3164239610D+00
      0.5442492580D+00  0.1143456438D+01  0.7443082909D+00
 SP   1 1.00       0.000000000000
      0.1687144782D+00  0.1000000000D+01  0.1000000000D+01
 D   1 1.00       0.000000000000
      0.8000000000D+00  0.1000000000D+01
 ****
     36 0
 S   6 1.00       0.000000000000
      0.3047524880D+04  0.1834737132D-02
      0.4573695180D+03  0.1403732281D-01
      0.1039486850D+03  0.6884262226D-01
      0.2921015530D+02  0.2321844432D+00
      0.9286662960D+01  0.4679413484D+00
      0.3163926960D+01  0.3623119853D+00
 SP   3 1.00       0.000000000000
      0.7868272350D+01 -0.1193324198D+00  0.6899906659D-01
      0.1881288540D+01 -0.1608541517D+00  0.3164239610D+00
      0.5442492580D+00  0.1143456438D+01  0.7443082909D+00
 SP   1 1.00       0.000000000000
      0.1687144782D+00  0.1000000000D+01  0.1000000000D+01
 D   1 1.00       0.000000000000
      0.8000000000D+00  0.1000000000D+01
 ****
     37 0
 S   3 1.00       0.000000000000
      0.1873113696D+02  0.3349460434D-01
      0.2825394365D+01  0.2347269535D+00
      0.6401216923D+00  0.8137573261D+00
 S   1 1.00       0.000000000000
      0.1612777588D+00  0.1000000000D+01
 ****
     38 0
 S   3 1.00       0.000000000000
      0.1873113696D+02  0.3349460434D-01
      0.2825394365D+01  0.2347269535D+00
      0.6401216923D+00  0.8137573261D+00
 S   1 1.00       0.000000000000
      0.1612777588D+00  0.1000000000D+01
 ****
     39 0
 S   3 1.00       0.000000000000
      0.1873113696D+02  0.3349460434D-01
      0.2825394365D+01  0.2347269535D+00
      0.6401216923D+00  0.8137573261D+00
 S   1 1.00       0.000000000000
      0.1612777588D+00  0.1000000000D+01
 ****
     40 0
 S   3 1.00       0.000000000000
      0.1873113696D+02  0.3349460434D-01
      0.2825394365D+01  0.2347269535D+00
      0.6401216923D+00  0.8137573261D+00
 S   1 1.00       0.000000000000
      0.1612777588D+00  0.1000000000D+01
 ****
     41 0
 S   3 1.00       0.000000000000
      0.1873113696D+02  0.3349460434D-01
      0.2825394365D+01  0.2347269535D+00
      0.6401216923D+00  0.8137573261D+00
 S   1 1.00       0.000000000000
      0.1612777588D+00  0.1000000000D+01
 ****
     42 0
 S   3 1.00       0.000000000000
      0.1873113696D+02  0.3349460434D-01
      0.2825394365D+01  0.2347269535D+00
      0.6401216923D+00  0.8137573261D+00
 S   1 1.00       0.000000000000
      0.1612777588D+00  0.1000000000D+01
 ****
     43 0
 S   3 1.00       0.000000000000
      0.1873113696D+02  0.3349460434D-01
      0.2825394365D+01  0.2347269535D+00
      0.6401216923D+00  0.8137573261D+00
 S   1 1.00       0.000000000000
      0.1612777588D+00  0.1000000000D+01
 ****
     44 0
 S   3 1.00       0.000000000000
      0.1873113696D+02  0.3349460434D-01
      0.2825394365D+01  0.2347269535D+00
      0.6401216923D+00  0.8137573261D+00
 S   1 1.00       0.000000000000
      0.1612777588D+00  0.1000000000D+01
 ****
     45 0
 S   3 1.00       0.000000000000
      0.1873113696D+02  0.3349460434D-01
      0.2825394365D+01  0.2347269535D+00
      0.6401216923D+00  0.8137573261D+00
 S   1 1.00       0.000000000000
      0.1612777588D+00  0.1000000000D+01
 ****
     46 0
 S   3 1.00       0.000000000000
      0.1873113696D+02  0.3349460434D-01
      0.2825394365D+01  0.2347269535D+00
      0.6401216923D+00  0.8137573261D+00
 S   1 1.00       0.000000000000
      0.1612777588D+00  0.1000000000D+01
 ****
     47 0
 S   3 1.00       0.000000000000
      0.1873113696D+02  0.3349460434D-01
      0.2825394365D+01  0.2347269535D+00
      0.6401216923D+00  0.8137573261D+00
 S   1 1.00       0.000000000000
      0.1612777588D+00  0.1000000000D+01
 ****
     48 0
 S   3 1.00       0.000000000000
      0.1873113696D+02  0.3349460434D-01
      0.2825394365D+01  0.2347269535D+00
      0.6401216923D+00  0.8137573261D+00
 S   1 1.00       0.000000000000
      0.1612777588D+00  0.1000000000D+01
 ****
     49 0
 S   3 1.00       0.000000000000
      0.1873113696D+02  0.3349460434D-01
      0.2825394365D+01  0.2347269535D+00
      0.6401216923D+00  0.8137573261D+00
 S   1 1.00       0.000000000000
      0.1612777588D+00  0.1000000000D+01
 ****
     50 0
 S   3 1.00       0.000000000000
      0.1873113696D+02  0.3349460434D-01
      0.2825394365D+01  0.2347269535D+00
      0.6401216923D+00  0.8137573261D+00
 S   1 1.00       0.000000000000
      0.1612777588D+00  0.1000000000D+01
 ****
     51 0
 S   3 1.00       0.000000000000
      0.1873113696D+02  0.3349460434D-01
      0.2825394365D+01  0.2347269535D+00
      0.6401216923D+00  0.8137573261D+00
 S   1 1.00       0.000000000000
      0.1612777588D+00  0.1000000000D+01
 ****
     52 0
 S   3 1.00       0.000000000000
      0.1873113696D+02  0.3349460434D-01
      0.2825394365D+01  0.2347269535D+00
      0.6401216923D+00  0.8137573261D+00
 S   1 1.00       0.000000000000
      0.1612777588D+00  0.1000000000D+01
 ****
     53 0
 S   3 1.00       0.000000000000
      0.1873113696D+02  0.3349460434D-01
      0.2825394365D+01  0.2347269535D+00
      0.6401216923D+00  0.8137573261D+00
 S   1 1.00       0.000000000000
      0.1612777588D+00  0.1000000000D+01
 ****
     54 0
 S   3 1.00       0.000000000000
      0.1873113696D+02  0.3349460434D-01
      0.2825394365D+01  0.2347269535D+00
      0.6401216923D+00  0.8137573261D+00
 S   1 1.00       0.000000000000
      0.1612777588D+00  0.1000000000D+01
 ****
     55 0
 S   3 1.00       0.000000000000
      0.1873113696D+02  0.3349460434D-01
      0.2825394365D+01  0.2347269535D+00
      0.6401216923D+00  0.8137573261D+00
 S   1 1.00       0.000000000000
      0.1612777588D+00  0.1000000000D+01
 ****
     56 0
 S   3 1.00       0.000000000000
      0.1873113696D+02  0.3349460434D-01
      0.2825394365D+01  0.2347269535D+00
      0.6401216923D+00  0.8137573261D+00
 S   1 1.00       0.000000000000
      0.1612777588D+00  0.1000000000D+01
 ****
     57 0
 S   3 1.00       0.000000000000
      0.1873113696D+02  0.3349460434D-01
      0.2825394365D+01  0.2347269535D+00
      0.6401216923D+00  0.8137573261D+00
 S   1 1.00       0.000000000000
      0.1612777588D+00  0.1000000000D+01
 ****
     58 0
 S   3 1.00       0.000000000000
      0.1873113696D+02  0.3349460434D-01
      0.2825394365D+01  0.2347269535D+00
      0.6401216923D+00  0.8137573261D+00
 S   1 1.00       0.000000000000
      0.1612777588D+00  0.1000000000D+01
 ****
     59 0
 S   3 1.00       0.000000000000
      0.1873113696D+02  0.3349460434D-01
      0.2825394365D+01  0.2347269535D+00
      0.6401216923D+00  0.8137573261D+00
 S   1 1.00       0.000000000000
      0.1612777588D+00  0.1000000000D+01
 ****
     60 0
 S   3 1.00       0.000000000000
      0.1873113696D+02  0.3349460434D-01
      0.2825394365D+01  0.2347269535D+00
      0.6401216923D+00  0.8137573261D+00
 S   1 1.00       0.000000000000
      0.1612777588D+00  0.1000000000D+01
 ****
     61 0
 S   3 1.00       0.000000000000
      0.1873113696D+02  0.3349460434D-01
      0.2825394365D+01  0.2347269535D+00
      0.6401216923D+00  0.8137573261D+00
 S   1 1.00       0.000000000000
      0.1612777588D+00  0.1000000000D+01
 ****
     62 0
 S   3 1.00       0.000000000000
      0.1873113696D+02  0.3349460434D-01
      0.2825394365D+01  0.2347269535D+00
      0.6401216923D+00  0.8137573261D+00
 S   1 1.00       0.000000000000
      0.1612777588D+00  0.1000000000D+01
 ****

   596 basis functions,  1136 primitive gaussians,   596 cartesian basis functions
   134 alpha electrons      134 beta electrons
       nuclear repulsion energy      4093.4874021452 Hartrees.
 IExCor=  402 DFT=T Ex+Corr=B3LYP ExCW=0 ScaHFX=  0.200000
 ScaDFX=  0.800000  0.720000  1.000000  0.810000 ScalE2=  1.000000  1.000000
 IRadAn=      5 IRanWt=     -1 IRanGd=            0 ICorTp=0 IEmpDi=  4
 NAtoms=   62 NActive=   62 NUniq=   62 SFac= 1.00D+00 NAtFMM=   60 NAOKFM=T Big=T
 Integral buffers will be    131072 words long.
 Regular integral format.
 Two-electron integral symmetry is turned off.
 Leave Link  301 at Sat Nov  5 11:40:44 2022, MaxMem=   402653184 cpu:               0.4 elap:               0.1
 (Enter /home/wykgroup/appl/g16/l302.exe)
 NPDir=0 NMtPBC=     1 NCelOv=     1 NCel=       1 NClECP=     1 NCelD=      1
         NCelK=      1 NCelE2=     1 NClLst=     1 CellRange=     0.0.
 One-electron integrals computed using PRISM.
 NBasis=   596 RedAO= T EigKep=  4.13D-04  NBF=   596
 NBsUse=   596 1.00D-06 EigRej= -1.00D+00 NBFU=   596
 Precomputing XC quadrature grid using
 IXCGrd= 4 IRadAn=           5 IRanWt=          -1 IRanGd=           0 AccXCQ= 0.00D+00.
 Generated NRdTot=       0 NPtTot=           0 NUsed=           0 NTot=          32
 NSgBfM=   580   579   579   580   580 MxSgAt=    62 MxSgA2=    62.
 Leave Link  302 at Sat Nov  5 11:40:46 2022, MaxMem=   402653184 cpu:              21.0 elap:               2.4
 (Enter /home/wykgroup/appl/g16/l303.exe)
 DipDrv:  MaxL=1.
 Leave Link  303 at Sat Nov  5 11:40:46 2022, MaxMem=   402653184 cpu:               1.4 elap:               0.3
 (Enter /home/wykgroup/appl/g16/l308.exe)
 Leave Link  308 at Sat Nov  5 11:40:47 2022, MaxMem=   402653184 cpu:               2.3 elap:               0.4
 (Enter /home/wykgroup/appl/g16/l401.exe)
 ExpMin= 1.17D-01 ExpMax= 2.19D+04 ExpMxC= 3.30D+03 IAcc=3 IRadAn=         5 AccDes= 0.00D+00
 Harris functional with IExCor=  402 and IRadAn=       5 diagonalized for initial guess.
 HarFok:  IExCor=  402 AccDes= 0.00D+00 IRadAn=         5 IDoV= 1 UseB2=F ITyADJ=14
 ICtDFT=  3500011 ScaDFX=  1.000000  1.000000  1.000000  1.000000
 FoFCou: FMM=F IPFlag=           0 FMFlag=      100000 FMFlg1=        2001
         NFxFlg=           0 DoJE=T BraDBF=F KetDBF=T FulRan=T
         wScrn=  0.000000 ICntrl=       500 IOpCl=  0 I1Cent=   200000004 NGrid=           0
         NMat0=    1 NMatS0=      1 NMatT0=    0 NMatD0=    1 NMtDS0=    0 NMtDT0=    0
 Symmetry not used in FoFCou.
 Harris En= -2044.72225364197    
 JPrj=0 DoOrth=F DoCkMO=F.
 Leave Link  401 at Sat Nov  5 11:40:54 2022, MaxMem=   402653184 cpu:              55.6 elap:               7.1
 (Enter /home/wykgroup/appl/g16/l502.exe)
 Two-electron integral symmetry not used.
 Closed shell SCF:
 Using DIIS extrapolation, IDIIS=  1040.
 NGot=   402653184 LenX=   401929340 LenY=   401573528
 Requested convergence on RMS density matrix=1.00D-08 within  32 cycles.
 Requested convergence on MAX density matrix=1.00D-06.
 Requested convergence on             energy=1.00D-06.
 No special actions if energy rises.
 Fock matrices will be formed incrementally for  20 cycles.
 Integral accuracy reduced to 1.0D-05 until final iterations.

 Cycle   1  Pass 0  IDiag  1:
 FoFJK:  IHMeth= 1 ICntrl=       0 DoSepK=F KAlg= 0 I1Cent=           0 FoldK=F
 IRaf= 920000000 NMat=       1 IRICut=       1 DoRegI=T DoRafI=F ISym2E= 0 IDoP0=0 IntGTp=1.
 FoFCou: FMM=T IPFlag=           0 FMFlag=      100000 FMFlg1=        2001
         NFxFlg=           0 DoJE=F BraDBF=F KetDBF=F FulRan=T
         wScrn=  0.000000 ICntrl=         0 IOpCl=  0 I1Cent=           0 NGrid=           0
         NMat0=    1 NMatS0=      1 NMatT0=    0 NMatD0=    1 NMtDS0=    0 NMtDT0=    0
 Symmetry not used in FoFCou.
 FMM levels:  10  Number of levels for PrismC:   9
 E= -2044.02118863029    
 DIIS: error= 2.46D-02 at cycle   1 NSaved=   1.
 NSaved= 1 IEnMin= 1 EnMin= -2044.02118863029     IErMin= 1 ErrMin= 2.46D-02
 ErrMax= 2.46D-02  0.00D+00 EMaxC= 1.00D-01 BMatC= 8.28D-01 BMatP= 8.28D-01
 IDIUse=3 WtCom= 7.54D-01 WtEn= 2.46D-01
 Coeff-Com:  0.100D+01
 Coeff-En:   0.100D+01
 Coeff:      0.100D+01
 Gap=     0.209 Goal=   None    Shift=    0.000
 GapD=    0.209 DampG=1.000 DampE=0.500 DampFc=0.5000 IDamp=-1.
 Damping current iteration by 5.00D-01
 RMSDP=3.86D-03 MaxDP=2.24D-01              OVMax= 4.24D-01

 Cycle   2  Pass 0  IDiag  1:
 RMSU=  1.91D-03    CP:  9.84D-01
 E= -2044.27845495450     Delta-E=       -0.257266324210 Rises=F Damp=T
 DIIS: error= 7.84D-03 at cycle   2 NSaved=   2.
 NSaved= 2 IEnMin= 2 EnMin= -2044.27845495450     IErMin= 2 ErrMin= 7.84D-03
 ErrMax= 7.84D-03  0.00D+00 EMaxC= 1.00D-01 BMatC= 1.13D-01 BMatP= 8.28D-01
 IDIUse=3 WtCom= 9.22D-01 WtEn= 7.84D-02
 Coeff-Com:  0.170D+00 0.830D+00
 Coeff-En:   0.283D+00 0.717D+00
 Coeff:      0.179D+00 0.821D+00
 Gap=     0.327 Goal=   None    Shift=    0.000
 RMSDP=1.26D-03 MaxDP=8.87D-02 DE=-2.57D-01 OVMax= 3.38D-01

 Cycle   3  Pass 0  IDiag  1:
 RMSU=  1.12D-03    CP:  9.75D-01  7.05D-01
 E= -2044.69585403663     Delta-E=       -0.417399082132 Rises=F Damp=F
 DIIS: error= 1.00D-02 at cycle   3 NSaved=   3.
 NSaved= 3 IEnMin= 3 EnMin= -2044.69585403663     IErMin= 2 ErrMin= 7.84D-03
 ErrMax= 1.00D-02  0.00D+00 EMaxC= 1.00D-01 BMatC= 1.31D-01 BMatP= 1.13D-01
 IDIUse=2 WtCom= 0.00D+00 WtEn= 1.00D+00
 Coeff-En:   0.000D+00 0.000D+00 0.100D+01
 Coeff:      0.000D+00 0.000D+00 0.100D+01
 Gap=     0.151 Goal=   None    Shift=    0.000
 RMSDP=1.99D-03 MaxDP=1.51D-01 DE=-4.17D-01 OVMax= 2.97D-01

 Cycle   4  Pass 0  IDiag  1:
 RMSU=  1.13D-03    CP:  9.82D-01  1.19D+00 -2.04D-01
 E= -2044.19078241952     Delta-E=        0.505071617112 Rises=F Damp=F
 DIIS: error= 2.60D-02 at cycle   4 NSaved=   4.
 NSaved= 4 IEnMin= 3 EnMin= -2044.69585403663     IErMin= 2 ErrMin= 7.84D-03
 ErrMax= 2.60D-02  0.00D+00 EMaxC= 1.00D-01 BMatC= 7.45D-01 BMatP= 1.13D-01
 IDIUse=2 WtCom= 0.00D+00 WtEn= 1.00D+00
 Coeff-En:   0.000D+00 0.000D+00 0.794D+00 0.206D+00
 Coeff:      0.000D+00 0.000D+00 0.794D+00 0.206D+00
 Gap=     0.174 Goal=   None    Shift=    0.000
 RMSDP=1.09D-03 MaxDP=8.00D-02 DE= 5.05D-01 OVMax= 1.40D-01

 Cycle   5  Pass 0  IDiag  1:
 RMSU=  2.03D-04    CP:  9.80D-01  8.86D-01  4.01D-01  4.75D-01
 E= -2044.76461087592     Delta-E=       -0.573828456399 Rises=F Damp=F
 DIIS: error= 6.36D-03 at cycle   5 NSaved=   5.
 NSaved= 5 IEnMin= 5 EnMin= -2044.76461087592     IErMin= 5 ErrMin= 6.36D-03
 ErrMax= 6.36D-03  0.00D+00 EMaxC= 1.00D-01 BMatC= 5.13D-02 BMatP= 1.13D-01
 IDIUse=3 WtCom= 9.36D-01 WtEn= 6.36D-02
 Coeff-Com:  0.334D-03 0.233D-01 0.340D+00-0.442D-01 0.681D+00
 Coeff-En:   0.000D+00 0.000D+00 0.323D+00 0.000D+00 0.677D+00
 Coeff:      0.312D-03 0.218D-01 0.339D+00-0.414D-01 0.681D+00
 Gap=     0.144 Goal=   None    Shift=    0.000
 RMSDP=3.80D-04 MaxDP=2.57D-02 DE=-5.74D-01 OVMax= 4.94D-02

 Cycle   6  Pass 0  IDiag  1:
 RMSU=  7.60D-05    CP:  9.78D-01  8.06D-01  6.35D-01  2.94D-01  6.76D-01
 E= -2044.80703097687     Delta-E=       -0.042420100955 Rises=F Damp=F
 DIIS: error= 5.65D-04 at cycle   6 NSaved=   6.
 NSaved= 6 IEnMin= 6 EnMin= -2044.80703097687     IErMin= 6 ErrMin= 5.65D-04
 ErrMax= 5.65D-04  0.00D+00 EMaxC= 1.00D-01 BMatC= 6.63D-04 BMatP= 5.13D-02
 IDIUse=3 WtCom= 9.94D-01 WtEn= 5.65D-03
 Coeff-Com: -0.380D-02 0.127D-01 0.152D+00-0.559D-01 0.439D+00 0.456D+00
 Coeff-En:   0.000D+00 0.000D+00 0.000D+00 0.000D+00 0.000D+00 0.100D+01
 Coeff:     -0.378D-02 0.126D-01 0.151D+00-0.556D-01 0.437D+00 0.459D+00
 Gap=     0.142 Goal=   None    Shift=    0.000
 RMSDP=5.06D-05 MaxDP=3.31D-03 DE=-4.24D-02 OVMax= 7.40D-03

 Cycle   7  Pass 0  IDiag  1:
 RMSU=  2.32D-05    CP:  9.78D-01  8.12D-01  6.28D-01  2.94D-01  7.74D-01
                    CP:  5.03D-01
 E= -2044.80763861458     Delta-E=       -0.000607637708 Rises=F Damp=F
 DIIS: error= 1.59D-04 at cycle   7 NSaved=   7.
 NSaved= 7 IEnMin= 7 EnMin= -2044.80763861458     IErMin= 7 ErrMin= 1.59D-04
 ErrMax= 1.59D-04  0.00D+00 EMaxC= 1.00D-01 BMatC= 2.96D-05 BMatP= 6.63D-04
 IDIUse=3 WtCom= 9.98D-01 WtEn= 1.59D-03
 Coeff-Com: -0.182D-02 0.478D-02 0.559D-01-0.262D-01 0.178D+00 0.235D+00
 Coeff-Com:  0.554D+00
 Coeff-En:   0.000D+00 0.000D+00 0.000D+00 0.000D+00 0.000D+00 0.000D+00
 Coeff-En:   0.100D+01
 Coeff:     -0.181D-02 0.477D-02 0.558D-01-0.262D-01 0.178D+00 0.234D+00
 Coeff:      0.555D+00
 Gap=     0.142 Goal=   None    Shift=    0.000
 RMSDP=1.29D-05 MaxDP=7.21D-04 DE=-6.08D-04 OVMax= 1.80D-03

 Cycle   8  Pass 0  IDiag  1:
 RMSU=  8.41D-06    CP:  9.78D-01  8.11D-01  6.29D-01  2.93D-01  7.71D-01
                    CP:  5.60D-01  6.39D-01
 E= -2044.80766371078     Delta-E=       -0.000025096194 Rises=F Damp=F
 DIIS: error= 5.38D-05 at cycle   8 NSaved=   8.
 NSaved= 8 IEnMin= 8 EnMin= -2044.80766371078     IErMin= 8 ErrMin= 5.38D-05
 ErrMax= 5.38D-05  0.00D+00 EMaxC= 1.00D-01 BMatC= 5.08D-06 BMatP= 2.96D-05
 IDIUse=1 WtCom= 1.00D+00 WtEn= 0.00D+00
 Coeff-Com: -0.227D-03 0.144D-03 0.112D-01-0.586D-02 0.356D-01 0.632D-01
 Coeff-Com:  0.328D+00 0.568D+00
 Coeff:     -0.227D-03 0.144D-03 0.112D-01-0.586D-02 0.356D-01 0.632D-01
 Coeff:      0.328D+00 0.568D+00
 Gap=     0.142 Goal=   None    Shift=    0.000
 RMSDP=4.87D-06 MaxDP=3.00D-04 DE=-2.51D-05 OVMax= 6.40D-04

 Initial convergence to 1.0D-05 achieved.  Increase integral accuracy.
 Cycle   9  Pass 1  IDiag  1:
 E= -2044.80765072400     Delta-E=        0.000012986777 Rises=F Damp=F
 DIIS: error= 1.85D-04 at cycle   1 NSaved=   1.
 NSaved= 1 IEnMin= 1 EnMin= -2044.80765072400     IErMin= 1 ErrMin= 1.85D-04
 ErrMax= 1.85D-04  0.00D+00 EMaxC= 1.00D-01 BMatC= 7.65D-06 BMatP= 7.65D-06
 IDIUse=3 WtCom= 9.98D-01 WtEn= 1.85D-03
 Coeff-Com:  0.100D+01
 Coeff-En:   0.100D+01
 Coeff:      0.100D+01
 Gap=     0.142 Goal=   None    Shift=    0.000
 RMSDP=4.87D-06 MaxDP=3.00D-04 DE= 1.30D-05 OVMax= 7.29D-04

 Cycle  10  Pass 1  IDiag  1:
 RMSU=  6.85D-05    CP:  1.00D+00
 E= -2044.80765682247     Delta-E=       -0.000006098475 Rises=F Damp=F
 DIIS: error= 2.84D-05 at cycle   2 NSaved=   2.
 NSaved= 2 IEnMin= 2 EnMin= -2044.80765682247     IErMin= 2 ErrMin= 2.84D-05
 ErrMax= 2.84D-05  0.00D+00 EMaxC= 1.00D-01 BMatC= 1.18D-06 BMatP= 7.65D-06
 IDIUse=1 WtCom= 1.00D+00 WtEn= 0.00D+00
 Coeff-Com:  0.176D+00 0.824D+00
 Coeff:      0.176D+00 0.824D+00
 Gap=     0.142 Goal=   None    Shift=    0.000
 RMSDP=5.27D-06 MaxDP=3.54D-04 DE=-6.10D-06 OVMax= 7.56D-04

 Cycle  11  Pass 1  IDiag  1:
 RMSU=  5.25D-06    CP:  1.00D+00  1.01D+00
 E= -2044.80765541661     Delta-E=        0.000001405867 Rises=F Damp=F
 DIIS: error= 4.21D-05 at cycle   3 NSaved=   3.
 NSaved= 3 IEnMin= 2 EnMin= -2044.80765682247     IErMin= 2 ErrMin= 2.84D-05
 ErrMax= 4.21D-05  0.00D+00 EMaxC= 1.00D-01 BMatC= 2.45D-06 BMatP= 1.18D-06
 IDIUse=1 WtCom= 1.00D+00 WtEn= 0.00D+00
 Coeff-Com:  0.453D-03 0.591D+00 0.409D+00
 Coeff:      0.453D-03 0.591D+00 0.409D+00
 Gap=     0.142 Goal=   None    Shift=    0.000
 RMSDP=3.32D-06 MaxDP=1.87D-04 DE= 1.41D-06 OVMax= 4.99D-04

 Cycle  12  Pass 1  IDiag  1:
 RMSU=  6.84D-07    CP:  1.00D+00  1.01D+00  3.84D-01
 E= -2044.80765801822     Delta-E=       -0.000002601615 Rises=F Damp=F
 DIIS: error= 4.59D-06 at cycle   4 NSaved=   4.
 NSaved= 4 IEnMin= 4 EnMin= -2044.80765801822     IErMin= 4 ErrMin= 4.59D-06
 ErrMax= 4.59D-06  0.00D+00 EMaxC= 1.00D-01 BMatC= 5.38D-08 BMatP= 1.18D-06
 IDIUse=1 WtCom= 1.00D+00 WtEn= 0.00D+00
 Coeff-Com: -0.368D-02 0.360D+00 0.261D+00 0.382D+00
 Coeff:     -0.368D-02 0.360D+00 0.261D+00 0.382D+00
 Gap=     0.142 Goal=   None    Shift=    0.000
 RMSDP=4.25D-07 MaxDP=3.34D-05 DE=-2.60D-06 OVMax= 5.73D-05

 Cycle  13  Pass 1  IDiag  1:
 RMSU=  1.43D-07    CP:  1.00D+00  1.01D+00  4.09D-01  4.47D-01
 E= -2044.80765806909     Delta-E=       -0.000000050865 Rises=F Damp=F
 DIIS: error= 6.95D-07 at cycle   5 NSaved=   5.
 NSaved= 5 IEnMin= 5 EnMin= -2044.80765806909     IErMin= 5 ErrMin= 6.95D-07
 ErrMax= 6.95D-07  0.00D+00 EMaxC= 1.00D-01 BMatC= 9.01D-10 BMatP= 5.38D-08
 IDIUse=1 WtCom= 1.00D+00 WtEn= 0.00D+00
 Coeff-Com: -0.213D-02 0.190D+00 0.139D+00 0.218D+00 0.454D+00
 Coeff:     -0.213D-02 0.190D+00 0.139D+00 0.218D+00 0.454D+00
 Gap=     0.142 Goal=   None    Shift=    0.000
 RMSDP=6.34D-08 MaxDP=4.96D-06 DE=-5.09D-08 OVMax= 7.88D-06

 Cycle  14  Pass 1  IDiag  1:
 RMSU=  5.23D-08    CP:  1.00D+00  1.01D+00  4.09D-01  4.49D-01  7.51D-01
 E= -2044.80765806983     Delta-E=       -0.000000000741 Rises=F Damp=F
 DIIS: error= 2.82D-07 at cycle   6 NSaved=   6.
 NSaved= 6 IEnMin= 6 EnMin= -2044.80765806983     IErMin= 6 ErrMin= 2.82D-07
 ErrMax= 2.82D-07  0.00D+00 EMaxC= 1.00D-01 BMatC= 8.01D-11 BMatP= 9.01D-10
 IDIUse=1 WtCom= 1.00D+00 WtEn= 0.00D+00
 Coeff-Com: -0.887D-03 0.764D-01 0.559D-01 0.899D-01 0.265D+00 0.514D+00
 Coeff:     -0.887D-03 0.764D-01 0.559D-01 0.899D-01 0.265D+00 0.514D+00
 Gap=     0.142 Goal=   None    Shift=    0.000
 RMSDP=2.13D-08 MaxDP=1.37D-06 DE=-7.41D-10 OVMax= 2.78D-06

 Cycle  15  Pass 1  IDiag  1:
 RMSU=  1.67D-08    CP:  1.00D+00  1.01D+00  4.09D-01  4.49D-01  7.83D-01
                    CP:  7.69D-01
 E= -2044.80765806986     Delta-E=       -0.000000000034 Rises=F Damp=F
 DIIS: error= 8.65D-08 at cycle   7 NSaved=   7.
 NSaved= 7 IEnMin= 7 EnMin= -2044.80765806986     IErMin= 7 ErrMin= 8.65D-08
 ErrMax= 8.65D-08  0.00D+00 EMaxC= 1.00D-01 BMatC= 1.23D-11 BMatP= 8.01D-11
 IDIUse=1 WtCom= 1.00D+00 WtEn= 0.00D+00
 Coeff-Com: -0.926D-04 0.648D-02 0.474D-02 0.849D-02 0.626D-01 0.308D+00
 Coeff-Com:  0.610D+00
 Coeff:     -0.926D-04 0.648D-02 0.474D-02 0.849D-02 0.626D-01 0.308D+00
 Coeff:      0.610D+00
 Gap=     0.142 Goal=   None    Shift=    0.000
 RMSDP=7.47D-09 MaxDP=4.46D-07 DE=-3.37D-11 OVMax= 7.53D-07

 SCF Done:  E(RB3LYP) =  -2044.80765807     A.U. after   15 cycles
            NFock= 15  Conv=0.75D-08     -V/T= 2.0080
 KE= 2.028545869742D+03 PE=-1.297015509167D+04 EE= 4.803314161713D+03
 Leave Link  502 at Sat Nov  5 11:43:00 2022, MaxMem=   402653184 cpu:            1164.5 elap:             126.5
 (Enter /home/wykgroup/appl/g16/l508.exe)
 QCSCF skips out because SCF is already converged.
 Leave Link  508 at Sat Nov  5 11:43:00 2022, MaxMem=   402653184 cpu:               0.4 elap:               0.1
 (Enter /home/wykgroup/appl/g16/l801.exe)
 DoSCS=F DFT=T ScalE2(SS,OS)=  1.000000  1.000000
 ExpMin= 1.17D-01 ExpMax= 2.19D+04 ExpMxC= 3.30D+03 IAcc=3 IRadAn=         5 AccDes= 0.00D+00
 HarFok:  IExCor=  205 AccDes= 0.00D+00 IRadAn=         5 IDoV=-2 UseB2=F ITyADJ=14
 ICtDFT= 12500011 ScaDFX=  1.000000  1.000000  1.000000  1.000000
 GSVD:  LWork=       -1920 too small for GESVD, short by        8600 words or        8600 for optimal perf.
 Largest valence mixing into a core orbital is  1.05D-04
 Largest core mixing into a valence orbital is  1.82D-05
 Range of M.O.s used for correlation:    41   596
 NBasis=   596 NAE=   134 NBE=   134 NFC=    40 NFV=     0
 NROrb=    556 NOA=    94 NOB=    94 NVA=   462 NVB=   462

 **** Warning!!: The largest alpha MO coefficient is  0.12582014D+02

 Leave Link  801 at Sat Nov  5 11:43:01 2022, MaxMem=   402653184 cpu:               3.7 elap:               0.3
 (Enter /home/wykgroup/appl/g16/l914.exe)
 RHF ground state
 Two-electron integral symmetry not used.
 MDV=   402653184 DFT=T DoStab=F Mixed=T DoRPA=T DoScal=F NonHer=T
 Making orbital integer symmetry assigments:
    16 initial guesses have been made.
 Convergence on wavefunction:    0.001000000000000
 Davidson Disk Diagonalization:  ConvIn= 1.00D-03 SkipCon=T Conv= 1.00D-03.
 Max sub-space:  2000 roots to seek:    16 dimension of matrix:        86856
 Iteration     1 Dimension    16 NMult     0 NNew     16
 CISAX will form    16 AO SS matrices at one time.
 NMat=    16 NSing=     8 JSym2X= 0.
 FoFJK:  IHMeth= 1 ICntrl=       0 DoSepK=F KAlg= 0 I1Cent=           0 FoldK=F
 IRaf= 920000000 NMat=      32 IRICut=       1 DoRegI=T DoRafI=F ISym2E= 0 IDoP0=0 IntGTp=1.
 FoFCou: FMM=T IPFlag=           0 FMFlag=      100000 FMFlg1=        2001
         NFxFlg=           0 DoJE=F BraDBF=F KetDBF=F FulRan=T
         wScrn=  0.000000 ICntrl=         0 IOpCl=  0 I1Cent=           0 NGrid=           0
         NMat0=   32 NMatS0=      8 NMatT0=    8 NMatD0=   32 NMtDS0=    0 NMtDT0=    0
 Symmetry not used in FoFCou.
 FMM levels:  10  Number of levels for PrismC:   9
 New state      1 was old state      2
 New state      2 was old state      1
 New state      3 was old state      6
 New state      4 was old state     10
 New state      5 was old state      8
 New state      6 was old state      7
 New state      7 was old state      3
 New state      8 was old state      4
 Excitation Energies [eV] at current iteration:
 Root      1 :     2.570669491578393
 Root      2 :     3.785431944834854
 Root      3 :     3.941049801928104
 Root      4 :     4.069686622310154
 Root      5 :     4.098265467105305
 Root      6 :     4.135478838949838
 Root      7 :     4.191888671547725
 Root      8 :     4.207084688167574
 Root      9 :     4.305494611355176
 Root     10 :     4.425735328796522
 Root     11 :     4.448213106345260
 Root     12 :     4.466076768920626
 Root     13 :     4.607651213891602
 Root     14 :     4.614113779786920
 Root     15 :     4.766579158373830
 Root     16 :     5.342872831221251
 Vector   4 SDiff=4.11D-01 TDiff=6.72D+00 assumed to be singlet.
 Vector   8 SDiff=4.37D-01 TDiff=6.56D+00 assumed to be singlet.
 Iteration     2 Dimension    24 NMult    16 NNew      8
 CISAX will form     8 AO SS matrices at one time.
 NMat=     8 NSing=     4 JSym2X= 0.
 Root      1 not converged, maximum delta is    0.069849112837063
 Root      2 not converged, maximum delta is    0.150271245295568
 Root      3 not converged, maximum delta is    0.219581491086168
 New state      4 was old state      6
 Root      4 not converged, maximum delta is    0.023729624724955
 Excitation Energies [eV] at current iteration:
 Root      1 :     2.401394131870870   Change is   -0.169275359707523
 Root      2 :     3.383048933765159   Change is   -0.402383011069695
 Root      3 :     3.471530841361488   Change is   -0.469518960566616
 Root      4 :     4.117497083811322   Change is   -0.017981755138516
 Iteration     3 Dimension    32 NMult    24 NNew      8
 CISAX will form     8 AO SS matrices at one time.
 NMat=     8 NSing=     4 JSym2X= 0.
 Root      1 not converged, maximum delta is    0.036304761828456
 Root      2 not converged, maximum delta is    0.008547961629149
 Root      3 not converged, maximum delta is    0.067453600871760
 Root      4 not converged, maximum delta is    0.012207770211302
 Excitation Energies [eV] at current iteration:
 Root      1 :     2.382451008286783   Change is   -0.018943123584086
 Root      2 :     3.355611018398876   Change is   -0.027437915366282
 Root      3 :     3.400518624589293   Change is   -0.071012216772195
 Root      4 :     4.108566869749486   Change is   -0.008930214061835
 Iteration     4 Dimension    40 NMult    32 NNew      8
 CISAX will form     8 AO SS matrices at one time.
 NMat=     8 NSing=     4 JSym2X= 0.
 Root      1 not converged, maximum delta is    0.003948524766300
 Root      2 not converged, maximum delta is    0.005632717970780
 Root      3 not converged, maximum delta is    0.027201436030899
 Root      4 not converged, maximum delta is    0.005928896158223
 Excitation Energies [eV] at current iteration:
 Root      1 :     2.381342426023859   Change is   -0.001108582262924
 Root      2 :     3.349583469349666   Change is   -0.006027549049210
 Root      3 :     3.390018286258288   Change is   -0.010500338331005
 Root      4 :     4.107824337404834   Change is   -0.000742532344653
 Iteration     5 Dimension    48 NMult    40 NNew      8
 CISAX will form     8 AO SS matrices at one time.
 NMat=     8 NSing=     4 JSym2X= 0.
 Root      1 has converged.
 Root      2 not converged, maximum delta is    0.002519427450974
 Root      3 not converged, maximum delta is    0.004748816019585
 Root      4 not converged, maximum delta is    0.006645661187416
 Excitation Energies [eV] at current iteration:
 Root      1 :     2.381271583265570   Change is   -0.000070842758289
 Root      2 :     3.348662013521146   Change is   -0.000921455828521
 Root      3 :     3.388840570727264   Change is   -0.001177715531023
 Root      4 :     4.107578707739381   Change is   -0.000245629665452
 Iteration     6 Dimension    54 NMult    48 NNew      6
 CISAX will form     6 AO SS matrices at one time.
 NMat=     6 NSing=     4 JSym2X= 0.
 Root      1 has converged.
 Root      2 has converged.
 Root      3 not converged, maximum delta is    0.003470725585609
 Root      4 not converged, maximum delta is    0.004742137558464
 Excitation Energies [eV] at current iteration:
 Root      1 :     2.381269699566401   Change is   -0.000001883699169
 Root      2 :     3.348510857475171   Change is   -0.000151156045974
 Root      3 :     3.388630659380638   Change is   -0.000209911346626
 Root      4 :     4.107488907734682   Change is   -0.000089800004699
 Iteration     7 Dimension    58 NMult    54 NNew      4
 CISAX will form     4 AO SS matrices at one time.
 NMat=     4 NSing=     2 JSym2X= 0.
 Root      1 has converged.
 Root      2 has converged.
 Root      3 not converged, maximum delta is    0.006570338633576
 Root      4 not converged, maximum delta is    0.001633672307329
 Excitation Energies [eV] at current iteration:
 Root      1 :     2.381269391004434   Change is   -0.000000308561967
 Root      2 :     3.348508619145235   Change is   -0.000002238329936
 Root      3 :     3.388506466824061   Change is   -0.000124192556577
 Root      4 :     4.107468078961054   Change is   -0.000020828773628
 Iteration     8 Dimension    62 NMult    58 NNew      4
 CISAX will form     4 AO SS matrices at one time.
 NMat=     4 NSing=     2 JSym2X= 0.
 Root      1 has converged.
 Root      2 has converged.
 Root      3 not converged, maximum delta is    0.004869785180382
 Root      4 has converged.
 Excitation Energies [eV] at current iteration:
 Root      1 :     2.381269308357596   Change is   -0.000000082646838
 Root      2 :     3.348508567438695   Change is   -0.000000051706541
 Root      3 :     3.388435361144461   Change is   -0.000071105679600
 Root      4 :     4.107463520577530   Change is   -0.000004558383525
 Iteration     9 Dimension    64 NMult    62 NNew      2
 CISAX will form     2 AO SS matrices at one time.
 NMat=     2 NSing=     0 JSym2X= 0.
 Root      1 has converged.
 Root      2 has converged.
 Root      3 not converged, maximum delta is    0.001571815334635
 Root      4 has converged.
 Excitation Energies [eV] at current iteration:
 Root      1 :     2.381269294656110   Change is   -0.000000013701487
 Root      2 :     3.348508567438818   Change is    0.000000000000123
 Root      3 :     3.388414226436201   Change is   -0.000021134708260
 Root      4 :     4.107463520577549   Change is    0.000000000000020
 Iteration    10 Dimension    66 NMult    64 NNew      2
 CISAX will form     2 AO SS matrices at one time.
 NMat=     2 NSing=     0 JSym2X= 0.
 Root      1 has converged.
 Root      2 has converged.
 Root      3 has converged.
 Root      4 has converged.
 Excitation Energies [eV] at current iteration:
 Root      1 :     2.381269282404018   Change is   -0.000000012252092
 Root      2 :     3.348508567438596   Change is   -0.000000000000221
 Root      3 :     3.388410477245582   Change is   -0.000003749190620
 Root      4 :     4.107463520577549   Change is    0.000000000000000
 Convergence achieved on expansion vectors.
 ***********************************************************************
 Excited states from <AA,BB:AA,BB> singles matrix:
 ***********************************************************************
 
 1PDM for each excited state written to RWF  633
 Ground to excited state transition densities written to RWF  633
 Ground to excited state transition electric dipole moments (Au):
       state          X           Y           Z        Dip. S.      Osc.
         1        -0.0000      0.0000     -0.0000      0.0000      0.0000
         2        -1.3108     -0.0679      1.1708      3.0935      0.2538
         3        -0.0000      0.0000      0.0000      0.0000      0.0000
         4        -0.0500      0.0000      0.0960      0.0117      0.0012
 Ground to excited state transition velocity dipole moments (Au):
       state          X           Y           Z        Dip. S.      Osc.
         1        -0.0000     -0.0000      0.0000      0.0000      0.0000
         2         0.1606      0.0099     -0.1370      0.0447      0.2421
         3         0.0000      0.0000      0.0000      0.0000      0.0000
         4         0.0102     -0.0037     -0.0153      0.0004      0.0016
 Ground to excited state transition magnetic dipole moments (Au):
       state          X           Y           Z
         1         0.0000      0.0000     -0.0000
         2        -0.3434     -2.1010     -0.4940
         3         0.0000     -0.0000      0.0000
         4        -0.0626     -0.1797     -0.1671
 Ground to excited state transition velocity quadrupole moments (Au):
       state          XX          YY          ZZ          XY          XZ          YZ
         1         0.0000      0.0000      0.0000     -0.0000     -0.0000      0.0000
         2        -0.5439     -0.0092      0.7899      0.4291     -0.0152     -0.4954
         3        -0.0000      0.0000     -0.0000     -0.0000      0.0000     -0.0000
         4         0.0241      0.0343      0.0399     -0.0011     -0.0127     -0.0244
 <0|del|b> * <b|rxdel|0> + <0|del|b> * <b|delr+rdel|0>
 Rotatory Strengths (R) in cgs (10**-40 erg-esu-cm/Gauss)
       state          XX          YY          ZZ    R(velocity)    E-M Angle
         1        -0.0000      0.0000     -0.0000     -0.0000       90.00
         2       -33.9956    -23.6849      9.7513    -15.9764       91.03
         3        -0.0000      0.0000      0.0000     -0.0000       90.00
         4         7.4853      3.8769      0.7502      4.0375       57.10
 1/2[<0|r|b>*<b|rxdel|0> + (<0|rxdel|b>*<b|r|0>)*]
 Rotatory Strengths (R) in cgs (10**-40 erg-esu-cm/Gauss)
       state          XX          YY          ZZ     R(length)
         1         0.0000     -0.0000     -0.0000     -0.0000
         2      -318.3374   -100.9511    408.9619     -3.4422
         3         0.0000      0.0000     -0.0000      0.0000
         4        -2.2159      0.0056     11.3496      3.0464
  1/2[<0|del|b>*<b|r|0> + (<0|r|b>*<b|del|0>)*] (Au)
       state          X           Y           Z        Dip. S.   Osc.(frdel)
         1         0.0000     -0.0000     -0.0000      0.0000      0.0000
         2        -0.2105     -0.0007     -0.1604      0.3717      0.2478
         3        -0.0000      0.0000      0.0000     -0.0000     -0.0000
         4        -0.0005     -0.0000     -0.0015      0.0020      0.0013

 Excitation energies and oscillator strengths:
 
 Excited state symmetry could not be determined.
 Excited State   1:      Triplet-?Sym    2.3813 eV  520.66 nm  f=0.0000  <S**2>=2.000
     134 ->135         0.68939
 This state for optimization and/or second-order correction.
 Total Energy, E(TD-HF/TD-DFT) =  -2044.72014803    
 Copying the excited state density for this state as the 1-particle RhoCI density.
 
 Excited state symmetry could not be determined.
 Excited State   2:      Singlet-?Sym    3.3485 eV  370.27 nm  f=0.2538  <S**2>=0.000
     134 ->135         0.69992
 
 Excited state symmetry could not be determined.
 Excited State   3:      Triplet-?Sym    3.3884 eV  365.91 nm  f=0.0000  <S**2>=2.000
     126 ->135         0.10597
     130 ->135         0.15324
     131 ->135         0.28458
     131 ->140         0.14008
     132 ->135        -0.13306
     134 ->136         0.26015
     134 ->137         0.19146
     134 ->139        -0.10312
     134 ->140         0.41587
 
 Excited state symmetry could not be determined.
 Excited State   4:      Singlet-?Sym    4.1075 eV  301.85 nm  f=0.0012  <S**2>=0.000
     134 ->136        -0.34560
     134 ->137         0.60442
 SavETr:  write IOETrn=   770 NScale= 10 NData=  16 NLR=1 NState=    4 LETran=      82.
 Leave Link  914 at Sat Nov  5 11:58:30 2022, MaxMem=   402653184 cpu:            8768.4 elap:             928.9
 (Enter /home/wykgroup/appl/g16/l601.exe)
 Copying SCF densities to generalized density rwf, IOpCl= 0 IROHF=0.

 **********************************************************************

            Population analysis using the SCF Density.

 **********************************************************************

 Alpha  occ. eigenvalues --  -88.92253 -24.70183 -19.19190 -19.17895 -19.15055
 Alpha  occ. eigenvalues --  -19.13126 -19.12029 -14.41069 -14.38783 -14.31598
 Alpha  occ. eigenvalues --  -10.30872 -10.30357 -10.29922 -10.26944 -10.26192
 Alpha  occ. eigenvalues --  -10.25927 -10.25422 -10.25113 -10.24300 -10.23832
 Alpha  occ. eigenvalues --  -10.23800 -10.23407 -10.22927 -10.22575 -10.22520
 Alpha  occ. eigenvalues --  -10.20442 -10.20384 -10.20292 -10.20227 -10.20167
 Alpha  occ. eigenvalues --  -10.20080 -10.19912 -10.19770 -10.19515 -10.18903
 Alpha  occ. eigenvalues --  -10.16850  -7.98408  -5.94837  -5.94481  -5.94024
 Alpha  occ. eigenvalues --   -1.21284  -1.08813  -1.07692  -1.05060  -1.03222
 Alpha  occ. eigenvalues --   -1.02504  -0.99717  -0.95137  -0.92365  -0.87278
 Alpha  occ. eigenvalues --   -0.85904  -0.84777  -0.80986  -0.79122  -0.77550
 Alpha  occ. eigenvalues --   -0.76206  -0.76051  -0.75942  -0.74998  -0.73399
 Alpha  occ. eigenvalues --   -0.71067  -0.69763  -0.69591  -0.66853  -0.64604
 Alpha  occ. eigenvalues --   -0.63544  -0.62678  -0.62375  -0.61681  -0.60642
 Alpha  occ. eigenvalues --   -0.59565  -0.58332  -0.55446  -0.55027  -0.54638
 Alpha  occ. eigenvalues --   -0.53855  -0.53387  -0.52351  -0.50776  -0.50037
 Alpha  occ. eigenvalues --   -0.49662  -0.49104  -0.48592  -0.48037  -0.47683
 Alpha  occ. eigenvalues --   -0.47559  -0.47105  -0.46595  -0.46469  -0.45663
 Alpha  occ. eigenvalues --   -0.45541  -0.45139  -0.44744  -0.44637  -0.43679
 Alpha  occ. eigenvalues --   -0.43340  -0.43088  -0.43014  -0.42518  -0.42167
 Alpha  occ. eigenvalues --   -0.41573  -0.41353  -0.40682  -0.40589  -0.40094
 Alpha  occ. eigenvalues --   -0.39628  -0.39447  -0.38801  -0.38263  -0.37993
 Alpha  occ. eigenvalues --   -0.37054  -0.36832  -0.36686  -0.36375  -0.36087
 Alpha  occ. eigenvalues --   -0.34804  -0.33967  -0.33632  -0.33450  -0.32813
 Alpha  occ. eigenvalues --   -0.31739  -0.30741  -0.29927  -0.29239  -0.28010
 Alpha  occ. eigenvalues --   -0.26930  -0.26588  -0.26216  -0.25812  -0.25505
 Alpha  occ. eigenvalues --   -0.25101  -0.23037  -0.22161  -0.19525
 Alpha virt. eigenvalues --   -0.05284  -0.02077  -0.01894  -0.01195  -0.00224
 Alpha virt. eigenvalues --    0.00241   0.00939   0.03853   0.04524   0.07080
 Alpha virt. eigenvalues --    0.07926   0.08523   0.08644   0.09437   0.09962
 Alpha virt. eigenvalues --    0.10561   0.10952   0.11460   0.11864   0.12431
 Alpha virt. eigenvalues --    0.12530   0.12752   0.13949   0.14346   0.14459
 Alpha virt. eigenvalues --    0.14482   0.14810   0.14960   0.15682   0.15762
 Alpha virt. eigenvalues --    0.15988   0.16354   0.16461   0.16734   0.17129
 Alpha virt. eigenvalues --    0.17716   0.18202   0.18275   0.18810   0.19027
 Alpha virt. eigenvalues --    0.19859   0.20372   0.20573   0.20990   0.21252
 Alpha virt. eigenvalues --    0.22166   0.22354   0.22907   0.23373   0.23756
 Alpha virt. eigenvalues --    0.24398   0.24738   0.25857   0.26356   0.27152
 Alpha virt. eigenvalues --    0.29115   0.29239   0.30190   0.30938   0.31248
 Alpha virt. eigenvalues --    0.31827   0.32199   0.32966   0.33202   0.33677
 Alpha virt. eigenvalues --    0.34756   0.35716   0.36268   0.37073   0.37306
 Alpha virt. eigenvalues --    0.39490   0.40491   0.41647   0.43814   0.44789
 Alpha virt. eigenvalues --    0.45493   0.46458   0.48138   0.48462   0.48682
 Alpha virt. eigenvalues --    0.49405   0.49971   0.50106   0.50658   0.51152
 Alpha virt. eigenvalues --    0.51410   0.51657   0.51990   0.52472   0.52944
 Alpha virt. eigenvalues --    0.53262   0.53659   0.53957   0.54280   0.54773
 Alpha virt. eigenvalues --    0.55493   0.55745   0.56097   0.56757   0.56819
 Alpha virt. eigenvalues --    0.57195   0.57549   0.57610   0.57879   0.58221
 Alpha virt. eigenvalues --    0.59033   0.59228   0.59533   0.59790   0.60217
 Alpha virt. eigenvalues --    0.60496   0.60961   0.61872   0.62585   0.62790
 Alpha virt. eigenvalues --    0.62993   0.63808   0.63943   0.64703   0.64916
 Alpha virt. eigenvalues --    0.65816   0.65946   0.66552   0.67339   0.67370
 Alpha virt. eigenvalues --    0.67518   0.68139   0.69606   0.70041   0.72117
 Alpha virt. eigenvalues --    0.72142   0.72901   0.73713   0.73990   0.75097
 Alpha virt. eigenvalues --    0.75309   0.76249   0.76784   0.77163   0.78193
 Alpha virt. eigenvalues --    0.78858   0.79181   0.79891   0.80104   0.80756
 Alpha virt. eigenvalues --    0.81378   0.82043   0.82668   0.83002   0.83397
 Alpha virt. eigenvalues --    0.83754   0.84106   0.84294   0.84658   0.84987
 Alpha virt. eigenvalues --    0.85135   0.85490   0.85881   0.86276   0.87007
 Alpha virt. eigenvalues --    0.87287   0.87674   0.87878   0.88341   0.88559
 Alpha virt. eigenvalues --    0.88755   0.89623   0.90127   0.90780   0.91617
 Alpha virt. eigenvalues --    0.92238   0.92707   0.93044   0.93478   0.93776
 Alpha virt. eigenvalues --    0.94452   0.94499   0.95549   0.95955   0.96007
 Alpha virt. eigenvalues --    0.96430   0.97150   0.97797   0.98533   0.98843
 Alpha virt. eigenvalues --    0.99261   1.00091   1.00618   1.01025   1.02428
 Alpha virt. eigenvalues --    1.03105   1.03970   1.04064   1.04348   1.05554
 Alpha virt. eigenvalues --    1.06889   1.07539   1.08060   1.08737   1.10071
 Alpha virt. eigenvalues --    1.10732   1.10897   1.12467   1.12716   1.14369
 Alpha virt. eigenvalues --    1.15099   1.15805   1.15957   1.16352   1.17529
 Alpha virt. eigenvalues --    1.17699   1.18089   1.19272   1.19814   1.21168
 Alpha virt. eigenvalues --    1.21585   1.22279   1.23105   1.23702   1.24261
 Alpha virt. eigenvalues --    1.24757   1.25628   1.27479   1.28772   1.28998
 Alpha virt. eigenvalues --    1.30251   1.30955   1.31985   1.33613   1.34568
 Alpha virt. eigenvalues --    1.35343   1.36021   1.36120   1.37336   1.39223
 Alpha virt. eigenvalues --    1.40123   1.40293   1.40727   1.41394   1.43292
 Alpha virt. eigenvalues --    1.43317   1.44001   1.44470   1.45241   1.45717
 Alpha virt. eigenvalues --    1.45851   1.46339   1.47271   1.47918   1.48559
 Alpha virt. eigenvalues --    1.48923   1.49905   1.50581   1.50719   1.51871
 Alpha virt. eigenvalues --    1.52890   1.54137   1.56731   1.57356   1.57926
 Alpha virt. eigenvalues --    1.59704   1.60753   1.61917   1.63577   1.64536
 Alpha virt. eigenvalues --    1.65650   1.66982   1.68151   1.68727   1.69459
 Alpha virt. eigenvalues --    1.71190   1.71966   1.72373   1.74036   1.74596
 Alpha virt. eigenvalues --    1.75158   1.76061   1.76576   1.77196   1.78871
 Alpha virt. eigenvalues --    1.79725   1.79817   1.80628   1.81847   1.82513
 Alpha virt. eigenvalues --    1.83061   1.83301   1.83612   1.84070   1.84729
 Alpha virt. eigenvalues --    1.85839   1.86164   1.86484   1.87086   1.87498
 Alpha virt. eigenvalues --    1.88134   1.89376   1.90661   1.90756   1.91477
 Alpha virt. eigenvalues --    1.92772   1.93166   1.93545   1.93885   1.95480
 Alpha virt. eigenvalues --    1.95850   1.96153   1.96482   1.97055   1.98420
 Alpha virt. eigenvalues --    1.98916   1.99846   2.01307   2.02310   2.02857
 Alpha virt. eigenvalues --    2.03449   2.04072   2.04386   2.04891   2.06292
 Alpha virt. eigenvalues --    2.06393   2.06661   2.07184   2.08562   2.09233
 Alpha virt. eigenvalues --    2.09629   2.10726   2.12083   2.12320   2.12822
 Alpha virt. eigenvalues --    2.13270   2.13427   2.13943   2.14893   2.15508
 Alpha virt. eigenvalues --    2.16023   2.17540   2.18167   2.18828   2.19636
 Alpha virt. eigenvalues --    2.19955   2.21896   2.22472   2.23133   2.24219
 Alpha virt. eigenvalues --    2.24567   2.25482   2.26953   2.28176   2.29177
 Alpha virt. eigenvalues --    2.29435   2.29648   2.30678   2.31112   2.31883
 Alpha virt. eigenvalues --    2.32815   2.33647   2.34157   2.34699   2.35313
 Alpha virt. eigenvalues --    2.35684   2.36549   2.37009   2.40447   2.41658
 Alpha virt. eigenvalues --    2.42334   2.42608   2.43503   2.45369   2.46316
 Alpha virt. eigenvalues --    2.47600   2.48687   2.51025   2.51695   2.52571
 Alpha virt. eigenvalues --    2.53183   2.53678   2.53761   2.55190   2.56400
 Alpha virt. eigenvalues --    2.58258   2.59344   2.62914   2.63413   2.63921
 Alpha virt. eigenvalues --    2.64463   2.65030   2.65115   2.65836   2.66914
 Alpha virt. eigenvalues --    2.67240   2.68334   2.69691   2.70873   2.71142
 Alpha virt. eigenvalues --    2.73402   2.73779   2.74972   2.76595   2.77575
 Alpha virt. eigenvalues --    2.78135   2.80365   2.81718   2.82140   2.82764
 Alpha virt. eigenvalues --    2.86092   2.89121   2.91468   2.92252   2.92676
 Alpha virt. eigenvalues --    2.95280   2.96254   2.98199   2.98680   3.00498
 Alpha virt. eigenvalues --    3.02955   3.10350   3.10958   3.11111   3.15876
 Alpha virt. eigenvalues --    3.17464   3.26853   3.29760   3.34711   3.41067
 Alpha virt. eigenvalues --    3.42387   3.88922   3.92875   4.03505   4.04714
 Alpha virt. eigenvalues --    4.06934   4.07808   4.08467   4.09289   4.10605
 Alpha virt. eigenvalues --    4.11863   4.13645   4.14098   4.16343   4.21801
 Alpha virt. eigenvalues --    4.23076   4.24441   4.24998   4.25757   4.26147
 Alpha virt. eigenvalues --    4.28949   4.31995   4.32757   4.34522   4.36467
 Alpha virt. eigenvalues --    4.37281   4.41507   4.46773   4.49216   4.52942
 Alpha virt. eigenvalues --    4.54638   4.58210   4.67391   4.69536   4.72413
 Alpha virt. eigenvalues --    4.76887   5.33757
          Condensed to atoms (all electrons):
 Mulliken charges:
               1
     1  C   -0.201047
     2  O   -0.447629
     3  C   -0.045258
     4  C   -0.066120
     5  O   -0.481179
     6  C    0.610983
     7  O   -0.539365
     8  C   -0.019676
     9  C    0.242794
    10  C   -0.501640
    11  N   -0.542642
    12  C    0.302655
    13  S    0.281808
    14  C   -0.420676
    15  C    0.399382
    16  C   -0.447019
    17  C    0.619029
    18  O   -0.507031
    19  N   -0.726034
    20  C    0.345732
    21  C   -0.159524
    22  C   -0.213122
    23  C    0.382356
    24  F   -0.300487
    25  C   -0.208998
    26  C   -0.207092
    27  N   -0.476887
    28  C   -0.141026
    29  C    0.180038
    30  C   -0.201260
    31  C   -0.198256
    32  C    0.385868
    33  O   -0.513509
    34  C   -0.222662
    35  C   -0.192930
    36  C   -0.194366
    37  H    0.162558
    38  H    0.135174
    39  H    0.129403
    40  H    0.172328
    41  H    0.120308
    42  H    0.170208
    43  H    0.150642
    44  H    0.164112
    45  H    0.167879
    46  H    0.183467
    47  H    0.213643
    48  H    0.204149
    49  H    0.173832
    50  H    0.354428
    51  H    0.192973
    52  H    0.150519
    53  H    0.147888
    54  H    0.158422
    55  H    0.171640
    56  H    0.160831
    57  H    0.147738
    58  H    0.174263
    59  H    0.160160
    60  H    0.159131
    61  H    0.142272
    62  H    0.156822
 Sum of Mulliken charges =  -0.00000
 Mulliken charges with hydrogens summed into heavy atoms:
               1
     1  C    0.226088
     2  O   -0.447629
     3  C    0.247379
     4  C    0.254730
     5  O   -0.481179
     6  C    0.610983
     7  O   -0.539365
     8  C   -0.019676
     9  C    0.242794
    10  C    0.013818
    11  N   -0.542642
    12  C    0.302655
    13  S    0.281808
    14  C   -0.207033
    15  C    0.399382
    16  C   -0.069038
    17  C    0.619029
    18  O   -0.507031
    19  N   -0.371606
    20  C    0.345732
    21  C    0.033449
    22  C   -0.062603
    23  C    0.382356
    24  F   -0.300487
    25  C   -0.061110
    26  C   -0.048670
    27  N   -0.476887
    28  C    0.030614
    29  C    0.180038
    30  C   -0.040429
    31  C   -0.050518
    32  C    0.385868
    33  O   -0.513509
    34  C    0.270892
    35  C   -0.050658
    36  C   -0.037544
 Electronic spatial extent (au):  <R**2>=          21890.6743
 Charge=              0.0000 electrons
 Dipole moment (field-independent basis, Debye):
    X=             -2.0752    Y=             -0.8492    Z=              1.8043  Tot=              2.8781
 Quadrupole moment (field-independent basis, Debye-Ang):
   XX=           -216.4489   YY=           -201.9914   ZZ=           -218.3638
   XY=             -3.8749   XZ=             -6.4192   YZ=              2.9475
 Traceless Quadrupole moment (field-independent basis, Debye-Ang):
   XX=             -4.1809   YY=             10.2766   ZZ=             -6.0958
   XY=             -3.8749   XZ=             -6.4192   YZ=              2.9475
 Octapole moment (field-independent basis, Debye-Ang**2):
  XXX=           -604.7516  YYY=           -149.0536  ZZZ=            239.4298  XYY=           -111.8372
  XXY=             52.6667  XXZ=             98.1748  XZZ=            -80.2353  YZZ=            -36.1369
  YYZ=             83.8874  XYZ=            -11.5570
 Hexadecapole moment (field-independent basis, Debye-Ang**3):
 XXXX=         -18286.1516 YYYY=          -4502.8414 ZZZZ=          -4536.9641 XXXY=           2017.8412
 XXXZ=            -87.0966 YYYX=           2007.4580 YYYZ=           1023.2877 ZZZX=            232.2452
 ZZZY=           1097.1611 XXYY=          -4187.8207 XXZZ=          -3817.8643 YYZZ=          -1576.1327
 XXYZ=            540.8342 YYXZ=            151.7261 ZZXY=            664.1768
 N-N= 4.093487402145D+03 E-N=-1.297015515718D+04  KE= 2.028545869742D+03
 Leave Link  601 at Sat Nov  5 11:58:31 2022, MaxMem=   402653184 cpu:               2.0 elap:               0.4
 (Enter /home/wykgroup/appl/g16/l9999.exe)
 Electronic transition elements 
                 1             2             3             4 
      1  -0.204472D+04 -0.204468D+04 -0.204468D+04 -0.204466D+04
      2   0.000000D+00 -0.131077D+01  0.000000D+00 -0.500213D-01
      3   0.000000D+00 -0.679444D-01  0.000000D+00  0.439468D-04
      4   0.000000D+00  0.117078D+01  0.000000D+00  0.960353D-01
      5   0.000000D+00  0.160629D+00  0.000000D+00  0.102231D-01
      6   0.000000D+00  0.993100D-02  0.000000D+00 -0.369412D-02
      7   0.000000D+00 -0.137037D+00  0.000000D+00 -0.153309D-01
      8   0.000000D+00 -0.343432D+00  0.000000D+00 -0.626435D-01
      9   0.000000D+00 -0.210105D+01  0.000000D+00 -0.179673D+00
     10   0.000000D+00 -0.493955D+00  0.000000D+00 -0.167121D+00
     11   0.000000D+00 -0.543875D+00  0.000000D+00  0.241160D-01
     12   0.000000D+00 -0.918955D-02  0.000000D+00  0.342886D-01
     13   0.000000D+00  0.789868D+00  0.000000D+00  0.399153D-01
     14   0.000000D+00  0.429129D+00  0.000000D+00 -0.108743D-02
     15   0.000000D+00 -0.151748D-01  0.000000D+00 -0.127169D-01
     16   0.000000D+00 -0.495396D+00  0.000000D+00 -0.244499D-01
 1\1\GINC-NODE07\SP\RB3LYP TD-FC\6-31G(d)\C26H26F1N3O5S1\WYKGROUP\05-No
 v-2022\0\\#p b3lyp/6-31g(d) 6D 10F nosymm GFInput td=(50-50,nstate=2) 
 SCF=XQC\\Gaussian input prepared by ASE\\0,1\C,0,-7.4355445535,0.36225
 72311,0.9636723813\O,0,-6.0822869586,0.0005026775,1.1539904648\C,0,-5.
 3753738512,0.8354120699,2.0530098589\C,0,-4.9793911038,2.1888649699,1.
 4680053187\O,0,-4.1890056332,2.0227759715,0.2809128284\C,0,-2.84976223
 56,1.8582075651,0.4572022869\O,0,-2.3150642377,1.9944119623,1.55423424
 88\C,0,-2.1085378933,1.5534146345,-0.7618110369\C,0,-2.6308406352,1.31
 27962559,-2.013687156\C,0,-4.0990021854,1.1765033218,-2.3358547447\N,0
 ,-1.8283114266,1.1937531785,-3.1313526369\C,0,-0.5628125484,1.46474013
 09,-2.9758408775\S,0,0.5570024707,1.5894857961,-4.3280325203\C,0,1.869
 8242691,1.9639795468,-3.2295892247\C,0,1.4655256231,1.9855312562,-1.94
 11743736\C,0,2.3468081515,2.2669102026,-0.7456490029\C,0,3.6506316343,
 1.4581744706,-0.8255090195\O,0,4.5483579635,1.7990537428,-1.5864343412
 \N,0,3.6876294272,0.3596720688,-0.0086705368\C,0,4.7243415158,-0.59496
 27036,0.1323292343\C,0,5.9366204351,-0.5248300257,-0.5723748661\C,0,6.
 9112005934,-1.5024659808,-0.3731677058\C,0,6.6753038614,-2.5375710561,
 0.5215644737\F,0,7.624194653,-3.481154231,0.7093044361\C,0,5.483089100
 3,-2.6259750888,1.2298834683\C,0,4.5089820037,-1.6512198199,1.03211904
 45\N,0,0.0943592189,1.7155647325,-1.8007888457\C,0,-0.602259798,1.4786
 688695,-0.5147298739\C,0,-0.1378395285,0.1651645893,0.1207245164\C,0,0
 .2225762556,0.1229751343,1.4769365499\C,0,0.6704887968,-1.0560169851,2
 .0645105159\C,0,0.7640463095,-2.2312589742,1.3027166113\O,0,1.24267779
 29,-3.3261148097,1.9607622995\C,0,1.353939419,-4.5483452781,1.24281903
 63\C,0,0.3897975466,-2.209547552,-0.0467010172\C,0,-0.0578693352,-1.01
 7508929,-0.6202813812\H,0,-7.88339813,-0.4110839194,0.3342216483\H,0,-
 7.550571433,1.3319984581,0.456616925\H,0,-7.9806190895,0.4030989671,1.
 9207974407\H,0,-4.4684885154,0.2872690941,2.3243023113\H,0,-5.96056629
 49,1.0064563751,2.9735293191\H,0,-4.4211737817,2.763058993,2.212287603
 \H,0,-5.8515084239,2.7636669915,1.1459784067\H,0,-4.1886133214,0.71030
 50741,-3.3197018758\H,0,-4.5794430855,2.1612470528,-2.3774264779\H,0,-
 4.6344673225,0.5937225755,-1.5842101513\H,0,2.8774191202,2.1315159954,
 -3.5798337006\H,0,2.6376912163,3.3229014125,-0.7394776685\H,0,1.812031
 7084,2.0703476673,0.1844718958\H,0,2.8541119047,0.1704932742,0.5368648
 017\H,0,6.1044160039,0.2870843641,-1.2651040912\H,0,7.8536617192,-1.46
 33091947,-0.9096168116\H,0,5.3265240209,-3.4440069692,1.9251675252\H,0
 ,3.5739814221,-1.7176872148,1.5813598329\H,0,-0.3331542814,2.290504316
 3,0.1671995121\H,0,0.1207832437,1.0193501712,2.0816594694\H,0,0.941748
 969,-1.093986119,3.1152636949\H,0,1.7389434224,-5.2785118318,1.9565911
 664\H,0,2.0535063535,-4.4572661348,0.4020839461\H,0,0.3782578227,-4.88
 50232703,0.8701498685\H,0,0.4480487241,-3.103045066,-0.6572976591\H,0,
 -0.3426160896,-1.020946007,-1.6689253443\\Version=ES64L-G16RevB.01\HF=
 -2044.8076581\RMSD=7.468e-09\PG=C01 [X(C26H26F1N3O5S1)]\\@


 NEVER LISTEN TO CRITICISM
 OR YOU'LL BE DOIN' EVERYBODY ELSE'S THING BUT BUT YOUR OWN.

                                               -- ANDY CAPP
 Job cpu time:       0 days  2 hours 47 minutes  5.0 seconds.
 Elapsed time:       0 days  0 hours 17 minutes 47.3 seconds.
 File lengths (MBytes):  RWF=   2131 Int=      0 D2E=      0 Chk=     75 Scr=      1
 Normal termination of Gaussian 16 at Sat Nov  5 11:58:31 2022.
