 Entering Gaussian System, Link 0=/home/wykgroup/appl/g16/g16
 Input=./calculation/no_transfer_pubchem_sampling_2_b3lyp/73973968.com
 Output=./calculation/no_transfer_pubchem_sampling_2_b3lyp/73973968.log
 Initial command:
 /home/wykgroup/appl/g16/l1.exe "/userdata/scratch/wykgroup/khs/./calculation/no_transfer_pubchem_sampling_2_b3lyp/73973968/Gau-21837.inp" -scrdir="/userdata/scratch/wykgroup/khs/./calculation/no_transfer_pubchem_sampling_2_b3lyp/73973968/"
 Entering Link 1 = /home/wykgroup/appl/g16/l1.exe PID=     21838.
  
 Copyright (c) 1988-2017, Gaussian, Inc.  All Rights Reserved.
  
 This is part of the Gaussian(R) 16 program.  It is based on
 the Gaussian(R) 09 system (copyright 2009, Gaussian, Inc.),
 the Gaussian(R) 03 system (copyright 2003, Gaussian, Inc.),
 the Gaussian(R) 98 system (copyright 1998, Gaussian, Inc.),
 the Gaussian(R) 94 system (copyright 1995, Gaussian, Inc.),
 the Gaussian 92(TM) system (copyright 1992, Gaussian, Inc.),
 the Gaussian 90(TM) system (copyright 1990, Gaussian, Inc.),
 the Gaussian 88(TM) system (copyright 1988, Gaussian, Inc.),
 the Gaussian 86(TM) system (copyright 1986, Carnegie Mellon
 University), and the Gaussian 82(TM) system (copyright 1983,
 Carnegie Mellon University). Gaussian is a federally registered
 trademark of Gaussian, Inc.
  
 This software contains proprietary and confidential information,
 including trade secrets, belonging to Gaussian, Inc.
  
 This software is provided under written license and may be
 used, copied, transmitted, or stored only in accord with that
 written license.
  
 The following legend is applicable only to US Government
 contracts under FAR:
  
                    RESTRICTED RIGHTS LEGEND
  
 Use, reproduction and disclosure by the US Government is
 subject to restrictions as set forth in subparagraphs (a)
 and (c) of the Commercial Computer Software - Restricted
 Rights clause in FAR 52.227-19.
  
 Gaussian, Inc.
 340 Quinnipiac St., Bldg. 40, Wallingford CT 06492
  
  
 ---------------------------------------------------------------
 Warning -- This program may not be used in any manner that
 competes with the business of Gaussian, Inc. or will provide
 assistance to any competitor of Gaussian, Inc.  The licensee
 of this program is prohibited from giving any competitor of
 Gaussian, Inc. access to this program.  By using this program,
 the user acknowledges that Gaussian, Inc. is engaged in the
 business of creating and licensing software in the field of
 computational chemistry and represents and warrants to the
 licensee that it is not a competitor of Gaussian, Inc. and that
 it will not use this program in any manner prohibited above.
 ---------------------------------------------------------------
  

 Cite this work as:
 Gaussian 16, Revision B.01,
 M. J. Frisch, G. W. Trucks, H. B. Schlegel, G. E. Scuseria, 
 M. A. Robb, J. R. Cheeseman, G. Scalmani, V. Barone, 
 G. A. Petersson, H. Nakatsuji, X. Li, M. Caricato, A. V. Marenich, 
 J. Bloino, B. G. Janesko, R. Gomperts, B. Mennucci, H. P. Hratchian, 
 J. V. Ortiz, A. F. Izmaylov, J. L. Sonnenberg, D. Williams-Young, 
 F. Ding, F. Lipparini, F. Egidi, J. Goings, B. Peng, A. Petrone, 
 T. Henderson, D. Ranasinghe, V. G. Zakrzewski, J. Gao, N. Rega, 
 G. Zheng, W. Liang, M. Hada, M. Ehara, K. Toyota, R. Fukuda, 
 J. Hasegawa, M. Ishida, T. Nakajima, Y. Honda, O. Kitao, H. Nakai, 
 T. Vreven, K. Throssell, J. A. Montgomery, Jr., J. E. Peralta, 
 F. Ogliaro, M. J. Bearpark, J. J. Heyd, E. N. Brothers, K. N. Kudin, 
 V. N. Staroverov, T. A. Keith, R. Kobayashi, J. Normand, 
 K. Raghavachari, A. P. Rendell, J. C. Burant, S. S. Iyengar, 
 J. Tomasi, M. Cossi, J. M. Millam, M. Klene, C. Adamo, R. Cammi, 
 J. W. Ochterski, R. L. Martin, K. Morokuma, O. Farkas, 
 J. B. Foresman, and D. J. Fox, Gaussian, Inc., Wallingford CT, 2016.
 
 ******************************************
 Gaussian 16:  ES64L-G16RevB.01 20-Dec-2017
                 4-Nov-2022 
 ******************************************
 %chk=./calculation/no_transfer_pubchem_sampling_2_b3lyp/73973968.chk
 %nprocshared=7
 Will use up to    7 processors via shared memory.
 %mem=6GB
 -----------------------------
 #p b3lyp/6-31g(d) opt SCF=XQC
 -----------------------------
 1/18=20,19=15,26=3,38=1/1,3;
 2/9=110,12=2,17=6,18=5,40=1/2;
 3/5=1,6=6,7=1,11=2,25=1,30=1,71=1,74=-5/1,2,3;
 4//1;
 5/5=2,8=3,13=1,38=5/2,8;
 6/7=2,8=2,9=2,10=2,28=1/1;
 7//1,2,3,16;
 1/18=20,19=15,26=3/3(2);
 2/9=110/2;
 99//99;
 2/9=110/2;
 3/5=1,6=6,7=1,11=2,25=1,30=1,71=1,74=-5/1,2,3;
 4/5=5,16=3,69=1/1;
 5/5=2,8=3,13=1,38=5/2,8;
 7//1,2,3,16;
 1/18=20,19=15,26=3/3(-5);
 2/9=110/2;
 6/7=2,8=2,9=2,10=2,19=2,28=1/1;
 99/9=1/99;
 Leave Link    1 at Fri Nov  4 19:01:19 2022, MaxMem=   805306368 cpu:               0.8 elap:               0.1
 (Enter /home/wykgroup/appl/g16/l101.exe)
 ------------------------------
 Gaussian input prepared by ASE
 ------------------------------
 Symbolic Z-matrix:
 Charge =  0 Multiplicity = 1
 C                    -6.05096   1.66995  -0.06722 
 C                    -6.21278   0.21573   0.27171 
 C                    -7.49513  -0.3003    0.39649 
 C                    -7.69736  -1.63008   0.71637 
 C                    -6.60848  -2.45337   0.9178 
 C                    -5.3093   -1.96947   0.79962 
 C                    -4.18692  -2.94351   1.01745 
 C                    -5.10794  -0.62371   0.47196 
 C                    -3.71258  -0.08226   0.3257 
 C                    -3.0263   -0.54935  -0.98032 
 N                    -1.65757  -0.09067  -1.01744 
 C                    -0.69017  -0.63105  -0.26223 
 O                    -0.88512  -1.54031   0.52261 
 C                     0.67804   0.02886  -0.41953 
 C                     0.69209   1.34364   0.40028 
 C                     2.06327   1.95312   0.34594 
 C                     2.42161   2.78986  -0.70187 
 C                     3.70203   3.30528  -0.78152 
 C                     4.64024   2.98631   0.18441 
 C                     4.29378   2.1479    1.22881 
 C                     3.01292   1.63305   1.30707 
 N                     1.68502  -0.87983   0.05576 
 C                     2.8858   -1.00985  -0.54346 
 O                     3.22557  -0.43747  -1.54913 
 O                     3.64888  -1.89961   0.13319 
 C                     4.96119  -2.11134  -0.39153 
 C                     5.92008  -1.04008   0.0586 
 C                     6.34836  -0.05756  -0.82257 
 C                     7.23007   0.92147  -0.39921 
 C                     7.6803    0.93403   0.90952 
 C                     7.23985  -0.0323    1.79862 
 C                     6.36447  -1.01562   1.37455 
 C                    -3.73166   0.03298  -2.20163 
 N                    -4.891    -0.56983  -2.523 
 O                    -3.26146   0.95881  -2.8291 
 H                    -5.60516   2.21105   0.76729 
 H                    -5.41772   1.81161  -0.94129 
 H                    -7.02077   2.11558  -0.27399 
 H                    -8.3451    0.34881   0.24449 
 H                    -8.69983  -2.01938   0.81235 
 H                    -6.75932  -3.492     1.17421 
 H                    -3.23373  -2.46785   1.22301 
 H                    -4.0639   -3.57317   0.13477 
 H                    -4.42938  -3.60114   1.85015 
 H                    -3.70976   1.00619   0.34267 
 H                    -3.0894   -0.42665   1.15251 
 H                    -3.03801  -1.64322  -1.02299 
 H                    -1.48121   0.6559   -1.67896 
 H                     0.90059   0.24919  -1.46849 
 H                     0.42115   1.10984   1.43217 
 H                    -0.05108   2.02739  -0.01299 
 H                     1.69345   3.03638  -1.46151 
 H                     3.96962   3.954    -1.60267 
 H                     5.64086   3.38709   0.12383 
 H                     5.02575   1.88777   1.97905 
 H                     2.74714   0.97577   2.12304 
 H                     1.4446   -1.46405   0.84272 
 H                     4.90732  -2.13629  -1.48463 
 H                     5.25967  -3.09011  -0.00711 
 H                     5.98043  -0.05674  -1.83703 
 H                     7.56662   1.67603  -1.09488 
 H                     8.36978   1.69779   1.23952 
 H                     7.5825   -0.02146   2.82351 
 H                     6.02044  -1.77231   2.06502 
 H                    -5.31224  -1.25221  -1.91612 
 H                    -5.44214  -0.18727  -3.27435 
 
 ITRead=  0  0  0  0  0  0  0  0  0  0  0  0  0  0  0  0  0  0  0  0
 ITRead=  0  0  0  0  0  0  0  0  0  0  0  0  0  0  0  0  0  0  0  0
 ITRead=  0  0  0  0  0  0  0  0  0  0  0  0  0  0  0  0  0  0  0  0
 ITRead=  0  0  0  0  0  0
 MicOpt= -1 -1 -1 -1 -1 -1 -1 -1 -1 -1 -1 -1 -1 -1 -1 -1 -1 -1 -1 -1
 MicOpt= -1 -1 -1 -1 -1 -1 -1 -1 -1 -1 -1 -1 -1 -1 -1 -1 -1 -1 -1 -1
 MicOpt= -1 -1 -1 -1 -1 -1 -1 -1 -1 -1 -1 -1 -1 -1 -1 -1 -1 -1 -1 -1
 MicOpt= -1 -1 -1 -1 -1 -1
 NAtoms=     66 NQM=       66 NQMF=       0 NMMI=      0 NMMIF=      0
                NMic=       0 NMicF=      0.
                    Isotopes and Nuclear Properties:
 (Nuclear quadrupole moments (NQMom) in fm**2, nuclear magnetic moments (NMagM)
  in nuclear magnetons)

  Atom         1           2           3           4           5           6           7           8           9          10
 IAtWgt=          12          12          12          12          12          12          12          12          12          12
 AtmWgt=  12.0000000  12.0000000  12.0000000  12.0000000  12.0000000  12.0000000  12.0000000  12.0000000  12.0000000  12.0000000
 NucSpn=           0           0           0           0           0           0           0           0           0           0
 AtZEff=  -0.0000000  -0.0000000  -0.0000000  -0.0000000  -0.0000000  -0.0000000  -0.0000000  -0.0000000  -0.0000000  -0.0000000
 NQMom=    0.0000000   0.0000000   0.0000000   0.0000000   0.0000000   0.0000000   0.0000000   0.0000000   0.0000000   0.0000000
 NMagM=    0.0000000   0.0000000   0.0000000   0.0000000   0.0000000   0.0000000   0.0000000   0.0000000   0.0000000   0.0000000
 AtZNuc=   6.0000000   6.0000000   6.0000000   6.0000000   6.0000000   6.0000000   6.0000000   6.0000000   6.0000000   6.0000000

  Atom        11          12          13          14          15          16          17          18          19          20
 IAtWgt=          14          12          16          12          12          12          12          12          12          12
 AtmWgt=  14.0030740  12.0000000  15.9949146  12.0000000  12.0000000  12.0000000  12.0000000  12.0000000  12.0000000  12.0000000
 NucSpn=           2           0           0           0           0           0           0           0           0           0
 AtZEff=  -0.0000000  -0.0000000  -0.0000000  -0.0000000  -0.0000000  -0.0000000  -0.0000000  -0.0000000  -0.0000000  -0.0000000
 NQMom=    2.0440000   0.0000000   0.0000000   0.0000000   0.0000000   0.0000000   0.0000000   0.0000000   0.0000000   0.0000000
 NMagM=    0.4037610   0.0000000   0.0000000   0.0000000   0.0000000   0.0000000   0.0000000   0.0000000   0.0000000   0.0000000
 AtZNuc=   7.0000000   6.0000000   8.0000000   6.0000000   6.0000000   6.0000000   6.0000000   6.0000000   6.0000000   6.0000000

  Atom        21          22          23          24          25          26          27          28          29          30
 IAtWgt=          12          14          12          16          16          12          12          12          12          12
 AtmWgt=  12.0000000  14.0030740  12.0000000  15.9949146  15.9949146  12.0000000  12.0000000  12.0000000  12.0000000  12.0000000
 NucSpn=           0           2           0           0           0           0           0           0           0           0
 AtZEff=  -0.0000000  -0.0000000  -0.0000000  -0.0000000  -0.0000000  -0.0000000  -0.0000000  -0.0000000  -0.0000000  -0.0000000
 NQMom=    0.0000000   2.0440000   0.0000000   0.0000000   0.0000000   0.0000000   0.0000000   0.0000000   0.0000000   0.0000000
 NMagM=    0.0000000   0.4037610   0.0000000   0.0000000   0.0000000   0.0000000   0.0000000   0.0000000   0.0000000   0.0000000
 AtZNuc=   6.0000000   7.0000000   6.0000000   8.0000000   8.0000000   6.0000000   6.0000000   6.0000000   6.0000000   6.0000000

  Atom        31          32          33          34          35          36          37          38          39          40
 IAtWgt=          12          12          12          14          16           1           1           1           1           1
 AtmWgt=  12.0000000  12.0000000  12.0000000  14.0030740  15.9949146   1.0078250   1.0078250   1.0078250   1.0078250   1.0078250
 NucSpn=           0           0           0           2           0           1           1           1           1           1
 AtZEff=  -0.0000000  -0.0000000  -0.0000000  -0.0000000  -0.0000000  -0.0000000  -0.0000000  -0.0000000  -0.0000000  -0.0000000
 NQMom=    0.0000000   0.0000000   0.0000000   2.0440000   0.0000000   0.0000000   0.0000000   0.0000000   0.0000000   0.0000000
 NMagM=    0.0000000   0.0000000   0.0000000   0.4037610   0.0000000   2.7928460   2.7928460   2.7928460   2.7928460   2.7928460
 AtZNuc=   6.0000000   6.0000000   6.0000000   7.0000000   8.0000000   1.0000000   1.0000000   1.0000000   1.0000000   1.0000000

  Atom        41          42          43          44          45          46          47          48          49          50
 IAtWgt=           1           1           1           1           1           1           1           1           1           1
 AtmWgt=   1.0078250   1.0078250   1.0078250   1.0078250   1.0078250   1.0078250   1.0078250   1.0078250   1.0078250   1.0078250
 NucSpn=           1           1           1           1           1           1           1           1           1           1
 AtZEff=  -0.0000000  -0.0000000  -0.0000000  -0.0000000  -0.0000000  -0.0000000  -0.0000000  -0.0000000  -0.0000000  -0.0000000
 NQMom=    0.0000000   0.0000000   0.0000000   0.0000000   0.0000000   0.0000000   0.0000000   0.0000000   0.0000000   0.0000000
 NMagM=    2.7928460   2.7928460   2.7928460   2.7928460   2.7928460   2.7928460   2.7928460   2.7928460   2.7928460   2.7928460
 AtZNuc=   1.0000000   1.0000000   1.0000000   1.0000000   1.0000000   1.0000000   1.0000000   1.0000000   1.0000000   1.0000000

  Atom        51          52          53          54          55          56          57          58          59          60
 IAtWgt=           1           1           1           1           1           1           1           1           1           1
 AtmWgt=   1.0078250   1.0078250   1.0078250   1.0078250   1.0078250   1.0078250   1.0078250   1.0078250   1.0078250   1.0078250
 NucSpn=           1           1           1           1           1           1           1           1           1           1
 AtZEff=  -0.0000000  -0.0000000  -0.0000000  -0.0000000  -0.0000000  -0.0000000  -0.0000000  -0.0000000  -0.0000000  -0.0000000
 NQMom=    0.0000000   0.0000000   0.0000000   0.0000000   0.0000000   0.0000000   0.0000000   0.0000000   0.0000000   0.0000000
 NMagM=    2.7928460   2.7928460   2.7928460   2.7928460   2.7928460   2.7928460   2.7928460   2.7928460   2.7928460   2.7928460
 AtZNuc=   1.0000000   1.0000000   1.0000000   1.0000000   1.0000000   1.0000000   1.0000000   1.0000000   1.0000000   1.0000000

  Atom        61          62          63          64          65          66
 IAtWgt=           1           1           1           1           1           1
 AtmWgt=   1.0078250   1.0078250   1.0078250   1.0078250   1.0078250   1.0078250
 NucSpn=           1           1           1           1           1           1
 AtZEff=  -0.0000000  -0.0000000  -0.0000000  -0.0000000  -0.0000000  -0.0000000
 NQMom=    0.0000000   0.0000000   0.0000000   0.0000000   0.0000000   0.0000000
 NMagM=    2.7928460   2.7928460   2.7928460   2.7928460   2.7928460   2.7928460
 AtZNuc=   1.0000000   1.0000000   1.0000000   1.0000000   1.0000000   1.0000000
 Leave Link  101 at Fri Nov  4 19:01:19 2022, MaxMem=   805306368 cpu:               1.4 elap:               0.2
 (Enter /home/wykgroup/appl/g16/l103.exe)

 GradGradGradGradGradGradGradGradGradGradGradGradGradGradGradGradGradGrad
 Berny optimization.
 Initialization pass.
                           ----------------------------
                           !    Initial Parameters    !
                           ! (Angstroms and Degrees)  !
 --------------------------                            --------------------------
 ! Name  Definition              Value          Derivative Info.                !
 --------------------------------------------------------------------------------
 ! R1    R(1,2)                  1.5019         estimate D2E/DX2                !
 ! R2    R(1,36)                 1.0899         estimate D2E/DX2                !
 ! R3    R(1,37)                 1.0886         estimate D2E/DX2                !
 ! R4    R(1,38)                 1.0871         estimate D2E/DX2                !
 ! R5    R(2,3)                  1.3879         estimate D2E/DX2                !
 ! R6    R(2,8)                  1.4019         estimate D2E/DX2                !
 ! R7    R(3,4)                  1.3826         estimate D2E/DX2                !
 ! R8    R(3,39)                 1.0802         estimate D2E/DX2                !
 ! R9    R(4,5)                  1.3799         estimate D2E/DX2                !
 ! R10   R(4,40)                 1.0797         estimate D2E/DX2                !
 ! R11   R(5,6)                  1.3914         estimate D2E/DX2                !
 ! R12   R(5,41)                 1.0804         estimate D2E/DX2                !
 ! R13   R(6,7)                  1.502          estimate D2E/DX2                !
 ! R14   R(6,8)                  1.3996         estimate D2E/DX2                !
 ! R15   R(7,42)                 1.0849         estimate D2E/DX2                !
 ! R16   R(7,43)                 1.0912         estimate D2E/DX2                !
 ! R17   R(7,44)                 1.0884         estimate D2E/DX2                !
 ! R18   R(8,9)                  1.5039         estimate D2E/DX2                !
 ! R19   R(9,10)                 1.5475         estimate D2E/DX2                !
 ! R20   R(9,45)                 1.0886         estimate D2E/DX2                !
 ! R21   R(9,46)                 1.0911         estimate D2E/DX2                !
 ! R22   R(10,11)                1.444          estimate D2E/DX2                !
 ! R23   R(10,33)                1.5259         estimate D2E/DX2                !
 ! R24   R(10,47)                1.0948         estimate D2E/DX2                !
 ! R25   R(11,12)                1.341          estimate D2E/DX2                !
 ! R26   R(11,48)                1.013          estimate D2E/DX2                !
 ! R27   R(12,13)                1.2169         estimate D2E/DX2                !
 ! R28   R(12,14)                1.5272         estimate D2E/DX2                !
 ! R29   R(14,15)                1.5495         estimate D2E/DX2                !
 ! R30   R(14,22)                1.4372         estimate D2E/DX2                !
 ! R31   R(14,49)                1.0947         estimate D2E/DX2                !
 ! R32   R(15,16)                1.5015         estimate D2E/DX2                !
 ! R33   R(15,50)                1.0922         estimate D2E/DX2                !
 ! R34   R(15,51)                1.0911         estimate D2E/DX2                !
 ! R35   R(16,17)                1.388          estimate D2E/DX2                !
 ! R36   R(16,21)                1.3885         estimate D2E/DX2                !
 ! R37   R(17,18)                1.3826         estimate D2E/DX2                !
 ! R38   R(17,52)                1.0808         estimate D2E/DX2                !
 ! R39   R(18,19)                1.3838         estimate D2E/DX2                !
 ! R40   R(18,53)                1.0802         estimate D2E/DX2                !
 ! R41   R(19,20)                1.3834         estimate D2E/DX2                !
 ! R42   R(19,54)                1.0796         estimate D2E/DX2                !
 ! R43   R(20,21)                1.3827         estimate D2E/DX2                !
 ! R44   R(20,55)                1.08           estimate D2E/DX2                !
 ! R45   R(21,56)                1.081          estimate D2E/DX2                !
 ! R46   R(22,23)                1.3483         estimate D2E/DX2                !
 ! R47   R(22,57)                1.0092         estimate D2E/DX2                !
 ! R48   R(23,24)                1.206          estimate D2E/DX2                !
 ! R49   R(23,25)                1.3535         estimate D2E/DX2                !
 ! R50   R(25,26)                1.4291         estimate D2E/DX2                !
 ! R51   R(26,27)                1.5066         estimate D2E/DX2                !
 ! R52   R(26,58)                1.0947         estimate D2E/DX2                !
 ! R53   R(26,59)                1.0931         estimate D2E/DX2                !
 ! R54   R(27,28)                1.3875         estimate D2E/DX2                !
 ! R55   R(27,32)                1.3892         estimate D2E/DX2                !
 ! R56   R(28,29)                1.3839         estimate D2E/DX2                !
 ! R57   R(28,60)                1.0791         estimate D2E/DX2                !
 ! R58   R(29,30)                1.3841         estimate D2E/DX2                !
 ! R59   R(29,61)                1.0801         estimate D2E/DX2                !
 ! R60   R(30,31)                1.385          estimate D2E/DX2                !
 ! R61   R(30,62)                1.0806         estimate D2E/DX2                !
 ! R62   R(31,32)                1.3831         estimate D2E/DX2                !
 ! R63   R(31,63)                1.0807         estimate D2E/DX2                !
 ! R64   R(32,64)                1.0806         estimate D2E/DX2                !
 ! R65   R(33,34)                1.3456         estimate D2E/DX2                !
 ! R66   R(33,35)                1.2132         estimate D2E/DX2                !
 ! R67   R(34,65)                1.0057         estimate D2E/DX2                !
 ! R68   R(34,66)                1.0073         estimate D2E/DX2                !
 ! A1    A(2,1,36)             110.6079         estimate D2E/DX2                !
 ! A2    A(2,1,37)             111.7073         estimate D2E/DX2                !
 ! A3    A(2,1,38)             110.1022         estimate D2E/DX2                !
 ! A4    A(36,1,37)            108.1942         estimate D2E/DX2                !
 ! A5    A(36,1,38)            107.878          estimate D2E/DX2                !
 ! A6    A(37,1,38)            108.232          estimate D2E/DX2                !
 ! A7    A(1,2,3)              118.6745         estimate D2E/DX2                !
 ! A8    A(1,2,8)              121.8075         estimate D2E/DX2                !
 ! A9    A(3,2,8)              119.5166         estimate D2E/DX2                !
 ! A10   A(2,3,4)              120.9011         estimate D2E/DX2                !
 ! A11   A(2,3,39)             119.4021         estimate D2E/DX2                !
 ! A12   A(4,3,39)             119.6965         estimate D2E/DX2                !
 ! A13   A(3,4,5)              119.4854         estimate D2E/DX2                !
 ! A14   A(3,4,40)             120.2105         estimate D2E/DX2                !
 ! A15   A(5,4,40)             120.3034         estimate D2E/DX2                !
 ! A16   A(4,5,6)              121.1257         estimate D2E/DX2                !
 ! A17   A(4,5,41)             119.8711         estimate D2E/DX2                !
 ! A18   A(6,5,41)             119.003          estimate D2E/DX2                !
 ! A19   A(5,6,7)              117.3797         estimate D2E/DX2                !
 ! A20   A(5,6,8)              119.249          estimate D2E/DX2                !
 ! A21   A(7,6,8)              123.3662         estimate D2E/DX2                !
 ! A22   A(6,7,42)             113.559          estimate D2E/DX2                !
 ! A23   A(6,7,43)             109.9463         estimate D2E/DX2                !
 ! A24   A(6,7,44)             109.6528         estimate D2E/DX2                !
 ! A25   A(42,7,43)            107.8902         estimate D2E/DX2                !
 ! A26   A(42,7,44)            108.4005         estimate D2E/DX2                !
 ! A27   A(43,7,44)            107.1769         estimate D2E/DX2                !
 ! A28   A(2,8,6)              119.7214         estimate D2E/DX2                !
 ! A29   A(2,8,9)              120.1159         estimate D2E/DX2                !
 ! A30   A(6,8,9)              120.1613         estimate D2E/DX2                !
 ! A31   A(8,9,10)             112.6365         estimate D2E/DX2                !
 ! A32   A(8,9,45)             111.1547         estimate D2E/DX2                !
 ! A33   A(8,9,46)             110.0348         estimate D2E/DX2                !
 ! A34   A(10,9,45)            108.2887         estimate D2E/DX2                !
 ! A35   A(10,9,46)            106.9148         estimate D2E/DX2                !
 ! A36   A(45,9,46)            107.595          estimate D2E/DX2                !
 ! A37   A(9,10,11)            110.2531         estimate D2E/DX2                !
 ! A38   A(9,10,33)            110.812          estimate D2E/DX2                !
 ! A39   A(9,10,47)            109.2526         estimate D2E/DX2                !
 ! A40   A(11,10,33)           107.2393         estimate D2E/DX2                !
 ! A41   A(11,10,47)           109.0578         estimate D2E/DX2                !
 ! A42   A(33,10,47)           110.1934         estimate D2E/DX2                !
 ! A43   A(10,11,12)           122.7736         estimate D2E/DX2                !
 ! A44   A(10,11,48)           114.5775         estimate D2E/DX2                !
 ! A45   A(12,11,48)           122.6287         estimate D2E/DX2                !
 ! A46   A(11,12,13)           123.283          estimate D2E/DX2                !
 ! A47   A(11,12,14)           114.4683         estimate D2E/DX2                !
 ! A48   A(13,12,14)           122.1981         estimate D2E/DX2                !
 ! A49   A(12,14,15)           108.6805         estimate D2E/DX2                !
 ! A50   A(12,14,22)           108.6902         estimate D2E/DX2                !
 ! A51   A(12,14,49)           111.58           estimate D2E/DX2                !
 ! A52   A(15,14,22)           110.8032         estimate D2E/DX2                !
 ! A53   A(15,14,49)           109.5325         estimate D2E/DX2                !
 ! A54   A(22,14,49)           107.5594         estimate D2E/DX2                !
 ! A55   A(14,15,16)           109.4846         estimate D2E/DX2                !
 ! A56   A(14,15,50)           108.42           estimate D2E/DX2                !
 ! A57   A(14,15,51)           108.9746         estimate D2E/DX2                !
 ! A58   A(16,15,50)           110.3417         estimate D2E/DX2                !
 ! A59   A(16,15,51)           110.727          estimate D2E/DX2                !
 ! A60   A(50,15,51)           108.8456         estimate D2E/DX2                !
 ! A61   A(15,16,17)           120.5167         estimate D2E/DX2                !
 ! A62   A(15,16,21)           120.394          estimate D2E/DX2                !
 ! A63   A(17,16,21)           119.0082         estimate D2E/DX2                !
 ! A64   A(16,17,18)           120.4872         estimate D2E/DX2                !
 ! A65   A(16,17,52)           119.6161         estimate D2E/DX2                !
 ! A66   A(18,17,52)           119.8965         estimate D2E/DX2                !
 ! A67   A(17,18,19)           120.1155         estimate D2E/DX2                !
 ! A68   A(17,18,53)           119.8101         estimate D2E/DX2                !
 ! A69   A(19,18,53)           120.0738         estimate D2E/DX2                !
 ! A70   A(18,19,20)           119.7931         estimate D2E/DX2                !
 ! A71   A(18,19,54)           120.2417         estimate D2E/DX2                !
 ! A72   A(20,19,54)           119.965          estimate D2E/DX2                !
 ! A73   A(19,20,21)           120.0268         estimate D2E/DX2                !
 ! A74   A(19,20,55)           120.0463         estimate D2E/DX2                !
 ! A75   A(21,20,55)           119.9247         estimate D2E/DX2                !
 ! A76   A(16,21,20)           120.5673         estimate D2E/DX2                !
 ! A77   A(16,21,56)           119.6372         estimate D2E/DX2                !
 ! A78   A(20,21,56)           119.7956         estimate D2E/DX2                !
 ! A79   A(14,22,23)           122.5468         estimate D2E/DX2                !
 ! A80   A(14,22,57)           117.1925         estimate D2E/DX2                !
 ! A81   A(23,22,57)           120.1937         estimate D2E/DX2                !
 ! A82   A(22,23,24)           125.1531         estimate D2E/DX2                !
 ! A83   A(22,23,25)           110.0801         estimate D2E/DX2                !
 ! A84   A(24,23,25)           124.754          estimate D2E/DX2                !
 ! A85   A(23,25,26)           115.5674         estimate D2E/DX2                !
 ! A86   A(25,26,27)           111.679          estimate D2E/DX2                !
 ! A87   A(25,26,58)           108.9541         estimate D2E/DX2                !
 ! A88   A(25,26,59)           104.7313         estimate D2E/DX2                !
 ! A89   A(27,26,58)           110.2348         estimate D2E/DX2                !
 ! A90   A(27,26,59)           110.9671         estimate D2E/DX2                !
 ! A91   A(58,26,59)           110.1328         estimate D2E/DX2                !
 ! A92   A(26,27,28)           120.6787         estimate D2E/DX2                !
 ! A93   A(26,27,32)           119.9443         estimate D2E/DX2                !
 ! A94   A(28,27,32)           119.3662         estimate D2E/DX2                !
 ! A95   A(27,28,29)           120.2198         estimate D2E/DX2                !
 ! A96   A(27,28,60)           119.4933         estimate D2E/DX2                !
 ! A97   A(29,28,60)           120.2837         estimate D2E/DX2                !
 ! A98   A(28,29,30)           120.1953         estimate D2E/DX2                !
 ! A99   A(28,29,61)           119.7167         estimate D2E/DX2                !
 ! A100  A(30,29,61)           120.088          estimate D2E/DX2                !
 ! A101  A(29,30,31)           119.8161         estimate D2E/DX2                !
 ! A102  A(29,30,62)           120.1823         estimate D2E/DX2                !
 ! A103  A(31,30,62)           120.001          estimate D2E/DX2                !
 ! A104  A(30,31,32)           120.0308         estimate D2E/DX2                !
 ! A105  A(30,31,63)           120.0633         estimate D2E/DX2                !
 ! A106  A(32,31,63)           119.9055         estimate D2E/DX2                !
 ! A107  A(27,32,31)           120.3595         estimate D2E/DX2                !
 ! A108  A(27,32,64)           119.4144         estimate D2E/DX2                !
 ! A109  A(31,32,64)           120.2262         estimate D2E/DX2                !
 ! A110  A(10,33,34)           114.7376         estimate D2E/DX2                !
 ! A111  A(10,33,35)           121.7383         estimate D2E/DX2                !
 ! A112  A(34,33,35)           123.5201         estimate D2E/DX2                !
 ! A113  A(33,34,65)           121.3804         estimate D2E/DX2                !
 ! A114  A(33,34,66)           118.6466         estimate D2E/DX2                !
 ! A115  A(65,34,66)           118.597          estimate D2E/DX2                !
 ! D1    D(36,1,2,3)           113.2955         estimate D2E/DX2                !
 ! D2    D(36,1,2,8)           -66.2823         estimate D2E/DX2                !
 ! D3    D(37,1,2,3)          -126.1243         estimate D2E/DX2                !
 ! D4    D(37,1,2,8)            54.2978         estimate D2E/DX2                !
 ! D5    D(38,1,2,3)            -5.8401         estimate D2E/DX2                !
 ! D6    D(38,1,2,8)           174.5821         estimate D2E/DX2                !
 ! D7    D(1,2,3,4)           -179.5415         estimate D2E/DX2                !
 ! D8    D(1,2,3,39)             0.244          estimate D2E/DX2                !
 ! D9    D(8,2,3,4)              0.0463         estimate D2E/DX2                !
 ! D10   D(8,2,3,39)           179.8317         estimate D2E/DX2                !
 ! D11   D(1,2,8,6)            179.3482         estimate D2E/DX2                !
 ! D12   D(1,2,8,9)             -1.0807         estimate D2E/DX2                !
 ! D13   D(3,2,8,6)             -0.2262         estimate D2E/DX2                !
 ! D14   D(3,2,8,9)            179.345          estimate D2E/DX2                !
 ! D15   D(2,3,4,5)              0.1874         estimate D2E/DX2                !
 ! D16   D(2,3,4,40)           179.8914         estimate D2E/DX2                !
 ! D17   D(39,3,4,5)          -179.5974         estimate D2E/DX2                !
 ! D18   D(39,3,4,40)            0.1065         estimate D2E/DX2                !
 ! D19   D(3,4,5,6)             -0.243          estimate D2E/DX2                !
 ! D20   D(3,4,5,41)           179.611          estimate D2E/DX2                !
 ! D21   D(40,4,5,6)          -179.9467         estimate D2E/DX2                !
 ! D22   D(40,4,5,41)           -0.0927         estimate D2E/DX2                !
 ! D23   D(4,5,6,7)           -179.146          estimate D2E/DX2                !
 ! D24   D(4,5,6,8)              0.0631         estimate D2E/DX2                !
 ! D25   D(41,5,6,7)             0.9988         estimate D2E/DX2                !
 ! D26   D(41,5,6,8)          -179.7922         estimate D2E/DX2                !
 ! D27   D(5,6,7,42)          -161.725          estimate D2E/DX2                !
 ! D28   D(5,6,7,43)            77.294          estimate D2E/DX2                !
 ! D29   D(5,6,7,44)           -40.3001         estimate D2E/DX2                !
 ! D30   D(8,6,7,42)            19.1014         estimate D2E/DX2                !
 ! D31   D(8,6,7,43)          -101.8797         estimate D2E/DX2                !
 ! D32   D(8,6,7,44)           140.5262         estimate D2E/DX2                !
 ! D33   D(5,6,8,2)              0.1723         estimate D2E/DX2                !
 ! D34   D(5,6,8,9)           -179.3987         estimate D2E/DX2                !
 ! D35   D(7,6,8,2)            179.3313         estimate D2E/DX2                !
 ! D36   D(7,6,8,9)             -0.2397         estimate D2E/DX2                !
 ! D37   D(2,8,9,10)          -105.7385         estimate D2E/DX2                !
 ! D38   D(2,8,9,45)            15.9926         estimate D2E/DX2                !
 ! D39   D(2,8,9,46)           135.0784         estimate D2E/DX2                !
 ! D40   D(6,8,9,10)            73.8308         estimate D2E/DX2                !
 ! D41   D(6,8,9,45)          -164.4382         estimate D2E/DX2                !
 ! D42   D(6,8,9,46)           -45.3523         estimate D2E/DX2                !
 ! D43   D(8,9,10,11)         -175.3962         estimate D2E/DX2                !
 ! D44   D(8,9,10,33)           66.0361         estimate D2E/DX2                !
 ! D45   D(8,9,10,47)          -55.5595         estimate D2E/DX2                !
 ! D46   D(45,9,10,11)          61.2621         estimate D2E/DX2                !
 ! D47   D(45,9,10,33)         -57.3056         estimate D2E/DX2                !
 ! D48   D(45,9,10,47)        -178.9011         estimate D2E/DX2                !
 ! D49   D(46,9,10,11)         -54.4132         estimate D2E/DX2                !
 ! D50   D(46,9,10,33)        -172.9809         estimate D2E/DX2                !
 ! D51   D(46,9,10,47)          65.4235         estimate D2E/DX2                !
 ! D52   D(9,10,11,12)          73.721          estimate D2E/DX2                !
 ! D53   D(9,10,11,48)        -107.8774         estimate D2E/DX2                !
 ! D54   D(33,10,11,12)       -165.5466         estimate D2E/DX2                !
 ! D55   D(33,10,11,48)         12.8549         estimate D2E/DX2                !
 ! D56   D(47,10,11,12)        -46.2334         estimate D2E/DX2                !
 ! D57   D(47,10,11,48)        132.1681         estimate D2E/DX2                !
 ! D58   D(9,10,33,34)         -76.7911         estimate D2E/DX2                !
 ! D59   D(9,10,33,35)         103.9098         estimate D2E/DX2                !
 ! D60   D(11,10,33,34)        162.8311         estimate D2E/DX2                !
 ! D61   D(11,10,33,35)        -16.468          estimate D2E/DX2                !
 ! D62   D(47,10,33,34)         44.2501         estimate D2E/DX2                !
 ! D63   D(47,10,33,35)       -135.049          estimate D2E/DX2                !
 ! D64   D(10,11,12,13)         -0.6868         estimate D2E/DX2                !
 ! D65   D(10,11,12,14)       -178.1465         estimate D2E/DX2                !
 ! D66   D(48,11,12,13)       -178.9607         estimate D2E/DX2                !
 ! D67   D(48,11,12,14)          3.5796         estimate D2E/DX2                !
 ! D68   D(11,12,14,15)         78.6229         estimate D2E/DX2                !
 ! D69   D(11,12,14,22)       -160.7026         estimate D2E/DX2                !
 ! D70   D(11,12,14,49)        -42.2586         estimate D2E/DX2                !
 ! D71   D(13,12,14,15)        -98.8676         estimate D2E/DX2                !
 ! D72   D(13,12,14,22)         21.8068         estimate D2E/DX2                !
 ! D73   D(13,12,14,49)        140.2508         estimate D2E/DX2                !
 ! D74   D(12,14,15,16)        175.605          estimate D2E/DX2                !
 ! D75   D(12,14,15,50)         55.1751         estimate D2E/DX2                !
 ! D76   D(12,14,15,51)        -63.154          estimate D2E/DX2                !
 ! D77   D(22,14,15,16)         56.2436         estimate D2E/DX2                !
 ! D78   D(22,14,15,50)        -64.1863         estimate D2E/DX2                !
 ! D79   D(22,14,15,51)        177.4845         estimate D2E/DX2                !
 ! D80   D(49,14,15,16)        -62.2607         estimate D2E/DX2                !
 ! D81   D(49,14,15,50)        177.3094         estimate D2E/DX2                !
 ! D82   D(49,14,15,51)         58.9802         estimate D2E/DX2                !
 ! D83   D(12,14,22,23)        142.0452         estimate D2E/DX2                !
 ! D84   D(12,14,22,57)        -34.9806         estimate D2E/DX2                !
 ! D85   D(15,14,22,23)        -98.5992         estimate D2E/DX2                !
 ! D86   D(15,14,22,57)         84.375          estimate D2E/DX2                !
 ! D87   D(49,14,22,23)         21.0945         estimate D2E/DX2                !
 ! D88   D(49,14,22,57)       -155.9313         estimate D2E/DX2                !
 ! D89   D(14,15,16,17)         86.1231         estimate D2E/DX2                !
 ! D90   D(14,15,16,21)        -90.5691         estimate D2E/DX2                !
 ! D91   D(50,15,16,17)       -154.6255         estimate D2E/DX2                !
 ! D92   D(50,15,16,21)         28.6823         estimate D2E/DX2                !
 ! D93   D(51,15,16,17)        -34.0527         estimate D2E/DX2                !
 ! D94   D(51,15,16,21)        149.2552         estimate D2E/DX2                !
 ! D95   D(15,16,17,18)       -177.2409         estimate D2E/DX2                !
 ! D96   D(15,16,17,52)          2.5701         estimate D2E/DX2                !
 ! D97   D(21,16,17,18)         -0.5033         estimate D2E/DX2                !
 ! D98   D(21,16,17,52)        179.3077         estimate D2E/DX2                !
 ! D99   D(15,16,21,20)        177.2534         estimate D2E/DX2                !
 ! D100  D(15,16,21,56)         -2.7579         estimate D2E/DX2                !
 ! D101  D(17,16,21,20)          0.5117         estimate D2E/DX2                !
 ! D102  D(17,16,21,56)       -179.4995         estimate D2E/DX2                !
 ! D103  D(16,17,18,19)          0.1893         estimate D2E/DX2                !
 ! D104  D(16,17,18,53)        179.8907         estimate D2E/DX2                !
 ! D105  D(52,17,18,19)       -179.6212         estimate D2E/DX2                !
 ! D106  D(52,17,18,53)          0.0803         estimate D2E/DX2                !
 ! D107  D(17,18,19,20)          0.124          estimate D2E/DX2                !
 ! D108  D(17,18,19,54)        179.9571         estimate D2E/DX2                !
 ! D109  D(53,18,19,20)       -179.5767         estimate D2E/DX2                !
 ! D110  D(53,18,19,54)          0.2564         estimate D2E/DX2                !
 ! D111  D(18,19,20,21)         -0.1159         estimate D2E/DX2                !
 ! D112  D(18,19,20,55)        179.3421         estimate D2E/DX2                !
 ! D113  D(54,19,20,21)       -179.9495         estimate D2E/DX2                !
 ! D114  D(54,19,20,55)         -0.4915         estimate D2E/DX2                !
 ! D115  D(19,20,21,16)         -0.2055         estimate D2E/DX2                !
 ! D116  D(19,20,21,56)        179.8058         estimate D2E/DX2                !
 ! D117  D(55,20,21,16)       -179.6641         estimate D2E/DX2                !
 ! D118  D(55,20,21,56)          0.3471         estimate D2E/DX2                !
 ! D119  D(14,22,23,24)         -3.1178         estimate D2E/DX2                !
 ! D120  D(14,22,23,25)        178.1318         estimate D2E/DX2                !
 ! D121  D(57,22,23,24)        173.8215         estimate D2E/DX2                !
 ! D122  D(57,22,23,25)         -4.929          estimate D2E/DX2                !
 ! D123  D(22,23,25,26)       -179.0217         estimate D2E/DX2                !
 ! D124  D(24,23,25,26)          2.2218         estimate D2E/DX2                !
 ! D125  D(23,25,26,27)         81.8623         estimate D2E/DX2                !
 ! D126  D(23,25,26,58)        -40.1468         estimate D2E/DX2                !
 ! D127  D(23,25,26,59)       -157.9605         estimate D2E/DX2                !
 ! D128  D(25,26,27,28)       -106.219          estimate D2E/DX2                !
 ! D129  D(25,26,27,32)         72.58           estimate D2E/DX2                !
 ! D130  D(58,26,27,28)         15.0502         estimate D2E/DX2                !
 ! D131  D(58,26,27,32)       -166.1508         estimate D2E/DX2                !
 ! D132  D(59,26,27,28)        137.3335         estimate D2E/DX2                !
 ! D133  D(59,26,27,32)        -43.8675         estimate D2E/DX2                !
 ! D134  D(26,27,28,29)       -179.9554         estimate D2E/DX2                !
 ! D135  D(26,27,28,60)          0.6987         estimate D2E/DX2                !
 ! D136  D(32,27,28,29)          1.2388         estimate D2E/DX2                !
 ! D137  D(32,27,28,60)       -178.1072         estimate D2E/DX2                !
 ! D138  D(26,27,32,31)       -179.6928         estimate D2E/DX2                !
 ! D139  D(26,27,32,64)          0.3274         estimate D2E/DX2                !
 ! D140  D(28,27,32,31)         -0.878          estimate D2E/DX2                !
 ! D141  D(28,27,32,64)        179.1421         estimate D2E/DX2                !
 ! D142  D(27,28,29,30)         -0.6159         estimate D2E/DX2                !
 ! D143  D(27,28,29,61)        179.3291         estimate D2E/DX2                !
 ! D144  D(60,28,29,30)        178.7249         estimate D2E/DX2                !
 ! D145  D(60,28,29,61)         -1.3301         estimate D2E/DX2                !
 ! D146  D(28,29,30,31)         -0.3795         estimate D2E/DX2                !
 ! D147  D(28,29,30,62)        179.9178         estimate D2E/DX2                !
 ! D148  D(61,29,30,31)        179.6757         estimate D2E/DX2                !
 ! D149  D(61,29,30,62)         -0.027          estimate D2E/DX2                !
 ! D150  D(29,30,31,32)          0.7404         estimate D2E/DX2                !
 ! D151  D(29,30,31,63)       -179.4967         estimate D2E/DX2                !
 ! D152  D(62,30,31,32)       -179.5564         estimate D2E/DX2                !
 ! D153  D(62,30,31,63)          0.2065         estimate D2E/DX2                !
 ! D154  D(30,31,32,27)         -0.1089         estimate D2E/DX2                !
 ! D155  D(30,31,32,64)        179.8709         estimate D2E/DX2                !
 ! D156  D(63,31,32,27)       -179.8721         estimate D2E/DX2                !
 ! D157  D(63,31,32,64)          0.1076         estimate D2E/DX2                !
 ! D158  D(10,33,34,65)          8.8089         estimate D2E/DX2                !
 ! D159  D(10,33,34,66)        175.2286         estimate D2E/DX2                !
 ! D160  D(35,33,34,65)       -171.9061         estimate D2E/DX2                !
 ! D161  D(35,33,34,66)         -5.4865         estimate D2E/DX2                !
 --------------------------------------------------------------------------------
 Trust Radius=3.00D-01 FncErr=1.00D-07 GrdErr=1.00D-06 EigMax=2.50D+02 EigMin=1.00D-04
 Number of steps in this run=    354 maximum allowed number of steps=    396.
 GradGradGradGradGradGradGradGradGradGradGradGradGradGradGradGradGradGrad

 Leave Link  103 at Fri Nov  4 19:01:19 2022, MaxMem=   805306368 cpu:               0.3 elap:               0.1
 (Enter /home/wykgroup/appl/g16/l202.exe)
 Stoichiometry    C28H31N3O4
 Framework group  C1[X(C28H31N3O4)]
 Deg. of freedom   192
 Full point group                 C1      NOp   1
 Largest Abelian subgroup         C1      NOp   1
 Largest concise Abelian subgroup C1      NOp   1
                         Standard orientation:                         
 ---------------------------------------------------------------------
 Center     Atomic      Atomic             Coordinates (Angstroms)
 Number     Number       Type             X           Y           Z
 ---------------------------------------------------------------------
      1          6           0        5.995752    2.197257   -0.897809
      2          6           0        6.296861    0.727396   -0.829658
      3          6           0        7.620873    0.315392   -0.888853
      4          6           0        7.949775   -1.026596   -0.839571
      5          6           0        6.946712   -1.968276   -0.733948
      6          6           0        5.609097   -1.590344   -0.671078
      7          6           0        4.587974   -2.683647   -0.537187
      8          6           0        5.279674   -0.230816   -0.717394
      9          6           0        3.841465    0.201303   -0.637365
     10          6           0        3.256175    0.062099    0.788435
     11          7           0        1.849129    0.386751    0.785091
     12          6           0        0.916872   -0.430212    0.273542
     13          8           0        1.177402   -1.502626   -0.239088
     14          6           0       -0.506395    0.120611    0.329523
     15          6           0       -0.688330    1.143332   -0.820210
     16          6           0       -2.113011    1.616629   -0.848733
     17          6           0       -2.518707    2.679296   -0.053373
     18          6           0       -3.842392    3.078148   -0.037394
     19          6           0       -4.776580    2.415739   -0.814244
     20          6           0       -4.382392    1.351364   -1.605110
     21          6           0       -3.058278    0.953499   -1.619946
     22          7           0       -1.429102   -0.972578    0.191039
     23          6           0       -2.586898   -1.036123    0.879005
     24          8           0       -2.947929   -0.236146    1.706127
     25          8           0       -3.276564   -2.146053    0.526514
     26          6           0       -4.539346   -2.318777    1.172937
     27          6           0       -5.621193   -1.509679    0.506107
     28          6           0       -6.117782   -0.361206    1.105810
     29          6           0       -7.112275    0.374351    0.485246
     30          6           0       -7.608835   -0.024134   -0.743686
     31          6           0       -7.102143   -1.158292   -1.356255
     32          6           0       -6.113460   -1.898314   -0.733416
     33          6           0        3.940631    1.027091    1.752045
     34          7           0        5.167818    0.647131    2.152530
     35          8           0        3.399074    2.045962    2.126984
     36          1           0        5.465433    2.437893   -1.819104
     37          1           0        5.383488    2.522174   -0.058392
     38          1           0        6.920324    2.769014   -0.885846
     39          1           0        8.402991    1.055142   -0.978102
     40          1           0        8.983393   -1.334762   -0.888253
     41          1           0        7.196289   -3.018944   -0.701288
     42          1           0        3.583251   -2.373743   -0.804684
     43          1           0        4.564059   -3.046724    0.491565
     44          1           0        4.867558   -3.524981   -1.168566
     45          1           0        3.723768    1.235706   -0.955458
     46          1           0        3.228097   -0.417571   -1.294144
     47          1           0        3.384209   -0.969410    1.132082
     48          1           0        1.619649    1.270649    1.223436
     49          1           0       -0.712383    0.607231    1.288249
     50          1           0       -0.432213    0.653048   -1.761967
     51          1           0       -0.006450    1.980307   -0.661741
     52          1           0       -1.793193    3.195236    0.559404
     53          1           0       -4.146433    3.905434    0.587012
     54          1           0       -5.810860    2.725035   -0.802798
     55          1           0       -5.109929    0.824745   -2.204851
     56          1           0       -2.754947    0.119333   -2.236892
     57          1           0       -1.157583   -1.731065   -0.416729
     58          1           0       -4.443259   -2.028900    2.224193
     59          1           0       -4.747264   -3.389094    1.095282
     60          1           0       -5.715172   -0.040522    2.054256
     61          1           0       -7.500544    1.261024    0.964454
     62          1           0       -8.386278    0.549613   -1.227424
     63          1           0       -7.481237   -1.468492   -2.319574
     64          1           0       -5.717350   -2.784878   -1.207531
     65          1           0        5.635919   -0.137867    1.732945
     66          1           0        5.702815    1.274612    2.731034
 ---------------------------------------------------------------------
 Rotational constants (GHZ):           0.3071883           0.0450764           0.0428890
 Leave Link  202 at Fri Nov  4 19:01:19 2022, MaxMem=   805306368 cpu:               0.5 elap:               0.1
 (Enter /home/wykgroup/appl/g16/l301.exe)
 Standard basis: 6-31G(d) (6D, 7F)
 Ernie: Thresh=  0.10000D-02 Tol=  0.10000D-05 Strict=F.
 There are   587 symmetry adapted cartesian basis functions of A   symmetry.
 There are   587 symmetry adapted basis functions of A   symmetry.
   587 basis functions,  1104 primitive gaussians,   587 cartesian basis functions
   126 alpha electrons      126 beta electrons
       nuclear repulsion energy      3622.1388103679 Hartrees.
 IExCor=  402 DFT=T Ex+Corr=B3LYP ExCW=0 ScaHFX=  0.200000
 ScaDFX=  0.800000  0.720000  1.000000  0.810000 ScalE2=  1.000000  1.000000
 IRadAn=      5 IRanWt=     -1 IRanGd=            0 ICorTp=0 IEmpDi=  4
 NAtoms=   66 NActive=   66 NUniq=   66 SFac= 1.00D+00 NAtFMM=   60 NAOKFM=T Big=T
 Integral buffers will be    131072 words long.
 Raffenetti 2 integral format.
 Two-electron integral symmetry is turned on.
 Leave Link  301 at Fri Nov  4 19:01:19 2022, MaxMem=   805306368 cpu:               0.6 elap:               0.1
 (Enter /home/wykgroup/appl/g16/l302.exe)
 NPDir=0 NMtPBC=     1 NCelOv=     1 NCel=       1 NClECP=     1 NCelD=      1
         NCelK=      1 NCelE2=     1 NClLst=     1 CellRange=     0.0.
 One-electron integrals computed using PRISM.
 One-electron integral symmetry used in STVInt
 NBasis=   587 RedAO= T EigKep=  3.25D-04  NBF=   587
 NBsUse=   587 1.00D-06 EigRej= -1.00D+00 NBFU=   587
 Precomputing XC quadrature grid using
 IXCGrd= 4 IRadAn=           5 IRanWt=          -1 IRanGd=           0 AccXCQ= 0.00D+00.
 Generated NRdTot=       0 NPtTot=           0 NUsed=           0 NTot=          32
 NSgBfM=   569   568   569   569   569 MxSgAt=    66 MxSgA2=    66.
 Leave Link  302 at Fri Nov  4 19:01:21 2022, MaxMem=   805306368 cpu:              12.7 elap:               2.0
 (Enter /home/wykgroup/appl/g16/l303.exe)
 DipDrv:  MaxL=1.
 Leave Link  303 at Fri Nov  4 19:01:21 2022, MaxMem=   805306368 cpu:               1.0 elap:               0.2
 (Enter /home/wykgroup/appl/g16/l401.exe)
 ExpMin= 1.61D-01 ExpMax= 5.48D+03 ExpMxC= 8.25D+02 IAcc=3 IRadAn=         5 AccDes= 0.00D+00
 Harris functional with IExCor=  402 and IRadAn=       5 diagonalized for initial guess.
 HarFok:  IExCor=  402 AccDes= 0.00D+00 IRadAn=         5 IDoV= 1 UseB2=F ITyADJ=14
 ICtDFT=  3500011 ScaDFX=  1.000000  1.000000  1.000000  1.000000
 FoFCou: FMM=F IPFlag=           0 FMFlag=      100000 FMFlg1=        2001
         NFxFlg=           0 DoJE=T BraDBF=F KetDBF=T FulRan=T
         wScrn=  0.000000 ICntrl=       500 IOpCl=  0 I1Cent=   200000004 NGrid=           0
         NMat0=    1 NMatS0=      1 NMatT0=    0 NMatD0=    1 NMtDS0=    0 NMtDT0=    0
 Petite list used in FoFCou.
 Harris En= -1550.93085369153    
 JPrj=0 DoOrth=F DoCkMO=F.
 Leave Link  401 at Fri Nov  4 19:01:26 2022, MaxMem=   805306368 cpu:              33.9 elap:               4.9
 (Enter /home/wykgroup/appl/g16/l502.exe)
 Integral symmetry usage will be decided dynamically.
 Closed shell SCF:
 Using DIIS extrapolation, IDIIS=  1040.
 NGot=   805306368 LenX=   804606598 LenY=   804261442
 Requested convergence on RMS density matrix=1.00D-08 within  32 cycles.
 Requested convergence on MAX density matrix=1.00D-06.
 Requested convergence on             energy=1.00D-06.
 No special actions if energy rises.
 Fock matrices will be formed incrementally for  20 cycles.
 Integral accuracy reduced to 1.0D-05 until final iterations.

 Cycle   1  Pass 0  IDiag  1:
 FoFJK:  IHMeth= 1 ICntrl=       0 DoSepK=F KAlg= 0 I1Cent=           0 FoldK=F
 IRaf= 860000000 NMat=       1 IRICut=       1 DoRegI=T DoRafI=F ISym2E= 0 IDoP0=0 IntGTp=1.
 FoFCou: FMM=T IPFlag=           0 FMFlag=      100000 FMFlg1=        2001
         NFxFlg=           0 DoJE=F BraDBF=F KetDBF=F FulRan=T
         wScrn=  0.000000 ICntrl=         0 IOpCl=  0 I1Cent=           0 NGrid=           0
         NMat0=    1 NMatS0=      1 NMatT0=    0 NMatD0=    1 NMtDS0=    0 NMtDT0=    0
 Symmetry not used in FoFCou.
 FMM levels:  10  Number of levels for PrismC:   9
 E= -1549.95988673904    
 DIIS: error= 2.85D-02 at cycle   1 NSaved=   1.
 NSaved= 1 IEnMin= 1 EnMin= -1549.95988673904     IErMin= 1 ErrMin= 2.85D-02
 ErrMax= 2.85D-02  0.00D+00 EMaxC= 1.00D-01 BMatC= 9.44D-01 BMatP= 9.44D-01
 IDIUse=3 WtCom= 7.15D-01 WtEn= 2.85D-01
 Coeff-Com:  0.100D+01
 Coeff-En:   0.100D+01
 Coeff:      0.100D+01
 Gap=     0.290 Goal=   None    Shift=    0.000
 GapD=    0.290 DampG=1.000 DampE=0.500 DampFc=0.5000 IDamp=-1.
 Damping current iteration by 5.00D-01
 RMSDP=4.01D-03 MaxDP=1.90D-01              OVMax= 2.42D-01

 Cycle   2  Pass 0  IDiag  1:
 RMSU=  1.98D-03    CP:  9.80D-01
 E= -1550.30345117680     Delta-E=       -0.343564437766 Rises=F Damp=T
 DIIS: error= 8.27D-03 at cycle   2 NSaved=   2.
 NSaved= 2 IEnMin= 2 EnMin= -1550.30345117680     IErMin= 2 ErrMin= 8.27D-03
 ErrMax= 8.27D-03  0.00D+00 EMaxC= 1.00D-01 BMatC= 1.02D-01 BMatP= 9.44D-01
 IDIUse=3 WtCom= 9.17D-01 WtEn= 8.27D-02
 Coeff-Com:  0.144D+00 0.856D+00
 Coeff-En:   0.213D+00 0.787D+00
 Coeff:      0.149D+00 0.851D+00
 Gap=     0.243 Goal=   None    Shift=    0.000
 RMSDP=1.25D-03 MaxDP=7.73D-02 DE=-3.44D-01 OVMax= 1.64D-01

 Cycle   3  Pass 0  IDiag  1:
 RMSU=  1.13D-03    CP:  9.66D-01  7.61D-01
 E= -1550.76073018039     Delta-E=       -0.457279003589 Rises=F Damp=F
 DIIS: error= 1.13D-02 at cycle   3 NSaved=   3.
 NSaved= 3 IEnMin= 3 EnMin= -1550.76073018039     IErMin= 2 ErrMin= 8.27D-03
 ErrMax= 1.13D-02  0.00D+00 EMaxC= 1.00D-01 BMatC= 1.27D-01 BMatP= 1.02D-01
 IDIUse=2 WtCom= 0.00D+00 WtEn= 1.00D+00
 Coeff-En:   0.000D+00 0.000D+00 0.100D+01
 Coeff:      0.000D+00 0.000D+00 0.100D+01
 Gap=     0.236 Goal=   None    Shift=    0.000
 RMSDP=1.83D-03 MaxDP=1.29D-01 DE=-4.57D-01 OVMax= 2.31D-01

 Cycle   4  Pass 0  IDiag  1:
 RMSU=  1.14D-03    CP:  9.74D-01  1.13D+00 -8.75D-02
 E= -1550.32722623355     Delta-E=        0.433503946837 Rises=F Damp=F
 DIIS: error= 2.77D-02 at cycle   4 NSaved=   4.
 NSaved= 4 IEnMin= 3 EnMin= -1550.76073018039     IErMin= 2 ErrMin= 8.27D-03
 ErrMax= 2.77D-02  0.00D+00 EMaxC= 1.00D-01 BMatC= 6.83D-01 BMatP= 1.02D-01
 IDIUse=2 WtCom= 0.00D+00 WtEn= 1.00D+00
 Coeff-En:   0.000D+00 0.000D+00 0.787D+00 0.213D+00
 Coeff:      0.000D+00 0.000D+00 0.787D+00 0.213D+00
 Gap=     0.221 Goal=   None    Shift=    0.000
 RMSDP=9.91D-04 MaxDP=7.21D-02 DE= 4.34D-01 OVMax= 1.13D-01

 Cycle   5  Pass 0  IDiag  1:
 RMSU=  1.39D-04    CP:  9.71D-01  8.82D-01  4.61D-01  4.90D-01
 E= -1550.82739189093     Delta-E=       -0.500165657371 Rises=F Damp=F
 DIIS: error= 6.88D-03 at cycle   5 NSaved=   5.
 NSaved= 5 IEnMin= 5 EnMin= -1550.82739189093     IErMin= 5 ErrMin= 6.88D-03
 ErrMax= 6.88D-03  0.00D+00 EMaxC= 1.00D-01 BMatC= 4.59D-02 BMatP= 1.02D-01
 IDIUse=3 WtCom= 9.31D-01 WtEn= 6.88D-02
 Coeff-Com: -0.728D-02 0.320D-01 0.273D+00-0.105D+00 0.807D+00
 Coeff-En:   0.000D+00 0.000D+00 0.308D+00 0.000D+00 0.692D+00
 Coeff:     -0.678D-02 0.298D-01 0.275D+00-0.974D-01 0.799D+00
 Gap=     0.218 Goal=   None    Shift=    0.000
 RMSDP=3.34D-04 MaxDP=2.39D-02 DE=-5.00D-01 OVMax= 3.56D-02

 Cycle   6  Pass 0  IDiag  1:
 RMSU=  3.81D-05    CP:  9.69D-01  8.31D-01  6.61D-01  2.99D-01  8.47D-01
 E= -1550.86380057782     Delta-E=       -0.036408686897 Rises=F Damp=F
 DIIS: error= 3.12D-04 at cycle   6 NSaved=   6.
 NSaved= 6 IEnMin= 6 EnMin= -1550.86380057782     IErMin= 6 ErrMin= 3.12D-04
 ErrMax= 3.12D-04  0.00D+00 EMaxC= 1.00D-01 BMatC= 1.19D-04 BMatP= 4.59D-02
 IDIUse=3 WtCom= 9.97D-01 WtEn= 3.12D-03
 Coeff-Com: -0.473D-02 0.140D-01 0.126D+00-0.609D-01 0.429D+00 0.497D+00
 Coeff-En:   0.000D+00 0.000D+00 0.000D+00 0.000D+00 0.000D+00 0.100D+01
 Coeff:     -0.471D-02 0.139D-01 0.126D+00-0.607D-01 0.427D+00 0.499D+00
 Gap=     0.216 Goal=   None    Shift=    0.000
 RMSDP=2.49D-05 MaxDP=1.78D-03 DE=-3.64D-02 OVMax= 3.48D-03

 Cycle   7  Pass 0  IDiag  1:
 RMSU=  1.47D-05    CP:  9.69D-01  8.34D-01  6.56D-01  3.02D-01  8.81D-01
                    CP:  5.51D-01
 E= -1550.86389973815     Delta-E=       -0.000099160323 Rises=F Damp=F
 DIIS: error= 1.41D-04 at cycle   7 NSaved=   7.
 NSaved= 7 IEnMin= 7 EnMin= -1550.86389973815     IErMin= 7 ErrMin= 1.41D-04
 ErrMax= 1.41D-04  0.00D+00 EMaxC= 1.00D-01 BMatC= 1.60D-05 BMatP= 1.19D-04
 IDIUse=3 WtCom= 9.99D-01 WtEn= 1.41D-03
 Coeff-Com: -0.148D-02 0.313D-02 0.421D-01-0.208D-01 0.145D+00 0.295D+00
 Coeff-Com:  0.537D+00
 Coeff-En:   0.000D+00 0.000D+00 0.000D+00 0.000D+00 0.000D+00 0.106D+00
 Coeff-En:   0.894D+00
 Coeff:     -0.147D-02 0.312D-02 0.420D-01-0.207D-01 0.145D+00 0.294D+00
 Coeff:      0.538D+00
 Gap=     0.216 Goal=   None    Shift=    0.000
 RMSDP=8.59D-06 MaxDP=6.78D-04 DE=-9.92D-05 OVMax= 1.15D-03

 Initial convergence to 1.0D-05 achieved.  Increase integral accuracy.
 Cycle   8  Pass 1  IDiag  1:
 E= -1550.86395623994     Delta-E=       -0.000056501793 Rises=F Damp=F
 DIIS: error= 8.64D-05 at cycle   1 NSaved=   1.
 NSaved= 1 IEnMin= 1 EnMin= -1550.86395623994     IErMin= 1 ErrMin= 8.64D-05
 ErrMax= 8.64D-05  0.00D+00 EMaxC= 1.00D-01 BMatC= 7.08D-06 BMatP= 7.08D-06
 IDIUse=1 WtCom= 1.00D+00 WtEn= 0.00D+00
 Coeff-Com:  0.100D+01
 Coeff:      0.100D+01
 Gap=     0.216 Goal=   None    Shift=    0.000
 RMSDP=8.59D-06 MaxDP=6.78D-04 DE=-5.65D-05 OVMax= 7.45D-04

 Cycle   9  Pass 1  IDiag  1:
 RMSU=  5.54D-05    CP:  1.00D+00
 E= -1550.86395496402     Delta-E=        0.000001275916 Rises=F Damp=F
 DIIS: error= 9.22D-05 at cycle   2 NSaved=   2.
 NSaved= 2 IEnMin= 1 EnMin= -1550.86395623994     IErMin= 1 ErrMin= 8.64D-05
 ErrMax= 9.22D-05  0.00D+00 EMaxC= 1.00D-01 BMatC= 9.01D-06 BMatP= 7.08D-06
 IDIUse=1 WtCom= 1.00D+00 WtEn= 0.00D+00
 Coeff-Com:  0.539D+00 0.461D+00
 Coeff:      0.539D+00 0.461D+00
 Gap=     0.216 Goal=   None    Shift=    0.000
 RMSDP=7.12D-06 MaxDP=5.40D-04 DE= 1.28D-06 OVMax= 6.79D-04

 Cycle  10  Pass 1  IDiag  1:
 RMSU=  7.08D-06    CP:  1.00D+00  9.87D-01
 E= -1550.86396088448     Delta-E=       -0.000005920462 Rises=F Damp=F
 DIIS: error= 4.41D-05 at cycle   3 NSaved=   3.
 NSaved= 3 IEnMin= 3 EnMin= -1550.86396088448     IErMin= 3 ErrMin= 4.41D-05
 ErrMax= 4.41D-05  0.00D+00 EMaxC= 1.00D-01 BMatC= 1.99D-06 BMatP= 7.08D-06
 IDIUse=1 WtCom= 1.00D+00 WtEn= 0.00D+00
 Coeff-Com:  0.427D-01 0.316D+00 0.642D+00
 Coeff:      0.427D-01 0.316D+00 0.642D+00
 Gap=     0.216 Goal=   None    Shift=    0.000
 RMSDP=2.59D-06 MaxDP=1.83D-04 DE=-5.92D-06 OVMax= 2.55D-04

 Cycle  11  Pass 1  IDiag  1:
 RMSU=  1.28D-06    CP:  1.00D+00  9.98D-01  6.96D-01
 E= -1550.86396237058     Delta-E=       -0.000001486099 Rises=F Damp=F
 DIIS: error= 1.13D-05 at cycle   4 NSaved=   4.
 NSaved= 4 IEnMin= 4 EnMin= -1550.86396237058     IErMin= 4 ErrMin= 1.13D-05
 ErrMax= 1.13D-05  0.00D+00 EMaxC= 1.00D-01 BMatC= 1.73D-07 BMatP= 1.99D-06
 IDIUse=1 WtCom= 1.00D+00 WtEn= 0.00D+00
 Coeff-Com: -0.309D-02 0.168D+00 0.392D+00 0.443D+00
 Coeff:     -0.309D-02 0.168D+00 0.392D+00 0.443D+00
 Gap=     0.216 Goal=   None    Shift=    0.000
 RMSDP=7.15D-07 MaxDP=4.43D-05 DE=-1.49D-06 OVMax= 6.02D-05

 Cycle  12  Pass 1  IDiag  1:
 RMSU=  1.55D-07    CP:  1.00D+00  9.99D-01  7.04D-01  4.60D-01
 E= -1550.86396252380     Delta-E=       -0.000000153220 Rises=F Damp=F
 DIIS: error= 1.24D-06 at cycle   5 NSaved=   5.
 NSaved= 5 IEnMin= 5 EnMin= -1550.86396252380     IErMin= 5 ErrMin= 1.24D-06
 ErrMax= 1.24D-06  0.00D+00 EMaxC= 1.00D-01 BMatC= 1.57D-09 BMatP= 1.73D-07
 IDIUse=1 WtCom= 1.00D+00 WtEn= 0.00D+00
 Coeff-Com: -0.220D-02 0.984D-01 0.230D+00 0.266D+00 0.408D+00
 Coeff:     -0.220D-02 0.984D-01 0.230D+00 0.266D+00 0.408D+00
 Gap=     0.216 Goal=   None    Shift=    0.000
 RMSDP=7.40D-08 MaxDP=4.15D-06 DE=-1.53D-07 OVMax= 6.80D-06

 Cycle  13  Pass 1  IDiag  1:
 RMSU=  5.35D-08    CP:  1.00D+00  9.99D-01  7.03D-01  4.63D-01  6.75D-01
 E= -1550.86396252518     Delta-E=       -0.000000001378 Rises=F Damp=F
 DIIS: error= 1.95D-07 at cycle   6 NSaved=   6.
 NSaved= 6 IEnMin= 6 EnMin= -1550.86396252518     IErMin= 6 ErrMin= 1.95D-07
 ErrMax= 1.95D-07  0.00D+00 EMaxC= 1.00D-01 BMatC= 5.51D-11 BMatP= 1.57D-09
 IDIUse=1 WtCom= 1.00D+00 WtEn= 0.00D+00
 Coeff-Com: -0.100D-02 0.435D-01 0.102D+00 0.118D+00 0.219D+00 0.519D+00
 Coeff:     -0.100D-02 0.435D-01 0.102D+00 0.118D+00 0.219D+00 0.519D+00
 Gap=     0.216 Goal=   None    Shift=    0.000
 RMSDP=1.68D-08 MaxDP=1.54D-06 DE=-1.38D-09 OVMax= 1.99D-06

 Cycle  14  Pass 1  IDiag  1:
 RMSU=  1.47D-08    CP:  1.00D+00  9.99D-01  7.03D-01  4.62D-01  6.92D-01
                    CP:  8.62D-01
 E= -1550.86396252523     Delta-E=       -0.000000000047 Rises=F Damp=F
 DIIS: error= 1.02D-07 at cycle   7 NSaved=   7.
 NSaved= 7 IEnMin= 7 EnMin= -1550.86396252523     IErMin= 7 ErrMin= 1.02D-07
 ErrMax= 1.02D-07  0.00D+00 EMaxC= 1.00D-01 BMatC= 1.03D-11 BMatP= 5.51D-11
 IDIUse=1 WtCom= 1.00D+00 WtEn= 0.00D+00
 Coeff-Com: -0.143D-03 0.547D-02 0.127D-01 0.147D-01 0.453D-01 0.317D+00
 Coeff-Com:  0.605D+00
 Coeff:     -0.143D-03 0.547D-02 0.127D-01 0.147D-01 0.453D-01 0.317D+00
 Coeff:      0.605D+00
 Gap=     0.216 Goal=   None    Shift=    0.000
 RMSDP=6.34D-09 MaxDP=5.12D-07 DE=-4.73D-11 OVMax= 6.30D-07

 SCF Done:  E(RB3LYP) =  -1550.86396253     A.U. after   14 cycles
            NFock= 14  Conv=0.63D-08     -V/T= 2.0086
 KE= 1.537617654232D+03 PE=-1.085191107701D+04 EE= 4.141290649882D+03
 Leave Link  502 at Fri Nov  4 19:03:11 2022, MaxMem=   805306368 cpu:             728.0 elap:             105.0
 (Enter /home/wykgroup/appl/g16/l508.exe)
 QCSCF skips out because SCF is already converged.
 Leave Link  508 at Fri Nov  4 19:03:11 2022, MaxMem=   805306368 cpu:               0.0 elap:               0.0
 (Enter /home/wykgroup/appl/g16/l601.exe)
 Copying SCF densities to generalized density rwf, IOpCl= 0 IROHF=0.

 **********************************************************************

            Population analysis using the SCF Density.

 **********************************************************************

 Orbital symmetries:
       Occupied  (A) (A) (A) (A) (A) (A) (A) (A) (A) (A) (A) (A)
                 (A) (A) (A) (A) (A) (A) (A) (A) (A) (A) (A) (A)
                 (A) (A) (A) (A) (A) (A) (A) (A) (A) (A) (A) (A)
                 (A) (A) (A) (A) (A) (A) (A) (A) (A) (A) (A) (A)
                 (A) (A) (A) (A) (A) (A) (A) (A) (A) (A) (A) (A)
                 (A) (A) (A) (A) (A) (A) (A) (A) (A) (A) (A) (A)
                 (A) (A) (A) (A) (A) (A) (A) (A) (A) (A) (A) (A)
                 (A) (A) (A) (A) (A) (A) (A) (A) (A) (A) (A) (A)
                 (A) (A) (A) (A) (A) (A) (A) (A) (A) (A) (A) (A)
                 (A) (A) (A) (A) (A) (A) (A) (A) (A) (A) (A) (A)
                 (A) (A) (A) (A) (A) (A)
       Virtual   (A) (A) (A) (A) (A) (A) (A) (A) (A) (A) (A) (A)
                 (A) (A) (A) (A) (A) (A) (A) (A) (A) (A) (A) (A)
                 (A) (A) (A) (A) (A) (A) (A) (A) (A) (A) (A) (A)
                 (A) (A) (A) (A) (A) (A) (A) (A) (A) (A) (A) (A)
                 (A) (A) (A) (A) (A) (A) (A) (A) (A) (A) (A) (A)
                 (A) (A) (A) (A) (A) (A) (A) (A) (A) (A) (A) (A)
                 (A) (A) (A) (A) (A) (A) (A) (A) (A) (A) (A) (A)
                 (A) (A) (A) (A) (A) (A) (A) (A) (A) (A) (A) (A)
                 (A) (A) (A) (A) (A) (A) (A) (A) (A) (A) (A) (A)
                 (A) (A) (A) (A) (A) (A) (A) (A) (A) (A) (A) (A)
                 (A) (A) (A) (A) (A) (A) (A) (A) (A) (A) (A) (A)
                 (A) (A) (A) (A) (A) (A) (A) (A) (A) (A) (A) (A)
                 (A) (A) (A) (A) (A) (A) (A) (A) (A) (A) (A) (A)
                 (A) (A) (A) (A) (A) (A) (A) (A) (A) (A) (A) (A)
                 (A) (A) (A) (A) (A) (A) (A) (A) (A) (A) (A) (A)
                 (A) (A) (A) (A) (A) (A) (A) (A) (A) (A) (A) (A)
                 (A) (A) (A) (A) (A) (A) (A) (A) (A) (A) (A) (A)
                 (A) (A) (A) (A) (A) (A) (A) (A) (A) (A) (A) (A)
                 (A) (A) (A) (A) (A) (A) (A) (A) (A) (A) (A) (A)
                 (A) (A) (A) (A) (A) (A) (A) (A) (A) (A) (A) (A)
                 (A) (A) (A) (A) (A) (A) (A) (A) (A) (A) (A) (A)
                 (A) (A) (A) (A) (A) (A) (A) (A) (A) (A) (A) (A)
                 (A) (A) (A) (A) (A) (A) (A) (A) (A) (A) (A) (A)
                 (A) (A) (A) (A) (A) (A) (A) (A) (A) (A) (A) (A)
                 (A) (A) (A) (A) (A) (A) (A) (A) (A) (A) (A) (A)
                 (A) (A) (A) (A) (A) (A) (A) (A) (A) (A) (A) (A)
                 (A) (A) (A) (A) (A) (A) (A) (A) (A) (A) (A) (A)
                 (A) (A) (A) (A) (A) (A) (A) (A) (A) (A) (A) (A)
                 (A) (A) (A) (A) (A) (A) (A) (A) (A) (A) (A) (A)
                 (A) (A) (A) (A) (A) (A) (A) (A) (A) (A) (A) (A)
                 (A) (A) (A) (A) (A) (A) (A) (A) (A) (A) (A) (A)
                 (A) (A) (A) (A) (A) (A) (A) (A) (A) (A) (A) (A)
                 (A) (A) (A) (A) (A) (A) (A) (A) (A) (A) (A) (A)
                 (A) (A) (A) (A) (A) (A) (A) (A) (A) (A) (A) (A)
                 (A) (A) (A) (A) (A) (A) (A) (A) (A) (A) (A) (A)
                 (A) (A) (A) (A) (A) (A) (A) (A) (A) (A) (A) (A)
                 (A) (A) (A) (A) (A) (A) (A) (A) (A) (A) (A) (A)
                 (A) (A) (A) (A) (A) (A) (A) (A) (A) (A) (A) (A)
                 (A) (A) (A) (A) (A)
 The electronic state is 1-A.
 Alpha  occ. eigenvalues --  -19.17198 -19.13048 -19.12090 -19.10331 -14.36859
 Alpha  occ. eigenvalues --  -14.36232 -14.34546 -10.31561 -10.30178 -10.28825
 Alpha  occ. eigenvalues --  -10.24262 -10.23352 -10.23125 -10.19848 -10.19839
 Alpha  occ. eigenvalues --  -10.19576 -10.19549 -10.19023 -10.18929 -10.18584
 Alpha  occ. eigenvalues --  -10.18561 -10.18471 -10.18402 -10.18208 -10.18153
 Alpha  occ. eigenvalues --  -10.18089 -10.17940 -10.17931 -10.17845 -10.17671
 Alpha  occ. eigenvalues --  -10.17209 -10.17140 -10.17023 -10.16991 -10.16915
 Alpha  occ. eigenvalues --   -1.09446  -1.05955  -1.04715  -1.00110  -0.93560
 Alpha  occ. eigenvalues --   -0.92573  -0.92474  -0.87260  -0.85412  -0.84697
 Alpha  occ. eigenvalues --   -0.80484  -0.79056  -0.78765  -0.76471  -0.75522
 Alpha  occ. eigenvalues --   -0.74098  -0.73276  -0.72825  -0.70704  -0.68790
 Alpha  occ. eigenvalues --   -0.68362  -0.66749  -0.64976  -0.61539  -0.60285
 Alpha  occ. eigenvalues --   -0.59593  -0.59511  -0.58999  -0.58168  -0.57840
 Alpha  occ. eigenvalues --   -0.57558  -0.57077  -0.56341  -0.54089  -0.51390
 Alpha  occ. eigenvalues --   -0.50811  -0.50641  -0.50183  -0.49749  -0.48011
 Alpha  occ. eigenvalues --   -0.47132  -0.46976  -0.46638  -0.46301  -0.45616
 Alpha  occ. eigenvalues --   -0.44994  -0.44353  -0.44165  -0.43984  -0.43114
 Alpha  occ. eigenvalues --   -0.42871  -0.42791  -0.42179  -0.41825  -0.41752
 Alpha  occ. eigenvalues --   -0.41168  -0.41052  -0.40835  -0.40788  -0.40533
 Alpha  occ. eigenvalues --   -0.40032  -0.39631  -0.39037  -0.38815  -0.38314
 Alpha  occ. eigenvalues --   -0.37438  -0.37034  -0.36158  -0.35963  -0.35112
 Alpha  occ. eigenvalues --   -0.34878  -0.34280  -0.34195  -0.33733  -0.33305
 Alpha  occ. eigenvalues --   -0.32952  -0.32763  -0.32666  -0.28820  -0.28363
 Alpha  occ. eigenvalues --   -0.27435  -0.26856  -0.26460  -0.25753  -0.24931
 Alpha  occ. eigenvalues --   -0.24526  -0.24301  -0.24136  -0.24035  -0.23353
 Alpha  occ. eigenvalues --   -0.22406
 Alpha virt. eigenvalues --   -0.00785  -0.00308  -0.00090   0.00749   0.01014
 Alpha virt. eigenvalues --    0.01665   0.01731   0.03516   0.07013   0.07275
 Alpha virt. eigenvalues --    0.08676   0.09574   0.09753   0.10017   0.10964
 Alpha virt. eigenvalues --    0.11126   0.12013   0.12624   0.13156   0.13333
 Alpha virt. eigenvalues --    0.13869   0.14152   0.14595   0.14837   0.15257
 Alpha virt. eigenvalues --    0.15555   0.15806   0.16294   0.16580   0.17154
 Alpha virt. eigenvalues --    0.17365   0.17634   0.17966   0.18263   0.18639
 Alpha virt. eigenvalues --    0.18785   0.19111   0.19547   0.20015   0.20292
 Alpha virt. eigenvalues --    0.20690   0.20957   0.21533   0.21987   0.22582
 Alpha virt. eigenvalues --    0.22812   0.24009   0.24115   0.25054   0.25308
 Alpha virt. eigenvalues --    0.25860   0.26421   0.26801   0.27276   0.27983
 Alpha virt. eigenvalues --    0.30469   0.31591   0.32434   0.32694   0.33032
 Alpha virt. eigenvalues --    0.33602   0.34195   0.34389   0.35259   0.35499
 Alpha virt. eigenvalues --    0.35662   0.35997   0.36274   0.36507   0.38179
 Alpha virt. eigenvalues --    0.38676   0.39586   0.41181   0.44249   0.45142
 Alpha virt. eigenvalues --    0.46389   0.46725   0.46995   0.49023   0.49903
 Alpha virt. eigenvalues --    0.50426   0.50724   0.50872   0.51241   0.52961
 Alpha virt. eigenvalues --    0.53436   0.53833   0.54155   0.54433   0.54730
 Alpha virt. eigenvalues --    0.54998   0.56117   0.56320   0.56655   0.56887
 Alpha virt. eigenvalues --    0.57032   0.57579   0.57793   0.58536   0.59102
 Alpha virt. eigenvalues --    0.59365   0.59646   0.59885   0.60342   0.60556
 Alpha virt. eigenvalues --    0.61073   0.61293   0.61641   0.62134   0.62313
 Alpha virt. eigenvalues --    0.62596   0.62755   0.62989   0.63346   0.64050
 Alpha virt. eigenvalues --    0.64153   0.64632   0.65488   0.65748   0.66221
 Alpha virt. eigenvalues --    0.66352   0.67110   0.67488   0.68518   0.68623
 Alpha virt. eigenvalues --    0.68999   0.69743   0.69999   0.70506   0.71139
 Alpha virt. eigenvalues --    0.71745   0.72690   0.73868   0.73929   0.74159
 Alpha virt. eigenvalues --    0.75362   0.75787   0.76463   0.76515   0.76915
 Alpha virt. eigenvalues --    0.78755   0.79004   0.79513   0.80235   0.80831
 Alpha virt. eigenvalues --    0.81496   0.82225   0.82838   0.83019   0.83233
 Alpha virt. eigenvalues --    0.83850   0.84101   0.84381   0.84639   0.84827
 Alpha virt. eigenvalues --    0.84949   0.85038   0.85898   0.86313   0.86507
 Alpha virt. eigenvalues --    0.87498   0.87565   0.87931   0.88518   0.88961
 Alpha virt. eigenvalues --    0.89288   0.89438   0.89926   0.90418   0.90625
 Alpha virt. eigenvalues --    0.91138   0.91536   0.91843   0.92238   0.92724
 Alpha virt. eigenvalues --    0.92982   0.93943   0.94145   0.94487   0.95110
 Alpha virt. eigenvalues --    0.96127   0.96960   0.97658   0.97840   0.98149
 Alpha virt. eigenvalues --    0.98384   0.99201   0.99638   1.00567   1.01535
 Alpha virt. eigenvalues --    1.02153   1.02427   1.03388   1.03755   1.03892
 Alpha virt. eigenvalues --    1.04937   1.05466   1.07955   1.08158   1.09009
 Alpha virt. eigenvalues --    1.09953   1.10380   1.11757   1.12041   1.12149
 Alpha virt. eigenvalues --    1.13326   1.13410   1.14675   1.15561   1.16278
 Alpha virt. eigenvalues --    1.17016   1.18850   1.19292   1.19941   1.20733
 Alpha virt. eigenvalues --    1.21186   1.21458   1.22761   1.23868   1.24297
 Alpha virt. eigenvalues --    1.25181   1.25462   1.26482   1.28258   1.28595
 Alpha virt. eigenvalues --    1.29582   1.30434   1.31550   1.33078   1.33671
 Alpha virt. eigenvalues --    1.34342   1.35415   1.37365   1.38133   1.38809
 Alpha virt. eigenvalues --    1.39736   1.40486   1.41336   1.41943   1.42651
 Alpha virt. eigenvalues --    1.43165   1.44099   1.44839   1.45635   1.46191
 Alpha virt. eigenvalues --    1.46857   1.47029   1.48471   1.48957   1.49153
 Alpha virt. eigenvalues --    1.49435   1.49693   1.49953   1.50468   1.51208
 Alpha virt. eigenvalues --    1.51534   1.51948   1.52551   1.53031   1.54026
 Alpha virt. eigenvalues --    1.54699   1.55192   1.58196   1.58440   1.61484
 Alpha virt. eigenvalues --    1.64384   1.66515   1.67416   1.69740   1.72230
 Alpha virt. eigenvalues --    1.74105   1.74301   1.75093   1.75737   1.76942
 Alpha virt. eigenvalues --    1.77581   1.78317   1.79063   1.80022   1.80983
 Alpha virt. eigenvalues --    1.81485   1.82102   1.82984   1.83266   1.84360
 Alpha virt. eigenvalues --    1.84799   1.85520   1.86432   1.86994   1.87255
 Alpha virt. eigenvalues --    1.88296   1.88663   1.89159   1.90034   1.90674
 Alpha virt. eigenvalues --    1.91364   1.91652   1.92158   1.93090   1.93398
 Alpha virt. eigenvalues --    1.93948   1.94515   1.94725   1.95301   1.95914
 Alpha virt. eigenvalues --    1.96354   1.97259   1.98129   1.98831   1.99154
 Alpha virt. eigenvalues --    2.00546   2.01121   2.02045   2.02904   2.03682
 Alpha virt. eigenvalues --    2.03996   2.04964   2.05957   2.06957   2.07630
 Alpha virt. eigenvalues --    2.08159   2.08744   2.09217   2.09808   2.10449
 Alpha virt. eigenvalues --    2.11057   2.11791   2.12816   2.14147   2.15632
 Alpha virt. eigenvalues --    2.16549   2.17047   2.17751   2.18104   2.18510
 Alpha virt. eigenvalues --    2.19155   2.19289   2.20470   2.21124   2.21593
 Alpha virt. eigenvalues --    2.22480   2.23421   2.24785   2.26136   2.26468
 Alpha virt. eigenvalues --    2.27953   2.28172   2.29405   2.29758   2.30383
 Alpha virt. eigenvalues --    2.30937   2.31394   2.32471   2.33030   2.33227
 Alpha virt. eigenvalues --    2.34100   2.34701   2.35323   2.36651   2.37274
 Alpha virt. eigenvalues --    2.37923   2.38938   2.39345   2.40100   2.41444
 Alpha virt. eigenvalues --    2.42259   2.43053   2.43681   2.46969   2.50213
 Alpha virt. eigenvalues --    2.50229   2.50706   2.53572   2.54589   2.55218
 Alpha virt. eigenvalues --    2.58481   2.59029   2.60352   2.61303   2.61785
 Alpha virt. eigenvalues --    2.62965   2.64652   2.65081   2.66637   2.68423
 Alpha virt. eigenvalues --    2.68681   2.69320   2.69591   2.70278   2.72156
 Alpha virt. eigenvalues --    2.73815   2.74362   2.74767   2.75418   2.76266
 Alpha virt. eigenvalues --    2.76551   2.76955   2.78154   2.79169   2.79562
 Alpha virt. eigenvalues --    2.79774   2.80538   2.81065   2.81180   2.82942
 Alpha virt. eigenvalues --    2.83174   2.86349   2.87594   2.89088   2.91511
 Alpha virt. eigenvalues --    2.95175   2.99195   2.99654   3.02828   3.03702
 Alpha virt. eigenvalues --    3.04834   3.07804   3.08642   3.10910   3.13118
 Alpha virt. eigenvalues --    3.19238   3.23957   3.26947   3.44663   3.45698
 Alpha virt. eigenvalues --    3.47145   3.84695   4.03999   4.04835   4.07727
 Alpha virt. eigenvalues --    4.10291   4.11165   4.11979   4.14180   4.15109
 Alpha virt. eigenvalues --    4.15313   4.16030   4.16721   4.18763   4.22557
 Alpha virt. eigenvalues --    4.22890   4.25575   4.31179   4.32464   4.33909
 Alpha virt. eigenvalues --    4.34459   4.36171   4.39510   4.41667   4.41954
 Alpha virt. eigenvalues --    4.43100   4.45020   4.46151   4.51198   4.52140
 Alpha virt. eigenvalues --    4.52977   4.66169   4.70902   4.73473   4.77057
 Alpha virt. eigenvalues --    4.77811
          Condensed to atoms (all electrons):
 Mulliken charges:
               1
     1  C   -0.550101
     2  C    0.142818
     3  C   -0.195839
     4  C   -0.121603
     5  C   -0.182117
     6  C    0.111080
     7  C   -0.555096
     8  C    0.015229
     9  C   -0.365610
    10  C   -0.034175
    11  N   -0.624565
    12  C    0.635360
    13  O   -0.538937
    14  C   -0.065265
    15  C   -0.356540
    16  C    0.181378
    17  C   -0.159256
    18  C   -0.125524
    19  C   -0.121763
    20  C   -0.114889
    21  C   -0.180703
    22  N   -0.623399
    23  C    0.819081
    24  O   -0.520620
    25  O   -0.490345
    26  C   -0.130552
    27  C    0.145786
    28  C   -0.148702
    29  C   -0.128479
    30  C   -0.128045
    31  C   -0.135536
    32  C   -0.164411
    33  C    0.598441
    34  N   -0.744589
    35  O   -0.524030
    36  H    0.168156
    37  H    0.174865
    38  H    0.156189
    39  H    0.120965
    40  H    0.128064
    41  H    0.122179
    42  H    0.200806
    43  H    0.160455
    44  H    0.161049
    45  H    0.156528
    46  H    0.191073
    47  H    0.181166
    48  H    0.353115
    49  H    0.186507
    50  H    0.151752
    51  H    0.146121
    52  H    0.113931
    53  H    0.120982
    54  H    0.118076
    55  H    0.129712
    56  H    0.115911
    57  H    0.345143
    58  H    0.167686
    59  H    0.151702
    60  H    0.150118
    61  H    0.127088
    62  H    0.125557
    63  H    0.125901
    64  H    0.126802
    65  H    0.359003
    66  H    0.344917
 Sum of Mulliken charges =  -0.00000
 Mulliken charges with hydrogens summed into heavy atoms:
               1
     1  C   -0.050892
     2  C    0.142818
     3  C   -0.074874
     4  C    0.006460
     5  C   -0.059938
     6  C    0.111080
     7  C   -0.032785
     8  C    0.015229
     9  C   -0.018009
    10  C    0.146991
    11  N   -0.271450
    12  C    0.635360
    13  O   -0.538937
    14  C    0.121241
    15  C   -0.058667
    16  C    0.181378
    17  C   -0.045325
    18  C   -0.004542
    19  C   -0.003686
    20  C    0.014823
    21  C   -0.064792
    22  N   -0.278256
    23  C    0.819081
    24  O   -0.520620
    25  O   -0.490345
    26  C    0.188835
    27  C    0.145786
    28  C    0.001415
    29  C   -0.001391
    30  C   -0.002488
    31  C   -0.009634
    32  C   -0.037608
    33  C    0.598441
    34  N   -0.040670
    35  O   -0.524030
 Electronic spatial extent (au):  <R**2>=          24273.2055
 Charge=             -0.0000 electrons
 Dipole moment (field-independent basis, Debye):
    X=              3.6642    Y=             -0.4825    Z=             -0.6713  Tot=              3.7563
[...]
                 (A) (A) (A) (A) (A) (A) (A) (A) (A) (A) (A) (A)
                 (A) (A) (A) (A) (A) (A) (A) (A) (A) (A) (A) (A)
                 (A) (A) (A) (A) (A) (A) (A) (A) (A) (A) (A) (A)
                 (A) (A) (A) (A) (A) (A) (A) (A) (A) (A) (A) (A)
                 (A) (A) (A) (A) (A) (A) (A) (A) (A) (A) (A) (A)
                 (A) (A) (A) (A) (A) (A)
       Virtual   (A) (A) (A) (A) (A) (A) (A) (A) (A) (A) (A) (A)
                 (A) (A) (A) (A) (A) (A) (A) (A) (A) (A) (A) (A)
                 (A) (A) (A) (A) (A) (A) (A) (A) (A) (A) (A) (A)
                 (A) (A) (A) (A) (A) (A) (A) (A) (A) (A) (A) (A)
                 (A) (A) (A) (A) (A) (A) (A) (A) (A) (A) (A) (A)
                 (A) (A) (A) (A) (A) (A) (A) (A) (A) (A) (A) (A)
                 (A) (A) (A) (A) (A) (A) (A) (A) (A) (A) (A) (A)
                 (A) (A) (A) (A) (A) (A) (A) (A) (A) (A) (A) (A)
                 (A) (A) (A) (A) (A) (A) (A) (A) (A) (A) (A) (A)
                 (A) (A) (A) (A) (A) (A) (A) (A) (A) (A) (A) (A)
                 (A) (A) (A) (A) (A) (A) (A) (A) (A) (A) (A) (A)
                 (A) (A) (A) (A) (A) (A) (A) (A) (A) (A) (A) (A)
                 (A) (A) (A) (A) (A) (A) (A) (A) (A) (A) (A) (A)
                 (A) (A) (A) (A) (A) (A) (A) (A) (A) (A) (A) (A)
                 (A) (A) (A) (A) (A) (A) (A) (A) (A) (A) (A) (A)
                 (A) (A) (A) (A) (A) (A) (A) (A) (A) (A) (A) (A)
                 (A) (A) (A) (A) (A) (A) (A) (A) (A) (A) (A) (A)
                 (A) (A) (A) (A) (A) (A) (A) (A) (A) (A) (A) (A)
                 (A) (A) (A) (A) (A) (A) (A) (A) (A) (A) (A) (A)
                 (A) (A) (A) (A) (A) (A) (A) (A) (A) (A) (A) (A)
                 (A) (A) (A) (A) (A) (A) (A) (A) (A) (A) (A) (A)
                 (A) (A) (A) (A) (A) (A) (A) (A) (A) (A) (A) (A)
                 (A) (A) (A) (A) (A) (A) (A) (A) (A) (A) (A) (A)
                 (A) (A) (A) (A) (A) (A) (A) (A) (A) (A) (A) (A)
                 (A) (A) (A) (A) (A) (A) (A) (A) (A) (A) (A) (A)
                 (A) (A) (A) (A) (A) (A) (A) (A) (A) (A) (A) (A)
                 (A) (A) (A) (A) (A) (A) (A) (A) (A) (A) (A) (A)
                 (A) (A) (A) (A) (A) (A) (A) (A) (A) (A) (A) (A)
                 (A) (A) (A) (A) (A) (A) (A) (A) (A) (A) (A) (A)
                 (A) (A) (A) (A) (A) (A) (A) (A) (A) (A) (A) (A)
                 (A) (A) (A) (A) (A) (A) (A) (A) (A) (A) (A) (A)
                 (A) (A) (A) (A) (A) (A) (A) (A) (A) (A) (A) (A)
                 (A) (A) (A) (A) (A) (A) (A) (A) (A) (A) (A) (A)
                 (A) (A) (A) (A) (A) (A) (A) (A) (A) (A) (A) (A)
                 (A) (A) (A) (A) (A) (A) (A) (A) (A) (A) (A) (A)
                 (A) (A) (A) (A) (A) (A) (A) (A) (A) (A) (A) (A)
                 (A) (A) (A) (A) (A) (A) (A) (A) (A) (A) (A) (A)
                 (A) (A) (A) (A) (A) (A) (A) (A) (A) (A) (A) (A)
                 (A) (A) (A) (A) (A)
 The electronic state is 1-A.
 Alpha  occ. eigenvalues --  -19.17444 -19.13451 -19.12520 -19.11019 -14.37242
 Alpha  occ. eigenvalues --  -14.36733 -14.35003 -10.32260 -10.30763 -10.29446
 Alpha  occ. eigenvalues --  -10.24837 -10.23606 -10.23444 -10.20615 -10.20540
 Alpha  occ. eigenvalues --  -10.20403 -10.20152 -10.19510 -10.19489 -10.19195
 Alpha  occ. eigenvalues --  -10.19152 -10.19113 -10.18981 -10.18854 -10.18522
 Alpha  occ. eigenvalues --  -10.18497 -10.18435 -10.18282 -10.18251 -10.18238
 Alpha  occ. eigenvalues --  -10.18173 -10.18143 -10.18118 -10.17957 -10.17871
 Alpha  occ. eigenvalues --   -1.08872  -1.05455  -1.04153  -0.99761  -0.93355
 Alpha  occ. eigenvalues --   -0.92279  -0.92214  -0.86778  -0.84813  -0.84625
 Alpha  occ. eigenvalues --   -0.80125  -0.78722  -0.78544  -0.76322  -0.75417
 Alpha  occ. eigenvalues --   -0.73668  -0.73492  -0.72806  -0.70619  -0.68692
 Alpha  occ. eigenvalues --   -0.68323  -0.66746  -0.64960  -0.61319  -0.59882
 Alpha  occ. eigenvalues --   -0.59726  -0.59507  -0.58851  -0.58103  -0.57662
 Alpha  occ. eigenvalues --   -0.57447  -0.57233  -0.56155  -0.54061  -0.51016
 Alpha  occ. eigenvalues --   -0.50709  -0.50578  -0.50282  -0.49657  -0.47906
 Alpha  occ. eigenvalues --   -0.47278  -0.46767  -0.46396  -0.45970  -0.45793
 Alpha  occ. eigenvalues --   -0.45158  -0.44434  -0.44233  -0.44038  -0.43180
 Alpha  occ. eigenvalues --   -0.42790  -0.42570  -0.41936  -0.41788  -0.41405
 Alpha  occ. eigenvalues --   -0.41205  -0.41075  -0.40943  -0.40627  -0.40335
 Alpha  occ. eigenvalues --   -0.40156  -0.39696  -0.39028  -0.38623  -0.38453
 Alpha  occ. eigenvalues --   -0.37474  -0.37070  -0.36106  -0.36018  -0.34856
 Alpha  occ. eigenvalues --   -0.34706  -0.34553  -0.34254  -0.33887  -0.33561
 Alpha  occ. eigenvalues --   -0.33315  -0.33141  -0.32965  -0.28975  -0.28388
 Alpha  occ. eigenvalues --   -0.27622  -0.27067  -0.26730  -0.26133  -0.25148
 Alpha  occ. eigenvalues --   -0.24437  -0.24409  -0.24336  -0.24101  -0.23821
 Alpha  occ. eigenvalues --   -0.23160
 Alpha virt. eigenvalues --   -0.01410  -0.00698  -0.00258   0.00067   0.00565
 Alpha virt. eigenvalues --    0.00890   0.00903   0.02419   0.06122   0.06972
 Alpha virt. eigenvalues --    0.08647   0.09212   0.09770   0.10055   0.10527
 Alpha virt. eigenvalues --    0.10782   0.11726   0.12232   0.12922   0.12954
 Alpha virt. eigenvalues --    0.13232   0.13796   0.14191   0.14277   0.14808
 Alpha virt. eigenvalues --    0.15367   0.15703   0.16046   0.16341   0.16725
 Alpha virt. eigenvalues --    0.17109   0.17215   0.17408   0.17580   0.17962
 Alpha virt. eigenvalues --    0.18029   0.18786   0.18948   0.19305   0.19771
 Alpha virt. eigenvalues --    0.19893   0.20492   0.20726   0.20999   0.21877
 Alpha virt. eigenvalues --    0.22206   0.23154   0.23717   0.24328   0.24866
 Alpha virt. eigenvalues --    0.24951   0.25488   0.25692   0.26900   0.27463
 Alpha virt. eigenvalues --    0.29219   0.31162   0.31430   0.32100   0.32448
 Alpha virt. eigenvalues --    0.32759   0.33349   0.33506   0.33918   0.34445
 Alpha virt. eigenvalues --    0.34857   0.35110   0.35304   0.35725   0.37419
 Alpha virt. eigenvalues --    0.37864   0.38331   0.41210   0.43418   0.46073
 Alpha virt. eigenvalues --    0.46537   0.46721   0.47935   0.48863   0.49510
 Alpha virt. eigenvalues --    0.50597   0.50836   0.51037   0.52189   0.52606
 Alpha virt. eigenvalues --    0.53278   0.53661   0.54037   0.54239   0.54537
 Alpha virt. eigenvalues --    0.55446   0.55593   0.55747   0.55830   0.56533
 Alpha virt. eigenvalues --    0.56848   0.57158   0.57314   0.57479   0.57937
 Alpha virt. eigenvalues --    0.58386   0.58501   0.59143   0.59600   0.60061
 Alpha virt. eigenvalues --    0.60257   0.60729   0.60879   0.61139   0.61821
 Alpha virt. eigenvalues --    0.61874   0.62184   0.62242   0.62501   0.62616
 Alpha virt. eigenvalues --    0.63200   0.63618   0.64261   0.64606   0.64764
 Alpha virt. eigenvalues --    0.65070   0.65638   0.66767   0.67029   0.67292
 Alpha virt. eigenvalues --    0.67621   0.68267   0.68362   0.68829   0.69667
 Alpha virt. eigenvalues --    0.70052   0.71018   0.71850   0.72357   0.72809
 Alpha virt. eigenvalues --    0.73583   0.74485   0.74923   0.75476   0.76025
 Alpha virt. eigenvalues --    0.76789   0.77758   0.78226   0.78323   0.79511
 Alpha virt. eigenvalues --    0.80124   0.80291   0.81557   0.82019   0.82212
 Alpha virt. eigenvalues --    0.82495   0.82958   0.83586   0.83644   0.84012
 Alpha virt. eigenvalues --    0.84211   0.84470   0.84651   0.85223   0.85623
 Alpha virt. eigenvalues --    0.85769   0.86222   0.86740   0.87306   0.88268
 Alpha virt. eigenvalues --    0.88524   0.89084   0.89396   0.89637   0.90040
 Alpha virt. eigenvalues --    0.90251   0.90332   0.91539   0.91824   0.92102
 Alpha virt. eigenvalues --    0.92405   0.92818   0.93353   0.93493   0.94509
 Alpha virt. eigenvalues --    0.95177   0.95329   0.95733   0.96165   0.96584
 Alpha virt. eigenvalues --    0.97554   0.97918   0.98335   0.99256   0.99911
 Alpha virt. eigenvalues --    1.00106   1.00951   1.01332   1.01763   1.02802
 Alpha virt. eigenvalues --    1.03320   1.03877   1.04328   1.06662   1.07025
 Alpha virt. eigenvalues --    1.09362   1.09809   1.10541   1.11103   1.11608
 Alpha virt. eigenvalues --    1.11932   1.12283   1.13127   1.13965   1.14710
 Alpha virt. eigenvalues --    1.14774   1.15986   1.17559   1.17629   1.18426
 Alpha virt. eigenvalues --    1.19246   1.19756   1.19859   1.21375   1.22301
 Alpha virt. eigenvalues --    1.24744   1.25243   1.26278   1.26557   1.27122
 Alpha virt. eigenvalues --    1.27369   1.28861   1.29360   1.31860   1.32254
 Alpha virt. eigenvalues --    1.32905   1.33477   1.34957   1.37900   1.38061
 Alpha virt. eigenvalues --    1.38807   1.39735   1.40149   1.41517   1.42325
 Alpha virt. eigenvalues --    1.43036   1.43188   1.44007   1.44876   1.45092
 Alpha virt. eigenvalues --    1.45949   1.46773   1.47789   1.48073   1.48756
 Alpha virt. eigenvalues --    1.48896   1.49097   1.49194   1.49869   1.50230
 Alpha virt. eigenvalues --    1.51031   1.51366   1.51967   1.52293   1.52727
 Alpha virt. eigenvalues --    1.53273   1.54259   1.56577   1.57046   1.59588
 Alpha virt. eigenvalues --    1.63983   1.65238   1.66713   1.67143   1.70436
 Alpha virt. eigenvalues --    1.71864   1.73615   1.74088   1.74951   1.75654
 Alpha virt. eigenvalues --    1.76177   1.77357   1.78057   1.78616   1.79041
 Alpha virt. eigenvalues --    1.79750   1.80487   1.80770   1.81275   1.82105
 Alpha virt. eigenvalues --    1.82806   1.83991   1.84738   1.85170   1.86071
 Alpha virt. eigenvalues --    1.86354   1.86864   1.87618   1.87994   1.88587
 Alpha virt. eigenvalues --    1.89737   1.90093   1.90476   1.90667   1.91302
 Alpha virt. eigenvalues --    1.91576   1.92045   1.93034   1.93226   1.94101
 Alpha virt. eigenvalues --    1.95059   1.95284   1.96208   1.96769   1.97014
 Alpha virt. eigenvalues --    1.98308   1.98852   1.99790   1.99985   2.01771
 Alpha virt. eigenvalues --    2.02346   2.03015   2.03487   2.04346   2.04891
 Alpha virt. eigenvalues --    2.05871   2.06131   2.06802   2.07818   2.08390
 Alpha virt. eigenvalues --    2.08497   2.10274   2.11573   2.12084   2.13788
 Alpha virt. eigenvalues --    2.15027   2.15194   2.15579   2.15852   2.16327
 Alpha virt. eigenvalues --    2.16619   2.17509   2.17928   2.18654   2.19070
 Alpha virt. eigenvalues --    2.19812   2.21391   2.22308   2.23631   2.24984
 Alpha virt. eigenvalues --    2.25319   2.26036   2.26810   2.28019   2.28085
 Alpha virt. eigenvalues --    2.29104   2.30023   2.30557   2.31527   2.31618
 Alpha virt. eigenvalues --    2.31924   2.32754   2.33473   2.35246   2.35616
 Alpha virt. eigenvalues --    2.36618   2.37191   2.37601   2.38267   2.38687
 Alpha virt. eigenvalues --    2.40454   2.41228   2.42174   2.45263   2.47268
 Alpha virt. eigenvalues --    2.48373   2.49046   2.51863   2.52590   2.53993
 Alpha virt. eigenvalues --    2.56767   2.58228   2.58657   2.59060   2.59299
 Alpha virt. eigenvalues --    2.59630   2.62800   2.63280   2.64562   2.65621
 Alpha virt. eigenvalues --    2.66001   2.66500   2.67223   2.67388   2.69244
 Alpha virt. eigenvalues --    2.70803   2.72005   2.72731   2.73176   2.73552
 Alpha virt. eigenvalues --    2.75060   2.75563   2.75585   2.75884   2.77213
 Alpha virt. eigenvalues --    2.77554   2.78168   2.78701   2.79634   2.80033
 Alpha virt. eigenvalues --    2.80601   2.83126   2.84160   2.85905   2.89965
 Alpha virt. eigenvalues --    2.92204   2.95086   2.97114   2.99522   3.00983
 Alpha virt. eigenvalues --    3.02362   3.05984   3.06344   3.08063   3.10410
 Alpha virt. eigenvalues --    3.15996   3.19273   3.22935   3.39933   3.41547
 Alpha virt. eigenvalues --    3.41897   3.82585   4.00735   4.02991   4.06026
 Alpha virt. eigenvalues --    4.08035   4.09503   4.09952   4.10057   4.12466
 Alpha virt. eigenvalues --    4.12660   4.13078   4.13867   4.14290   4.16301
 Alpha virt. eigenvalues --    4.17850   4.24429   4.27260   4.29334   4.30574
 Alpha virt. eigenvalues --    4.31473   4.33516   4.34387   4.38013   4.40258
 Alpha virt. eigenvalues --    4.41602   4.42962   4.43779   4.44954   4.48196
 Alpha virt. eigenvalues --    4.49495   4.64135   4.69591   4.72050   4.72806
 Alpha virt. eigenvalues --    4.75163
          Condensed to atoms (all electrons):
 Mulliken charges:
               1
     1  C   -0.545827
     2  C    0.131915
     3  C   -0.192964
     4  C   -0.121820
     5  C   -0.181416
     6  C    0.116506
     7  C   -0.558565
     8  C    0.014138
     9  C   -0.362555
    10  C   -0.035987
    11  N   -0.623974
    12  C    0.624175
    13  O   -0.542421
    14  C   -0.059864
    15  C   -0.356896
    16  C    0.184418
    17  C   -0.173783
    18  C   -0.125342
    19  C   -0.131618
    20  C   -0.128559
    21  C   -0.171694
    22  N   -0.617328
    23  C    0.808279
    24  O   -0.525187
    25  O   -0.489057
    26  C   -0.139324
    27  C    0.154086
    28  C   -0.183380
    29  C   -0.133900
    30  C   -0.127657
    31  C   -0.128848
    32  C   -0.179355
    33  C    0.589578
    34  N   -0.747626
    35  O   -0.518826
    36  H    0.168881
    37  H    0.167136
    38  H    0.157659
    39  H    0.124100
    40  H    0.131357
    41  H    0.125657
    42  H    0.202867
    43  H    0.160599
    44  H    0.160407
    45  H    0.155521
    46  H    0.192943
    47  H    0.185013
    48  H    0.357801
    49  H    0.184098
    50  H    0.156304
    51  H    0.146653
    52  H    0.119389
    53  H    0.127666
    54  H    0.125201
    55  H    0.131496
    56  H    0.128980
    57  H    0.351740
    58  H    0.182555
    59  H    0.149953
    60  H    0.172768
    61  H    0.130232
    62  H    0.127294
    63  H    0.127768
    64  H    0.124806
    65  H    0.357916
    66  H    0.345913
 Sum of Mulliken charges =  -0.00000
 Mulliken charges with hydrogens summed into heavy atoms:
               1
     1  C   -0.052149
     2  C    0.131915
     3  C   -0.068864
     4  C    0.009537
     5  C   -0.055759
     6  C    0.116506
     7  C   -0.034692
     8  C    0.014138
     9  C   -0.014090
    10  C    0.149026
    11  N   -0.266173
    12  C    0.624175
    13  O   -0.542421
    14  C    0.124233
    15  C   -0.053939
    16  C    0.184418
    17  C   -0.054394
    18  C    0.002324
    19  C   -0.006416
    20  C    0.002937
    21  C   -0.042714
    22  N   -0.265587
    23  C    0.808279
    24  O   -0.525187
    25  O   -0.489057
    26  C    0.193184
    27  C    0.154086
    28  C   -0.010612
    29  C   -0.003668
    30  C   -0.000363
    31  C   -0.001080
    32  C   -0.054549
    33  C    0.589578
    34  N   -0.043797
    35  O   -0.518826
 Electronic spatial extent (au):  <R**2>=          25356.3771
 Charge=             -0.0000 electrons
 Dipole moment (field-independent basis, Debye):
    X=              4.2790    Y=             -0.5087    Z=             -0.7426  Tot=              4.3727
 Quadrupole moment (field-independent basis, Debye-Ang):
   XX=           -164.0904   YY=           -195.3669   ZZ=           -210.0678
   XY=             -0.9338   XZ=             11.4730   YZ=             -2.3657
 Traceless Quadrupole moment (field-independent basis, Debye-Ang):
   XX=             25.7513   YY=             -5.5252   ZZ=            -20.2261
   XY=             -0.9338   XZ=             11.4730   YZ=             -2.3657
 Octapole moment (field-independent basis, Debye-Ang**2):
  XXX=            165.3488  YYY=            -35.8704  ZZZ=             18.6759  XYY=            -20.7244
  XXY=            -11.9424  XXZ=             -1.8504  XZZ=             11.7270  YZZ=            -20.0413
  YYZ=             14.6604  XYZ=            -12.3927
 Hexadecapole moment (field-independent basis, Debye-Ang**3):
 XXXX=         -25808.8917 YYYY=          -4282.2750 ZZZZ=          -1673.8318 XXXY=            -51.7810
 XXXZ=            784.6563 YYYX=             38.5933 YYYZ=             98.5568 ZZZX=            138.4717
 ZZZY=             -3.0488 XXYY=          -5079.9700 XXZZ=          -5052.1243 YYZZ=          -1048.2454
 XXYZ=             86.7095 YYXZ=            -89.2841 ZZXY=             24.2948
 N-N= 3.517703785256D+03 E-N=-1.064149721234D+04  KE= 1.536202227823D+03
 No NMR shielding tensors so no spin-rotation constants.
 Leave Link  601 at Fri Nov  4 19:52:47 2022, MaxMem=   805306368 cpu:               1.7 elap:               0.3
 (Enter /home/wykgroup/appl/g16/l9999.exe)
 1\1\GINC-NODE49\FOpt\RB3LYP\6-31G(d)\C28H31N3O4\WYKGROUP\04-Nov-2022\0
 \\#p b3lyp/6-31g(d) opt SCF=XQC\\Gaussian input prepared by ASE\\0,1\C
 ,-6.2832115545,1.5176362367,-0.348675698\C,-6.3228891292,0.0918632606,
 0.1631379259\C,-7.5682238097,-0.50493329,0.3854283431\C,-7.6648412917,
 -1.8062939708,0.8742635029\C,-6.5050545902,-2.5205310639,1.1507827751\
 C,-5.2364961587,-1.9595912887,0.940349309\C,-4.0252275165,-2.813622042
 9,1.2638854144\C,-5.1401819905,-0.6414170929,0.4354698134\C,-3.7797439
 774,-0.0043511544,0.2068154061\C,-2.9629542684,-0.5620527174,-1.000128
 1747\N,-1.6229895079,-0.0030229488,-1.0223089742\C,-0.6524374226,-0.38
 40280878,-0.1611139843\O,-0.8297953662,-1.2077951358,0.739396475\C,0.7
 013269941,0.3266921852,-0.3249878358\C,0.6538824219,1.6891591433,0.431
 2358311\C,1.9198725748,2.5039097983,0.2929314215\C,2.0662970598,3.4196
 472559,-0.7575998773\C,3.2389576456,4.1599162456,-0.9048658956\C,4.288
 5462245,3.9945105736,0.0008806986\C,4.1549940123,3.0866613456,1.052679
 2722\C,2.9783893843,2.3501594838,1.1975198951\N,1.7283915196,-0.552111
 0564,0.1930843103\C,2.8343564229,-0.8729198647,-0.5380579938\O,3.15978
 56215,-0.3504872583,-1.591981158\O,3.5300680133,-1.8563864714,0.094864
 3883\C,4.7786532786,-2.2539606822,-0.5243127868\C,5.9603138541,-1.5281
 008557,0.0735397932\C,6.2263961267,-0.1945392559,-0.2713752976\C,7.315
 2431603,0.4728698268,0.2883655924\C,8.1543689195,-0.1825594865,1.19348
 62944\C,7.8975724403,-1.5095297579,1.5400268202\C,6.8039466875,-2.1752
 709237,0.9832326424\C,-3.5903602503,-0.21800064,-2.3624817152\N,-4.711
 9465308,-0.9144042802,-2.6860741217\O,-3.0819115739,0.6143029062,-3.10
 74491454\H,-5.8237982793,2.2001368528,0.3774446931\H,-5.7156813317,1.6
 133794761,-1.2815584754\H,-7.2964064656,1.8829431191,-0.5412809958\H,-
 8.471736648,0.0631854314,0.1777945964\H,-8.6395634425,-2.255513037,1.0
 454260578\H,-6.5728732475,-3.5319679946,1.5451258508\H,-3.1074324017,-
 2.2428583111,1.4200417171\H,-3.8197942615,-3.5296528028,0.4559248826\H
 ,-4.2117763433,-3.4075636046,2.1652759145\H,-3.871206184,1.0758748002,
 0.0720352542\H,-3.1454504184,-0.1565438135,1.0849277162\H,-2.889664032
 5,-1.650362554,-0.9021795472\H,-1.4351758283,0.6116663984,-1.809053176
 9\H,0.9229722292,0.5098844329,-1.3806375631\H,0.449593,1.4742880557,1.
 4871462723\H,-0.2018927628,2.2595069479,0.0489928482\H,1.2521174606,3.
 5559785895,-1.4668007418\H,3.331779413,4.8671501595,-1.7249876285\H,5.
 2021130637,4.5728149811,-0.1102787298\H,4.9661638589,2.9499179843,1.76
 2825617\H,2.8805707812,1.6453544909,2.0189006015\H,1.4328866169,-1.189
 7364342,0.9237118937\H,4.7007820723,-2.0727842391,-1.5983831434\H,4.84
 86071888,-3.3284763173,-0.3383846782\H,5.5708794222,0.3131035113,-0.97
 27170636\H,7.5119109348,1.5057454347,0.0128713916\H,9.0055225595,0.338
 4477474,1.6244369523\H,8.5460516374,-2.0262692531,2.2427948233\H,6.604
 2164622,-3.2092606431,1.256575909\H,-5.2241118803,-1.427584491,-1.9809
 400422\H,-5.2127035969,-0.6222258532,-3.5150154718\\Version=ES64L-G16R
 evB.01\State=1-A\HF=-1550.8779145\RMSD=5.356e-09\RMSF=2.262e-06\Dipole
 =-1.679116,-0.2748063,0.2542608\Quadrupole=17.7532109,-3.2811781,-14.4
 720328,4.4443492,9.6766598,0.1720221\PG=C01 [X(C28H31N3O4)]\\@


 COLLEGE PROFESSOR: SOMEONE WHO TALKS IN OTHER PEOPLE'S SLEEP.
 Job cpu time:       0 days  5 hours 55 minutes 49.5 seconds.
 Elapsed time:       0 days  0 hours 51 minutes 23.8 seconds.
 File lengths (MBytes):  RWF=    218 Int=      0 D2E=      0 Chk=     29 Scr=      1
 Normal termination of Gaussian 16 at Fri Nov  4 19:52:47 2022.
