 Entering Gaussian System, Link 0=/home/wykgroup/appl/g16/g16
 Input=./calculation/no_transfer_pubchem_sampling_2_b3lyp/9069489.com
 Output=./calculation/no_transfer_pubchem_sampling_2_b3lyp/9069489.log
 Initial command:
 /home/wykgroup/appl/g16/l1.exe "/userdata/scratch/wykgroup/khs/./calculation/no_transfer_pubchem_sampling_2_b3lyp/9069489/Gau-31426.inp" -scrdir="/userdata/scratch/wykgroup/khs/./calculation/no_transfer_pubchem_sampling_2_b3lyp/9069489/"
 Entering Link 1 = /home/wykgroup/appl/g16/l1.exe PID=     31427.
  
 Copyright (c) 1988-2017, Gaussian, Inc.  All Rights Reserved.
  
 This is part of the Gaussian(R) 16 program.  It is based on
 the Gaussian(R) 09 system (copyright 2009, Gaussian, Inc.),
 the Gaussian(R) 03 system (copyright 2003, Gaussian, Inc.),
 the Gaussian(R) 98 system (copyright 1998, Gaussian, Inc.),
 the Gaussian(R) 94 system (copyright 1995, Gaussian, Inc.),
 the Gaussian 92(TM) system (copyright 1992, Gaussian, Inc.),
 the Gaussian 90(TM) system (copyright 1990, Gaussian, Inc.),
 the Gaussian 88(TM) system (copyright 1988, Gaussian, Inc.),
 the Gaussian 86(TM) system (copyright 1986, Carnegie Mellon
 University), and the Gaussian 82(TM) system (copyright 1983,
 Carnegie Mellon University). Gaussian is a federally registered
 trademark of Gaussian, Inc.
  
 This software contains proprietary and confidential information,
 including trade secrets, belonging to Gaussian, Inc.
  
 This software is provided under written license and may be
 used, copied, transmitted, or stored only in accord with that
 written license.
  
 The following legend is applicable only to US Government
 contracts under FAR:
  
                    RESTRICTED RIGHTS LEGEND
  
 Use, reproduction and disclosure by the US Government is
 subject to restrictions as set forth in subparagraphs (a)
 and (c) of the Commercial Computer Software - Restricted
 Rights clause in FAR 52.227-19.
  
 Gaussian, Inc.
 340 Quinnipiac St., Bldg. 40, Wallingford CT 06492
  
  
 ---------------------------------------------------------------
 Warning -- This program may not be used in any manner that
 competes with the business of Gaussian, Inc. or will provide
 assistance to any competitor of Gaussian, Inc.  The licensee
 of this program is prohibited from giving any competitor of
 Gaussian, Inc. access to this program.  By using this program,
 the user acknowledges that Gaussian, Inc. is engaged in the
 business of creating and licensing software in the field of
 computational chemistry and represents and warrants to the
 licensee that it is not a competitor of Gaussian, Inc. and that
 it will not use this program in any manner prohibited above.
 ---------------------------------------------------------------
  

 Cite this work as:
 Gaussian 16, Revision B.01,
 M. J. Frisch, G. W. Trucks, H. B. Schlegel, G. E. Scuseria, 
 M. A. Robb, J. R. Cheeseman, G. Scalmani, V. Barone, 
 G. A. Petersson, H. Nakatsuji, X. Li, M. Caricato, A. V. Marenich, 
 J. Bloino, B. G. Janesko, R. Gomperts, B. Mennucci, H. P. Hratchian, 
 J. V. Ortiz, A. F. Izmaylov, J. L. Sonnenberg, D. Williams-Young, 
 F. Ding, F. Lipparini, F. Egidi, J. Goings, B. Peng, A. Petrone, 
 T. Henderson, D. Ranasinghe, V. G. Zakrzewski, J. Gao, N. Rega, 
 G. Zheng, W. Liang, M. Hada, M. Ehara, K. Toyota, R. Fukuda, 
 J. Hasegawa, M. Ishida, T. Nakajima, Y. Honda, O. Kitao, H. Nakai, 
 T. Vreven, K. Throssell, J. A. Montgomery, Jr., J. E. Peralta, 
 F. Ogliaro, M. J. Bearpark, J. J. Heyd, E. N. Brothers, K. N. Kudin, 
 V. N. Staroverov, T. A. Keith, R. Kobayashi, J. Normand, 
 K. Raghavachari, A. P. Rendell, J. C. Burant, S. S. Iyengar, 
 J. Tomasi, M. Cossi, J. M. Millam, M. Klene, C. Adamo, R. Cammi, 
 J. W. Ochterski, R. L. Martin, K. Morokuma, O. Farkas, 
 J. B. Foresman, and D. J. Fox, Gaussian, Inc., Wallingford CT, 2016.
 
 ******************************************
 Gaussian 16:  ES64L-G16RevB.01 20-Dec-2017
                 4-Nov-2022 
 ******************************************
 %chk=./calculation/no_transfer_pubchem_sampling_2_b3lyp/9069489.chk
 %nprocshared=7
 Will use up to    7 processors via shared memory.
 %mem=6GB
 -----------------------------
 #p b3lyp/6-31g(d) opt SCF=XQC
 -----------------------------
 1/18=20,19=15,26=3,38=1/1,3;
 2/9=110,12=2,17=6,18=5,40=1/2;
 3/5=1,6=6,7=1,11=2,25=1,30=1,71=1,74=-5/1,2,3;
 4//1;
 5/5=2,8=3,13=1,38=5/2,8;
 6/7=2,8=2,9=2,10=2,28=1/1;
 7//1,2,3,16;
 1/18=20,19=15,26=3/3(2);
 2/9=110/2;
 99//99;
 2/9=110/2;
 3/5=1,6=6,7=1,11=2,25=1,30=1,71=1,74=-5/1,2,3;
 4/5=5,16=3,69=1/1;
 5/5=2,8=3,13=1,38=5/2,8;
 7//1,2,3,16;
 1/18=20,19=15,26=3/3(-5);
 2/9=110/2;
 6/7=2,8=2,9=2,10=2,19=2,28=1/1;
 99/9=1/99;
 Leave Link    1 at Fri Nov  4 18:53:03 2022, MaxMem=   805306368 cpu:               1.1 elap:               0.2
 (Enter /home/wykgroup/appl/g16/l101.exe)
 ------------------------------
 Gaussian input prepared by ASE
 ------------------------------
 Symbolic Z-matrix:
 Charge =  0 Multiplicity = 1
 C                    -3.93446   3.57978   1.16473 
 C                    -4.64546   2.29547   0.96705 
 O                    -5.9836    2.28785   0.86687 
 C                    -6.37543   1.00881   0.70319 
 C                    -5.30618   0.17479   0.68856 
 C                    -4.16197   1.00992   0.85786 
 C                    -2.7742    0.6534    0.94255 
 N                    -1.83172   1.44674   1.40201 
 N                    -0.66945   0.79252   1.36344 
 C                    -0.90062  -0.39835   0.89154 
 S                     0.30551  -1.6235    0.56266 
 C                     0.34256  -1.43107  -1.26289 
 C                    -0.01522  -0.00901  -1.6613 
 O                    -1.05265   0.22497  -2.25556 
 N                     0.8554    0.95981  -1.34461 
 C                     2.0219    0.88525  -0.49528 
 C                     3.04398   1.94415  -0.89892 
 C                     4.32191   1.78693  -0.07908 
 O                     4.88569   0.53171  -0.3769 
 C                     5.85768   0.06216   0.54162 
 C                     6.04924  -1.42241   0.24738 
 C                     7.18187   0.82052   0.42315 
 N                    -2.23078  -0.55691   0.60612 
 C                    -2.82283  -1.68397   0.00359 
 C                    -3.41829  -1.56191  -1.24598 
 C                    -3.97104  -2.68108  -1.84068 
 C                    -3.92562  -3.90884  -1.19917 
 C                    -3.32128  -4.02331   0.04167 
 C                    -2.76581  -2.91171   0.65002 
 H                    -3.15049   3.68975   0.41878 
 H                    -3.45005   3.59083   2.1393 
 H                    -4.63901   4.40366   1.0923 
 H                    -7.42709   0.826     0.61057 
 H                    -5.32579  -0.89032   0.58479 
 H                     1.34709  -1.70525  -1.58063 
 H                    -0.38794  -2.11361  -1.69929 
 H                     0.53238   1.89488  -1.55781 
 H                     2.48917  -0.09503  -0.59349 
 H                     1.72281   1.02937   0.55077 
 H                     2.63865   2.94453  -0.74038 
 H                     3.29041   1.82475  -1.95493 
 H                     5.02143   2.59891  -0.32659 
 H                     4.08652   1.84958   0.99466 
 H                     5.46601   0.18437   1.56693 
 H                     6.41754  -1.54824  -0.76704 
 H                     5.10012  -1.94319   0.33924 
 H                     6.76125  -1.85521   0.94392 
 H                     7.91991   0.37749   1.08589 
 H                     7.05801   1.86591   0.69525 
 H                     7.54573   0.76517  -0.60003 
 H                    -3.41808  -0.6054   -1.74478 
 H                    -4.4322   -2.59355  -2.81259 
 H                    -4.35731  -4.77933  -1.66994 
 H                    -3.27966  -4.98006   0.53987 
 H                    -2.28859  -2.98875   1.6157 
 
 ITRead=  0  0  0  0  0  0  0  0  0  0  0  0  0  0  0  0  0  0  0  0
 ITRead=  0  0  0  0  0  0  0  0  0  0  0  0  0  0  0  0  0  0  0  0
 ITRead=  0  0  0  0  0  0  0  0  0  0  0  0  0  0  0
 MicOpt= -1 -1 -1 -1 -1 -1 -1 -1 -1 -1 -1 -1 -1 -1 -1 -1 -1 -1 -1 -1
 MicOpt= -1 -1 -1 -1 -1 -1 -1 -1 -1 -1 -1 -1 -1 -1 -1 -1 -1 -1 -1 -1
 MicOpt= -1 -1 -1 -1 -1 -1 -1 -1 -1 -1 -1 -1 -1 -1 -1
 NAtoms=     55 NQM=       55 NQMF=       0 NMMI=      0 NMMIF=      0
                NMic=       0 NMicF=      0.
                    Isotopes and Nuclear Properties:
 (Nuclear quadrupole moments (NQMom) in fm**2, nuclear magnetic moments (NMagM)
  in nuclear magnetons)

  Atom         1           2           3           4           5           6           7           8           9          10
 IAtWgt=          12          12          16          12          12          12          12          14          14          12
 AtmWgt=  12.0000000  12.0000000  15.9949146  12.0000000  12.0000000  12.0000000  12.0000000  14.0030740  14.0030740  12.0000000
 NucSpn=           0           0           0           0           0           0           0           2           2           0
 AtZEff=  -0.0000000  -0.0000000  -0.0000000  -0.0000000  -0.0000000  -0.0000000  -0.0000000  -0.0000000  -0.0000000  -0.0000000
 NQMom=    0.0000000   0.0000000   0.0000000   0.0000000   0.0000000   0.0000000   0.0000000   2.0440000   2.0440000   0.0000000
 NMagM=    0.0000000   0.0000000   0.0000000   0.0000000   0.0000000   0.0000000   0.0000000   0.4037610   0.4037610   0.0000000
 AtZNuc=   6.0000000   6.0000000   8.0000000   6.0000000   6.0000000   6.0000000   6.0000000   7.0000000   7.0000000   6.0000000

  Atom        11          12          13          14          15          16          17          18          19          20
 IAtWgt=          32          12          12          16          14          12          12          12          16          12
 AtmWgt=  31.9720718  12.0000000  12.0000000  15.9949146  14.0030740  12.0000000  12.0000000  12.0000000  15.9949146  12.0000000
 NucSpn=           0           0           0           0           2           0           0           0           0           0
 AtZEff=  -0.0000000  -0.0000000  -0.0000000  -0.0000000  -0.0000000  -0.0000000  -0.0000000  -0.0000000  -0.0000000  -0.0000000
 NQMom=    0.0000000   0.0000000   0.0000000   0.0000000   2.0440000   0.0000000   0.0000000   0.0000000   0.0000000   0.0000000
 NMagM=    0.0000000   0.0000000   0.0000000   0.0000000   0.4037610   0.0000000   0.0000000   0.0000000   0.0000000   0.0000000
 AtZNuc=  16.0000000   6.0000000   6.0000000   8.0000000   7.0000000   6.0000000   6.0000000   6.0000000   8.0000000   6.0000000

  Atom        21          22          23          24          25          26          27          28          29          30
 IAtWgt=          12          12          14          12          12          12          12          12          12           1
 AtmWgt=  12.0000000  12.0000000  14.0030740  12.0000000  12.0000000  12.0000000  12.0000000  12.0000000  12.0000000   1.0078250
 NucSpn=           0           0           2           0           0           0           0           0           0           1
 AtZEff=  -0.0000000  -0.0000000  -0.0000000  -0.0000000  -0.0000000  -0.0000000  -0.0000000  -0.0000000  -0.0000000  -0.0000000
 NQMom=    0.0000000   0.0000000   2.0440000   0.0000000   0.0000000   0.0000000   0.0000000   0.0000000   0.0000000   0.0000000
 NMagM=    0.0000000   0.0000000   0.4037610   0.0000000   0.0000000   0.0000000   0.0000000   0.0000000   0.0000000   2.7928460
 AtZNuc=   6.0000000   6.0000000   7.0000000   6.0000000   6.0000000   6.0000000   6.0000000   6.0000000   6.0000000   1.0000000

  Atom        31          32          33          34          35          36          37          38          39          40
 IAtWgt=           1           1           1           1           1           1           1           1           1           1
 AtmWgt=   1.0078250   1.0078250   1.0078250   1.0078250   1.0078250   1.0078250   1.0078250   1.0078250   1.0078250   1.0078250
 NucSpn=           1           1           1           1           1           1           1           1           1           1
 AtZEff=  -0.0000000  -0.0000000  -0.0000000  -0.0000000  -0.0000000  -0.0000000  -0.0000000  -0.0000000  -0.0000000  -0.0000000
 NQMom=    0.0000000   0.0000000   0.0000000   0.0000000   0.0000000   0.0000000   0.0000000   0.0000000   0.0000000   0.0000000
 NMagM=    2.7928460   2.7928460   2.7928460   2.7928460   2.7928460   2.7928460   2.7928460   2.7928460   2.7928460   2.7928460
 AtZNuc=   1.0000000   1.0000000   1.0000000   1.0000000   1.0000000   1.0000000   1.0000000   1.0000000   1.0000000   1.0000000

  Atom        41          42          43          44          45          46          47          48          49          50
 IAtWgt=           1           1           1           1           1           1           1           1           1           1
 AtmWgt=   1.0078250   1.0078250   1.0078250   1.0078250   1.0078250   1.0078250   1.0078250   1.0078250   1.0078250   1.0078250
 NucSpn=           1           1           1           1           1           1           1           1           1           1
 AtZEff=  -0.0000000  -0.0000000  -0.0000000  -0.0000000  -0.0000000  -0.0000000  -0.0000000  -0.0000000  -0.0000000  -0.0000000
 NQMom=    0.0000000   0.0000000   0.0000000   0.0000000   0.0000000   0.0000000   0.0000000   0.0000000   0.0000000   0.0000000
 NMagM=    2.7928460   2.7928460   2.7928460   2.7928460   2.7928460   2.7928460   2.7928460   2.7928460   2.7928460   2.7928460
 AtZNuc=   1.0000000   1.0000000   1.0000000   1.0000000   1.0000000   1.0000000   1.0000000   1.0000000   1.0000000   1.0000000

  Atom        51          52          53          54          55
 IAtWgt=           1           1           1           1           1
 AtmWgt=   1.0078250   1.0078250   1.0078250   1.0078250   1.0078250
 NucSpn=           1           1           1           1           1
 AtZEff=  -0.0000000  -0.0000000  -0.0000000  -0.0000000  -0.0000000
 NQMom=    0.0000000   0.0000000   0.0000000   0.0000000   0.0000000
 NMagM=    2.7928460   2.7928460   2.7928460   2.7928460   2.7928460
 AtZNuc=   1.0000000   1.0000000   1.0000000   1.0000000   1.0000000
 Leave Link  101 at Fri Nov  4 18:53:04 2022, MaxMem=   805306368 cpu:               1.4 elap:               0.2
 (Enter /home/wykgroup/appl/g16/l103.exe)

 GradGradGradGradGradGradGradGradGradGradGradGradGradGradGradGradGradGrad
 Berny optimization.
 Initialization pass.
                           ----------------------------
                           !    Initial Parameters    !
                           ! (Angstroms and Degrees)  !
 --------------------------                            --------------------------
 ! Name  Definition              Value          Derivative Info.                !
 --------------------------------------------------------------------------------
 ! R1    R(1,2)                  1.4812         estimate D2E/DX2                !
 ! R2    R(1,30)                 1.0877         estimate D2E/DX2                !
 ! R3    R(1,31)                 1.0884         estimate D2E/DX2                !
 ! R4    R(1,32)                 1.0865         estimate D2E/DX2                !
 ! R5    R(2,3)                  1.3419         estimate D2E/DX2                !
 ! R6    R(2,6)                  1.3778         estimate D2E/DX2                !
 ! R7    R(3,4)                  1.3477         estimate D2E/DX2                !
 ! R8    R(4,5)                  1.3561         estimate D2E/DX2                !
 ! R9    R(4,33)                 1.0714         estimate D2E/DX2                !
 ! R10   R(5,6)                  1.4267         estimate D2E/DX2                !
 ! R11   R(5,34)                 1.0703         estimate D2E/DX2                !
 ! R12   R(6,7)                  1.4353         estimate D2E/DX2                !
 ! R13   R(7,8)                  1.3148         estimate D2E/DX2                !
 ! R14   R(7,23)                 1.3687         estimate D2E/DX2                !
 ! R15   R(8,9)                  1.3343         estimate D2E/DX2                !
 ! R16   R(9,10)                 1.3016         estimate D2E/DX2                !
 ! R17   R(10,11)                1.7504         estimate D2E/DX2                !
 ! R18   R(10,23)                1.3696         estimate D2E/DX2                !
 ! R19   R(11,12)                1.836          estimate D2E/DX2                !
 ! R20   R(12,13)                1.5195         estimate D2E/DX2                !
 ! R21   R(12,35)                1.0887         estimate D2E/DX2                !
 ! R22   R(12,36)                1.0908         estimate D2E/DX2                !
 ! R23   R(13,14)                1.2183         estimate D2E/DX2                !
 ! R24   R(13,15)                1.3405         estimate D2E/DX2                !
 ! R25   R(15,16)                1.4449         estimate D2E/DX2                !
 ! R26   R(15,37)                1.012          estimate D2E/DX2                !
 ! R27   R(16,17)                1.5261         estimate D2E/DX2                !
 ! R28   R(16,38)                1.0904         estimate D2E/DX2                !
 ! R29   R(16,39)                1.0975         estimate D2E/DX2                !
 ! R30   R(17,18)                1.5264         estimate D2E/DX2                !
 ! R31   R(17,40)                1.091          estimate D2E/DX2                !
 ! R32   R(17,41)                1.0909         estimate D2E/DX2                !
 ! R33   R(18,19)                1.4079         estimate D2E/DX2                !
 ! R34   R(18,42)                1.1            estimate D2E/DX2                !
 ! R35   R(18,43)                1.101          estimate D2E/DX2                !
 ! R36   R(19,20)                1.4174         estimate D2E/DX2                !
 ! R37   R(20,21)                1.5255         estimate D2E/DX2                !
 ! R38   R(20,22)                1.5306         estimate D2E/DX2                !
 ! R39   R(20,44)                1.1043         estimate D2E/DX2                !
 ! R40   R(21,45)                1.0865         estimate D2E/DX2                !
 ! R41   R(21,46)                1.0865         estimate D2E/DX2                !
 ! R42   R(21,47)                1.086          estimate D2E/DX2                !
 ! R43   R(22,48)                1.0864         estimate D2E/DX2                !
 ! R44   R(22,49)                1.0873         estimate D2E/DX2                !
 ! R45   R(22,50)                1.0874         estimate D2E/DX2                !
 ! R46   R(23,24)                1.4085         estimate D2E/DX2                !
 ! R47   R(24,25)                1.3896         estimate D2E/DX2                !
 ! R48   R(24,29)                1.3887         estimate D2E/DX2                !
 ! R49   R(25,26)                1.3827         estimate D2E/DX2                !
 ! R50   R(25,51)                1.0787         estimate D2E/DX2                !
 ! R51   R(26,27)                1.386          estimate D2E/DX2                !
 ! R52   R(26,52)                1.0793         estimate D2E/DX2                !
 ! R53   R(27,28)                1.3849         estimate D2E/DX2                !
 ! R54   R(27,53)                1.0797         estimate D2E/DX2                !
 ! R55   R(28,29)                1.3836         estimate D2E/DX2                !
 ! R56   R(28,54)                1.0795         estimate D2E/DX2                !
 ! R57   R(29,55)                1.0799         estimate D2E/DX2                !
 ! A1    A(2,1,30)             110.005          estimate D2E/DX2                !
 ! A2    A(2,1,31)             109.9955         estimate D2E/DX2                !
 ! A3    A(2,1,32)             109.7138         estimate D2E/DX2                !
 ! A4    A(30,1,31)            106.9936         estimate D2E/DX2                !
 ! A5    A(30,1,32)            110.182          estimate D2E/DX2                !
 ! A6    A(31,1,32)            109.9144         estimate D2E/DX2                !
 ! A7    A(1,2,3)              119.5739         estimate D2E/DX2                !
 ! A8    A(1,2,6)              130.6272         estimate D2E/DX2                !
 ! A9    A(3,2,6)              109.799          estimate D2E/DX2                !
 ! A10   A(2,3,4)              107.721          estimate D2E/DX2                !
 ! A11   A(3,4,5)              110.8391         estimate D2E/DX2                !
 ! A12   A(3,4,33)             117.2456         estimate D2E/DX2                !
 ! A13   A(5,4,33)             131.9153         estimate D2E/DX2                !
 ! A14   A(4,5,6)              105.7281         estimate D2E/DX2                !
 ! A15   A(4,5,34)             126.7699         estimate D2E/DX2                !
 ! A16   A(6,5,34)             127.497          estimate D2E/DX2                !
 ! A17   A(2,6,5)              105.911          estimate D2E/DX2                !
 ! A18   A(2,6,7)              124.4977         estimate D2E/DX2                !
 ! A19   A(5,6,7)              129.5722         estimate D2E/DX2                !
 ! A20   A(6,7,8)              124.3196         estimate D2E/DX2                !
 ! A21   A(6,7,23)             126.0875         estimate D2E/DX2                !
 ! A22   A(8,7,23)             109.563          estimate D2E/DX2                !
 ! A23   A(7,8,9)              108.5695         estimate D2E/DX2                !
 ! A24   A(8,9,10)             107.7197         estimate D2E/DX2                !
 ! A25   A(9,10,11)            125.8805         estimate D2E/DX2                !
 ! A26   A(9,10,23)            110.7285         estimate D2E/DX2                !
 ! A27   A(11,10,23)           123.2993         estimate D2E/DX2                !
 ! A28   A(10,11,12)            97.3171         estimate D2E/DX2                !
 ! A29   A(11,12,13)           110.7337         estimate D2E/DX2                !
 ! A30   A(11,12,35)           106.4041         estimate D2E/DX2                !
 ! A31   A(11,12,36)           108.5833         estimate D2E/DX2                !
 ! A32   A(13,12,35)           112.1122         estimate D2E/DX2                !
 ! A33   A(13,12,36)           108.8444         estimate D2E/DX2                !
 ! A34   A(35,12,36)           110.0944         estimate D2E/DX2                !
 ! A35   A(12,13,14)           120.54           estimate D2E/DX2                !
 ! A36   A(12,13,15)           117.4847         estimate D2E/DX2                !
 ! A37   A(14,13,15)           121.9726         estimate D2E/DX2                !
 ! A38   A(13,15,16)           128.7511         estimate D2E/DX2                !
 ! A39   A(13,15,37)           114.2499         estimate D2E/DX2                !
 ! A40   A(16,15,37)           115.4173         estimate D2E/DX2                !
 ! A41   A(15,16,17)           110.4527         estimate D2E/DX2                !
 ! A42   A(15,16,38)           109.8416         estimate D2E/DX2                !
 ! A43   A(15,16,39)           109.4807         estimate D2E/DX2                !
 ! A44   A(17,16,38)           108.239          estimate D2E/DX2                !
 ! A45   A(17,16,39)           110.0908         estimate D2E/DX2                !
 ! A46   A(38,16,39)           108.7047         estimate D2E/DX2                !
 ! A47   A(16,17,18)           110.3156         estimate D2E/DX2                !
 ! A48   A(16,17,40)           110.426          estimate D2E/DX2                !
 ! A49   A(16,17,41)           109.3522         estimate D2E/DX2                !
 ! A50   A(18,17,40)           109.1137         estimate D2E/DX2                !
 ! A51   A(18,17,41)           108.6338         estimate D2E/DX2                !
 ! A52   A(40,17,41)           108.9629         estimate D2E/DX2                !
 ! A53   A(17,18,19)           108.2684         estimate D2E/DX2                !
 ! A54   A(17,18,42)           109.6053         estimate D2E/DX2                !
 ! A55   A(17,18,43)           109.8126         estimate D2E/DX2                !
 ! A56   A(19,18,42)           110.8475         estimate D2E/DX2                !
 ! A57   A(19,18,43)           110.0379         estimate D2E/DX2                !
 ! A58   A(42,18,43)           108.264          estimate D2E/DX2                !
 ! A59   A(18,19,20)           115.6509         estimate D2E/DX2                !
 ! A60   A(19,20,21)           106.4696         estimate D2E/DX2                !
 ! A61   A(19,20,22)           112.2716         estimate D2E/DX2                !
 ! A62   A(19,20,44)           108.7713         estimate D2E/DX2                !
 ! A63   A(21,20,22)           111.0144         estimate D2E/DX2                !
 ! A64   A(21,20,44)           109.3481         estimate D2E/DX2                !
 ! A65   A(22,20,44)           108.8973         estimate D2E/DX2                !
 ! A66   A(20,21,45)           109.5936         estimate D2E/DX2                !
 ! A67   A(20,21,46)           109.9041         estimate D2E/DX2                !
 ! A68   A(20,21,47)           110.2699         estimate D2E/DX2                !
 ! A69   A(45,21,46)           108.6353         estimate D2E/DX2                !
 ! A70   A(45,21,47)           109.2946         estimate D2E/DX2                !
 ! A71   A(46,21,47)           109.1151         estimate D2E/DX2                !
 ! A72   A(20,22,48)           109.7842         estimate D2E/DX2                !
 ! A73   A(20,22,49)           111.005          estimate D2E/DX2                !
 ! A74   A(20,22,50)           109.7019         estimate D2E/DX2                !
 ! A75   A(48,22,49)           108.4701         estimate D2E/DX2                !
 ! A76   A(48,22,50)           109.0233         estimate D2E/DX2                !
 ! A77   A(49,22,50)           108.8167         estimate D2E/DX2                !
 ! A78   A(7,23,10)            103.4146         estimate D2E/DX2                !
 ! A79   A(7,23,24)            130.2292         estimate D2E/DX2                !
 ! A80   A(10,23,24)           126.1579         estimate D2E/DX2                !
 ! A81   A(23,24,25)           119.6388         estimate D2E/DX2                !
 ! A82   A(23,24,29)           119.4098         estimate D2E/DX2                !
 ! A83   A(25,24,29)           120.9207         estimate D2E/DX2                !
 ! A84   A(24,25,26)           119.143          estimate D2E/DX2                !
 ! A85   A(24,25,51)           119.5782         estimate D2E/DX2                !
 ! A86   A(26,25,51)           121.2585         estimate D2E/DX2                !
 ! A87   A(25,26,27)           120.3206         estimate D2E/DX2                !
 ! A88   A(25,26,52)           119.5035         estimate D2E/DX2                !
 ! A89   A(27,26,52)           120.1743         estimate D2E/DX2                !
 ! A90   A(26,27,28)           120.1468         estimate D2E/DX2                !
 ! A91   A(26,27,53)           119.9516         estimate D2E/DX2                !
 ! A92   A(28,27,53)           119.9007         estimate D2E/DX2                !
 ! A93   A(27,28,29)           120.181          estimate D2E/DX2                !
 ! A94   A(27,28,54)           120.2368         estimate D2E/DX2                !
 ! A95   A(29,28,54)           119.5822         estimate D2E/DX2                !
 ! A96   A(24,29,28)           119.2846         estimate D2E/DX2                !
 ! A97   A(24,29,55)           119.8324         estimate D2E/DX2                !
 ! A98   A(28,29,55)           120.8828         estimate D2E/DX2                !
 ! D1    D(30,1,2,3)          -127.6547         estimate D2E/DX2                !
 ! D2    D(30,1,2,6)            52.3434         estimate D2E/DX2                !
 ! D3    D(31,1,2,3)           114.7346         estimate D2E/DX2                !
 ! D4    D(31,1,2,6)           -65.2673         estimate D2E/DX2                !
 ! D5    D(32,1,2,3)            -6.2909         estimate D2E/DX2                !
 ! D6    D(32,1,2,6)           173.7072         estimate D2E/DX2                !
 ! D7    D(1,2,3,4)           -179.5706         estimate D2E/DX2                !
 ! D8    D(6,2,3,4)              0.4309         estimate D2E/DX2                !
 ! D9    D(1,2,6,5)            179.593          estimate D2E/DX2                !
 ! D10   D(1,2,6,7)              1.0539         estimate D2E/DX2                !
 ! D11   D(3,2,6,5)             -0.4087         estimate D2E/DX2                !
 ! D12   D(3,2,6,7)           -178.9478         estimate D2E/DX2                !
 ! D13   D(2,3,4,5)             -0.2814         estimate D2E/DX2                !
 ! D14   D(2,3,4,33)           179.7184         estimate D2E/DX2                !
 ! D15   D(3,4,5,6)              0.0271         estimate D2E/DX2                !
 ! D16   D(3,4,5,34)           179.2564         estimate D2E/DX2                !
 ! D17   D(33,4,5,6)          -179.9727         estimate D2E/DX2                !
 ! D18   D(33,4,5,34)           -0.7434         estimate D2E/DX2                !
 ! D19   D(4,5,6,2)              0.2285         estimate D2E/DX2                !
 ! D20   D(4,5,6,7)            178.6666         estimate D2E/DX2                !
 ! D21   D(34,5,6,2)          -178.9933         estimate D2E/DX2                !
 ! D22   D(34,5,6,7)            -0.5553         estimate D2E/DX2                !
 ! D23   D(2,6,7,8)             14.6791         estimate D2E/DX2                !
 ! D24   D(2,6,7,23)          -167.5203         estimate D2E/DX2                !
 ! D25   D(5,6,7,8)           -163.4982         estimate D2E/DX2                !
 ! D26   D(5,6,7,23)            14.3024         estimate D2E/DX2                !
 ! D27   D(6,7,8,9)            178.8074         estimate D2E/DX2                !
 ! D28   D(23,7,8,9)             0.6936         estimate D2E/DX2                !
 ! D29   D(6,7,23,10)         -178.7297         estimate D2E/DX2                !
 ! D30   D(6,7,23,24)            6.2396         estimate D2E/DX2                !
 ! D31   D(8,7,23,10)           -0.6574         estimate D2E/DX2                !
 ! D32   D(8,7,23,24)         -175.6881         estimate D2E/DX2                !
 ! D33   D(7,8,9,10)            -0.4321         estimate D2E/DX2                !
 ! D34   D(8,9,10,11)          176.6032         estimate D2E/DX2                !
 ! D35   D(8,9,10,23)            0.0073         estimate D2E/DX2                !
 ! D36   D(9,10,11,12)        -103.4082         estimate D2E/DX2                !
 ! D37   D(23,10,11,12)         72.7821         estimate D2E/DX2                !
 ! D38   D(9,10,23,7)            0.3933         estimate D2E/DX2                !
 ! D39   D(9,10,23,24)         175.695          estimate D2E/DX2                !
 ! D40   D(11,10,23,7)        -176.3068         estimate D2E/DX2                !
 ! D41   D(11,10,23,24)         -1.0051         estimate D2E/DX2                !
 ! D42   D(10,11,12,13)         28.7729         estimate D2E/DX2                !
 ! D43   D(10,11,12,35)        150.8465         estimate D2E/DX2                !
 ! D44   D(10,11,12,36)        -90.6752         estimate D2E/DX2                !
 ! D45   D(11,12,13,14)       -112.4854         estimate D2E/DX2                !
 ! D46   D(11,12,13,15)         68.1014         estimate D2E/DX2                !
 ! D47   D(35,12,13,14)        128.8458         estimate D2E/DX2                !
 ! D48   D(35,12,13,15)        -50.5673         estimate D2E/DX2                !
 ! D49   D(36,12,13,14)          6.8054         estimate D2E/DX2                !
 ! D50   D(36,12,13,15)       -172.6077         estimate D2E/DX2                !
 ! D51   D(12,13,15,16)         -9.9813         estimate D2E/DX2                !
 ! D52   D(12,13,15,37)       -174.8145         estimate D2E/DX2                !
 ! D53   D(14,13,15,16)        170.6145         estimate D2E/DX2                !
 ! D54   D(14,13,15,37)          5.7813         estimate D2E/DX2                !
 ! D55   D(13,15,16,17)        153.7364         estimate D2E/DX2                !
 ! D56   D(13,15,16,38)         34.4159         estimate D2E/DX2                !
 ! D57   D(13,15,16,39)        -84.8772         estimate D2E/DX2                !
 ! D58   D(37,15,16,17)        -41.5777         estimate D2E/DX2                !
 ! D59   D(37,15,16,38)       -160.8982         estimate D2E/DX2                !
 ! D60   D(37,15,16,39)         79.8087         estimate D2E/DX2                !
 ! D61   D(15,16,17,18)       -175.2243         estimate D2E/DX2                !
 ! D62   D(15,16,17,40)         64.0808         estimate D2E/DX2                !
 ! D63   D(15,16,17,41)        -55.8084         estimate D2E/DX2                !
 ! D64   D(38,16,17,18)        -54.9381         estimate D2E/DX2                !
 ! D65   D(38,16,17,40)       -175.6331         estimate D2E/DX2                !
 ! D66   D(38,16,17,41)         64.4778         estimate D2E/DX2                !
 ! D67   D(39,16,17,18)         63.7516         estimate D2E/DX2                !
 ! D68   D(39,16,17,40)        -56.9434         estimate D2E/DX2                !
 ! D69   D(39,16,17,41)       -176.8325         estimate D2E/DX2                !
 ! D70   D(16,17,18,19)         63.0699         estimate D2E/DX2                !
 ! D71   D(16,17,18,42)       -175.9049         estimate D2E/DX2                !
 ! D72   D(16,17,18,43)        -57.0928         estimate D2E/DX2                !
 ! D73   D(40,17,18,19)       -175.4527         estimate D2E/DX2                !
 ! D74   D(40,17,18,42)        -54.4276         estimate D2E/DX2                !
 ! D75   D(40,17,18,43)         64.3846         estimate D2E/DX2                !
 ! D76   D(41,17,18,19)        -56.7806         estimate D2E/DX2                !
 ! D77   D(41,17,18,42)         64.2445         estimate D2E/DX2                !
 ! D78   D(41,17,18,43)       -176.9433         estimate D2E/DX2                !
 ! D79   D(17,18,19,20)       -163.4674         estimate D2E/DX2                !
 ! D80   D(42,18,19,20)         76.2801         estimate D2E/DX2                !
 ! D81   D(43,18,19,20)        -43.4456         estimate D2E/DX2                !
 ! D82   D(18,19,20,21)        165.2549         estimate D2E/DX2                !
 ! D83   D(18,19,20,22)        -73.0654         estimate D2E/DX2                !
 ! D84   D(18,19,20,44)         47.5209         estimate D2E/DX2                !
 ! D85   D(19,20,21,45)         61.6288         estimate D2E/DX2                !
 ! D86   D(19,20,21,46)        -57.6866         estimate D2E/DX2                !
 ! D87   D(19,20,21,47)       -178.0167         estimate D2E/DX2                !
 ! D88   D(22,20,21,45)        -60.8469         estimate D2E/DX2                !
 ! D89   D(22,20,21,46)        179.8378         estimate D2E/DX2                !
 ! D90   D(22,20,21,47)         59.5076         estimate D2E/DX2                !
 ! D91   D(44,20,21,45)        178.9806         estimate D2E/DX2                !
 ! D92   D(44,20,21,46)         59.6653         estimate D2E/DX2                !
 ! D93   D(44,20,21,47)        -60.6649         estimate D2E/DX2                !
 ! D94   D(19,20,22,48)       -175.4631         estimate D2E/DX2                !
 ! D95   D(19,20,22,49)         64.6187         estimate D2E/DX2                !
 ! D96   D(19,20,22,50)        -55.678          estimate D2E/DX2                !
 ! D97   D(21,20,22,48)        -56.4166         estimate D2E/DX2                !
 ! D98   D(21,20,22,49)       -176.3348         estimate D2E/DX2                !
 ! D99   D(21,20,22,50)         63.3685         estimate D2E/DX2                !
 ! D100  D(44,20,22,48)         64.0233         estimate D2E/DX2                !
 ! D101  D(44,20,22,49)        -55.8949         estimate D2E/DX2                !
 ! D102  D(44,20,22,50)       -176.1916         estimate D2E/DX2                !
 ! D103  D(7,23,24,25)          58.5551         estimate D2E/DX2                !
 ! D104  D(7,23,24,29)        -123.443          estimate D2E/DX2                !
 ! D105  D(10,23,24,25)       -115.4547         estimate D2E/DX2                !
 ! D106  D(10,23,24,29)         62.5473         estimate D2E/DX2                !
 ! D107  D(23,24,25,26)        178.6219         estimate D2E/DX2                !
 ! D108  D(23,24,25,51)          0.2392         estimate D2E/DX2                !
 ! D109  D(29,24,25,26)          0.6508         estimate D2E/DX2                !
 ! D110  D(29,24,25,51)       -177.7319         estimate D2E/DX2                !
 ! D111  D(23,24,29,28)       -178.5252         estimate D2E/DX2                !
 ! D112  D(23,24,29,55)          1.3085         estimate D2E/DX2                !
 ! D113  D(25,24,29,28)         -0.5495         estimate D2E/DX2                !
 ! D114  D(25,24,29,55)        179.2842         estimate D2E/DX2                !
 ! D115  D(24,25,26,27)         -0.2641         estimate D2E/DX2                !
 ! D116  D(24,25,26,52)       -179.8028         estimate D2E/DX2                !
 ! D117  D(51,25,26,27)        178.0905         estimate D2E/DX2                !
 ! D118  D(51,25,26,52)         -1.4482         estimate D2E/DX2                !
 ! D119  D(25,26,27,28)         -0.2166         estimate D2E/DX2                !
 ! D120  D(25,26,27,53)       -179.872          estimate D2E/DX2                !
 ! D121  D(52,26,27,28)        179.319          estimate D2E/DX2                !
 ! D122  D(52,26,27,53)         -0.3364         estimate D2E/DX2                !
 ! D123  D(26,27,28,29)          0.32           estimate D2E/DX2                !
 ! D124  D(26,27,28,54)       -179.6188         estimate D2E/DX2                !
 ! D125  D(53,27,28,29)        179.9756         estimate D2E/DX2                !
 ! D126  D(53,27,28,54)          0.0368         estimate D2E/DX2                !
 ! D127  D(27,28,29,24)          0.06           estimate D2E/DX2                !
 ! D128  D(27,28,29,55)       -179.7719         estimate D2E/DX2                !
 ! D129  D(54,28,29,24)        179.9993         estimate D2E/DX2                !
 ! D130  D(54,28,29,55)          0.1674         estimate D2E/DX2                !
 --------------------------------------------------------------------------------
 Trust Radius=3.00D-01 FncErr=1.00D-07 GrdErr=1.00D-06 EigMax=2.50D+02 EigMin=1.00D-04
 Number of steps in this run=    295 maximum allowed number of steps=    330.
 GradGradGradGradGradGradGradGradGradGradGradGradGradGradGradGradGradGrad

 Leave Link  103 at Fri Nov  4 18:53:04 2022, MaxMem=   805306368 cpu:               0.3 elap:               0.1
 (Enter /home/wykgroup/appl/g16/l202.exe)
 Stoichiometry    C21H26N4O3S
 Framework group  C1[X(C21H26N4O3S)]
 Deg. of freedom   159
 Full point group                 C1      NOp   1
 Largest Abelian subgroup         C1      NOp   1
 Largest concise Abelian subgroup C1      NOp   1
                         Standard orientation:                         
 ---------------------------------------------------------------------
 Center     Atomic      Atomic             Coordinates (Angstroms)
 Number     Number       Type             X           Y           Z
 ---------------------------------------------------------------------
      1          6           0       -3.201918   -3.942990   -0.122986
      2          6           0       -3.964409   -2.675428   -0.200109
      3          8           0       -5.297425   -2.694051   -0.047083
      4          6           0       -5.742142   -1.427771   -0.169709
      5          6           0       -4.712559   -0.574647   -0.396057
      6          6           0       -3.537309   -1.383213   -0.414794
      7          6           0       -2.171006   -1.005425   -0.639877
      8          7           0       -1.208688   -1.849034   -0.941576
      9          7           0       -0.077162   -1.161483   -1.106705
     10          6           0       -0.347213    0.097519   -0.916247
     11         16           0        0.811412    1.409450   -0.934471
     12          6           0        0.917658    1.652849    0.882261
     13          6           0        0.639161    0.351962    1.616508
     14          8           0       -0.366163    0.225897    2.292967
     15          7           0        1.542541   -0.631213    1.497536
     16          6           0        2.675625   -0.715151    0.604951
     17          6           0        3.758199   -1.610965    1.200255
     18          6           0        4.999704   -1.603557    0.312240
     19          8           0        5.514602   -0.293497    0.284426
     20          6           0        6.432999   -0.017241   -0.759196
     21          6           0        6.565588    1.500949   -0.828017
     22          6           0        7.793922   -0.676952   -0.524024
     23          7           0       -1.673091    0.269326   -0.618841
     24          6           0       -2.296184    1.483677   -0.271079
     25          6           0       -2.843720    1.636662    0.996865
     26          6           0       -3.427476    2.842977    1.337167
     27          6           0       -3.459920    3.886449    0.425516
     28          6           0       -2.902877    3.728470   -0.832560
     29          6           0       -2.317210    2.526414   -1.187999
     30          1           0       -2.389461   -3.845502    0.593644
     31          1           0       -2.750018   -4.164769   -1.087959
     32          1           0       -3.864980   -4.752298    0.169898
     33          1           0       -6.797466   -1.267396   -0.077216
     34          1           0       -4.777774    0.483542   -0.542959
     35          1           0        1.918456    2.031023    1.083789
     36          1           0        0.171327    2.391275    1.178302
     37          1           0        1.270176   -1.501323    1.936728
     38          1           0        3.100226    0.277383    0.451525
     39          1           0        2.349052   -1.111992   -0.364749
     40          1           0        3.394369   -2.634897    1.297099
     41          1           0        4.033665   -1.237743    2.187661
     42          1           0        5.743702   -2.308169    0.712107
     43          1           0        4.732059   -1.925411   -0.706105
     44          1           0        6.013672   -0.391359   -1.709874
     45          1           0        6.961057    1.875153    0.112246
     46          1           0        5.590962    1.950042   -0.998010
     47          1           0        7.233461    1.784044   -1.636252
     48          1           0        8.488437   -0.375016   -1.302931
     49          1           0        7.709423   -1.760865   -0.539090
     50          1           0        8.188495   -0.369315    0.441384
     51          1           0       -2.782941    0.824819    1.704621
     52          1           0       -3.851699    2.969238    2.321556
     53          1           0       -3.915439    4.826576    0.698259
     54          1           0       -2.921885    4.542252   -1.541581
     55          1           0       -1.876256    2.392018   -2.164579
 ---------------------------------------------------------------------
 Rotational constants (GHZ):           0.2728395           0.0820429           0.0697650
 Leave Link  202 at Fri Nov  4 18:53:04 2022, MaxMem=   805306368 cpu:               0.4 elap:               0.1
 (Enter /home/wykgroup/appl/g16/l301.exe)
 Standard basis: 6-31G(d) (6D, 7F)
 Ernie: Thresh=  0.10000D-02 Tol=  0.10000D-05 Strict=F.
 There are   491 symmetry adapted cartesian basis functions of A   symmetry.
 There are   491 symmetry adapted basis functions of A   symmetry.
   491 basis functions,   940 primitive gaussians,   491 cartesian basis functions
   110 alpha electrons      110 beta electrons
       nuclear repulsion energy      3000.4305632660 Hartrees.
 IExCor=  402 DFT=T Ex+Corr=B3LYP ExCW=0 ScaHFX=  0.200000
 ScaDFX=  0.800000  0.720000  1.000000  0.810000 ScalE2=  1.000000  1.000000
 IRadAn=      5 IRanWt=     -1 IRanGd=            0 ICorTp=0 IEmpDi=  4
 NAtoms=   55 NActive=   55 NUniq=   55 SFac= 1.00D+00 NAtFMM=   60 NAOKFM=F Big=F
 Integral buffers will be    131072 words long.
 Raffenetti 2 integral format.
 Two-electron integral symmetry is turned on.
 Leave Link  301 at Fri Nov  4 18:53:04 2022, MaxMem=   805306368 cpu:               0.5 elap:               0.1
 (Enter /home/wykgroup/appl/g16/l302.exe)
 NPDir=0 NMtPBC=     1 NCelOv=     1 NCel=       1 NClECP=     1 NCelD=      1
         NCelK=      1 NCelE2=     1 NClLst=     1 CellRange=     0.0.
 One-electron integrals computed using PRISM.
 One-electron integral symmetry used in STVInt
 NBasis=   491 RedAO= T EigKep=  4.24D-04  NBF=   491
 NBsUse=   491 1.00D-06 EigRej= -1.00D+00 NBFU=   491
 Precomputing XC quadrature grid using
 IXCGrd= 4 IRadAn=           5 IRanWt=          -1 IRanGd=           0 AccXCQ= 0.00D+00.
 Generated NRdTot=       0 NPtTot=           0 NUsed=           0 NTot=          32
 NSgBfM=   479   477   479   479   479 MxSgAt=    55 MxSgA2=    55.
 Leave Link  302 at Fri Nov  4 18:53:05 2022, MaxMem=   805306368 cpu:               6.6 elap:               1.0
 (Enter /home/wykgroup/appl/g16/l303.exe)
 DipDrv:  MaxL=1.
 Leave Link  303 at Fri Nov  4 18:53:05 2022, MaxMem=   805306368 cpu:               0.8 elap:               0.2
 (Enter /home/wykgroup/appl/g16/l401.exe)
 ExpMin= 1.17D-01 ExpMax= 2.19D+04 ExpMxC= 3.30D+03 IAcc=3 IRadAn=         5 AccDes= 0.00D+00
 Harris functional with IExCor=  402 and IRadAn=       5 diagonalized for initial guess.
 HarFok:  IExCor=  402 AccDes= 0.00D+00 IRadAn=         5 IDoV= 1 UseB2=F ITyADJ=14
 ICtDFT=  3500011 ScaDFX=  1.000000  1.000000  1.000000  1.000000
 FoFCou: FMM=F IPFlag=           0 FMFlag=      100000 FMFlg1=           0
         NFxFlg=           0 DoJE=T BraDBF=F KetDBF=T FulRan=T
         wScrn=  0.000000 ICntrl=       500 IOpCl=  0 I1Cent=   200000004 NGrid=           0
         NMat0=    1 NMatS0=      1 NMatT0=    0 NMatD0=    1 NMtDS0=    0 NMtDT0=    0
 Petite list used in FoFCou.
 Harris En= -1658.66528719884    
 JPrj=0 DoOrth=F DoCkMO=F.
 Leave Link  401 at Fri Nov  4 18:53:09 2022, MaxMem=   805306368 cpu:              27.0 elap:               3.9
 (Enter /home/wykgroup/appl/g16/l502.exe)
 Integral symmetry usage will be decided dynamically.
 Closed shell SCF:
 Using DIIS extrapolation, IDIIS=  1040.
 NGot=   805306368 LenX=   804815292 LenY=   804573720
 Requested convergence on RMS density matrix=1.00D-08 within  32 cycles.
 Requested convergence on MAX density matrix=1.00D-06.
 Requested convergence on             energy=1.00D-06.
 No special actions if energy rises.
 Fock matrices will be formed incrementally for  20 cycles.
 Integral accuracy reduced to 1.0D-05 until final iterations.

 Cycle   1  Pass 0  IDiag  1:
 FoFJK:  IHMeth= 1 ICntrl=       0 DoSepK=F KAlg= 0 I1Cent=           0 FoldK=F
 IRaf= 660000000 NMat=       1 IRICut=       1 DoRegI=T DoRafI=F ISym2E= 0 IDoP0=0 IntGTp=1.
 FoFCou: FMM=F IPFlag=           0 FMFlag=      100000 FMFlg1=           0
         NFxFlg=           0 DoJE=F BraDBF=F KetDBF=F FulRan=T
         wScrn=  0.000000 ICntrl=         0 IOpCl=  0 I1Cent=           0 NGrid=           0
         NMat0=    1 NMatS0=      1 NMatT0=    0 NMatD0=    1 NMtDS0=    0 NMtDT0=    0
 Symmetry not used in FoFCou.
 E= -1658.02517654397    
 DIIS: error= 5.54D-02 at cycle   1 NSaved=   1.
 NSaved= 1 IEnMin= 1 EnMin= -1658.02517654397     IErMin= 1 ErrMin= 5.54D-02
 ErrMax= 5.54D-02  0.00D+00 EMaxC= 1.00D-01 BMatC= 7.03D-01 BMatP= 7.03D-01
 IDIUse=3 WtCom= 4.46D-01 WtEn= 5.54D-01
 Coeff-Com:  0.100D+01
 Coeff-En:   0.100D+01
 Coeff:      0.100D+01
 Gap=     0.385 Goal=   None    Shift=    0.000
 GapD=    0.385 DampG=1.000 DampE=0.500 DampFc=0.5000 IDamp=-1.
 Damping current iteration by 5.00D-01
 RMSDP=4.41D-03 MaxDP=2.44D-01              OVMax= 2.79D-01

 Cycle   2  Pass 0  IDiag  1:
 RMSU=  2.19D-03    CP:  9.83D-01
 E= -1658.27690957279     Delta-E=       -0.251733028826 Rises=F Damp=T
 DIIS: error= 8.37D-03 at cycle   2 NSaved=   2.
 NSaved= 2 IEnMin= 2 EnMin= -1658.27690957279     IErMin= 2 ErrMin= 8.37D-03
 ErrMax= 8.37D-03  0.00D+00 EMaxC= 1.00D-01 BMatC= 8.24D-02 BMatP= 7.03D-01
 IDIUse=3 WtCom= 9.16D-01 WtEn= 8.37D-02
 Coeff-Com:  0.143D+00 0.857D+00
 Coeff-En:   0.237D+00 0.763D+00
 Coeff:      0.151D+00 0.849D+00
 Gap=     0.291 Goal=   None    Shift=    0.000
 RMSDP=1.51D-03 MaxDP=1.19D-01 DE=-2.52D-01 OVMax= 2.22D-01

 Cycle   3  Pass 0  IDiag  1:
 RMSU=  1.32D-03    CP:  9.72D-01  6.72D-01
 E= -1658.61663085497     Delta-E=       -0.339721282178 Rises=F Damp=F
 DIIS: error= 1.20D-02 at cycle   3 NSaved=   3.
 NSaved= 3 IEnMin= 3 EnMin= -1658.61663085497     IErMin= 2 ErrMin= 8.37D-03
 ErrMax= 1.20D-02  0.00D+00 EMaxC= 1.00D-01 BMatC= 1.16D-01 BMatP= 8.24D-02
 IDIUse=2 WtCom= 0.00D+00 WtEn= 1.00D+00
 Coeff-En:   0.000D+00 0.000D+00 0.100D+01
 Coeff:      0.000D+00 0.000D+00 0.100D+01
 Gap=     0.172 Goal=   None    Shift=    0.000
 RMSDP=2.59D-03 MaxDP=2.26D-01 DE=-3.40D-01 OVMax= 3.82D-01

 Cycle   4  Pass 0  IDiag  1:
 RMSU=  1.32D-03    CP:  9.82D-01  1.26D+00 -3.71D-01
 E= -1658.10253124805     Delta-E=        0.514099606922 Rises=F Damp=F
 DIIS: error= 3.40D-02 at cycle   4 NSaved=   4.
 NSaved= 4 IEnMin= 3 EnMin= -1658.61663085497     IErMin= 2 ErrMin= 8.37D-03
 ErrMax= 3.40D-02  0.00D+00 EMaxC= 1.00D-01 BMatC= 7.19D-01 BMatP= 8.24D-02
 IDIUse=2 WtCom= 0.00D+00 WtEn= 1.00D+00
 Coeff-En:   0.000D+00 0.000D+00 0.803D+00 0.197D+00
 Coeff:      0.000D+00 0.000D+00 0.803D+00 0.197D+00
 Gap=     0.176 Goal=   None    Shift=    0.000
 RMSDP=1.47D-03 MaxDP=1.47D-01 DE= 5.14D-01 OVMax= 1.82D-01

 Cycle   5  Pass 0  IDiag  1:
 RMSU=  2.94D-04    CP:  9.78D-01  8.88D-01  3.62D-01  4.68D-01
 E= -1658.67000581587     Delta-E=       -0.567474567821 Rises=F Damp=F
 DIIS: error= 7.85D-03 at cycle   5 NSaved=   5.
 NSaved= 5 IEnMin= 5 EnMin= -1658.67000581587     IErMin= 5 ErrMin= 7.85D-03
 ErrMax= 7.85D-03  0.00D+00 EMaxC= 1.00D-01 BMatC= 5.57D-02 BMatP= 8.24D-02
 IDIUse=3 WtCom= 9.22D-01 WtEn= 7.85D-02
 Coeff-Com:  0.239D-02 0.250D-01 0.357D+00-0.484D-01 0.664D+00
 Coeff-En:   0.000D+00 0.000D+00 0.364D+00 0.000D+00 0.636D+00
 Coeff:      0.220D-02 0.230D-01 0.358D+00-0.446D-01 0.662D+00
 Gap=     0.181 Goal=   None    Shift=    0.000
 RMSDP=5.09D-04 MaxDP=3.27D-02 DE=-5.67D-01 OVMax= 4.83D-02

 Cycle   6  Pass 0  IDiag  1:
 RMSU=  1.24D-04    CP:  9.76D-01  7.90D-01  6.20D-01  2.68D-01  6.46D-01
 E= -1658.71698740581     Delta-E=       -0.046981589937 Rises=F Damp=F
 DIIS: error= 1.15D-03 at cycle   6 NSaved=   6.
 NSaved= 6 IEnMin= 6 EnMin= -1658.71698740581     IErMin= 6 ErrMin= 1.15D-03
 ErrMax= 1.15D-03  0.00D+00 EMaxC= 1.00D-01 BMatC= 1.20D-03 BMatP= 5.57D-02
 IDIUse=3 WtCom= 9.89D-01 WtEn= 1.15D-02
 Coeff-Com: -0.167D-02 0.138D-01 0.188D+00-0.588D-01 0.468D+00 0.391D+00
 Coeff-En:   0.000D+00 0.000D+00 0.000D+00 0.000D+00 0.000D+00 0.100D+01
 Coeff:     -0.165D-02 0.136D-01 0.186D+00-0.581D-01 0.463D+00 0.398D+00
 Gap=     0.178 Goal=   None    Shift=    0.000
 RMSDP=7.95D-05 MaxDP=4.99D-03 DE=-4.70D-02 OVMax= 7.60D-03

 Cycle   7  Pass 0  IDiag  1:
 RMSU=  2.97D-05    CP:  9.76D-01  7.93D-01  6.19D-01  2.75D-01  7.40D-01
                    CP:  4.56D-01
 E= -1658.71799208985     Delta-E=       -0.001004684041 Rises=F Damp=F
 DIIS: error= 3.12D-04 at cycle   7 NSaved=   7.
 NSaved= 7 IEnMin= 7 EnMin= -1658.71799208985     IErMin= 7 ErrMin= 3.12D-04
 ErrMax= 3.12D-04  0.00D+00 EMaxC= 1.00D-01 BMatC= 5.60D-05 BMatP= 1.20D-03
 IDIUse=3 WtCom= 9.97D-01 WtEn= 3.12D-03
 Coeff-Com: -0.592D-03 0.425D-02 0.771D-01-0.290D-01 0.202D+00 0.207D+00
 Coeff-Com:  0.539D+00
 Coeff-En:   0.000D+00 0.000D+00 0.000D+00 0.000D+00 0.000D+00 0.000D+00
 Coeff-En:   0.100D+01
 Coeff:     -0.590D-03 0.424D-02 0.768D-01-0.289D-01 0.202D+00 0.206D+00
 Coeff:      0.540D+00
 Gap=     0.178 Goal=   None    Shift=    0.000
 RMSDP=2.18D-05 MaxDP=1.09D-03 DE=-1.00D-03 OVMax= 2.32D-03

 Cycle   8  Pass 0  IDiag  1:
 RMSU=  1.41D-05    CP:  9.75D-01  7.92D-01  6.21D-01  2.72D-01  7.37D-01
                    CP:  5.10D-01  5.26D-01
 E= -1658.71802949778     Delta-E=       -0.000037407928 Rises=F Damp=F
 DIIS: error= 1.26D-04 at cycle   8 NSaved=   8.
 NSaved= 8 IEnMin= 8 EnMin= -1658.71802949778     IErMin= 8 ErrMin= 1.26D-04
 ErrMax= 1.26D-04  0.00D+00 EMaxC= 1.00D-01 BMatC= 1.71D-05 BMatP= 5.60D-05
 IDIUse=3 WtCom= 9.99D-01 WtEn= 1.26D-03
 Coeff-Com:  0.287D-03-0.805D-03 0.174D-01-0.678D-02 0.410D-01 0.521D-01
 Coeff-Com:  0.387D+00 0.510D+00
 Coeff-En:   0.000D+00 0.000D+00 0.000D+00 0.000D+00 0.000D+00 0.000D+00
 Coeff-En:   0.224D+00 0.776D+00
 Coeff:      0.286D-03-0.804D-03 0.174D-01-0.677D-02 0.410D-01 0.520D-01
 Coeff:      0.386D+00 0.510D+00
 Gap=     0.178 Goal=   None    Shift=    0.000
 RMSDP=9.73D-06 MaxDP=5.68D-04 DE=-3.74D-05 OVMax= 9.51D-04

 Initial convergence to 1.0D-05 achieved.  Increase integral accuracy.
 Cycle   9  Pass 1  IDiag  1:
 E= -1658.71804499637     Delta-E=       -0.000015498591 Rises=F Damp=F
 DIIS: error= 8.09D-05 at cycle   1 NSaved=   1.
 NSaved= 1 IEnMin= 1 EnMin= -1658.71804499637     IErMin= 1 ErrMin= 8.09D-05
 ErrMax= 8.09D-05  0.00D+00 EMaxC= 1.00D-01 BMatC= 2.18D-06 BMatP= 2.18D-06
 IDIUse=1 WtCom= 1.00D+00 WtEn= 0.00D+00
 Coeff-Com:  0.100D+01
 Coeff:      0.100D+01
 Gap=     0.178 Goal=   None    Shift=    0.000
 RMSDP=9.73D-06 MaxDP=5.68D-04 DE=-1.55D-05 OVMax= 5.98D-04

 Cycle  10  Pass 1  IDiag  1:
 RMSU=  3.47D-05    CP:  1.00D+00
 E= -1658.71804339451     Delta-E=        0.000001601856 Rises=F Damp=F
 DIIS: error= 5.99D-05 at cycle   2 NSaved=   2.
 NSaved= 2 IEnMin= 1 EnMin= -1658.71804499637     IErMin= 2 ErrMin= 5.99D-05
 ErrMax= 5.99D-05  0.00D+00 EMaxC= 1.00D-01 BMatC= 3.94D-06 BMatP= 2.18D-06
 IDIUse=1 WtCom= 1.00D+00 WtEn= 0.00D+00
 Coeff-Com:  0.589D+00 0.411D+00
 Coeff:      0.589D+00 0.411D+00
 Gap=     0.178 Goal=   None    Shift=    0.000
 RMSDP=5.55D-06 MaxDP=3.41D-04 DE= 1.60D-06 OVMax= 5.49D-04

 Cycle  11  Pass 1  IDiag  1:
 RMSU=  5.49D-06    CP:  1.00D+00  9.78D-01
 E= -1658.71804659692     Delta-E=       -0.000003202405 Rises=F Damp=F
 DIIS: error= 2.32D-05 at cycle   3 NSaved=   3.
 NSaved= 3 IEnMin= 3 EnMin= -1658.71804659692     IErMin= 3 ErrMin= 2.32D-05
 ErrMax= 2.32D-05  0.00D+00 EMaxC= 1.00D-01 BMatC= 4.45D-07 BMatP= 2.18D-06
 IDIUse=1 WtCom= 1.00D+00 WtEn= 0.00D+00
 Coeff-Com:  0.854D-01 0.250D+00 0.665D+00
 Coeff:      0.854D-01 0.250D+00 0.665D+00
 Gap=     0.178 Goal=   None    Shift=    0.000
 RMSDP=1.90D-06 MaxDP=8.91D-05 DE=-3.20D-06 OVMax= 1.93D-04

 Cycle  12  Pass 1  IDiag  1:
 RMSU=  1.35D-06    CP:  1.00D+00  9.90D-01  7.66D-01
 E= -1658.71804690754     Delta-E=       -0.000000310625 Rises=F Damp=F
 DIIS: error= 9.88D-06 at cycle   4 NSaved=   4.
 NSaved= 4 IEnMin= 4 EnMin= -1658.71804690754     IErMin= 4 ErrMin= 9.88D-06
 ErrMax= 9.88D-06  0.00D+00 EMaxC= 1.00D-01 BMatC= 1.11D-07 BMatP= 4.45D-07
 IDIUse=1 WtCom= 1.00D+00 WtEn= 0.00D+00
 Coeff-Com:  0.206D-02 0.130D+00 0.450D+00 0.418D+00
 Coeff:      0.206D-02 0.130D+00 0.450D+00 0.418D+00
 Gap=     0.178 Goal=   None    Shift=    0.000
 RMSDP=8.25D-07 MaxDP=3.82D-05 DE=-3.11D-07 OVMax= 7.46D-05

 Cycle  13  Pass 1  IDiag  1:
 RMSU=  2.64D-07    CP:  1.00D+00  9.91D-01  7.87D-01  4.27D-01
 E= -1658.71804700952     Delta-E=       -0.000000101976 Rises=F Damp=F
 DIIS: error= 2.53D-06 at cycle   5 NSaved=   5.
 NSaved= 5 IEnMin= 5 EnMin= -1658.71804700952     IErMin= 5 ErrMin= 2.53D-06
 ErrMax= 2.53D-06  0.00D+00 EMaxC= 1.00D-01 BMatC= 5.23D-09 BMatP= 1.11D-07
 IDIUse=1 WtCom= 1.00D+00 WtEn= 0.00D+00
 Coeff-Com: -0.220D-02 0.758D-01 0.271D+00 0.276D+00 0.380D+00
 Coeff:     -0.220D-02 0.758D-01 0.271D+00 0.276D+00 0.380D+00
 Gap=     0.178 Goal=   None    Shift=    0.000
 RMSDP=1.68D-07 MaxDP=9.47D-06 DE=-1.02D-07 OVMax= 1.45D-05

 Cycle  14  Pass 1  IDiag  1:
 RMSU=  6.40D-08    CP:  1.00D+00  9.91D-01  7.83D-01  4.45D-01  4.25D-01
 E= -1658.71804701422     Delta-E=       -0.000000004702 Rises=F Damp=F
 DIIS: error= 2.97D-07 at cycle   6 NSaved=   6.
 NSaved= 6 IEnMin= 6 EnMin= -1658.71804701422     IErMin= 6 ErrMin= 2.97D-07
 ErrMax= 2.97D-07  0.00D+00 EMaxC= 1.00D-01 BMatC= 1.31D-10 BMatP= 5.23D-09
 IDIUse=1 WtCom= 1.00D+00 WtEn= 0.00D+00
 Coeff-Com: -0.136D-02 0.391D-01 0.140D+00 0.144D+00 0.221D+00 0.457D+00
 Coeff:     -0.136D-02 0.391D-01 0.140D+00 0.144D+00 0.221D+00 0.457D+00
 Gap=     0.178 Goal=   None    Shift=    0.000
 RMSDP=2.59D-08 MaxDP=1.57D-06 DE=-4.70D-09 OVMax= 2.35D-06

 Cycle  15  Pass 1  IDiag  1:
 RMSU=  1.90D-08    CP:  1.00D+00  9.91D-01  7.83D-01  4.43D-01  4.43D-01
                    CP:  7.40D-01
 E= -1658.71804701436     Delta-E=       -0.000000000138 Rises=F Damp=F
 DIIS: error= 6.65D-08 at cycle   7 NSaved=   7.
 NSaved= 7 IEnMin= 7 EnMin= -1658.71804701436     IErMin= 7 ErrMin= 6.65D-08
 ErrMax= 6.65D-08  0.00D+00 EMaxC= 1.00D-01 BMatC= 4.63D-12 BMatP= 1.31D-10
 IDIUse=1 WtCom= 1.00D+00 WtEn= 0.00D+00
 Coeff-Com: -0.409D-03 0.106D-01 0.379D-01 0.395D-01 0.625D-01 0.205D+00
 Coeff-Com:  0.645D+00
 Coeff:     -0.409D-03 0.106D-01 0.379D-01 0.395D-01 0.625D-01 0.205D+00
 Coeff:      0.645D+00
 Gap=     0.178 Goal=   None    Shift=    0.000
 RMSDP=7.11D-09 MaxDP=4.10D-07 DE=-1.38D-10 OVMax= 5.79D-07

 SCF Done:  E(RB3LYP) =  -1658.71804701     A.U. after   15 cycles
            NFock= 15  Conv=0.71D-08     -V/T= 2.0072
 KE= 1.646781385311D+03 PE=-9.879108657286D+03 EE= 3.573178661695D+03
 Leave Link  502 at Fri Nov  4 18:54:39 2022, MaxMem=   805306368 cpu:             631.4 elap:              90.2
 (Enter /home/wykgroup/appl/g16/l508.exe)
 QCSCF skips out because SCF is already converged.
 Leave Link  508 at Fri Nov  4 18:54:39 2022, MaxMem=   805306368 cpu:               0.2 elap:               0.0
 (Enter /home/wykgroup/appl/g16/l601.exe)
 Copying SCF densities to generalized density rwf, IOpCl= 0 IROHF=0.

 **********************************************************************

            Population analysis using the SCF Density.

 **********************************************************************

 Orbital symmetries:
       Occupied  (A) (A) (A) (A) (A) (A) (A) (A) (A) (A) (A) (A)
                 (A) (A) (A) (A) (A) (A) (A) (A) (A) (A) (A) (A)
                 (A) (A) (A) (A) (A) (A) (A) (A) (A) (A) (A) (A)
                 (A) (A) (A) (A) (A) (A) (A) (A) (A) (A) (A) (A)
                 (A) (A) (A) (A) (A) (A) (A) (A) (A) (A) (A) (A)
                 (A) (A) (A) (A) (A) (A) (A) (A) (A) (A) (A) (A)
                 (A) (A) (A) (A) (A) (A) (A) (A) (A) (A) (A) (A)
                 (A) (A) (A) (A) (A) (A) (A) (A) (A) (A) (A) (A)
                 (A) (A) (A) (A) (A) (A) (A) (A) (A) (A) (A) (A)
                 (A) (A)
       Virtual   (A) (A) (A) (A) (A) (A) (A) (A) (A) (A) (A) (A)
                 (A) (A) (A) (A) (A) (A) (A) (A) (A) (A) (A) (A)
                 (A) (A) (A) (A) (A) (A) (A) (A) (A) (A) (A) (A)
                 (A) (A) (A) (A) (A) (A) (A) (A) (A) (A) (A) (A)
                 (A) (A) (A) (A) (A) (A) (A) (A) (A) (A) (A) (A)
                 (A) (A) (A) (A) (A) (A) (A) (A) (A) (A) (A) (A)
                 (A) (A) (A) (A) (A) (A) (A) (A) (A) (A) (A) (A)
                 (A) (A) (A) (A) (A) (A) (A) (A) (A) (A) (A) (A)
                 (A) (A) (A) (A) (A) (A) (A) (A) (A) (A) (A) (A)
                 (A) (A) (A) (A) (A) (A) (A) (A) (A) (A) (A) (A)
                 (A) (A) (A) (A) (A) (A) (A) (A) (A) (A) (A) (A)
                 (A) (A) (A) (A) (A) (A) (A) (A) (A) (A) (A) (A)
                 (A) (A) (A) (A) (A) (A) (A) (A) (A) (A) (A) (A)
                 (A) (A) (A) (A) (A) (A) (A) (A) (A) (A) (A) (A)
                 (A) (A) (A) (A) (A) (A) (A) (A) (A) (A) (A) (A)
                 (A) (A) (A) (A) (A) (A) (A) (A) (A) (A) (A) (A)
                 (A) (A) (A) (A) (A) (A) (A) (A) (A) (A) (A) (A)
                 (A) (A) (A) (A) (A) (A) (A) (A) (A) (A) (A) (A)
                 (A) (A) (A) (A) (A) (A) (A) (A) (A) (A) (A) (A)
                 (A) (A) (A) (A) (A) (A) (A) (A) (A) (A) (A) (A)
                 (A) (A) (A) (A) (A) (A) (A) (A) (A) (A) (A) (A)
                 (A) (A) (A) (A) (A) (A) (A) (A) (A) (A) (A) (A)
                 (A) (A) (A) (A) (A) (A) (A) (A) (A) (A) (A) (A)
                 (A) (A) (A) (A) (A) (A) (A) (A) (A) (A) (A) (A)
                 (A) (A) (A) (A) (A) (A) (A) (A) (A) (A) (A) (A)
                 (A) (A) (A) (A) (A) (A) (A) (A) (A) (A) (A) (A)
                 (A) (A) (A) (A) (A) (A) (A) (A) (A) (A) (A) (A)
                 (A) (A) (A) (A) (A) (A) (A) (A) (A) (A) (A) (A)
                 (A) (A) (A) (A) (A) (A) (A) (A) (A) (A) (A) (A)
                 (A) (A) (A) (A) (A) (A) (A) (A) (A) (A) (A) (A)
                 (A) (A) (A) (A) (A) (A) (A) (A) (A) (A) (A) (A)
                 (A) (A) (A) (A) (A) (A) (A) (A) (A)
 The electronic state is 1-A.
 Alpha  occ. eigenvalues --  -88.89049 -19.21892 -19.14446 -19.10549 -14.40405
 Alpha  occ. eigenvalues --  -14.35135 -14.34066 -14.33196 -10.28407 -10.25950
 Alpha  occ. eigenvalues --  -10.25157 -10.24289 -10.23950 -10.23516 -10.23107
 Alpha  occ. eigenvalues --  -10.23053 -10.22233 -10.20899 -10.20197 -10.19900
 Alpha  occ. eigenvalues --  -10.19841 -10.19716 -10.19650 -10.19099 -10.18602
 Alpha  occ. eigenvalues --  -10.18340 -10.17861 -10.17263 -10.17115  -7.95141
 Alpha  occ. eigenvalues --   -5.91681  -5.91312  -5.90556  -1.12320  -1.07557
 Alpha  occ. eigenvalues --   -1.03443  -1.03335  -0.94731  -0.92260  -0.86344
 Alpha  occ. eigenvalues --   -0.84880  -0.81030  -0.79823  -0.78249  -0.77146
 Alpha  occ. eigenvalues --   -0.76205  -0.76143  -0.75830  -0.69554  -0.69178
 Alpha  occ. eigenvalues --   -0.68557  -0.67516  -0.65360  -0.63813  -0.62234
 Alpha  occ. eigenvalues --   -0.60430  -0.60335  -0.58500  -0.57856  -0.57291
 Alpha  occ. eigenvalues --   -0.55117  -0.53761  -0.51794  -0.50895  -0.50005
 Alpha  occ. eigenvalues --   -0.49739  -0.49543  -0.48429  -0.46589  -0.46236
 Alpha  occ. eigenvalues --   -0.45860  -0.45428  -0.44881  -0.44252  -0.44187
 Alpha  occ. eigenvalues --   -0.43396  -0.43150  -0.42556  -0.42301  -0.41338
 Alpha  occ. eigenvalues --   -0.40889  -0.40409  -0.39823  -0.39227  -0.39152
 Alpha  occ. eigenvalues --   -0.39013  -0.38797  -0.37733  -0.37476  -0.37355
 Alpha  occ. eigenvalues --   -0.36682  -0.36177  -0.35978  -0.35653  -0.34958
 Alpha  occ. eigenvalues --   -0.34170  -0.33727  -0.31195  -0.31064  -0.30779
 Alpha  occ. eigenvalues --   -0.30408  -0.26992  -0.26234  -0.25357  -0.25034
 Alpha  occ. eigenvalues --   -0.24797  -0.24278  -0.23970  -0.23326  -0.20579
 Alpha virt. eigenvalues --   -0.02763  -0.01051  -0.00416   0.00868   0.02295
 Alpha virt. eigenvalues --    0.03933   0.05529   0.08299   0.08788   0.09740
 Alpha virt. eigenvalues --    0.09879   0.11415   0.11791   0.12194   0.12373
 Alpha virt. eigenvalues --    0.13226   0.13358   0.13671   0.14011   0.14177
 Alpha virt. eigenvalues --    0.14556   0.14976   0.15488   0.15639   0.15897
 Alpha virt. eigenvalues --    0.16909   0.17243   0.17549   0.17784   0.18154
 Alpha virt. eigenvalues --    0.18644   0.18770   0.19319   0.19720   0.19759
 Alpha virt. eigenvalues --    0.20214   0.20452   0.20876   0.21721   0.22264
 Alpha virt. eigenvalues --    0.22989   0.23108   0.23492   0.24820   0.25096
 Alpha virt. eigenvalues --    0.25261   0.25375   0.26191   0.27704   0.28381
 Alpha virt. eigenvalues --    0.28891   0.29786   0.31427   0.32387   0.32627
 Alpha virt. eigenvalues --    0.33424   0.34239   0.36077   0.36248   0.38555
 Alpha virt. eigenvalues --    0.39160   0.40547   0.41651   0.42276   0.43162
 Alpha virt. eigenvalues --    0.45712   0.46771   0.48069   0.48593   0.50237
 Alpha virt. eigenvalues --    0.50662   0.51087   0.51820   0.52066   0.52629
 Alpha virt. eigenvalues --    0.53187   0.53958   0.54376   0.55066   0.55297
 Alpha virt. eigenvalues --    0.55828   0.56063   0.56844   0.57144   0.57576
 Alpha virt. eigenvalues --    0.57848   0.58370   0.58544   0.58956   0.59230
 Alpha virt. eigenvalues --    0.59569   0.59715   0.60272   0.60953   0.61538
 Alpha virt. eigenvalues --    0.61904   0.62135   0.62986   0.63529   0.63850
 Alpha virt. eigenvalues --    0.64131   0.65337   0.65745   0.66224   0.66843
 Alpha virt. eigenvalues --    0.66978   0.68188   0.68432   0.69995   0.70258
 Alpha virt. eigenvalues --    0.70946   0.71957   0.72921   0.74470   0.75320
 Alpha virt. eigenvalues --    0.76312   0.76965   0.77299   0.78466   0.78829
 Alpha virt. eigenvalues --    0.79429   0.80130   0.80677   0.81576   0.81869
 Alpha virt. eigenvalues --    0.82313   0.83183   0.83295   0.83465   0.84573
 Alpha virt. eigenvalues --    0.84841   0.85210   0.85913   0.86341   0.86651
 Alpha virt. eigenvalues --    0.87412   0.87642   0.88620   0.89240   0.89629
 Alpha virt. eigenvalues --    0.89843   0.90329   0.90574   0.90663   0.91538
 Alpha virt. eigenvalues --    0.91876   0.92110   0.92620   0.93615   0.94075
 Alpha virt. eigenvalues --    0.94283   0.94717   0.95332   0.95674   0.96041
 Alpha virt. eigenvalues --    0.97184   0.97430   0.97461   0.98264   0.99355
 Alpha virt. eigenvalues --    1.00027   1.00082   1.00508   1.01005   1.01429
 Alpha virt. eigenvalues --    1.01787   1.02934   1.03642   1.04515   1.05140
 Alpha virt. eigenvalues --    1.05721   1.07051   1.07169   1.08553   1.10237
 Alpha virt. eigenvalues --    1.11674   1.12539   1.14283   1.15189   1.15436
 Alpha virt. eigenvalues --    1.17417   1.17671   1.19124   1.19247   1.22272
 Alpha virt. eigenvalues --    1.23985   1.24542   1.25392   1.26107   1.26394
 Alpha virt. eigenvalues --    1.28160   1.31253   1.32053   1.34859   1.35216
 Alpha virt. eigenvalues --    1.36793   1.37378   1.37570   1.38577   1.39719
 Alpha virt. eigenvalues --    1.41220   1.41413   1.41898   1.42720   1.43229
 Alpha virt. eigenvalues --    1.44288   1.45051   1.45833   1.46947   1.47746
 Alpha virt. eigenvalues --    1.48442   1.48771   1.49507   1.50044   1.50651
 Alpha virt. eigenvalues --    1.51202   1.52903   1.54059   1.54896   1.55871
 Alpha virt. eigenvalues --    1.56817   1.60160   1.64038   1.65550   1.67769
 Alpha virt. eigenvalues --    1.68994   1.69713   1.70467   1.72100   1.72624
 Alpha virt. eigenvalues --    1.73618   1.76616   1.77166   1.77721   1.78739
 Alpha virt. eigenvalues --    1.80144   1.80613   1.81093   1.82704   1.82819
 Alpha virt. eigenvalues --    1.83888   1.84378   1.84746   1.85676   1.87678
 Alpha virt. eigenvalues --    1.88152   1.89237   1.89956   1.91040   1.92516
 Alpha virt. eigenvalues --    1.92603   1.93983   1.94301   1.95747   1.96973
 Alpha virt. eigenvalues --    1.98285   1.98576   1.99278   1.99706   2.00632
 Alpha virt. eigenvalues --    2.01562   2.04028   2.04842   2.05863   2.06383
 Alpha virt. eigenvalues --    2.07609   2.08579   2.08968   2.09361   2.09600
 Alpha virt. eigenvalues --    2.10561   2.11823   2.13049   2.13475   2.15608
 Alpha virt. eigenvalues --    2.16120   2.16418   2.16662   2.17800   2.19291
 Alpha virt. eigenvalues --    2.20385   2.21057   2.21146   2.22581   2.24334
 Alpha virt. eigenvalues --    2.24984   2.25152   2.26310   2.26792   2.27207
 Alpha virt. eigenvalues --    2.28855   2.29664   2.30027   2.30832   2.31048
 Alpha virt. eigenvalues --    2.31679   2.32451   2.33215   2.34722   2.34982
 Alpha virt. eigenvalues --    2.37321   2.38289   2.41045   2.43322   2.43948
 Alpha virt. eigenvalues --    2.45165   2.46335   2.47392   2.48968   2.49845
 Alpha virt. eigenvalues --    2.50651   2.52687   2.54844   2.57190   2.57839
 Alpha virt. eigenvalues --    2.58951   2.60352   2.62120   2.62950   2.63217
 Alpha virt. eigenvalues --    2.64941   2.66440   2.68135   2.69230   2.70037
 Alpha virt. eigenvalues --    2.71029   2.71261   2.72581   2.73987   2.75037
 Alpha virt. eigenvalues --    2.75500   2.77072   2.78047   2.80084   2.80587
 Alpha virt. eigenvalues --    2.82134   2.83810   2.89507   2.89594   2.94830
 Alpha virt. eigenvalues --    2.98605   3.01099   3.01656   3.03654   3.04958
 Alpha virt. eigenvalues --    3.06571   3.09296   3.15829   3.17308   3.33015
 Alpha virt. eigenvalues --    3.34475   3.46316   3.83097   3.94372   3.96859
 Alpha virt. eigenvalues --    3.98068   4.00848   4.09890   4.11980   4.12826
 Alpha virt. eigenvalues --    4.13967   4.16859   4.19326   4.20743   4.21546
 Alpha virt. eigenvalues --    4.22798   4.24803   4.29344   4.29682   4.31274
 Alpha virt. eigenvalues --    4.35045   4.39155   4.41345   4.43724   4.50353
 Alpha virt. eigenvalues --    4.51704   4.55008   4.56160   4.66270   4.72524
 Alpha virt. eigenvalues --    4.76052
          Condensed to atoms (all electrons):
 Mulliken charges:
               1
     1  C   -0.506990
     2  C    0.302254
     3  O   -0.415892
     4  C    0.059178
     5  C   -0.218196
     6  C    0.062188
     7  C    0.456240
     8  N   -0.398428
     9  N   -0.285865
    10  C    0.193016
    11  S    0.153536
    12  C   -0.531409
    13  C    0.584399
    14  O   -0.521198
    15  N   -0.553597
    16  C   -0.126536
    17  C   -0.300151
    18  C   -0.016989
    19  O   -0.479850
    20  C    0.156876
    21  C   -0.449784
    22  C   -0.457793
    23  N   -0.534358
    24  C    0.213336
    25  C   -0.113849
    26  C   -0.149412
    27  C   -0.116798
    28  C   -0.148802
    29  C   -0.115074
    30  H    0.183986
    31  H    0.192896
    32  H    0.159072
    33  H    0.154278
    34  H    0.158499
    35  H    0.198348
    36  H    0.214303
    37  H    0.329177
    38  H    0.171649
    39  H    0.191250
    40  H    0.139348
    41  H    0.155476
    42  H    0.126591
    43  H    0.124605
    44  H    0.113088
    45  H    0.152705
    46  H    0.153353
    47  H    0.142609
    48  H    0.145018
    49  H    0.147561
    50  H    0.152997
    51  H    0.183206
    52  H    0.142202
    53  H    0.135137
    54  H    0.138664
    55  H    0.153937
 Sum of Mulliken charges =  -0.00000
 Mulliken charges with hydrogens summed into heavy atoms:
               1
     1  C    0.028964
     2  C    0.302254
     3  O   -0.415892
     4  C    0.213455
     5  C   -0.059697
     6  C    0.062188
     7  C    0.456240
     8  N   -0.398428
     9  N   -0.285865
    10  C    0.193016
    11  S    0.153536
    12  C   -0.118759
    13  C    0.584399
    14  O   -0.521198
    15  N   -0.224421
    16  C    0.236363
    17  C   -0.005327
    18  C    0.234206
    19  O   -0.479850
    20  C    0.269964
    21  C   -0.001118
    22  C   -0.012217
    23  N   -0.534358
    24  C    0.213336
    25  C    0.069357
    26  C   -0.007210
    27  C    0.018339
    28  C   -0.010138
    29  C    0.038863
 Electronic spatial extent (au):  <R**2>=          15449.0081
 Charge=             -0.0000 electrons
 Dipole moment (field-independent basis, Debye):
    X=              0.5017    Y=              2.1579    Z=              0.0356  Tot=              2.2157
 Quadrupole moment (field-independent basis, Debye-Ang):
   XX=           -152.4313   YY=           -164.6890   ZZ=           -180.7788
   XY=            -10.9111   XZ=             -1.6759   YZ=             -4.7131
 Traceless Quadrupole moment (field-independent basis, Debye-Ang):
   XX=             13.5351   YY=              1.2774   ZZ=            -14.8124
   XY=            -10.9111   XZ=             -1.6759   YZ=             -4.7131
 Octapole moment (field-independent basis, Debye-Ang**2):
  XXX=             32.5548  YYY=              8.7880  ZZZ=             -3.2755  XYY=            -11.3668
  XXY=              9.8506  XXZ=            -11.4039  XZZ=             10.6247  YZZ=              4.4675
  YYZ=             17.9232  XYZ=             -4.3862
 Hexadecapole moment (field-independent basis, Debye-Ang**3):
 XXXX=         -14434.4964 YYYY=          -3837.9299 ZZZZ=          -1181.7267 XXXY=            -90.4695
 XXXZ=           -251.5890 YYYX=            -98.7663 YYYZ=            -29.6022 ZZZX=              1.1524
 ZZZY=            -19.5612 XXYY=          -3119.6268 XXZZ=          -2733.0922 YYZZ=           -840.1659
 XXYZ=             12.1460 YYXZ=              9.7513 ZZXY=            -23.1227
 N-N= 3.000430563266D+03 E-N=-9.879108667859D+03  KE= 1.646781385311D+03
 No NMR shielding tensors so no spin-rotation constants.
 Leave Link  601 at Fri Nov  4 18:54:40 2022, MaxMem=   805306368 cpu:               2.5 elap:               0.5
 (Enter /home/wykgroup/appl/g16/l701.exe)
 ... and contract with generalized density number  0.
 Compute integral first derivatives.
 Leave Link  701 at Fri Nov  4 18:54:40 2022, MaxMem=   805306368 cpu:               1.9 elap:               0.3
 (Enter /home/wykgroup/appl/g16/l702.exe)
 L702 exits ... SP integral derivatives will be done elsewhere.
 Leave Link  702 at Fri Nov  4 18:54:40 2022, MaxMem=   805306368 cpu:               0.2 elap:               0.1
 (Enter /home/wykgroup/appl/g16/l703.exe)
 Integral derivatives from FoFJK, PRISM(SPDF).
 Compute integral first derivatives, UseDBF=F ICtDFT=           0.
 Calling FoFJK, ICntrl=      2127 FMM=F ISym2X=0 I1Cent= 0 IOpClX= 0 NMat=1 NMatS=1 NMatT=0.
 FoFJK:  IHMeth= 1 ICntrl=    2127 DoSepK=F KAlg= 0 I1Cent=           0 FoldK=F
 IRaf=         0 NMat=       1 IRICut=       1 DoRegI=T DoRafI=F ISym2E= 0 IDoP0=0 IntGTp=1.
 FoFCou: FMM=F IPFlag=           0 FMFlag=      100000 FMFlg1=         800
         NFxFlg=           0 DoJE=F BraDBF=F KetDBF=F FulRan=T
         wScrn=  0.000000 ICntrl=      2127 IOpCl=  0 I1Cent=           0 NGrid=           0
         NMat0=    1 NMatS0=      1 NMatT0=    0 NMatD0=    1 NMtDS0=    0 NMtDT0=    0
 Symmetry not used in FoFCou.
 Leave Link  703 at Fri Nov  4 18:55:12 2022, MaxMem=   805306368 cpu:             222.7 elap:              31.8
 (Enter /home/wykgroup/appl/g16/l716.exe)
 Dipole        = 1.97378588D-01 8.48975348D-01 1.40024166D-02
 ***** Axes restored to original set *****
 -------------------------------------------------------------------
 Center     Atomic                   Forces (Hartrees/Bohr)
 Number     Number              X              Y              Z
 -------------------------------------------------------------------
      1        6          -0.005834375   -0.000557797    0.000543196
      2        6           0.018708882   -0.002364762   -0.000170965
      3        8          -0.008546875    0.013689872    0.001277732
      4        6          -0.004509302   -0.016721121   -0.002016349
      5        6          -0.006902268    0.000603557    0.000466272
      6        6          -0.004661821    0.004688187   -0.000090699
      7        6          -0.009822767   -0.001794949   -0.001881683
      8        7          -0.011820340    0.021800095    0.007565657
      9        7           0.023792711    0.001168519    0.005613896
     10        6           0.009069208   -0.018172313    0.001658874
     11       16           0.004978232   -0.005093868    0.009044503
     12        6          -0.001130590   -0.004356378   -0.000942983
     13        6           0.005266952   -0.007582784   -0.004108028
     14        8          -0.017880472    0.002788197   -0.010685423
     15        7           0.010050075    0.011019165   -0.002458715
     16        6           0.005628183    0.002443399    0.002747253
     17        6           0.004720056   -0.007199886    0.004039209
     18        6          -0.001669096    0.006879443   -0.001305936
     19        8          -0.002033929   -0.003880576   -0.004454641
     20        6           0.005625789   -0.004060648    0.003064509
     21        6          -0.003955388    0.006826681    0.002043551
     22        6          -0.007615348   -0.000620516    0.001037939
     23        7          -0.000678375    0.006919260    0.005466226
     24        6          -0.003349611   -0.004381496   -0.002678562
     25        6           0.000941849    0.005651420   -0.002499510
     26        6          -0.003627025   -0.000108594   -0.005068010
     27        6          -0.002882913   -0.005590914   -0.003442901
     28        6           0.000369787   -0.005853051    0.003071461
     29        6           0.000622881    0.000490753    0.005457070
     30        1           0.003642396    0.002243617   -0.002188025
     31        1           0.002684888    0.002357498    0.003378069
     32        1          -0.002050003    0.004867086   -0.000365095
     33        1          -0.006146668    0.001591586   -0.000224912
     34        1          -0.001545903   -0.005666400   -0.000494357
     35        1           0.003348699   -0.001836681   -0.001738246
     36        1           0.001256220    0.002311910   -0.003091235
     37        1          -0.004204649    0.000004671   -0.000938823
     38        1          -0.000169178    0.000395671    0.000922641
     39        1           0.001355546   -0.001499258    0.000348341
     40        1          -0.001027648    0.004681990   -0.000548895
     41        1           0.000235821    0.001923417   -0.004082829
     42        1           0.000399228    0.001256161    0.001510479
     43        1           0.000492219    0.001376465    0.001604161
     44        1          -0.000067376   -0.000348804   -0.000094948
     45        1           0.002502790   -0.001944947   -0.005337657
     46        1          -0.004155224   -0.003853951    0.000280327
     47        1           0.003870071   -0.003429409    0.003057398
     48        1           0.005054623   -0.001053316    0.003536825
     49        1           0.001403167    0.005450020    0.000978102
     50        1           0.002712350    0.000033029   -0.005020880
     51        1           0.000807280    0.002536328   -0.001545164
     52        1          -0.002187443    0.000439066   -0.004501172
     53        1          -0.001992731   -0.004076358   -0.002219449
     54        1           0.000090694   -0.004384050    0.002287969
     55        1           0.000836721   -0.000004237    0.003194429
 -------------------------------------------------------------------
 Cartesian Forces:  Max     0.023792711 RMS     0.005538205
 Leave Link  716 at Fri Nov  4 18:55:12 2022, MaxMem=   805306368 cpu:               0.3 elap:               0.1
 (Enter /home/wykgroup/appl/g16/l103.exe)

 GradGradGradGradGradGradGradGradGradGradGradGradGradGradGradGradGradGrad
 Berny optimization.
 FormGI is forming the generalized inverse of G from B-inverse, IUseBI=4.
 Internal  Forces:  Max     0.041794564 RMS     0.006196677
 Search for a local minimum.
 Step number   1 out of a maximum of  295
 All quantities printed in internal units (Hartrees-Bohrs-Radians)
 RMS Force = .61967D-02 SwitMx=.10000D-02 MixMth= 1
 Mixed Optimization -- RFO/linear search
 Second derivative matrix not updated -- first step.
 ITU=  0
     Eigenvalues ---    0.00230   0.00362   0.00416   0.00421   0.00428
     Eigenvalues ---    0.00508   0.01014   0.01026   0.01098   0.01311
     Eigenvalues ---    0.01462   0.01580   0.01587   0.01621   0.01658
     Eigenvalues ---    0.01739   0.01889   0.01936   0.02013   0.02026
     Eigenvalues ---    0.02042   0.02136   0.02240   0.02255   0.02268
     Eigenvalues ---    0.02275   0.02275   0.02281   0.02288   0.02291
     Eigenvalues ---    0.02298   0.02300   0.02460   0.02479   0.02598
     Eigenvalues ---    0.02601   0.03877   0.04478   0.04547   0.04887
     Eigenvalues ---    0.04992   0.05352   0.05611   0.05643   0.05718
     Eigenvalues ---    0.05735   0.05805   0.05961   0.06024   0.07083
     Eigenvalues ---    0.07275   0.07530   0.07649   0.07904   0.09133
     Eigenvalues ---    0.11186   0.11361   0.11870   0.12638   0.13673
     Eigenvalues ---    0.13874   0.15738   0.15994   0.15998   0.16000
     Eigenvalues ---    0.16000   0.16000   0.16000   0.16000   0.16000
     Eigenvalues ---    0.16000   0.16000   0.16000   0.16000   0.16000
     Eigenvalues ---    0.16000   0.16000   0.16000   0.16394   0.19830
[...]
     29          6           0       -3.393065    1.696480   -1.483660
     30          1           0       -2.476700   -3.878402   -1.206358
     31          1           0       -4.105621   -4.424091   -1.714799
     32          1           0       -3.461378   -4.884742   -0.132707
     33          1           0       -6.732221   -1.601747    0.997079
     34          1           0       -4.652103    0.185107    0.923562
     35          1           0        2.158028    2.385073    0.526092
     36          1           0        0.486853    2.864105    0.916919
     37          1           0        1.734179   -0.663125    2.560096
     38          1           0        3.380462    0.581178    0.415025
     39          1           0        2.581356   -0.967080    0.124569
     40          1           0        3.823410   -1.934935    2.101717
     41          1           0        4.590358   -0.365383    2.377100
     42          1           0        6.069743   -1.962538    1.162786
     43          1           0        4.886136   -2.077435   -0.156683
     44          1           0        6.281031   -1.179612   -1.722061
     45          1           0        7.157523    1.700561   -1.125813
     46          1           0        5.769336    1.219500   -2.122650
     47          1           0        7.422547    0.845637   -2.661264
     48          1           0        8.762528   -0.997373   -1.413003
     49          1           0        8.027241   -1.837150   -0.042214
     50          1           0        8.506906   -0.135590    0.120892
     51          1           0       -1.875165    1.900658    1.564431
     52          1           0       -3.255586    3.982675    1.650566
     53          1           0       -4.717017    4.585227   -0.267752
     54          1           0       -4.799042    3.118964   -2.273555
     55          1           0       -3.417975    1.047120   -2.353200
 ---------------------------------------------------------------------
 Rotational constants (GHZ):           0.2593689           0.0730470           0.0641336
 Leave Link  202 at Fri Nov  4 20:12:45 2022, MaxMem=   805306368 cpu:               0.1 elap:               0.0
 (Enter /home/wykgroup/appl/g16/l601.exe)
 Copying SCF densities to generalized density rwf, IOpCl= 0 IROHF=0.

 **********************************************************************

            Population analysis using the SCF Density.

 **********************************************************************

 Orbital symmetries:
       Occupied  (A) (A) (A) (A) (A) (A) (A) (A) (A) (A) (A) (A)
                 (A) (A) (A) (A) (A) (A) (A) (A) (A) (A) (A) (A)
                 (A) (A) (A) (A) (A) (A) (A) (A) (A) (A) (A) (A)
                 (A) (A) (A) (A) (A) (A) (A) (A) (A) (A) (A) (A)
                 (A) (A) (A) (A) (A) (A) (A) (A) (A) (A) (A) (A)
                 (A) (A) (A) (A) (A) (A) (A) (A) (A) (A) (A) (A)
                 (A) (A) (A) (A) (A) (A) (A) (A) (A) (A) (A) (A)
                 (A) (A) (A) (A) (A) (A) (A) (A) (A) (A) (A) (A)
                 (A) (A) (A) (A) (A) (A) (A) (A) (A) (A) (A) (A)
                 (A) (A)
       Virtual   (A) (A) (A) (A) (A) (A) (A) (A) (A) (A) (A) (A)
                 (A) (A) (A) (A) (A) (A) (A) (A) (A) (A) (A) (A)
                 (A) (A) (A) (A) (A) (A) (A) (A) (A) (A) (A) (A)
                 (A) (A) (A) (A) (A) (A) (A) (A) (A) (A) (A) (A)
                 (A) (A) (A) (A) (A) (A) (A) (A) (A) (A) (A) (A)
                 (A) (A) (A) (A) (A) (A) (A) (A) (A) (A) (A) (A)
                 (A) (A) (A) (A) (A) (A) (A) (A) (A) (A) (A) (A)
                 (A) (A) (A) (A) (A) (A) (A) (A) (A) (A) (A) (A)
                 (A) (A) (A) (A) (A) (A) (A) (A) (A) (A) (A) (A)
                 (A) (A) (A) (A) (A) (A) (A) (A) (A) (A) (A) (A)
                 (A) (A) (A) (A) (A) (A) (A) (A) (A) (A) (A) (A)
                 (A) (A) (A) (A) (A) (A) (A) (A) (A) (A) (A) (A)
                 (A) (A) (A) (A) (A) (A) (A) (A) (A) (A) (A) (A)
                 (A) (A) (A) (A) (A) (A) (A) (A) (A) (A) (A) (A)
                 (A) (A) (A) (A) (A) (A) (A) (A) (A) (A) (A) (A)
                 (A) (A) (A) (A) (A) (A) (A) (A) (A) (A) (A) (A)
                 (A) (A) (A) (A) (A) (A) (A) (A) (A) (A) (A) (A)
                 (A) (A) (A) (A) (A) (A) (A) (A) (A) (A) (A) (A)
                 (A) (A) (A) (A) (A) (A) (A) (A) (A) (A) (A) (A)
                 (A) (A) (A) (A) (A) (A) (A) (A) (A) (A) (A) (A)
                 (A) (A) (A) (A) (A) (A) (A) (A) (A) (A) (A) (A)
                 (A) (A) (A) (A) (A) (A) (A) (A) (A) (A) (A) (A)
                 (A) (A) (A) (A) (A) (A) (A) (A) (A) (A) (A) (A)
                 (A) (A) (A) (A) (A) (A) (A) (A) (A) (A) (A) (A)
                 (A) (A) (A) (A) (A) (A) (A) (A) (A) (A) (A) (A)
                 (A) (A) (A) (A) (A) (A) (A) (A) (A) (A) (A) (A)
                 (A) (A) (A) (A) (A) (A) (A) (A) (A) (A) (A) (A)
                 (A) (A) (A) (A) (A) (A) (A) (A) (A) (A) (A) (A)
                 (A) (A) (A) (A) (A) (A) (A) (A) (A) (A) (A) (A)
                 (A) (A) (A) (A) (A) (A) (A) (A) (A) (A) (A) (A)
                 (A) (A) (A) (A) (A) (A) (A) (A) (A) (A) (A) (A)
                 (A) (A) (A) (A) (A) (A) (A) (A) (A)
 The electronic state is 1-A.
 Alpha  occ. eigenvalues --  -88.89411 -19.21307 -19.14465 -19.11375 -14.40640
 Alpha  occ. eigenvalues --  -14.35796 -14.34492 -14.33664 -10.29248 -10.26531
 Alpha  occ. eigenvalues --  -10.25825 -10.24639 -10.24400 -10.23726 -10.23398
 Alpha  occ. eigenvalues --  -10.23366 -10.22754 -10.21747 -10.20671 -10.20482
 Alpha  occ. eigenvalues --  -10.20417 -10.20320 -10.19953 -10.19937 -10.19148
 Alpha  occ. eigenvalues --  -10.18751 -10.18170 -10.17654 -10.17440  -7.95409
 Alpha  occ. eigenvalues --   -5.91968  -5.91577  -5.90821  -1.10796  -1.06059
 Alpha  occ. eigenvalues --   -1.03169  -1.02823  -0.93426  -0.91942  -0.85871
 Alpha  occ. eigenvalues --   -0.84290  -0.80465  -0.79720  -0.77911  -0.76936
 Alpha  occ. eigenvalues --   -0.75949  -0.75856  -0.75746  -0.69573  -0.69140
 Alpha  occ. eigenvalues --   -0.68441  -0.67666  -0.64668  -0.63105  -0.62111
 Alpha  occ. eigenvalues --   -0.60368  -0.60232  -0.58209  -0.57874  -0.56828
 Alpha  occ. eigenvalues --   -0.54795  -0.53395  -0.51477  -0.50637  -0.49766
 Alpha  occ. eigenvalues --   -0.49653  -0.49163  -0.48369  -0.46187  -0.45960
 Alpha  occ. eigenvalues --   -0.45589  -0.45173  -0.44693  -0.44503  -0.44066
 Alpha  occ. eigenvalues --   -0.43350  -0.43006  -0.42295  -0.42047  -0.41739
 Alpha  occ. eigenvalues --   -0.40955  -0.39999  -0.39625  -0.39123  -0.38959
 Alpha  occ. eigenvalues --   -0.38707  -0.38682  -0.37646  -0.37398  -0.37320
 Alpha  occ. eigenvalues --   -0.36608  -0.36372  -0.36038  -0.35777  -0.35088
 Alpha  occ. eigenvalues --   -0.34123  -0.33824  -0.31127  -0.30863  -0.30159
 Alpha  occ. eigenvalues --   -0.29503  -0.27183  -0.26395  -0.25596  -0.25320
 Alpha  occ. eigenvalues --   -0.25117  -0.24608  -0.24515  -0.24012  -0.21105
 Alpha virt. eigenvalues --   -0.02639  -0.01743  -0.01509  -0.00104   0.01868
 Alpha virt. eigenvalues --    0.03500   0.05809   0.08076   0.08597   0.09029
 Alpha virt. eigenvalues --    0.09618   0.11000   0.11183   0.11362   0.11813
 Alpha virt. eigenvalues --    0.12867   0.13135   0.13411   0.13702   0.13920
 Alpha virt. eigenvalues --    0.14152   0.14538   0.14995   0.15330   0.15862
 Alpha virt. eigenvalues --    0.16587   0.16861   0.17353   0.17480   0.17574
 Alpha virt. eigenvalues --    0.18115   0.18467   0.19230   0.19339   0.19641
 Alpha virt. eigenvalues --    0.19880   0.20203   0.20824   0.20906   0.21406
 Alpha virt. eigenvalues --    0.21609   0.22545   0.22839   0.24270   0.24406
 Alpha virt. eigenvalues --    0.24931   0.25348   0.25467   0.26712   0.27525
 Alpha virt. eigenvalues --    0.28510   0.29513   0.31011   0.31516   0.31934
 Alpha virt. eigenvalues --    0.32778   0.33424   0.34603   0.36101   0.37171
 Alpha virt. eigenvalues --    0.38305   0.39748   0.39975   0.41805   0.42393
 Alpha virt. eigenvalues --    0.44989   0.45214   0.47462   0.48383   0.49468
 Alpha virt. eigenvalues --    0.50210   0.51117   0.51486   0.51511   0.52353
 Alpha virt. eigenvalues --    0.52761   0.53204   0.54166   0.54493   0.54821
 Alpha virt. eigenvalues --    0.55050   0.55359   0.56201   0.56373   0.56647
 Alpha virt. eigenvalues --    0.57076   0.57680   0.57889   0.58592   0.58877
 Alpha virt. eigenvalues --    0.59110   0.59652   0.60169   0.60453   0.60544
 Alpha virt. eigenvalues --    0.61389   0.61851   0.62216   0.62320   0.64091
 Alpha virt. eigenvalues --    0.64403   0.65037   0.65828   0.66387   0.66930
 Alpha virt. eigenvalues --    0.67306   0.67569   0.68178   0.68697   0.69324
 Alpha virt. eigenvalues --    0.70963   0.71128   0.71984   0.72995   0.73968
 Alpha virt. eigenvalues --    0.74988   0.75581   0.76674   0.76755   0.77664
 Alpha virt. eigenvalues --    0.77802   0.78615   0.79122   0.80381   0.80805
 Alpha virt. eigenvalues --    0.81648   0.82268   0.82411   0.82787   0.82987
 Alpha virt. eigenvalues --    0.83631   0.84642   0.85090   0.85768   0.86083
 Alpha virt. eigenvalues --    0.86771   0.87048   0.87418   0.87900   0.88356
 Alpha virt. eigenvalues --    0.89249   0.89407   0.89856   0.90051   0.90906
 Alpha virt. eigenvalues --    0.91070   0.91608   0.92043   0.92465   0.92929
 Alpha virt. eigenvalues --    0.92961   0.93734   0.94298   0.94647   0.94780
 Alpha virt. eigenvalues --    0.95677   0.96099   0.96740   0.97235   0.97835
 Alpha virt. eigenvalues --    0.98208   0.99357   0.99955   1.00454   1.01078
 Alpha virt. eigenvalues --    1.01641   1.02385   1.02913   1.03167   1.03503
 Alpha virt. eigenvalues --    1.04735   1.05499   1.07047   1.07394   1.08540
 Alpha virt. eigenvalues --    1.10634   1.11375   1.13101   1.13541   1.14723
 Alpha virt. eigenvalues --    1.16069   1.16708   1.17467   1.18579   1.20975
 Alpha virt. eigenvalues --    1.21496   1.23033   1.24287   1.26092   1.26715
 Alpha virt. eigenvalues --    1.27279   1.30803   1.32417   1.32797   1.35148
 Alpha virt. eigenvalues --    1.36070   1.36642   1.37707   1.38358   1.38738
 Alpha virt. eigenvalues --    1.39677   1.40464   1.41035   1.41636   1.42820
 Alpha virt. eigenvalues --    1.43524   1.43567   1.45085   1.45623   1.46336
 Alpha virt. eigenvalues --    1.47892   1.48510   1.48673   1.49548   1.49712
 Alpha virt. eigenvalues --    1.50541   1.51938   1.52375   1.53536   1.54551
 Alpha virt. eigenvalues --    1.56218   1.57088   1.62857   1.63133   1.64115
 Alpha virt. eigenvalues --    1.67230   1.68570   1.68803   1.70340   1.72313
 Alpha virt. eigenvalues --    1.73382   1.74108   1.75245   1.75505   1.78313
 Alpha virt. eigenvalues --    1.78715   1.79334   1.79676   1.80848   1.81425
 Alpha virt. eigenvalues --    1.82176   1.83005   1.83370   1.84016   1.84491
 Alpha virt. eigenvalues --    1.86094   1.86707   1.87563   1.89749   1.90241
 Alpha virt. eigenvalues --    1.90468   1.91900   1.93476   1.94426   1.95081
 Alpha virt. eigenvalues --    1.95514   1.96375   1.97060   1.97168   1.98944
 Alpha virt. eigenvalues --    2.00384   2.00935   2.01488   2.02710   2.04569
 Alpha virt. eigenvalues --    2.04900   2.05716   2.06242   2.06816   2.07387
 Alpha virt. eigenvalues --    2.08933   2.09901   2.10802   2.12584   2.13676
 Alpha virt. eigenvalues --    2.14613   2.14928   2.15612   2.17173   2.17730
 Alpha virt. eigenvalues --    2.18633   2.19261   2.19985   2.20519   2.22092
 Alpha virt. eigenvalues --    2.23433   2.23999   2.24494   2.25207   2.25622
 Alpha virt. eigenvalues --    2.26016   2.27884   2.28296   2.29227   2.29782
 Alpha virt. eigenvalues --    2.30545   2.30577   2.30750   2.32726   2.33942
 Alpha virt. eigenvalues --    2.34729   2.36314   2.36954   2.40695   2.41659
 Alpha virt. eigenvalues --    2.42069   2.42327   2.45358   2.47668   2.48489
 Alpha virt. eigenvalues --    2.49225   2.52109   2.53438   2.54568   2.56291
 Alpha virt. eigenvalues --    2.56920   2.57499   2.59107   2.61342   2.61700
 Alpha virt. eigenvalues --    2.61999   2.63771   2.66665   2.67434   2.67836
 Alpha virt. eigenvalues --    2.68552   2.69954   2.70905   2.71380   2.72542
 Alpha virt. eigenvalues --    2.72890   2.74634   2.76358   2.78299   2.79676
 Alpha virt. eigenvalues --    2.80437   2.81517   2.85914   2.88028   2.91769
 Alpha virt. eigenvalues --    2.95107   2.99180   2.99859   3.00517   3.01783
 Alpha virt. eigenvalues --    3.04673   3.06763   3.10935   3.12976   3.27401
 Alpha virt. eigenvalues --    3.29966   3.41894   3.79834   3.91148   3.93937
 Alpha virt. eigenvalues --    3.95408   3.98567   4.07866   4.08790   4.10563
 Alpha virt. eigenvalues --    4.11659   4.14627   4.17786   4.18519   4.19810
 Alpha virt. eigenvalues --    4.20703   4.22591   4.24486   4.26255   4.29068
 Alpha virt. eigenvalues --    4.32962   4.37532   4.39737   4.42804   4.46490
 Alpha virt. eigenvalues --    4.49526   4.52161   4.54189   4.57310   4.71732
 Alpha virt. eigenvalues --    4.73347
          Condensed to atoms (all electrons):
 Mulliken charges:
               1
     1  C   -0.534447
     2  C    0.323636
     3  O   -0.432495
     4  C    0.068488
     5  C   -0.208433
     6  C    0.033393
     7  C    0.453178
     8  N   -0.386706
     9  N   -0.289721
    10  C    0.213680
    11  S    0.162267
    12  C   -0.525370
    13  C    0.593633
    14  O   -0.510451
    15  N   -0.572124
    16  C   -0.125960
    17  C   -0.297778
    18  C   -0.015465
    19  O   -0.486906
    20  C    0.163085
    21  C   -0.449787
    22  C   -0.457409
    23  N   -0.550672
    24  C    0.209939
    25  C   -0.150180
    26  C   -0.155863
    27  C   -0.114511
    28  C   -0.145387
    29  C   -0.115242
    30  H    0.209579
    31  H    0.163226
    32  H    0.172207
    33  H    0.157698
    34  H    0.161681
    35  H    0.195870
    36  H    0.206608
    37  H    0.331926
    38  H    0.173236
    39  H    0.192470
    40  H    0.137999
    41  H    0.157363
    42  H    0.126765
    43  H    0.126246
    44  H    0.114461
    45  H    0.151467
    46  H    0.155804
    47  H    0.141785
    48  H    0.143976
    49  H    0.147192
    50  H    0.152291
    51  H    0.207927
    52  H    0.144830
    53  H    0.138157
    54  H    0.141743
    55  H    0.151100
 Sum of Mulliken charges =  -0.00000
 Mulliken charges with hydrogens summed into heavy atoms:
               1
     1  C    0.010565
     2  C    0.323636
     3  O   -0.432495
     4  C    0.226186
     5  C   -0.046752
     6  C    0.033393
     7  C    0.453178
     8  N   -0.386706
     9  N   -0.289721
    10  C    0.213680
    11  S    0.162267
    12  C   -0.122893
    13  C    0.593633
    14  O   -0.510451
    15  N   -0.240198
    16  C    0.239746
    17  C   -0.002416
    18  C    0.237546
    19  O   -0.486906
    20  C    0.277546
    21  C   -0.000731
    22  C   -0.013950
    23  N   -0.550672
    24  C    0.209939
    25  C    0.057747
    26  C   -0.011033
    27  C    0.023647
    28  C   -0.003643
    29  C    0.035858
 Electronic spatial extent (au):  <R**2>=          16917.3420
 Charge=              0.0000 electrons
 Dipole moment (field-independent basis, Debye):
    X=              0.2769    Y=              1.8146    Z=             -0.6695  Tot=              1.9538
 Quadrupole moment (field-independent basis, Debye-Ang):
   XX=           -145.6592   YY=           -168.4815   ZZ=           -178.4715
   XY=            -12.6620   XZ=              2.9812   YZ=             -2.1855
 Traceless Quadrupole moment (field-independent basis, Debye-Ang):
   XX=             18.5449   YY=             -4.2774   ZZ=            -14.2675
   XY=            -12.6620   XZ=              2.9812   YZ=             -2.1855
 Octapole moment (field-independent basis, Debye-Ang**2):
  XXX=             39.1833  YYY=             15.9516  ZZZ=            -12.8334  XYY=            -11.9298
  XXY=              7.3755  XXZ=            -17.0462  XZZ=              8.2680  YZZ=            -14.5068
  YYZ=             12.7969  XYZ=             -5.6838
 Hexadecapole moment (field-independent basis, Debye-Ang**3):
 XXXX=         -16016.4662 YYYY=          -3828.1400 ZZZZ=          -1487.3870 XXXY=           -301.6935
 XXXZ=           -262.4003 YYYX=            -66.7433 YYYZ=             66.7135 ZZZX=             54.0614
 ZZZY=            -29.6822 XXYY=          -3335.1099 XXZZ=          -2960.2183 YYZZ=           -895.0122
 XXYZ=            -41.5259 YYXZ=             43.4834 ZZXY=            -23.0513
 N-N= 2.908456203273D+03 E-N=-9.694168984595D+03  KE= 1.645605113239D+03
 No NMR shielding tensors so no spin-rotation constants.
 Leave Link  601 at Fri Nov  4 20:12:45 2022, MaxMem=   805306368 cpu:               1.3 elap:               0.2
 (Enter /home/wykgroup/appl/g16/l9999.exe)
 1\1\GINC-NODE60\FOpt\RB3LYP\6-31G(d)\C21H26N4O3S1\WYKGROUP\04-Nov-2022
 \0\\#p b3lyp/6-31g(d) opt SCF=XQC\\Gaussian input prepared by ASE\\0,1
 \C,-4.2114345121,2.9759033075,2.6387136612\C,-4.7786473186,2.051239675
 ,1.6210634307\O,-6.1123620799,2.1727884783,1.3665581043\C,-6.441276173
 4,1.2496679315,0.4135540786\C,-5.3505940312,0.5321855463,0.0517853844\
 C,-4.2524513934,1.0472592969,0.8374495036\C,-2.8510178997,0.649173613,
 0.8204184537\N,-1.8445435066,1.4158856559,1.2212711073\N,-0.6836909975
 ,0.7133625285,1.0685000952\C,-0.9878450976,-0.465593565,0.5670560764\S
 ,0.1837343202,-1.7472646662,0.2805270239\C,0.5511186848,-1.5865436527,
 -1.5402779244\C,0.2803400069,-0.1973675284,-2.1096658828\O,-0.73656474
 09,0.0045093369,-2.7737396505\N,1.1920749775,0.7852122333,-1.881162540
 6\C,2.2867228055,0.8010369636,-0.9107821355\C,3.35588014,1.8154316625,
 -1.3243188408\C,4.5229340901,1.8550910191,-0.3430078927\O,5.1375996589
 ,0.5776992137,-0.3336739812\C,6.1245233862,0.3763328216,0.6823463096\C
 ,6.3163501002,-1.1324535549,0.7983698607\C,7.4327958275,1.1024252059,0
 .3539478331\N,-2.3597002606,-0.5669692031,0.395079486\C,-3.0837260312,
 -1.7035970878,-0.0990082302\C,-3.0845581693,-1.9758494847,-1.469743764
 7\C,-3.8021933162,-3.0778632472,-1.9389797835\C,-4.5108619594,-3.89063
 4028,-1.0512967656\C,-4.5004608486,-3.6073490937,0.3163607853\C,-3.783
 800917,-2.5124659564,0.7986139395\H,-3.1588427271,2.7407505151,2.80088
 30024\H,-4.7619573913,2.9009107324,3.5844931328\H,-4.278578954,4.01767
 26542,2.3001838171\H,-7.4758148561,1.2389671206,0.1071586943\H,-5.3150
 610864,-0.2522242338,-0.688225205\H,1.6002519526,-1.8803612288,-1.6386
 612873\H,-0.0738537749,-2.2870190347,-2.0936789601\H,0.8596981876,1.68
 97284344,-2.1993536612\H,2.7411920285,-0.1900647542,-0.8628564865\H,1.
 8978277826,1.035800717,0.0889986635\H,2.9182304815,2.8222182915,-1.379
 3499175\H,3.731893865,1.5683041272,-2.3244369561\H,5.2331524388,2.6393
 334335,-0.6471891565\H,4.1632642728,2.110922791,0.6685798074\H,5.72839
 11683,0.7636027344,1.6367393834\H,6.6853492672,-1.5418204969,-0.148870
 0596\H,5.3668463544,-1.6213908535,1.037463288\H,7.0407449704,-1.372225
 9215,1.5842412664\H,8.1799558252,0.9191421793,1.1345549353\H,7.2907261
 049,2.1858219885,0.2803136818\H,7.8343743408,0.7434142229,-0.600535860
 4\H,-2.525629043,-1.3315618686,-2.1440092706\H,-3.8085226687,-3.297284
 4975,-3.0030177952\H,-5.0695465158,-4.7447636486,-1.4239619764\H,-5.04
 79466286,-4.2391539396,1.0099226295\H,-3.7644871393,-2.2799728855,1.85
 87855488\\Version=ES64L-G16RevB.01\State=1-A\HF=-1658.7340649\RMSD=6.8
 63e-09\RMSF=3.794e-06\Dipole=0.1647716,-0.7482085,-0.0627244\Quadrupol
 e=12.3190558,-1.6252397,-10.6938161,10.7972393,0.350739,1.2072867\PG=C
 01 [X(C21H26N4O3S1)]\\@


 SI MONUMENTUM REQUIRIS, CIRCUMSPICE
     -- FROM SIR CHRISTOPHER WREN'S TOMBSTONE
 Job cpu time:       0 days  9 hours 11 minutes  9.3 seconds.
 Elapsed time:       0 days  1 hours 19 minutes 35.3 seconds.
 File lengths (MBytes):  RWF=    155 Int=      0 D2E=      0 Chk=     21 Scr=      1
 Normal termination of Gaussian 16 at Fri Nov  4 20:12:45 2022.
