 Entering Gaussian System, Link 0=/home/wykgroup/appl/g16/g16
 Input=calculation/no_transfer_pubchem_sampling_9_b3lyp/118289156_rwf.com
 Output=calculation/no_transfer_pubchem_sampling_9_b3lyp/118289156_rwf.log
 Initial command:
 /home/wykgroup/appl/g16/l1.exe "/userdata/scratch/wykgroup/khs/calculation/no_transfer_pubchem_sampling_9_b3lyp/118289156_rwf/Gau-17196.inp" -scrdir="/userdata/scratch/wykgroup/khs/calculation/no_transfer_pubchem_sampling_9_b3lyp/118289156_rwf/"
 Entering Link 1 = /home/wykgroup/appl/g16/l1.exe PID=     17197.
  
 Copyright (c) 1988-2017, Gaussian, Inc.  All Rights Reserved.
  
 This is part of the Gaussian(R) 16 program.  It is based on
 the Gaussian(R) 09 system (copyright 2009, Gaussian, Inc.),
 the Gaussian(R) 03 system (copyright 2003, Gaussian, Inc.),
 the Gaussian(R) 98 system (copyright 1998, Gaussian, Inc.),
 the Gaussian(R) 94 system (copyright 1995, Gaussian, Inc.),
 the Gaussian 92(TM) system (copyright 1992, Gaussian, Inc.),
 the Gaussian 90(TM) system (copyright 1990, Gaussian, Inc.),
 the Gaussian 88(TM) system (copyright 1988, Gaussian, Inc.),
 the Gaussian 86(TM) system (copyright 1986, Carnegie Mellon
 University), and the Gaussian 82(TM) system (copyright 1983,
 Carnegie Mellon University). Gaussian is a federally registered
 trademark of Gaussian, Inc.
  
 This software contains proprietary and confidential information,
 including trade secrets, belonging to Gaussian, Inc.
  
 This software is provided under written license and may be
 used, copied, transmitted, or stored only in accord with that
 written license.
  
 The following legend is applicable only to US Government
 contracts under FAR:
  
                    RESTRICTED RIGHTS LEGEND
  
 Use, reproduction and disclosure by the US Government is
 subject to restrictions as set forth in subparagraphs (a)
 and (c) of the Commercial Computer Software - Restricted
 Rights clause in FAR 52.227-19.
  
 Gaussian, Inc.
 340 Quinnipiac St., Bldg. 40, Wallingford CT 06492
  
  
 ---------------------------------------------------------------
 Warning -- This program may not be used in any manner that
 competes with the business of Gaussian, Inc. or will provide
 assistance to any competitor of Gaussian, Inc.  The licensee
 of this program is prohibited from giving any competitor of
 Gaussian, Inc. access to this program.  By using this program,
 the user acknowledges that Gaussian, Inc. is engaged in the
 business of creating and licensing software in the field of
 computational chemistry and represents and warrants to the
 licensee that it is not a competitor of Gaussian, Inc. and that
 it will not use this program in any manner prohibited above.
 ---------------------------------------------------------------
  

 Cite this work as:
 Gaussian 16, Revision B.01,
 M. J. Frisch, G. W. Trucks, H. B. Schlegel, G. E. Scuseria, 
 M. A. Robb, J. R. Cheeseman, G. Scalmani, V. Barone, 
 G. A. Petersson, H. Nakatsuji, X. Li, M. Caricato, A. V. Marenich, 
 J. Bloino, B. G. Janesko, R. Gomperts, B. Mennucci, H. P. Hratchian, 
 J. V. Ortiz, A. F. Izmaylov, J. L. Sonnenberg, D. Williams-Young, 
 F. Ding, F. Lipparini, F. Egidi, J. Goings, B. Peng, A. Petrone, 
 T. Henderson, D. Ranasinghe, V. G. Zakrzewski, J. Gao, N. Rega, 
 G. Zheng, W. Liang, M. Hada, M. Ehara, K. Toyota, R. Fukuda, 
 J. Hasegawa, M. Ishida, T. Nakajima, Y. Honda, O. Kitao, H. Nakai, 
 T. Vreven, K. Throssell, J. A. Montgomery, Jr., J. E. Peralta, 
 F. Ogliaro, M. J. Bearpark, J. J. Heyd, E. N. Brothers, K. N. Kudin, 
 V. N. Staroverov, T. A. Keith, R. Kobayashi, J. Normand, 
 K. Raghavachari, A. P. Rendell, J. C. Burant, S. S. Iyengar, 
 J. Tomasi, M. Cossi, J. M. Millam, M. Klene, C. Adamo, R. Cammi, 
 J. W. Ochterski, R. L. Martin, K. Morokuma, O. Farkas, 
 J. B. Foresman, and D. J. Fox, Gaussian, Inc., Wallingford CT, 2016.
 
 ******************************************
 Gaussian 16:  ES64L-G16RevB.01 20-Dec-2017
                 5-Nov-2022 
 ******************************************
 %chk=calculation/no_transfer_pubchem_sampling_9_b3lyp/118289156_rwf.chk
 %rwf=calculation/no_transfer_pubchem_sampling_9_b3lyp/118289156_rwf.rwf
 %nprocshared=14
 Will use up to   14 processors via shared memory.
 %mem=3GB
 -------------------------------------------------------------------
 #p b3lyp/6-31g(d) 6D 10F nosymm GFInput td=(50-50,nstate=2) SCF=XQC
 -------------------------------------------------------------------
 1/38=1,172=1/1;
 2/12=2,15=1,17=6,18=5,40=1/2;
 3/5=1,6=6,7=1,8=22,11=9,24=10,25=1,30=1,74=-5/1,2,3,8;
 4//1;
 5/5=2,8=3,13=1,38=5/2,8;
 8/6=1,10=2,108=2/1;
 9/41=2,42=1,48=2,70=2/14;
 6/7=2,8=2,9=2,10=2/1;
 99/5=1,9=1/99;
 Leave Link    1 at Sat Nov  5 10:36:34 2022, MaxMem=   402653184 cpu:               2.9 elap:               0.3
 (Enter /home/wykgroup/appl/g16/l101.exe)
 ------------------------------
 Gaussian input prepared by ASE
 ------------------------------
 Symbolic Z-matrix:
 Charge =  0 Multiplicity = 1
 C                    -6.07657   7.36074  -2.90775 
 C                    -4.90921   8.0566   -3.22911 
 C                    -3.70923   7.76544  -2.58308 
 C                    -3.66326   6.77849  -1.58528 
 N                    -2.4427    6.4868   -0.91545 
 C                    -1.58939   7.55031  -0.50867 
 C                    -0.20049   7.46191  -0.69511 
 C                     0.6309    8.50398  -0.28886 
 C                     0.09477   9.65581   0.29099 
 C                    -1.28712   9.75037   0.46882 
 C                    -2.1249    8.70587   0.08239 
 C                    -2.07758   5.14211  -0.65334 
 C                    -1.46611   4.7851    0.56001 
 C                    -1.10341   3.4661    0.80886 
 C                    -1.34653   2.44615  -0.12715 
 C                    -0.96532   1.03864   0.1458 
 C                    -1.77015  -0.02262  -0.29434 
 C                    -1.42945  -1.35942  -0.03915 
 C                    -2.29553  -2.47083  -0.50947 
 C                    -2.94588  -2.39885  -1.76373 
 C                    -3.76559  -3.41962  -2.22508 
 C                    -3.96453  -4.56834  -1.44012 
 C                    -4.73519  -5.78859  -1.5682 
 C                    -5.59735  -6.32227  -2.57932 
 C                    -5.91252  -5.65625  -3.7911 
 C                    -6.75335  -6.22759  -4.72481 
 C                    -7.32397  -7.49821  -4.4967 
 C                    -7.03812  -8.17303  -3.32943 
 C                    -6.17903  -7.61563  -2.3489 
 C                    -5.88635  -8.32741  -1.14633 
 C                    -5.06286  -7.81069  -0.17749 
 C                    -4.50182  -6.53264  -0.39665 
 N                    -3.63141  -5.83477   0.43934 
 C                    -3.18112  -6.25723   1.72172 
 C                    -4.10717  -6.53792   2.73398 
 C                    -3.6605   -6.95445   3.98796 
 C                    -2.29321  -7.07182   4.2458 
 C                    -1.37072  -6.78069   3.23881 
 C                    -1.81004  -6.38479   1.97559 
 C                    -3.29338  -4.63579  -0.18809 
 C                    -2.47911  -3.60772   0.28564 
 C                    -0.25413  -1.62409   0.67984 
 C                     0.56798  -0.58677   1.14265 
 C                     1.85364  -0.87673   1.84271 
 C                     3.01536  -0.36021   1.30389 
 C                     4.25294  -0.65077   1.91028 
 C                     4.36679  -1.43993   3.06519 
 C                     3.17808  -1.97049   3.65985 
 C                     3.19055  -2.75992   4.83826 
 C                     2.02453  -3.23036   5.40465 
 C                     0.77939  -2.91956   4.82282 
 C                     0.72975  -2.1585    3.67388 
 C                     1.90882  -1.67751   3.04505 
 C                     5.7801   -1.49879   3.3897 
 C                     6.55207  -2.11869   4.38799 
 C                     7.93476  -1.97032   4.3826 
 C                     8.577    -1.2138    3.38789 
 C                     7.84647  -0.58603   2.3843 
 C                     6.45657  -0.72789   2.40279 
 N                     5.51621  -0.21801   1.50655 
 C                     5.80133   0.59822   0.37879 
 C                     6.4697    1.81757   0.54165 
 C                     6.75911   2.61029  -0.56545 
 C                     6.37237   2.22205  -1.8594 
 C                     6.66918   3.07554  -3.0342 
 C                     7.04167   2.53453  -4.27364 
 C                     7.3072    3.38691  -5.34136 
 C                     7.19868   4.76353  -5.14039 
 N                     6.84014   5.30868  -3.97134 
 C                     6.58234   4.47717  -2.95866 
 C                     5.69445   1.0001   -2.00493 
 C                     5.42097   0.19102  -0.90571 
 C                     0.20297   0.73673   0.86395 
 C                    -1.96547   2.81438  -1.33413 
 C                    -2.31791   4.13263  -1.60037 
 C                    -4.84077   6.08718  -1.25717 
 C                    -6.03192   6.37271  -1.92177 
 H                    -7.00856   7.58557  -3.41846 
 H                    -4.92612   8.8237   -3.999 
 H                    -2.80184   8.29972  -2.84614 
 H                     0.21963   6.57515  -1.15903 
 H                     1.70362   8.41908  -0.44187 
 H                     0.74532   10.46915   0.5996 
 H                    -1.71876   10.63756   0.92491 
 H                    -3.19709   8.77824   0.2349 
 H                    -1.28704   5.54651   1.31229 
 H                    -0.65895   3.2166    1.76833 
 H                    -2.70599   0.19621  -0.79931 
 H                    -2.77773  -1.53068  -2.39386 
 H                    -4.23757  -3.31503  -3.19545 
 H                    -5.48972  -4.67875  -3.9893 
 H                    -6.97777  -5.69286  -5.6441 
 H                    -7.98426  -7.93904  -5.23841 
 H                    -7.47133  -9.15307  -3.14169 
 H                    -6.33285  -9.30889  -1.0075 
 H                    -4.84183  -8.36596   0.72777 
 H                    -5.16761  -6.41752   2.53504 
 H                    -4.38389  -7.17321   4.76861 
 H                    -1.94843  -7.38784   5.22632 
 H                    -0.30532  -6.87101   3.43091 
 H                    -1.0992   -6.17999   1.18116 
 H                    -2.0201   -3.67398   1.2661 
 H                     0.04775  -2.65325   0.8475 
 H                     2.97213   0.2411    0.40238 
 H                     4.13721  -2.99363   5.30888 
 H                     2.06788  -3.83115   6.30947 
 H                    -0.14087  -3.27113   5.28117 
 H                    -0.23221  -1.90489   3.24301 
 H                     6.08918  -2.71791   5.16352 
 H                     8.5266   -2.45035   5.15688 
 H                     9.65929  -1.11874   3.3982 
 H                     8.33988  -0.00954   1.60871 
 H                     6.76001   2.13855   1.53713 
 H                     7.30305   3.53954  -0.42396 
 H                     7.14352   1.45887  -4.39014 
 H                     7.60438   2.99418  -6.30934 
 H                     7.40774   5.45997  -5.95059 
 H                     6.26635   4.94761  -2.02876 
 H                     5.36554   0.68266  -2.99032 
 H                     4.91174  -0.75861  -1.03694 
 H                     0.84844   1.54212   1.20167 
 H                    -2.13887   2.06065  -2.09725 
 H                    -2.77321   4.38972  -2.55134 
 H                    -4.81494   5.32863  -0.48131 
 H                    -6.93365   5.8278   -1.65459 
 
 ITRead=  0  0  0  0  0  0  0  0  0  0  0  0  0  0  0  0  0  0  0  0
 ITRead=  0  0  0  0  0  0  0  0  0  0  0  0  0  0  0  0  0  0  0  0
 ITRead=  0  0  0  0  0  0  0  0  0  0  0  0  0  0  0  0  0  0  0  0
 ITRead=  0  0  0  0  0  0  0  0  0  0  0  0  0  0  0  0  0  0  0  0
 ITRead=  0  0  0  0  0  0  0  0  0  0  0  0  0  0  0  0  0  0  0  0
 ITRead=  0  0  0  0  0  0  0  0  0  0  0  0  0  0  0  0  0  0  0  0
 ITRead=  0  0  0  0  0
 MicOpt= -1 -1 -1 -1 -1 -1 -1 -1 -1 -1 -1 -1 -1 -1 -1 -1 -1 -1 -1 -1
 MicOpt= -1 -1 -1 -1 -1 -1 -1 -1 -1 -1 -1 -1 -1 -1 -1 -1 -1 -1 -1 -1
 MicOpt= -1 -1 -1 -1 -1 -1 -1 -1 -1 -1 -1 -1 -1 -1 -1 -1 -1 -1 -1 -1
 MicOpt= -1 -1 -1 -1 -1 -1 -1 -1 -1 -1 -1 -1 -1 -1 -1 -1 -1 -1 -1 -1
 MicOpt= -1 -1 -1 -1 -1 -1 -1 -1 -1 -1 -1 -1 -1 -1 -1 -1 -1 -1 -1 -1
 MicOpt= -1 -1 -1 -1 -1 -1 -1 -1 -1 -1 -1 -1 -1 -1 -1 -1 -1 -1 -1 -1
 MicOpt= -1 -1 -1 -1 -1
 NAtoms=    125 NQM=      125 NQMF=       0 NMMI=      0 NMMIF=      0
                NMic=       0 NMicF=      0.
                    Isotopes and Nuclear Properties:
 (Nuclear quadrupole moments (NQMom) in fm**2, nuclear magnetic moments (NMagM)
  in nuclear magnetons)

  Atom         1           2           3           4           5           6           7           8           9          10
 IAtWgt=          12          12          12          12          14          12          12          12          12          12
 AtmWgt=  12.0000000  12.0000000  12.0000000  12.0000000  14.0030740  12.0000000  12.0000000  12.0000000  12.0000000  12.0000000
 NucSpn=           0           0           0           0           2           0           0           0           0           0
 AtZEff=  -0.0000000  -0.0000000  -0.0000000  -0.0000000  -0.0000000  -0.0000000  -0.0000000  -0.0000000  -0.0000000  -0.0000000
 NQMom=    0.0000000   0.0000000   0.0000000   0.0000000   2.0440000   0.0000000   0.0000000   0.0000000   0.0000000   0.0000000
 NMagM=    0.0000000   0.0000000   0.0000000   0.0000000   0.4037610   0.0000000   0.0000000   0.0000000   0.0000000   0.0000000
 AtZNuc=   6.0000000   6.0000000   6.0000000   6.0000000   7.0000000   6.0000000   6.0000000   6.0000000   6.0000000   6.0000000

  Atom        11          12          13          14          15          16          17          18          19          20
 IAtWgt=          12          12          12          12          12          12          12          12          12          12
 AtmWgt=  12.0000000  12.0000000  12.0000000  12.0000000  12.0000000  12.0000000  12.0000000  12.0000000  12.0000000  12.0000000
 NucSpn=           0           0           0           0           0           0           0           0           0           0
 AtZEff=  -0.0000000  -0.0000000  -0.0000000  -0.0000000  -0.0000000  -0.0000000  -0.0000000  -0.0000000  -0.0000000  -0.0000000
 NQMom=    0.0000000   0.0000000   0.0000000   0.0000000   0.0000000   0.0000000   0.0000000   0.0000000   0.0000000   0.0000000
 NMagM=    0.0000000   0.0000000   0.0000000   0.0000000   0.0000000   0.0000000   0.0000000   0.0000000   0.0000000   0.0000000
 AtZNuc=   6.0000000   6.0000000   6.0000000   6.0000000   6.0000000   6.0000000   6.0000000   6.0000000   6.0000000   6.0000000

  Atom        21          22          23          24          25          26          27          28          29          30
 IAtWgt=          12          12          12          12          12          12          12          12          12          12
 AtmWgt=  12.0000000  12.0000000  12.0000000  12.0000000  12.0000000  12.0000000  12.0000000  12.0000000  12.0000000  12.0000000
 NucSpn=           0           0           0           0           0           0           0           0           0           0
 AtZEff=  -0.0000000  -0.0000000  -0.0000000  -0.0000000  -0.0000000  -0.0000000  -0.0000000  -0.0000000  -0.0000000  -0.0000000
 NQMom=    0.0000000   0.0000000   0.0000000   0.0000000   0.0000000   0.0000000   0.0000000   0.0000000   0.0000000   0.0000000
 NMagM=    0.0000000   0.0000000   0.0000000   0.0000000   0.0000000   0.0000000   0.0000000   0.0000000   0.0000000   0.0000000
 AtZNuc=   6.0000000   6.0000000   6.0000000   6.0000000   6.0000000   6.0000000   6.0000000   6.0000000   6.0000000   6.0000000

  Atom        31          32          33          34          35          36          37          38          39          40
 IAtWgt=          12          12          14          12          12          12          12          12          12          12
 AtmWgt=  12.0000000  12.0000000  14.0030740  12.0000000  12.0000000  12.0000000  12.0000000  12.0000000  12.0000000  12.0000000
 NucSpn=           0           0           2           0           0           0           0           0           0           0
 AtZEff=  -0.0000000  -0.0000000  -0.0000000  -0.0000000  -0.0000000  -0.0000000  -0.0000000  -0.0000000  -0.0000000  -0.0000000
 NQMom=    0.0000000   0.0000000   2.0440000   0.0000000   0.0000000   0.0000000   0.0000000   0.0000000   0.0000000   0.0000000
 NMagM=    0.0000000   0.0000000   0.4037610   0.0000000   0.0000000   0.0000000   0.0000000   0.0000000   0.0000000   0.0000000
 AtZNuc=   6.0000000   6.0000000   7.0000000   6.0000000   6.0000000   6.0000000   6.0000000   6.0000000   6.0000000   6.0000000

  Atom        41          42          43          44          45          46          47          48          49          50
 IAtWgt=          12          12          12          12          12          12          12          12          12          12
 AtmWgt=  12.0000000  12.0000000  12.0000000  12.0000000  12.0000000  12.0000000  12.0000000  12.0000000  12.0000000  12.0000000
 NucSpn=           0           0           0           0           0           0           0           0           0           0
 AtZEff=  -0.0000000  -0.0000000  -0.0000000  -0.0000000  -0.0000000  -0.0000000  -0.0000000  -0.0000000  -0.0000000  -0.0000000
 NQMom=    0.0000000   0.0000000   0.0000000   0.0000000   0.0000000   0.0000000   0.0000000   0.0000000   0.0000000   0.0000000
 NMagM=    0.0000000   0.0000000   0.0000000   0.0000000   0.0000000   0.0000000   0.0000000   0.0000000   0.0000000   0.0000000
 AtZNuc=   6.0000000   6.0000000   6.0000000   6.0000000   6.0000000   6.0000000   6.0000000   6.0000000   6.0000000   6.0000000

  Atom        51          52          53          54          55          56          57          58          59          60
 IAtWgt=          12          12          12          12          12          12          12          12          12          14
 AtmWgt=  12.0000000  12.0000000  12.0000000  12.0000000  12.0000000  12.0000000  12.0000000  12.0000000  12.0000000  14.0030740
 NucSpn=           0           0           0           0           0           0           0           0           0           2
 AtZEff=  -0.0000000  -0.0000000  -0.0000000  -0.0000000  -0.0000000  -0.0000000  -0.0000000  -0.0000000  -0.0000000  -0.0000000
 NQMom=    0.0000000   0.0000000   0.0000000   0.0000000   0.0000000   0.0000000   0.0000000   0.0000000   0.0000000   2.0440000
 NMagM=    0.0000000   0.0000000   0.0000000   0.0000000   0.0000000   0.0000000   0.0000000   0.0000000   0.0000000   0.4037610
 AtZNuc=   6.0000000   6.0000000   6.0000000   6.0000000   6.0000000   6.0000000   6.0000000   6.0000000   6.0000000   7.0000000

  Atom        61          62          63          64          65          66          67          68          69          70
 IAtWgt=          12          12          12          12          12          12          12          12          14          12
 AtmWgt=  12.0000000  12.0000000  12.0000000  12.0000000  12.0000000  12.0000000  12.0000000  12.0000000  14.0030740  12.0000000
 NucSpn=           0           0           0           0           0           0           0           0           2           0
 AtZEff=  -0.0000000  -0.0000000  -0.0000000  -0.0000000  -0.0000000  -0.0000000  -0.0000000  -0.0000000  -0.0000000  -0.0000000
 NQMom=    0.0000000   0.0000000   0.0000000   0.0000000   0.0000000   0.0000000   0.0000000   0.0000000   2.0440000   0.0000000
 NMagM=    0.0000000   0.0000000   0.0000000   0.0000000   0.0000000   0.0000000   0.0000000   0.0000000   0.4037610   0.0000000
 AtZNuc=   6.0000000   6.0000000   6.0000000   6.0000000   6.0000000   6.0000000   6.0000000   6.0000000   7.0000000   6.0000000

  Atom        71          72          73          74          75          76          77          78          79          80
 IAtWgt=          12          12          12          12          12          12          12           1           1           1
 AtmWgt=  12.0000000  12.0000000  12.0000000  12.0000000  12.0000000  12.0000000  12.0000000   1.0078250   1.0078250   1.0078250
 NucSpn=           0           0           0           0           0           0           0           1           1           1
 AtZEff=  -0.0000000  -0.0000000  -0.0000000  -0.0000000  -0.0000000  -0.0000000  -0.0000000  -0.0000000  -0.0000000  -0.0000000
 NQMom=    0.0000000   0.0000000   0.0000000   0.0000000   0.0000000   0.0000000   0.0000000   0.0000000   0.0000000   0.0000000
 NMagM=    0.0000000   0.0000000   0.0000000   0.0000000   0.0000000   0.0000000   0.0000000   2.7928460   2.7928460   2.7928460
 AtZNuc=   6.0000000   6.0000000   6.0000000   6.0000000   6.0000000   6.0000000   6.0000000   1.0000000   1.0000000   1.0000000

  Atom        81          82          83          84          85          86          87          88          89          90
 IAtWgt=           1           1           1           1           1           1           1           1           1           1
 AtmWgt=   1.0078250   1.0078250   1.0078250   1.0078250   1.0078250   1.0078250   1.0078250   1.0078250   1.0078250   1.0078250
 NucSpn=           1           1           1           1           1           1           1           1           1           1
 AtZEff=  -0.0000000  -0.0000000  -0.0000000  -0.0000000  -0.0000000  -0.0000000  -0.0000000  -0.0000000  -0.0000000  -0.0000000
 NQMom=    0.0000000   0.0000000   0.0000000   0.0000000   0.0000000   0.0000000   0.0000000   0.0000000   0.0000000   0.0000000
 NMagM=    2.7928460   2.7928460   2.7928460   2.7928460   2.7928460   2.7928460   2.7928460   2.7928460   2.7928460   2.7928460
 AtZNuc=   1.0000000   1.0000000   1.0000000   1.0000000   1.0000000   1.0000000   1.0000000   1.0000000   1.0000000   1.0000000

  Atom        91          92          93          94          95          96          97          98          99         100
 IAtWgt=           1           1           1           1           1           1           1           1           1           1
 AtmWgt=   1.0078250   1.0078250   1.0078250   1.0078250   1.0078250   1.0078250   1.0078250   1.0078250   1.0078250   1.0078250
 NucSpn=           1           1           1           1           1           1           1           1           1           1
 AtZEff=  -0.0000000  -0.0000000  -0.0000000  -0.0000000  -0.0000000  -0.0000000  -0.0000000  -0.0000000  -0.0000000  -0.0000000
 NQMom=    0.0000000   0.0000000   0.0000000   0.0000000   0.0000000   0.0000000   0.0000000   0.0000000   0.0000000   0.0000000
 NMagM=    2.7928460   2.7928460   2.7928460   2.7928460   2.7928460   2.7928460   2.7928460   2.7928460   2.7928460   2.7928460
 AtZNuc=   1.0000000   1.0000000   1.0000000   1.0000000   1.0000000   1.0000000   1.0000000   1.0000000   1.0000000   1.0000000

  Atom       101         102         103         104         105         106         107         108         109         110
 IAtWgt=           1           1           1           1           1           1           1           1           1           1
 AtmWgt=   1.0078250   1.0078250   1.0078250   1.0078250   1.0078250   1.0078250   1.0078250   1.0078250   1.0078250   1.0078250
 NucSpn=           1           1           1           1           1           1           1           1           1           1
 AtZEff=  -0.0000000  -0.0000000  -0.0000000  -0.0000000  -0.0000000  -0.0000000  -0.0000000  -0.0000000  -0.0000000  -0.0000000
 NQMom=    0.0000000   0.0000000   0.0000000   0.0000000   0.0000000   0.0000000   0.0000000   0.0000000   0.0000000   0.0000000
 NMagM=    2.7928460   2.7928460   2.7928460   2.7928460   2.7928460   2.7928460   2.7928460   2.7928460   2.7928460   2.7928460
 AtZNuc=   1.0000000   1.0000000   1.0000000   1.0000000   1.0000000   1.0000000   1.0000000   1.0000000   1.0000000   1.0000000

  Atom       111         112         113         114         115         116         117         118         119         120
 IAtWgt=           1           1           1           1           1           1           1           1           1           1
 AtmWgt=   1.0078250   1.0078250   1.0078250   1.0078250   1.0078250   1.0078250   1.0078250   1.0078250   1.0078250   1.0078250
 NucSpn=           1           1           1           1           1           1           1           1           1           1
 AtZEff=  -0.0000000  -0.0000000  -0.0000000  -0.0000000  -0.0000000  -0.0000000  -0.0000000  -0.0000000  -0.0000000  -0.0000000
 NQMom=    0.0000000   0.0000000   0.0000000   0.0000000   0.0000000   0.0000000   0.0000000   0.0000000   0.0000000   0.0000000
 NMagM=    2.7928460   2.7928460   2.7928460   2.7928460   2.7928460   2.7928460   2.7928460   2.7928460   2.7928460   2.7928460
 AtZNuc=   1.0000000   1.0000000   1.0000000   1.0000000   1.0000000   1.0000000   1.0000000   1.0000000   1.0000000   1.0000000

  Atom       121         122         123         124         125
 IAtWgt=           1           1           1           1           1
 AtmWgt=   1.0078250   1.0078250   1.0078250   1.0078250   1.0078250
 NucSpn=           1           1           1           1           1
 AtZEff=  -0.0000000  -0.0000000  -0.0000000  -0.0000000  -0.0000000
 NQMom=    0.0000000   0.0000000   0.0000000   0.0000000   0.0000000
 NMagM=    2.7928460   2.7928460   2.7928460   2.7928460   2.7928460
 AtZNuc=   1.0000000   1.0000000   1.0000000   1.0000000   1.0000000
 Leave Link  101 at Sat Nov  5 10:36:34 2022, MaxMem=   402653184 cpu:               2.2 elap:               0.2
 (Enter /home/wykgroup/appl/g16/l202.exe)
 Symmetry turned off by external request.
 Stoichiometry    C73H48N4
 Framework group  C1[X(C73H48N4)]
 Deg. of freedom   369
 Full point group                 C1      NOp   1
                          Input orientation:                          
 ---------------------------------------------------------------------
 Center     Atomic      Atomic             Coordinates (Angstroms)
 Number     Number       Type             X           Y           Z
 ---------------------------------------------------------------------
      1          6           0       -6.076568    7.360740   -2.907751
      2          6           0       -4.909211    8.056601   -3.229114
      3          6           0       -3.709232    7.765437   -2.583085
      4          6           0       -3.663257    6.778493   -1.585275
      5          7           0       -2.442697    6.486801   -0.915449
      6          6           0       -1.589394    7.550312   -0.508667
      7          6           0       -0.200493    7.461913   -0.695110
      8          6           0        0.630898    8.503981   -0.288860
      9          6           0        0.094773    9.655813    0.290992
     10          6           0       -1.287124    9.750366    0.468823
     11          6           0       -2.124901    8.705866    0.082394
     12          6           0       -2.077576    5.142112   -0.653344
     13          6           0       -1.466109    4.785098    0.560007
     14          6           0       -1.103408    3.466104    0.808856
     15          6           0       -1.346530    2.446147   -0.127150
     16          6           0       -0.965323    1.038638    0.145796
     17          6           0       -1.770146   -0.022616   -0.294340
     18          6           0       -1.429450   -1.359417   -0.039154
     19          6           0       -2.295526   -2.470827   -0.509466
     20          6           0       -2.945878   -2.398845   -1.763726
     21          6           0       -3.765591   -3.419621   -2.225079
     22          6           0       -3.964533   -4.568338   -1.440116
     23          6           0       -4.735186   -5.788591   -1.568197
     24          6           0       -5.597353   -6.322271   -2.579316
     25          6           0       -5.912519   -5.656246   -3.791101
     26          6           0       -6.753346   -6.227585   -4.724814
     27          6           0       -7.323971   -7.498215   -4.496704
     28          6           0       -7.038120   -8.173030   -3.329434
     29          6           0       -6.179025   -7.615633   -2.348902
     30          6           0       -5.886347   -8.327412   -1.146328
     31          6           0       -5.062855   -7.810693   -0.177491
     32          6           0       -4.501821   -6.532637   -0.396648
     33          7           0       -3.631408   -5.834767    0.439340
     34          6           0       -3.181116   -6.257225    1.721719
     35          6           0       -4.107170   -6.537919    2.733979
     36          6           0       -3.660501   -6.954454    3.987962
     37          6           0       -2.293207   -7.071816    4.245795
     38          6           0       -1.370719   -6.780694    3.238809
     39          6           0       -1.810044   -6.384787    1.975589
     40          6           0       -3.293382   -4.635786   -0.188092
     41          6           0       -2.479113   -3.607723    0.285642
     42          6           0       -0.254126   -1.624088    0.679838
     43          6           0        0.567978   -0.586771    1.142646
     44          6           0        1.853641   -0.876734    1.842709
     45          6           0        3.015359   -0.360213    1.303893
     46          6           0        4.252940   -0.650765    1.910282
     47          6           0        4.366789   -1.439932    3.065188
     48          6           0        3.178076   -1.970490    3.659847
     49          6           0        3.190552   -2.759923    4.838264
     50          6           0        2.024532   -3.230357    5.404646
     51          6           0        0.779386   -2.919559    4.822819
     52          6           0        0.729748   -2.158503    3.673885
     53          6           0        1.908822   -1.677514    3.045051
     54          6           0        5.780102   -1.498788    3.389701
     55          6           0        6.552071   -2.118693    4.387990
     56          6           0        7.934762   -1.970318    4.382602
     57          6           0        8.577000   -1.213802    3.387891
     58          6           0        7.846472   -0.586033    2.384296
     59          6           0        6.456573   -0.727888    2.402795
     60          7           0        5.516213   -0.218015    1.506548
     61          6           0        5.801334    0.598219    0.378791
     62          6           0        6.469704    1.817568    0.541652
     63          6           0        6.759108    2.610291   -0.565453
     64          6           0        6.372368    2.222046   -1.859404
     65          6           0        6.669177    3.075540   -3.034204
     66          6           0        7.041667    2.534534   -4.273641
     67          6           0        7.307201    3.386914   -5.341364
     68          6           0        7.198684    4.763526   -5.140393
     69          7           0        6.840136    5.308683   -3.971342
     70          6           0        6.582344    4.477167   -2.958658
     71          6           0        5.694446    1.000105   -2.004928
     72          6           0        5.420966    0.191016   -0.905709
     73          6           0        0.202971    0.736730    0.863949
     74          6           0       -1.965473    2.814381   -1.334126
     75          6           0       -2.317913    4.132632   -1.600374
     76          6           0       -4.840768    6.087183   -1.257174
     77          6           0       -6.031918    6.372714   -1.921771
     78          1           0       -7.008560    7.585572   -3.418461
     79          1           0       -4.926120    8.823701   -3.999000
     80          1           0       -2.801837    8.299717   -2.846140
     81          1           0        0.219629    6.575145   -1.159032
     82          1           0        1.703624    8.419080   -0.441870
     83          1           0        0.745323   10.469152    0.599598
     84          1           0       -1.718757   10.637565    0.924906
     85          1           0       -3.197090    8.778243    0.234896
     86          1           0       -1.287045    5.546505    1.312287
     87          1           0       -0.658946    3.216597    1.768329
     88          1           0       -2.705991    0.196208   -0.799314
     89          1           0       -2.777734   -1.530680   -2.393856
     90          1           0       -4.237566   -3.315030   -3.195452
     91          1           0       -5.489721   -4.678746   -3.989296
     92          1           0       -6.977769   -5.692857   -5.644095
     93          1           0       -7.984263   -7.939044   -5.238411
     94          1           0       -7.471332   -9.153074   -3.141688
     95          1           0       -6.332851   -9.308888   -1.007499
     96          1           0       -4.841833   -8.365956    0.727766
     97          1           0       -5.167613   -6.417515    2.535045
     98          1           0       -4.383889   -7.173207    4.768610
     99          1           0       -1.948428   -7.387838    5.226315
    100          1           0       -0.305321   -6.871011    3.430906
    101          1           0       -1.099197   -6.179990    1.181161
    102          1           0       -2.020099   -3.673976    1.266095
    103          1           0        0.047750   -2.653253    0.847498
    104          1           0        2.972133    0.241104    0.402376
    105          1           0        4.137209   -2.993634    5.308877
    106          1           0        2.067878   -3.831153    6.309474
    107          1           0       -0.140869   -3.271131    5.281172
    108          1           0       -0.232215   -1.904894    3.243014
    109          1           0        6.089178   -2.717906    5.163522
    110          1           0        8.526599   -2.450349    5.156879
    111          1           0        9.659286   -1.118736    3.398205
    112          1           0        8.339882   -0.009544    1.608712
    113          1           0        6.760010    2.138552    1.537132
    114          1           0        7.303055    3.539541   -0.423960
    115          1           0        7.143522    1.458867   -4.390141
    116          1           0        7.604378    2.994185   -6.309335
    117          1           0        7.407745    5.459965   -5.950590
    118          1           0        6.266352    4.947608   -2.028760
    119          1           0        5.365543    0.682663   -2.990318
    120          1           0        4.911738   -0.758606   -1.036938
    121          1           0        0.848438    1.542116    1.201669
    122          1           0       -2.138873    2.060647   -2.097252
    123          1           0       -2.773210    4.389719   -2.551339
    124          1           0       -4.814942    5.328629   -0.481307
    125          1           0       -6.933650    5.827800   -1.654587
 ---------------------------------------------------------------------
 Rotational constants (GHZ):           0.0213949           0.0148882           0.0106665
 Leave Link  202 at Sat Nov  5 10:36:34 2022, MaxMem=   402653184 cpu:               0.5 elap:               0.1
 (Enter /home/wykgroup/appl/g16/l301.exe)
 Standard basis: 6-31G(d) (6D, 10F)
 Ernie: Thresh=  0.10000D-02 Tol=  0.10000D-05 Strict=F.
 AO basis set in the form of general basis input (Overlap normalization):
      1 0
 S   6 1.00       0.000000000000
      0.3047524880D+04  0.1834737132D-02
      0.4573695180D+03  0.1403732281D-01
      0.1039486850D+03  0.6884262226D-01
      0.2921015530D+02  0.2321844432D+00
      0.9286662960D+01  0.4679413484D+00
      0.3163926960D+01  0.3623119853D+00
 SP   3 1.00       0.000000000000
      0.7868272350D+01 -0.1193324198D+00  0.6899906659D-01
      0.1881288540D+01 -0.1608541517D+00  0.3164239610D+00
      0.5442492580D+00  0.1143456438D+01  0.7443082909D+00
 SP   1 1.00       0.000000000000
      0.1687144782D+00  0.1000000000D+01  0.1000000000D+01
 D   1 1.00       0.000000000000
      0.8000000000D+00  0.1000000000D+01
 ****
      2 0
 S   6 1.00       0.000000000000
      0.3047524880D+04  0.1834737132D-02
      0.4573695180D+03  0.1403732281D-01
      0.1039486850D+03  0.6884262226D-01
      0.2921015530D+02  0.2321844432D+00
      0.9286662960D+01  0.4679413484D+00
      0.3163926960D+01  0.3623119853D+00
 SP   3 1.00       0.000000000000
      0.7868272350D+01 -0.1193324198D+00  0.6899906659D-01
      0.1881288540D+01 -0.1608541517D+00  0.3164239610D+00
      0.5442492580D+00  0.1143456438D+01  0.7443082909D+00
 SP   1 1.00       0.000000000000
      0.1687144782D+00  0.1000000000D+01  0.1000000000D+01
 D   1 1.00       0.000000000000
      0.8000000000D+00  0.1000000000D+01
 ****
      3 0
 S   6 1.00       0.000000000000
      0.3047524880D+04  0.1834737132D-02
      0.4573695180D+03  0.1403732281D-01
      0.1039486850D+03  0.6884262226D-01
      0.2921015530D+02  0.2321844432D+00
      0.9286662960D+01  0.4679413484D+00
      0.3163926960D+01  0.3623119853D+00
 SP   3 1.00       0.000000000000
      0.7868272350D+01 -0.1193324198D+00  0.6899906659D-01
      0.1881288540D+01 -0.1608541517D+00  0.3164239610D+00
      0.5442492580D+00  0.1143456438D+01  0.7443082909D+00
 SP   1 1.00       0.000000000000
      0.1687144782D+00  0.1000000000D+01  0.1000000000D+01
 D   1 1.00       0.000000000000
      0.8000000000D+00  0.1000000000D+01
 ****
      4 0
 S   6 1.00       0.000000000000
      0.3047524880D+04  0.1834737132D-02
      0.4573695180D+03  0.1403732281D-01
      0.1039486850D+03  0.6884262226D-01
      0.2921015530D+02  0.2321844432D+00
      0.9286662960D+01  0.4679413484D+00
      0.3163926960D+01  0.3623119853D+00
 SP   3 1.00       0.000000000000
      0.7868272350D+01 -0.1193324198D+00  0.6899906659D-01
      0.1881288540D+01 -0.1608541517D+00  0.3164239610D+00
      0.5442492580D+00  0.1143456438D+01  0.7443082909D+00
 SP   1 1.00       0.000000000000
      0.1687144782D+00  0.1000000000D+01  0.1000000000D+01
 D   1 1.00       0.000000000000
      0.8000000000D+00  0.1000000000D+01
 ****
      5 0
 S   6 1.00       0.000000000000
      0.4173511460D+04  0.1834772160D-02
      0.6274579110D+03  0.1399462700D-01
      0.1429020930D+03  0.6858655181D-01
      0.4023432930D+02  0.2322408730D+00
      0.1282021290D+02  0.4690699481D+00
      0.4390437010D+01  0.3604551991D+00
 SP   3 1.00       0.000000000000
      0.1162636186D+02 -0.1149611817D+00  0.6757974388D-01
      0.2716279807D+01 -0.1691174786D+00  0.3239072959D+00
      0.7722183966D+00  0.1145851947D+01  0.7408951398D+00
 SP   1 1.00       0.000000000000
      0.2120314975D+00  0.1000000000D+01  0.1000000000D+01
 D   1 1.00       0.000000000000
      0.8000000000D+00  0.1000000000D+01
 ****
      6 0
 S   6 1.00       0.000000000000
      0.3047524880D+04  0.1834737132D-02
      0.4573695180D+03  0.1403732281D-01
      0.1039486850D+03  0.6884262226D-01
      0.2921015530D+02  0.2321844432D+00
      0.9286662960D+01  0.4679413484D+00
      0.3163926960D+01  0.3623119853D+00
 SP   3 1.00       0.000000000000
      0.7868272350D+01 -0.1193324198D+00  0.6899906659D-01
      0.1881288540D+01 -0.1608541517D+00  0.3164239610D+00
      0.5442492580D+00  0.1143456438D+01  0.7443082909D+00
 SP   1 1.00       0.000000000000
      0.1687144782D+00  0.1000000000D+01  0.1000000000D+01
 D   1 1.00       0.000000000000
      0.8000000000D+00  0.1000000000D+01
 ****
      7 0
 S   6 1.00       0.000000000000
      0.3047524880D+04  0.1834737132D-02
      0.4573695180D+03  0.1403732281D-01
      0.1039486850D+03  0.6884262226D-01
      0.2921015530D+02  0.2321844432D+00
      0.9286662960D+01  0.4679413484D+00
      0.3163926960D+01  0.3623119853D+00
 SP   3 1.00       0.000000000000
      0.7868272350D+01 -0.1193324198D+00  0.6899906659D-01
      0.1881288540D+01 -0.1608541517D+00  0.3164239610D+00
      0.5442492580D+00  0.1143456438D+01  0.7443082909D+00
 SP   1 1.00       0.000000000000
      0.1687144782D+00  0.1000000000D+01  0.1000000000D+01
 D   1 1.00       0.000000000000
      0.8000000000D+00  0.1000000000D+01
 ****
      8 0
 S   6 1.00       0.000000000000
      0.3047524880D+04  0.1834737132D-02
      0.4573695180D+03  0.1403732281D-01
      0.1039486850D+03  0.6884262226D-01
      0.2921015530D+02  0.2321844432D+00
      0.9286662960D+01  0.4679413484D+00
      0.3163926960D+01  0.3623119853D+00
 SP   3 1.00       0.000000000000
      0.7868272350D+01 -0.1193324198D+00  0.6899906659D-01
      0.1881288540D+01 -0.1608541517D+00  0.3164239610D+00
      0.5442492580D+00  0.1143456438D+01  0.7443082909D+00
 SP   1 1.00       0.000000000000
      0.1687144782D+00  0.1000000000D+01  0.1000000000D+01
 D   1 1.00       0.000000000000
      0.8000000000D+00  0.1000000000D+01
 ****
      9 0
 S   6 1.00       0.000000000000
      0.3047524880D+04  0.1834737132D-02
      0.4573695180D+03  0.1403732281D-01
      0.1039486850D+03  0.6884262226D-01
      0.2921015530D+02  0.2321844432D+00
      0.9286662960D+01  0.4679413484D+00
      0.3163926960D+01  0.3623119853D+00
 SP   3 1.00       0.000000000000
      0.7868272350D+01 -0.1193324198D+00  0.6899906659D-01
      0.1881288540D+01 -0.1608541517D+00  0.3164239610D+00
      0.5442492580D+00  0.1143456438D+01  0.7443082909D+00
 SP   1 1.00       0.000000000000
      0.1687144782D+00  0.1000000000D+01  0.1000000000D+01
 D   1 1.00       0.000000000000
      0.8000000000D+00  0.1000000000D+01
 ****
     10 0
 S   6 1.00       0.000000000000
      0.3047524880D+04  0.1834737132D-02
      0.4573695180D+03  0.1403732281D-01
      0.1039486850D+03  0.6884262226D-01
      0.2921015530D+02  0.2321844432D+00
      0.9286662960D+01  0.4679413484D+00
      0.3163926960D+01  0.3623119853D+00
 SP   3 1.00       0.000000000000
      0.7868272350D+01 -0.1193324198D+00  0.6899906659D-01
      0.1881288540D+01 -0.1608541517D+00  0.3164239610D+00
      0.5442492580D+00  0.1143456438D+01  0.7443082909D+00
 SP   1 1.00       0.000000000000
      0.1687144782D+00  0.1000000000D+01  0.1000000000D+01
 D   1 1.00       0.000000000000
      0.8000000000D+00  0.1000000000D+01
 ****
     11 0
 S   6 1.00       0.000000000000
      0.3047524880D+04  0.1834737132D-02
      0.4573695180D+03  0.1403732281D-01
      0.1039486850D+03  0.6884262226D-01
      0.2921015530D+02  0.2321844432D+00
      0.9286662960D+01  0.4679413484D+00
      0.3163926960D+01  0.3623119853D+00
 SP   3 1.00       0.000000000000
      0.7868272350D+01 -0.1193324198D+00  0.6899906659D-01
      0.1881288540D+01 -0.1608541517D+00  0.3164239610D+00
      0.5442492580D+00  0.1143456438D+01  0.7443082909D+00
 SP   1 1.00       0.000000000000
      0.1687144782D+00  0.1000000000D+01  0.1000000000D+01
 D   1 1.00       0.000000000000
      0.8000000000D+00  0.1000000000D+01
 ****
     12 0
 S   6 1.00       0.000000000000
      0.3047524880D+04  0.1834737132D-02
      0.4573695180D+03  0.1403732281D-01
      0.1039486850D+03  0.6884262226D-01
      0.2921015530D+02  0.2321844432D+00
      0.9286662960D+01  0.4679413484D+00
      0.3163926960D+01  0.3623119853D+00
 SP   3 1.00       0.000000000000
      0.7868272350D+01 -0.1193324198D+00  0.6899906659D-01
      0.1881288540D+01 -0.1608541517D+00  0.3164239610D+00
      0.5442492580D+00  0.1143456438D+01  0.7443082909D+00
 SP   1 1.00       0.000000000000
      0.1687144782D+00  0.1000000000D+01  0.1000000000D+01
 D   1 1.00       0.000000000000
      0.8000000000D+00  0.1000000000D+01
 ****
     13 0
 S   6 1.00       0.000000000000
      0.3047524880D+04  0.1834737132D-02
      0.4573695180D+03  0.1403732281D-01
      0.1039486850D+03  0.6884262226D-01
      0.2921015530D+02  0.2321844432D+00
      0.9286662960D+01  0.4679413484D+00
      0.3163926960D+01  0.3623119853D+00
 SP   3 1.00       0.000000000000
      0.7868272350D+01 -0.1193324198D+00  0.6899906659D-01
      0.1881288540D+01 -0.1608541517D+00  0.3164239610D+00
      0.5442492580D+00  0.1143456438D+01  0.7443082909D+00
 SP   1 1.00       0.000000000000
      0.1687144782D+00  0.1000000000D+01  0.1000000000D+01
 D   1 1.00       0.000000000000
      0.8000000000D+00  0.1000000000D+01
 ****
     14 0
 S   6 1.00       0.000000000000
      0.3047524880D+04  0.1834737132D-02
      0.4573695180D+03  0.1403732281D-01
      0.1039486850D+03  0.6884262226D-01
      0.2921015530D+02  0.2321844432D+00
      0.9286662960D+01  0.4679413484D+00
      0.3163926960D+01  0.3623119853D+00
 SP   3 1.00       0.000000000000
      0.7868272350D+01 -0.1193324198D+00  0.6899906659D-01
      0.1881288540D+01 -0.1608541517D+00  0.3164239610D+00
      0.5442492580D+00  0.1143456438D+01  0.7443082909D+00
 SP   1 1.00       0.000000000000
      0.1687144782D+00  0.1000000000D+01  0.1000000000D+01
 D   1 1.00       0.000000000000
      0.8000000000D+00  0.1000000000D+01
 ****
     15 0
 S   6 1.00       0.000000000000
      0.3047524880D+04  0.1834737132D-02
      0.4573695180D+03  0.1403732281D-01
      0.1039486850D+03  0.6884262226D-01
      0.2921015530D+02  0.2321844432D+00
      0.9286662960D+01  0.4679413484D+00
      0.3163926960D+01  0.3623119853D+00
 SP   3 1.00       0.000000000000
      0.7868272350D+01 -0.1193324198D+00  0.6899906659D-01
      0.1881288540D+01 -0.1608541517D+00  0.3164239610D+00
      0.5442492580D+00  0.1143456438D+01  0.7443082909D+00
 SP   1 1.00       0.000000000000
      0.1687144782D+00  0.1000000000D+01  0.1000000000D+01
 D   1 1.00       0.000000000000
      0.8000000000D+00  0.1000000000D+01
 ****
     16 0
 S   6 1.00       0.000000000000
      0.3047524880D+04  0.1834737132D-02
      0.4573695180D+03  0.1403732281D-01
      0.1039486850D+03  0.6884262226D-01
      0.2921015530D+02  0.2321844432D+00
      0.9286662960D+01  0.4679413484D+00
      0.3163926960D+01  0.3623119853D+00
 SP   3 1.00       0.000000000000
      0.7868272350D+01 -0.1193324198D+00  0.6899906659D-01
      0.1881288540D+01 -0.1608541517D+00  0.3164239610D+00
      0.5442492580D+00  0.1143456438D+01  0.7443082909D+00
 SP   1 1.00       0.000000000000
      0.1687144782D+00  0.1000000000D+01  0.1000000000D+01
 D   1 1.00       0.000000000000
      0.8000000000D+00  0.1000000000D+01
 ****
     17 0
 S   6 1.00       0.000000000000
      0.3047524880D+04  0.1834737132D-02
      0.4573695180D+03  0.1403732281D-01
      0.1039486850D+03  0.6884262226D-01
      0.2921015530D+02  0.2321844432D+00
      0.9286662960D+01  0.4679413484D+00
      0.3163926960D+01  0.3623119853D+00
 SP   3 1.00       0.000000000000
      0.7868272350D+01 -0.1193324198D+00  0.6899906659D-01
      0.1881288540D+01 -0.1608541517D+00  0.3164239610D+00
      0.5442492580D+00  0.1143456438D+01  0.7443082909D+00
 SP   1 1.00       0.000000000000
      0.1687144782D+00  0.1000000000D+01  0.1000000000D+01
 D   1 1.00       0.000000000000
      0.8000000000D+00  0.1000000000D+01
 ****
     18 0
 S   6 1.00       0.000000000000
      0.3047524880D+04  0.1834737132D-02
      0.4573695180D+03  0.1403732281D-01
      0.1039486850D+03  0.6884262226D-01
      0.2921015530D+02  0.2321844432D+00
      0.9286662960D+01  0.4679413484D+00
      0.3163926960D+01  0.3623119853D+00
 SP   3 1.00       0.000000000000
      0.7868272350D+01 -0.1193324198D+00  0.6899906659D-01
      0.1881288540D+01 -0.1608541517D+00  0.3164239610D+00
      0.5442492580D+00  0.1143456438D+01  0.7443082909D+00
 SP   1 1.00       0.000000000000
      0.1687144782D+00  0.1000000000D+01  0.1000000000D+01
 D   1 1.00       0.000000000000
      0.8000000000D+00  0.1000000000D+01
 ****
     19 0
 S   6 1.00       0.000000000000
      0.3047524880D+04  0.1834737132D-02
      0.4573695180D+03  0.1403732281D-01
      0.1039486850D+03  0.6884262226D-01
      0.2921015530D+02  0.2321844432D+00
      0.9286662960D+01  0.4679413484D+00
      0.3163926960D+01  0.3623119853D+00
 SP   3 1.00       0.000000000000
      0.7868272350D+01 -0.1193324198D+00  0.6899906659D-01
      0.1881288540D+01 -0.1608541517D+00  0.3164239610D+00
      0.5442492580D+00  0.1143456438D+01  0.7443082909D+00
 SP   1 1.00       0.000000000000
      0.1687144782D+00  0.1000000000D+01  0.1000000000D+01
 D   1 1.00       0.000000000000
      0.8000000000D+00  0.1000000000D+01
 ****
     20 0
 S   6 1.00       0.000000000000
      0.3047524880D+04  0.1834737132D-02
      0.4573695180D+03  0.1403732281D-01
      0.1039486850D+03  0.6884262226D-01
      0.2921015530D+02  0.2321844432D+00
      0.9286662960D+01  0.4679413484D+00
      0.3163926960D+01  0.3623119853D+00
 SP   3 1.00       0.000000000000
      0.7868272350D+01 -0.1193324198D+00  0.6899906659D-01
      0.1881288540D+01 -0.1608541517D+00  0.3164239610D+00
      0.5442492580D+00  0.1143456438D+01  0.7443082909D+00
 SP   1 1.00       0.000000000000
      0.1687144782D+00  0.1000000000D+01  0.1000000000D+01
 D   1 1.00       0.000000000000
      0.8000000000D+00  0.1000000000D+01
 ****
     21 0
 S   6 1.00       0.000000000000
      0.3047524880D+04  0.1834737132D-02
      0.4573695180D+03  0.1403732281D-01
      0.1039486850D+03  0.6884262226D-01
      0.2921015530D+02  0.2321844432D+00
      0.9286662960D+01  0.4679413484D+00
      0.3163926960D+01  0.3623119853D+00
 SP   3 1.00       0.000000000000
      0.7868272350D+01 -0.1193324198D+00  0.6899906659D-01
      0.1881288540D+01 -0.1608541517D+00  0.3164239610D+00
      0.5442492580D+00  0.1143456438D+01  0.7443082909D+00
 SP   1 1.00       0.000000000000
      0.1687144782D+00  0.1000000000D+01  0.1000000000D+01
 D   1 1.00       0.000000000000
      0.8000000000D+00  0.1000000000D+01
 ****
     22 0
 S   6 1.00       0.000000000000
      0.3047524880D+04  0.1834737132D-02
      0.4573695180D+03  0.1403732281D-01
      0.1039486850D+03  0.6884262226D-01
      0.2921015530D+02  0.2321844432D+00
      0.9286662960D+01  0.4679413484D+00
      0.3163926960D+01  0.3623119853D+00
 SP   3 1.00       0.000000000000
      0.7868272350D+01 -0.1193324198D+00  0.6899906659D-01
      0.1881288540D+01 -0.1608541517D+00  0.3164239610D+00
      0.5442492580D+00  0.1143456438D+01  0.7443082909D+00
 SP   1 1.00       0.000000000000
      0.1687144782D+00  0.1000000000D+01  0.1000000000D+01
 D   1 1.00       0.000000000000
      0.8000000000D+00  0.1000000000D+01
 ****
     23 0
 S   6 1.00       0.000000000000
      0.3047524880D+04  0.1834737132D-02
      0.4573695180D+03  0.1403732281D-01
      0.1039486850D+03  0.6884262226D-01
      0.2921015530D+02  0.2321844432D+00
      0.9286662960D+01  0.4679413484D+00
      0.3163926960D+01  0.3623119853D+00
 SP   3 1.00       0.000000000000
      0.7868272350D+01 -0.1193324198D+00  0.6899906659D-01
      0.1881288540D+01 -0.1608541517D+00  0.3164239610D+00
      0.5442492580D+00  0.1143456438D+01  0.7443082909D+00
 SP   1 1.00       0.000000000000
      0.1687144782D+00  0.1000000000D+01  0.1000000000D+01
 D   1 1.00       0.000000000000
      0.8000000000D+00  0.1000000000D+01
 ****
     24 0
 S   6 1.00       0.000000000000
      0.3047524880D+04  0.1834737132D-02
      0.4573695180D+03  0.1403732281D-01
      0.1039486850D+03  0.6884262226D-01
      0.2921015530D+02  0.2321844432D+00
      0.9286662960D+01  0.4679413484D+00
      0.3163926960D+01  0.3623119853D+00
 SP   3 1.00       0.000000000000
      0.7868272350D+01 -0.1193324198D+00  0.6899906659D-01
      0.1881288540D+01 -0.1608541517D+00  0.3164239610D+00
      0.5442492580D+00  0.1143456438D+01  0.7443082909D+00
 SP   1 1.00       0.000000000000
      0.1687144782D+00  0.1000000000D+01  0.1000000000D+01
 D   1 1.00       0.000000000000
      0.8000000000D+00  0.1000000000D+01
 ****
     25 0
 S   6 1.00       0.000000000000
      0.3047524880D+04  0.1834737132D-02
      0.4573695180D+03  0.1403732281D-01
      0.1039486850D+03  0.6884262226D-01
      0.2921015530D+02  0.2321844432D+00
      0.9286662960D+01  0.4679413484D+00
      0.3163926960D+01  0.3623119853D+00
 SP   3 1.00       0.000000000000
      0.7868272350D+01 -0.1193324198D+00  0.6899906659D-01
      0.1881288540D+01 -0.1608541517D+00  0.3164239610D+00
      0.5442492580D+00  0.1143456438D+01  0.7443082909D+00
 SP   1 1.00       0.000000000000
      0.1687144782D+00  0.1000000000D+01  0.1000000000D+01
 D   1 1.00       0.000000000000
      0.8000000000D+00  0.1000000000D+01
 ****
     26 0
 S   6 1.00       0.000000000000
      0.3047524880D+04  0.1834737132D-02
      0.4573695180D+03  0.1403732281D-01
      0.1039486850D+03  0.6884262226D-01
      0.2921015530D+02  0.2321844432D+00
      0.9286662960D+01  0.4679413484D+00
      0.3163926960D+01  0.3623119853D+00
 SP   3 1.00       0.000000000000
      0.7868272350D+01 -0.1193324198D+00  0.6899906659D-01
      0.1881288540D+01 -0.1608541517D+00  0.3164239610D+00
      0.5442492580D+00  0.1143456438D+01  0.7443082909D+00
 SP   1 1.00       0.000000000000
      0.1687144782D+00  0.1000000000D+01  0.1000000000D+01
 D   1 1.00       0.000000000000
      0.8000000000D+00  0.1000000000D+01
 ****
     27 0
 S   6 1.00       0.000000000000
      0.3047524880D+04  0.1834737132D-02
      0.4573695180D+03  0.1403732281D-01
      0.1039486850D+03  0.6884262226D-01
      0.2921015530D+02  0.2321844432D+00
      0.9286662960D+01  0.4679413484D+00
      0.3163926960D+01  0.3623119853D+00
 SP   3 1.00       0.000000000000
      0.7868272350D+01 -0.1193324198D+00  0.6899906659D-01
      0.1881288540D+01 -0.1608541517D+00  0.3164239610D+00
      0.5442492580D+00  0.1143456438D+01  0.7443082909D+00
 SP   1 1.00       0.000000000000
      0.1687144782D+00  0.1000000000D+01  0.1000000000D+01
 D   1 1.00       0.000000000000
      0.8000000000D+00  0.1000000000D+01
 ****
     28 0
 S   6 1.00       0.000000000000
      0.3047524880D+04  0.1834737132D-02
      0.4573695180D+03  0.1403732281D-01
      0.1039486850D+03  0.6884262226D-01
      0.2921015530D+02  0.2321844432D+00
      0.9286662960D+01  0.4679413484D+00
      0.3163926960D+01  0.3623119853D+00
 SP   3 1.00       0.000000000000
      0.7868272350D+01 -0.1193324198D+00  0.6899906659D-01
      0.1881288540D+01 -0.1608541517D+00  0.3164239610D+00
      0.5442492580D+00  0.1143456438D+01  0.7443082909D+00
 SP   1 1.00       0.000000000000
      0.1687144782D+00  0.1000000000D+01  0.1000000000D+01
 D   1 1.00       0.000000000000
      0.8000000000D+00  0.1000000000D+01
 ****
     29 0
 S   6 1.00       0.000000000000
      0.3047524880D+04  0.1834737132D-02
      0.4573695180D+03  0.1403732281D-01
      0.1039486850D+03  0.6884262226D-01
      0.2921015530D+02  0.2321844432D+00
      0.9286662960D+01  0.4679413484D+00
      0.3163926960D+01  0.3623119853D+00
 SP   3 1.00       0.000000000000
      0.7868272350D+01 -0.1193324198D+00  0.6899906659D-01
      0.1881288540D+01 -0.1608541517D+00  0.3164239610D+00
      0.5442492580D+00  0.1143456438D+01  0.7443082909D+00
 SP   1 1.00       0.000000000000
      0.1687144782D+00  0.1000000000D+01  0.1000000000D+01
 D   1 1.00       0.000000000000
      0.8000000000D+00  0.1000000000D+01
 ****
     30 0
 S   6 1.00       0.000000000000
      0.3047524880D+04  0.1834737132D-02
      0.4573695180D+03  0.1403732281D-01
      0.1039486850D+03  0.6884262226D-01
      0.2921015530D+02  0.2321844432D+00
      0.9286662960D+01  0.4679413484D+00
      0.3163926960D+01  0.3623119853D+00
 SP   3 1.00       0.000000000000
      0.7868272350D+01 -0.1193324198D+00  0.6899906659D-01
      0.1881288540D+01 -0.1608541517D+00  0.3164239610D+00
      0.5442492580D+00  0.1143456438D+01  0.7443082909D+00
 SP   1 1.00       0.000000000000
      0.1687144782D+00  0.1000000000D+01  0.1000000000D+01
 D   1 1.00       0.000000000000
      0.8000000000D+00  0.1000000000D+01
 ****
     31 0
 S   6 1.00       0.000000000000
      0.3047524880D+04  0.1834737132D-02
      0.4573695180D+03  0.1403732281D-01
      0.1039486850D+03  0.6884262226D-01
      0.2921015530D+02  0.2321844432D+00
      0.9286662960D+01  0.4679413484D+00
      0.3163926960D+01  0.3623119853D+00
 SP   3 1.00       0.000000000000
      0.7868272350D+01 -0.1193324198D+00  0.6899906659D-01
      0.1881288540D+01 -0.1608541517D+00  0.3164239610D+00
      0.5442492580D+00  0.1143456438D+01  0.7443082909D+00
 SP   1 1.00       0.000000000000
      0.1687144782D+00  0.1000000000D+01  0.1000000000D+01
 D   1 1.00       0.000000000000
      0.8000000000D+00  0.1000000000D+01
 ****
     32 0
 S   6 1.00       0.000000000000
      0.3047524880D+04  0.1834737132D-02
      0.4573695180D+03  0.1403732281D-01
      0.1039486850D+03  0.6884262226D-01
      0.2921015530D+02  0.2321844432D+00
      0.9286662960D+01  0.4679413484D+00
      0.3163926960D+01  0.3623119853D+00
 SP   3 1.00       0.000000000000
      0.7868272350D+01 -0.1193324198D+00  0.6899906659D-01
      0.1881288540D+01 -0.1608541517D+00  0.3164239610D+00
      0.5442492580D+00  0.1143456438D+01  0.7443082909D+00
 SP   1 1.00       0.000000000000
      0.1687144782D+00  0.1000000000D+01  0.1000000000D+01
 D   1 1.00       0.000000000000
      0.8000000000D+00  0.1000000000D+01
 ****
     33 0
 S   6 1.00       0.000000000000
      0.4173511460D+04  0.1834772160D-02
      0.6274579110D+03  0.1399462700D-01
      0.1429020930D+03  0.6858655181D-01
      0.4023432930D+02  0.2322408730D+00
      0.1282021290D+02  0.4690699481D+00
      0.4390437010D+01  0.3604551991D+00
 SP   3 1.00       0.000000000000
      0.1162636186D+02 -0.1149611817D+00  0.6757974388D-01
      0.2716279807D+01 -0.1691174786D+00  0.3239072959D+00
      0.7722183966D+00  0.1145851947D+01  0.7408951398D+00
 SP   1 1.00       0.000000000000
      0.2120314975D+00  0.1000000000D+01  0.1000000000D+01
 D   1 1.00       0.000000000000
      0.8000000000D+00  0.1000000000D+01
 ****
     34 0
 S   6 1.00       0.000000000000
      0.3047524880D+04  0.1834737132D-02
      0.4573695180D+03  0.1403732281D-01
      0.1039486850D+03  0.6884262226D-01
      0.2921015530D+02  0.2321844432D+00
      0.9286662960D+01  0.4679413484D+00
      0.3163926960D+01  0.3623119853D+00
 SP   3 1.00       0.000000000000
      0.7868272350D+01 -0.1193324198D+00  0.6899906659D-01
      0.1881288540D+01 -0.1608541517D+00  0.3164239610D+00
      0.5442492580D+00  0.1143456438D+01  0.7443082909D+00
 SP   1 1.00       0.000000000000
      0.1687144782D+00  0.1000000000D+01  0.1000000000D+01
 D   1 1.00       0.000000000000
      0.8000000000D+00  0.1000000000D+01
 ****
     35 0
 S   6 1.00       0.000000000000
      0.3047524880D+04  0.1834737132D-02
      0.4573695180D+03  0.1403732281D-01
      0.1039486850D+03  0.6884262226D-01
      0.2921015530D+02  0.2321844432D+00
      0.9286662960D+01  0.4679413484D+00
      0.3163926960D+01  0.3623119853D+00
 SP   3 1.00       0.000000000000
      0.7868272350D+01 -0.1193324198D+00  0.6899906659D-01
      0.1881288540D+01 -0.1608541517D+00  0.3164239610D+00
      0.5442492580D+00  0.1143456438D+01  0.7443082909D+00
 SP   1 1.00       0.000000000000
      0.1687144782D+00  0.1000000000D+01  0.1000000000D+01
 D   1 1.00       0.000000000000
      0.8000000000D+00  0.1000000000D+01
 ****
     36 0
 S   6 1.00       0.000000000000
      0.3047524880D+04  0.1834737132D-02
      0.4573695180D+03  0.1403732281D-01
      0.1039486850D+03  0.6884262226D-01
      0.2921015530D+02  0.2321844432D+00
      0.9286662960D+01  0.4679413484D+00
      0.3163926960D+01  0.3623119853D+00
 SP   3 1.00       0.000000000000
      0.7868272350D+01 -0.1193324198D+00  0.6899906659D-01
      0.1881288540D+01 -0.1608541517D+00  0.3164239610D+00
      0.5442492580D+00  0.1143456438D+01  0.7443082909D+00
 SP   1 1.00       0.000000000000
      0.1687144782D+00  0.1000000000D+01  0.1000000000D+01
 D   1 1.00       0.000000000000
      0.8000000000D+00  0.1000000000D+01
 ****
     37 0
 S   6 1.00       0.000000000000
      0.3047524880D+04  0.1834737132D-02
      0.4573695180D+03  0.1403732281D-01
      0.1039486850D+03  0.6884262226D-01
      0.2921015530D+02  0.2321844432D+00
      0.9286662960D+01  0.4679413484D+00
      0.3163926960D+01  0.3623119853D+00
 SP   3 1.00       0.000000000000
      0.7868272350D+01 -0.1193324198D+00  0.6899906659D-01
      0.1881288540D+01 -0.1608541517D+00  0.3164239610D+00
      0.5442492580D+00  0.1143456438D+01  0.7443082909D+00
 SP   1 1.00       0.000000000000
      0.1687144782D+00  0.1000000000D+01  0.1000000000D+01
 D   1 1.00       0.000000000000
      0.8000000000D+00  0.1000000000D+01
 ****
     38 0
 S   6 1.00       0.000000000000
      0.3047524880D+04  0.1834737132D-02
      0.4573695180D+03  0.1403732281D-01
      0.1039486850D+03  0.6884262226D-01
      0.2921015530D+02  0.2321844432D+00
      0.9286662960D+01  0.4679413484D+00
      0.3163926960D+01  0.3623119853D+00
 SP   3 1.00       0.000000000000
      0.7868272350D+01 -0.1193324198D+00  0.6899906659D-01
      0.1881288540D+01 -0.1608541517D+00  0.3164239610D+00
      0.5442492580D+00  0.1143456438D+01  0.7443082909D+00
 SP   1 1.00       0.000000000000
      0.1687144782D+00  0.1000000000D+01  0.1000000000D+01
 D   1 1.00       0.000000000000
      0.8000000000D+00  0.1000000000D+01
 ****
     39 0
 S   6 1.00       0.000000000000
      0.3047524880D+04  0.1834737132D-02
      0.4573695180D+03  0.1403732281D-01
      0.1039486850D+03  0.6884262226D-01
      0.2921015530D+02  0.2321844432D+00
      0.9286662960D+01  0.4679413484D+00
      0.3163926960D+01  0.3623119853D+00
 SP   3 1.00       0.000000000000
      0.7868272350D+01 -0.1193324198D+00  0.6899906659D-01
      0.1881288540D+01 -0.1608541517D+00  0.3164239610D+00
      0.5442492580D+00  0.1143456438D+01  0.7443082909D+00
 SP   1 1.00       0.000000000000
      0.1687144782D+00  0.1000000000D+01  0.1000000000D+01
 D   1 1.00       0.000000000000
      0.8000000000D+00  0.1000000000D+01
 ****
     40 0
 S   6 1.00       0.000000000000
      0.3047524880D+04  0.1834737132D-02
      0.4573695180D+03  0.1403732281D-01
      0.1039486850D+03  0.6884262226D-01
      0.2921015530D+02  0.2321844432D+00
      0.9286662960D+01  0.4679413484D+00
      0.3163926960D+01  0.3623119853D+00
 SP   3 1.00       0.000000000000
      0.7868272350D+01 -0.1193324198D+00  0.6899906659D-01
      0.1881288540D+01 -0.1608541517D+00  0.3164239610D+00
      0.5442492580D+00  0.1143456438D+01  0.7443082909D+00
 SP   1 1.00       0.000000000000
      0.1687144782D+00  0.1000000000D+01  0.1000000000D+01
 D   1 1.00       0.000000000000
      0.8000000000D+00  0.1000000000D+01
 ****
     41 0
 S   6 1.00       0.000000000000
      0.3047524880D+04  0.1834737132D-02
      0.4573695180D+03  0.1403732281D-01
      0.1039486850D+03  0.6884262226D-01
      0.2921015530D+02  0.2321844432D+00
      0.9286662960D+01  0.4679413484D+00
      0.3163926960D+01  0.3623119853D+00
 SP   3 1.00       0.000000000000
      0.7868272350D+01 -0.1193324198D+00  0.6899906659D-01
      0.1881288540D+01 -0.1608541517D+00  0.3164239610D+00
      0.5442492580D+00  0.1143456438D+01  0.7443082909D+00
 SP   1 1.00       0.000000000000
      0.1687144782D+00  0.1000000000D+01  0.1000000000D+01
 D   1 1.00       0.000000000000
      0.8000000000D+00  0.1000000000D+01
 ****
     42 0
 S   6 1.00       0.000000000000
      0.3047524880D+04  0.1834737132D-02
      0.4573695180D+03  0.1403732281D-01
      0.1039486850D+03  0.6884262226D-01
      0.2921015530D+02  0.2321844432D+00
      0.9286662960D+01  0.4679413484D+00
      0.3163926960D+01  0.3623119853D+00
 SP   3 1.00       0.000000000000
      0.7868272350D+01 -0.1193324198D+00  0.6899906659D-01
      0.1881288540D+01 -0.1608541517D+00  0.3164239610D+00
      0.5442492580D+00  0.1143456438D+01  0.7443082909D+00
 SP   1 1.00       0.000000000000
      0.1687144782D+00  0.1000000000D+01  0.1000000000D+01
 D   1 1.00       0.000000000000
      0.8000000000D+00  0.1000000000D+01
 ****
     43 0
 S   6 1.00       0.000000000000
      0.3047524880D+04  0.1834737132D-02
      0.4573695180D+03  0.1403732281D-01
      0.1039486850D+03  0.6884262226D-01
      0.2921015530D+02  0.2321844432D+00
      0.9286662960D+01  0.4679413484D+00
      0.3163926960D+01  0.3623119853D+00
 SP   3 1.00       0.000000000000
      0.7868272350D+01 -0.1193324198D+00  0.6899906659D-01
      0.1881288540D+01 -0.1608541517D+00  0.3164239610D+00
      0.5442492580D+00  0.1143456438D+01  0.7443082909D+00
 SP   1 1.00       0.000000000000
      0.1687144782D+00  0.1000000000D+01  0.1000000000D+01
 D   1 1.00       0.000000000000
      0.8000000000D+00  0.1000000000D+01
 ****
     44 0
 S   6 1.00       0.000000000000
      0.3047524880D+04  0.1834737132D-02
      0.4573695180D+03  0.1403732281D-01
      0.1039486850D+03  0.6884262226D-01
      0.2921015530D+02  0.2321844432D+00
      0.9286662960D+01  0.4679413484D+00
      0.3163926960D+01  0.3623119853D+00
 SP   3 1.00       0.000000000000
      0.7868272350D+01 -0.1193324198D+00  0.6899906659D-01
      0.1881288540D+01 -0.1608541517D+00  0.3164239610D+00
      0.5442492580D+00  0.1143456438D+01  0.7443082909D+00
 SP   1 1.00       0.000000000000
      0.1687144782D+00  0.1000000000D+01  0.1000000000D+01
 D   1 1.00       0.000000000000
      0.8000000000D+00  0.1000000000D+01
 ****
     45 0
 S   6 1.00       0.000000000000
      0.3047524880D+04  0.1834737132D-02
      0.4573695180D+03  0.1403732281D-01
      0.1039486850D+03  0.6884262226D-01
      0.2921015530D+02  0.2321844432D+00
      0.9286662960D+01  0.4679413484D+00
      0.3163926960D+01  0.3623119853D+00
 SP   3 1.00       0.000000000000
      0.7868272350D+01 -0.1193324198D+00  0.6899906659D-01
      0.1881288540D+01 -0.1608541517D+00  0.3164239610D+00
      0.5442492580D+00  0.1143456438D+01  0.7443082909D+00
 SP   1 1.00       0.000000000000
      0.1687144782D+00  0.1000000000D+01  0.1000000000D+01
 D   1 1.00       0.000000000000
      0.8000000000D+00  0.1000000000D+01
 ****
     46 0
 S   6 1.00       0.000000000000
      0.3047524880D+04  0.1834737132D-02
      0.4573695180D+03  0.1403732281D-01
      0.1039486850D+03  0.6884262226D-01
      0.2921015530D+02  0.2321844432D+00
      0.9286662960D+01  0.4679413484D+00
      0.3163926960D+01  0.3623119853D+00
 SP   3 1.00       0.000000000000
      0.7868272350D+01 -0.1193324198D+00  0.6899906659D-01
      0.1881288540D+01 -0.1608541517D+00  0.3164239610D+00
      0.5442492580D+00  0.1143456438D+01  0.7443082909D+00
 SP   1 1.00       0.000000000000
      0.1687144782D+00  0.1000000000D+01  0.1000000000D+01
 D   1 1.00       0.000000000000
      0.8000000000D+00  0.1000000000D+01
 ****
     47 0
 S   6 1.00       0.000000000000
      0.3047524880D+04  0.1834737132D-02
      0.4573695180D+03  0.1403732281D-01
      0.1039486850D+03  0.6884262226D-01
      0.2921015530D+02  0.2321844432D+00
      0.9286662960D+01  0.4679413484D+00
      0.3163926960D+01  0.3623119853D+00
 SP   3 1.00       0.000000000000
      0.7868272350D+01 -0.1193324198D+00  0.6899906659D-01
      0.1881288540D+01 -0.1608541517D+00  0.3164239610D+00
      0.5442492580D+00  0.1143456438D+01  0.7443082909D+00
 SP   1 1.00       0.000000000000
      0.1687144782D+00  0.1000000000D+01  0.1000000000D+01
 D   1 1.00       0.000000000000
      0.8000000000D+00  0.1000000000D+01
 ****
     48 0
 S   6 1.00       0.000000000000
      0.3047524880D+04  0.1834737132D-02
      0.4573695180D+03  0.1403732281D-01
      0.1039486850D+03  0.6884262226D-01
      0.2921015530D+02  0.2321844432D+00
      0.9286662960D+01  0.4679413484D+00
      0.3163926960D+01  0.3623119853D+00
 SP   3 1.00       0.000000000000
      0.7868272350D+01 -0.1193324198D+00  0.6899906659D-01
      0.1881288540D+01 -0.1608541517D+00  0.3164239610D+00
      0.5442492580D+00  0.1143456438D+01  0.7443082909D+00
 SP   1 1.00       0.000000000000
      0.1687144782D+00  0.1000000000D+01  0.1000000000D+01
 D   1 1.00       0.000000000000
      0.8000000000D+00  0.1000000000D+01
 ****
     49 0
 S   6 1.00       0.000000000000
      0.3047524880D+04  0.1834737132D-02
      0.4573695180D+03  0.1403732281D-01
      0.1039486850D+03  0.6884262226D-01
      0.2921015530D+02  0.2321844432D+00
      0.9286662960D+01  0.4679413484D+00
      0.3163926960D+01  0.3623119853D+00
 SP   3 1.00       0.000000000000
      0.7868272350D+01 -0.1193324198D+00  0.6899906659D-01
      0.1881288540D+01 -0.1608541517D+00  0.3164239610D+00
      0.5442492580D+00  0.1143456438D+01  0.7443082909D+00
 SP   1 1.00       0.000000000000
      0.1687144782D+00  0.1000000000D+01  0.1000000000D+01
 D   1 1.00       0.000000000000
      0.8000000000D+00  0.1000000000D+01
 ****
     50 0
 S   6 1.00       0.000000000000
      0.3047524880D+04  0.1834737132D-02
      0.4573695180D+03  0.1403732281D-01
      0.1039486850D+03  0.6884262226D-01
      0.2921015530D+02  0.2321844432D+00
      0.9286662960D+01  0.4679413484D+00
      0.3163926960D+01  0.3623119853D+00
 SP   3 1.00       0.000000000000
      0.7868272350D+01 -0.1193324198D+00  0.6899906659D-01
      0.1881288540D+01 -0.1608541517D+00  0.3164239610D+00
      0.5442492580D+00  0.1143456438D+01  0.7443082909D+00
 SP   1 1.00       0.000000000000
      0.1687144782D+00  0.1000000000D+01  0.1000000000D+01
 D   1 1.00       0.000000000000
      0.8000000000D+00  0.1000000000D+01
 ****
     51 0
 S   6 1.00       0.000000000000
      0.3047524880D+04  0.1834737132D-02
      0.4573695180D+03  0.1403732281D-01
      0.1039486850D+03  0.6884262226D-01
      0.2921015530D+02  0.2321844432D+00
      0.9286662960D+01  0.4679413484D+00
      0.3163926960D+01  0.3623119853D+00
 SP   3 1.00       0.000000000000
      0.7868272350D+01 -0.1193324198D+00  0.6899906659D-01
      0.1881288540D+01 -0.1608541517D+00  0.3164239610D+00
      0.5442492580D+00  0.1143456438D+01  0.7443082909D+00
 SP   1 1.00       0.000000000000
      0.1687144782D+00  0.1000000000D+01  0.1000000000D+01
 D   1 1.00       0.000000000000
      0.8000000000D+00  0.1000000000D+01
 ****
     52 0
 S   6 1.00       0.000000000000
      0.3047524880D+04  0.1834737132D-02
      0.4573695180D+03  0.1403732281D-01
      0.1039486850D+03  0.6884262226D-01
      0.2921015530D+02  0.2321844432D+00
      0.9286662960D+01  0.4679413484D+00
      0.3163926960D+01  0.3623119853D+00
 SP   3 1.00       0.000000000000
      0.7868272350D+01 -0.1193324198D+00  0.6899906659D-01
      0.1881288540D+01 -0.1608541517D+00  0.3164239610D+00
      0.5442492580D+00  0.1143456438D+01  0.7443082909D+00
 SP   1 1.00       0.000000000000
      0.1687144782D+00  0.1000000000D+01  0.1000000000D+01
 D   1 1.00       0.000000000000
      0.8000000000D+00  0.1000000000D+01
 ****
     53 0
 S   6 1.00       0.000000000000
      0.3047524880D+04  0.1834737132D-02
      0.4573695180D+03  0.1403732281D-01
      0.1039486850D+03  0.6884262226D-01
      0.2921015530D+02  0.2321844432D+00
      0.9286662960D+01  0.4679413484D+00
      0.3163926960D+01  0.3623119853D+00
 SP   3 1.00       0.000000000000
      0.7868272350D+01 -0.1193324198D+00  0.6899906659D-01
      0.1881288540D+01 -0.1608541517D+00  0.3164239610D+00
      0.5442492580D+00  0.1143456438D+01  0.7443082909D+00
 SP   1 1.00       0.000000000000
      0.1687144782D+00  0.1000000000D+01  0.1000000000D+01
 D   1 1.00       0.000000000000
      0.8000000000D+00  0.1000000000D+01
 ****
     54 0
 S   6 1.00       0.000000000000
      0.3047524880D+04  0.1834737132D-02
      0.4573695180D+03  0.1403732281D-01
      0.1039486850D+03  0.6884262226D-01
      0.2921015530D+02  0.2321844432D+00
      0.9286662960D+01  0.4679413484D+00
      0.3163926960D+01  0.3623119853D+00
 SP   3 1.00       0.000000000000
      0.7868272350D+01 -0.1193324198D+00  0.6899906659D-01
      0.1881288540D+01 -0.1608541517D+00  0.3164239610D+00
      0.5442492580D+00  0.1143456438D+01  0.7443082909D+00
 SP   1 1.00       0.000000000000
      0.1687144782D+00  0.1000000000D+01  0.1000000000D+01
 D   1 1.00       0.000000000000
      0.8000000000D+00  0.1000000000D+01
 ****
     55 0
 S   6 1.00       0.000000000000
      0.3047524880D+04  0.1834737132D-02
      0.4573695180D+03  0.1403732281D-01
      0.1039486850D+03  0.6884262226D-01
      0.2921015530D+02  0.2321844432D+00
      0.9286662960D+01  0.4679413484D+00
      0.3163926960D+01  0.3623119853D+00
 SP   3 1.00       0.000000000000
      0.7868272350D+01 -0.1193324198D+00  0.6899906659D-01
      0.1881288540D+01 -0.1608541517D+00  0.3164239610D+00
      0.5442492580D+00  0.1143456438D+01  0.7443082909D+00
 SP   1 1.00       0.000000000000
      0.1687144782D+00  0.1000000000D+01  0.1000000000D+01
 D   1 1.00       0.000000000000
      0.8000000000D+00  0.1000000000D+01
 ****
     56 0
 S   6 1.00       0.000000000000
      0.3047524880D+04  0.1834737132D-02
      0.4573695180D+03  0.1403732281D-01
      0.1039486850D+03  0.6884262226D-01
      0.2921015530D+02  0.2321844432D+00
      0.9286662960D+01  0.4679413484D+00
      0.3163926960D+01  0.3623119853D+00
 SP   3 1.00       0.000000000000
      0.7868272350D+01 -0.1193324198D+00  0.6899906659D-01
      0.1881288540D+01 -0.1608541517D+00  0.3164239610D+00
      0.5442492580D+00  0.1143456438D+01  0.7443082909D+00
 SP   1 1.00       0.000000000000
      0.1687144782D+00  0.1000000000D+01  0.1000000000D+01
 D   1 1.00       0.000000000000
      0.8000000000D+00  0.1000000000D+01
 ****
     57 0
 S   6 1.00       0.000000000000
      0.3047524880D+04  0.1834737132D-02
      0.4573695180D+03  0.1403732281D-01
      0.1039486850D+03  0.6884262226D-01
      0.2921015530D+02  0.2321844432D+00
      0.9286662960D+01  0.4679413484D+00
      0.3163926960D+01  0.3623119853D+00
 SP   3 1.00       0.000000000000
      0.7868272350D+01 -0.1193324198D+00  0.6899906659D-01
      0.1881288540D+01 -0.1608541517D+00  0.3164239610D+00
      0.5442492580D+00  0.1143456438D+01  0.7443082909D+00
 SP   1 1.00       0.000000000000
      0.1687144782D+00  0.1000000000D+01  0.1000000000D+01
 D   1 1.00       0.000000000000
      0.8000000000D+00  0.1000000000D+01
 ****
     58 0
 S   6 1.00       0.000000000000
      0.3047524880D+04  0.1834737132D-02
      0.4573695180D+03  0.1403732281D-01
      0.1039486850D+03  0.6884262226D-01
      0.2921015530D+02  0.2321844432D+00
      0.9286662960D+01  0.4679413484D+00
      0.3163926960D+01  0.3623119853D+00
 SP   3 1.00       0.000000000000
      0.7868272350D+01 -0.1193324198D+00  0.6899906659D-01
      0.1881288540D+01 -0.1608541517D+00  0.3164239610D+00
      0.5442492580D+00  0.1143456438D+01  0.7443082909D+00
 SP   1 1.00       0.000000000000
      0.1687144782D+00  0.1000000000D+01  0.1000000000D+01
 D   1 1.00       0.000000000000
      0.8000000000D+00  0.1000000000D+01
 ****
     59 0
 S   6 1.00       0.000000000000
      0.3047524880D+04  0.1834737132D-02
      0.4573695180D+03  0.1403732281D-01
      0.1039486850D+03  0.6884262226D-01
      0.2921015530D+02  0.2321844432D+00
      0.9286662960D+01  0.4679413484D+00
      0.3163926960D+01  0.3623119853D+00
 SP   3 1.00       0.000000000000
      0.7868272350D+01 -0.1193324198D+00  0.6899906659D-01
      0.1881288540D+01 -0.1608541517D+00  0.3164239610D+00
      0.5442492580D+00  0.1143456438D+01  0.7443082909D+00
 SP   1 1.00       0.000000000000
      0.1687144782D+00  0.1000000000D+01  0.1000000000D+01
 D   1 1.00       0.000000000000
      0.8000000000D+00  0.1000000000D+01
 ****
     60 0
 S   6 1.00       0.000000000000
      0.4173511460D+04  0.1834772160D-02
      0.6274579110D+03  0.1399462700D-01
      0.1429020930D+03  0.6858655181D-01
      0.4023432930D+02  0.2322408730D+00
      0.1282021290D+02  0.4690699481D+00
      0.4390437010D+01  0.3604551991D+00
 SP   3 1.00       0.000000000000
      0.1162636186D+02 -0.1149611817D+00  0.6757974388D-01
      0.2716279807D+01 -0.1691174786D+00  0.3239072959D+00
      0.7722183966D+00  0.1145851947D+01  0.7408951398D+00
 SP   1 1.00       0.000000000000
      0.2120314975D+00  0.1000000000D+01  0.1000000000D+01
 D   1 1.00       0.000000000000
      0.8000000000D+00  0.1000000000D+01
 ****
     61 0
 S   6 1.00       0.000000000000
      0.3047524880D+04  0.1834737132D-02
      0.4573695180D+03  0.1403732281D-01
      0.1039486850D+03  0.6884262226D-01
      0.2921015530D+02  0.2321844432D+00
      0.9286662960D+01  0.4679413484D+00
      0.3163926960D+01  0.3623119853D+00
 SP   3 1.00       0.000000000000
      0.7868272350D+01 -0.1193324198D+00  0.6899906659D-01
      0.1881288540D+01 -0.1608541517D+00  0.3164239610D+00
      0.5442492580D+00  0.1143456438D+01  0.7443082909D+00
 SP   1 1.00       0.000000000000
      0.1687144782D+00  0.1000000000D+01  0.1000000000D+01
 D   1 1.00       0.000000000000
      0.8000000000D+00  0.1000000000D+01
 ****
     62 0
 S   6 1.00       0.000000000000
      0.3047524880D+04  0.1834737132D-02
      0.4573695180D+03  0.1403732281D-01
      0.1039486850D+03  0.6884262226D-01
      0.2921015530D+02  0.2321844432D+00
      0.9286662960D+01  0.4679413484D+00
      0.3163926960D+01  0.3623119853D+00
 SP   3 1.00       0.000000000000
      0.7868272350D+01 -0.1193324198D+00  0.6899906659D-01
      0.1881288540D+01 -0.1608541517D+00  0.3164239610D+00
      0.5442492580D+00  0.1143456438D+01  0.7443082909D+00
 SP   1 1.00       0.000000000000
      0.1687144782D+00  0.1000000000D+01  0.1000000000D+01
 D   1 1.00       0.000000000000
      0.8000000000D+00  0.1000000000D+01
 ****
     63 0
 S   6 1.00       0.000000000000
      0.3047524880D+04  0.1834737132D-02
      0.4573695180D+03  0.1403732281D-01
      0.1039486850D+03  0.6884262226D-01
      0.2921015530D+02  0.2321844432D+00
      0.9286662960D+01  0.4679413484D+00
      0.3163926960D+01  0.3623119853D+00
 SP   3 1.00       0.000000000000
      0.7868272350D+01 -0.1193324198D+00  0.6899906659D-01
      0.1881288540D+01 -0.1608541517D+00  0.3164239610D+00
      0.5442492580D+00  0.1143456438D+01  0.7443082909D+00
 SP   1 1.00       0.000000000000
      0.1687144782D+00  0.1000000000D+01  0.1000000000D+01
 D   1 1.00       0.000000000000
      0.8000000000D+00  0.1000000000D+01
 ****
     64 0
 S   6 1.00       0.000000000000
      0.3047524880D+04  0.1834737132D-02
      0.4573695180D+03  0.1403732281D-01
      0.1039486850D+03  0.6884262226D-01
      0.2921015530D+02  0.2321844432D+00
      0.9286662960D+01  0.4679413484D+00
      0.3163926960D+01  0.3623119853D+00
 SP   3 1.00       0.000000000000
      0.7868272350D+01 -0.1193324198D+00  0.6899906659D-01
      0.1881288540D+01 -0.1608541517D+00  0.3164239610D+00
      0.5442492580D+00  0.1143456438D+01  0.7443082909D+00
 SP   1 1.00       0.000000000000
      0.1687144782D+00  0.1000000000D+01  0.1000000000D+01
 D   1 1.00       0.000000000000
      0.8000000000D+00  0.1000000000D+01
 ****
     65 0
 S   6 1.00       0.000000000000
      0.3047524880D+04  0.1834737132D-02
      0.4573695180D+03  0.1403732281D-01
      0.1039486850D+03  0.6884262226D-01
      0.2921015530D+02  0.2321844432D+00
      0.9286662960D+01  0.4679413484D+00
      0.3163926960D+01  0.3623119853D+00
 SP   3 1.00       0.000000000000
      0.7868272350D+01 -0.1193324198D+00  0.6899906659D-01
      0.1881288540D+01 -0.1608541517D+00  0.3164239610D+00
      0.5442492580D+00  0.1143456438D+01  0.7443082909D+00
 SP   1 1.00       0.000000000000
      0.1687144782D+00  0.1000000000D+01  0.1000000000D+01
 D   1 1.00       0.000000000000
      0.8000000000D+00  0.1000000000D+01
 ****
     66 0
 S   6 1.00       0.000000000000
      0.3047524880D+04  0.1834737132D-02
      0.4573695180D+03  0.1403732281D-01
      0.1039486850D+03  0.6884262226D-01
      0.2921015530D+02  0.2321844432D+00
      0.9286662960D+01  0.4679413484D+00
      0.3163926960D+01  0.3623119853D+00
 SP   3 1.00       0.000000000000
      0.7868272350D+01 -0.1193324198D+00  0.6899906659D-01
      0.1881288540D+01 -0.1608541517D+00  0.3164239610D+00
      0.5442492580D+00  0.1143456438D+01  0.7443082909D+00
 SP   1 1.00       0.000000000000
      0.1687144782D+00  0.1000000000D+01  0.1000000000D+01
 D   1 1.00       0.000000000000
      0.8000000000D+00  0.1000000000D+01
 ****
     67 0
 S   6 1.00       0.000000000000
[...]
 Alpha virt. eigenvalues --    1.49992   1.50081   1.50286   1.50352   1.50497
 Alpha virt. eigenvalues --    1.50725   1.50831   1.50996   1.51045   1.51568
 Alpha virt. eigenvalues --    1.51657   1.51688   1.51756   1.52086   1.52521
 Alpha virt. eigenvalues --    1.52915   1.54971   1.55218   1.56195   1.58163
 Alpha virt. eigenvalues --    1.60093   1.61165   1.61528   1.62102   1.62865
 Alpha virt. eigenvalues --    1.63875   1.64711   1.66544   1.66697   1.67194
 Alpha virt. eigenvalues --    1.67910   1.69973   1.70985   1.71277   1.71817
 Alpha virt. eigenvalues --    1.72492   1.72573   1.72845   1.72992   1.73226
 Alpha virt. eigenvalues --    1.73315   1.74119   1.74568   1.74842   1.75561
 Alpha virt. eigenvalues --    1.75744   1.76285   1.77199   1.77317   1.77390
 Alpha virt. eigenvalues --    1.77747   1.78434   1.78727   1.79168   1.79397
 Alpha virt. eigenvalues --    1.79547   1.79578   1.79944   1.80402   1.80832
 Alpha virt. eigenvalues --    1.81131   1.81988   1.82144   1.82237   1.82703
 Alpha virt. eigenvalues --    1.82883   1.83081   1.83222   1.83533   1.83855
 Alpha virt. eigenvalues --    1.84125   1.84314   1.84953   1.85100   1.85378
 Alpha virt. eigenvalues --    1.85567   1.86528   1.86884   1.87175   1.87644
 Alpha virt. eigenvalues --    1.88261   1.88597   1.88978   1.89102   1.89382
 Alpha virt. eigenvalues --    1.89861   1.90456   1.90608   1.90719   1.90907
 Alpha virt. eigenvalues --    1.91349   1.91556   1.91777   1.92108   1.92546
 Alpha virt. eigenvalues --    1.93011   1.93450   1.93566   1.93813   1.93933
 Alpha virt. eigenvalues --    1.94028   1.94202   1.94389   1.94601   1.94896
 Alpha virt. eigenvalues --    1.95298   1.95500   1.96021   1.96095   1.96642
 Alpha virt. eigenvalues --    1.97075   1.97327   1.97580   1.98633   1.98746
 Alpha virt. eigenvalues --    1.98800   1.98998   1.99184   1.99444   1.99532
 Alpha virt. eigenvalues --    1.99856   2.00287   2.01217   2.01678   2.02234
 Alpha virt. eigenvalues --    2.02598   2.03654   2.04365   2.05196   2.05344
 Alpha virt. eigenvalues --    2.05413   2.06031   2.06212   2.06446   2.06758
 Alpha virt. eigenvalues --    2.07434   2.07888   2.08392   2.08926   2.09815
 Alpha virt. eigenvalues --    2.10101   2.10296   2.10649   2.10988   2.11380
 Alpha virt. eigenvalues --    2.12074   2.12500   2.13127   2.13197   2.13381
 Alpha virt. eigenvalues --    2.13468   2.13911   2.13980   2.14417   2.14564
 Alpha virt. eigenvalues --    2.14608   2.14790   2.15012   2.15075   2.15407
 Alpha virt. eigenvalues --    2.15556   2.15828   2.15962   2.16194   2.16448
 Alpha virt. eigenvalues --    2.16555   2.17299   2.17596   2.17654   2.17773
 Alpha virt. eigenvalues --    2.18380   2.19015   2.19517   2.20168   2.20303
 Alpha virt. eigenvalues --    2.20811   2.21006   2.21448   2.21763   2.22060
 Alpha virt. eigenvalues --    2.22354   2.22822   2.23207   2.23456   2.24015
 Alpha virt. eigenvalues --    2.24265   2.24955   2.25429   2.25485   2.25875
 Alpha virt. eigenvalues --    2.26041   2.26369   2.26686   2.26714   2.27692
 Alpha virt. eigenvalues --    2.28130   2.28292   2.28808   2.29029   2.29315
 Alpha virt. eigenvalues --    2.29457   2.29633   2.30028   2.30073   2.30448
 Alpha virt. eigenvalues --    2.30722   2.30948   2.31164   2.31787   2.31806
 Alpha virt. eigenvalues --    2.32133   2.32360   2.32520   2.32679   2.32977
 Alpha virt. eigenvalues --    2.33051   2.33401   2.34046   2.34196   2.34924
 Alpha virt. eigenvalues --    2.35193   2.35514   2.35964   2.37388   2.37812
 Alpha virt. eigenvalues --    2.38484   2.38625   2.39054   2.39611   2.40441
 Alpha virt. eigenvalues --    2.41304   2.41313   2.41656   2.42229   2.42433
 Alpha virt. eigenvalues --    2.42916   2.45552   2.46071   2.47150   2.47563
 Alpha virt. eigenvalues --    2.48473   2.50021   2.50279   2.51208   2.52548
 Alpha virt. eigenvalues --    2.52750   2.53676   2.53841   2.54382   2.54546
 Alpha virt. eigenvalues --    2.55373   2.55751   2.56672   2.57670   2.57821
 Alpha virt. eigenvalues --    2.58112   2.58388   2.58755   2.59436   2.59764
 Alpha virt. eigenvalues --    2.60105   2.61436   2.61708   2.61793   2.62247
 Alpha virt. eigenvalues --    2.62855   2.63226   2.63477   2.63815   2.64009
 Alpha virt. eigenvalues --    2.64190   2.64821   2.65162   2.65336   2.65479
 Alpha virt. eigenvalues --    2.66334   2.66852   2.66910   2.67257   2.67735
 Alpha virt. eigenvalues --    2.68016   2.68316   2.68566   2.68730   2.69385
 Alpha virt. eigenvalues --    2.69441   2.69838   2.69933   2.70165   2.70706
 Alpha virt. eigenvalues --    2.70917   2.71383   2.71534   2.71603   2.72639
 Alpha virt. eigenvalues --    2.72732   2.72999   2.73212   2.73962   2.74110
 Alpha virt. eigenvalues --    2.74344   2.74677   2.74922   2.75469   2.75905
 Alpha virt. eigenvalues --    2.75994   2.76403   2.77050   2.77563   2.77937
 Alpha virt. eigenvalues --    2.78331   2.79162   2.79250   2.79885   2.80478
 Alpha virt. eigenvalues --    2.81314   2.81478   2.82052   2.83035   2.83290
 Alpha virt. eigenvalues --    2.83806   2.84648   2.84969   2.85528   2.86225
 Alpha virt. eigenvalues --    2.86818   2.87646   2.89236   2.89928   2.90801
 Alpha virt. eigenvalues --    2.92002   2.92606   2.93121   2.93794   2.93940
 Alpha virt. eigenvalues --    2.94964   2.96431   2.96935   2.97618   2.98681
 Alpha virt. eigenvalues --    2.99060   2.99222   2.99788   3.00763   3.03531
 Alpha virt. eigenvalues --    3.04561   3.05545   3.07413   3.10447   3.13608
 Alpha virt. eigenvalues --    3.16907   3.19476   3.20594   3.21710   3.24757
 Alpha virt. eigenvalues --    3.25596   3.27732   3.28504   3.29953   3.33866
 Alpha virt. eigenvalues --    3.35202   3.38295   3.39803   3.41705   3.42915
 Alpha virt. eigenvalues --    3.43177   3.45057   3.45875   3.47626   3.48174
 Alpha virt. eigenvalues --    3.53818   3.55275   4.05084   4.07497   4.07518
 Alpha virt. eigenvalues --    4.08060   4.08224   4.09403   4.09471   4.09768
 Alpha virt. eigenvalues --    4.09899   4.10418   4.10495   4.10609   4.11162
 Alpha virt. eigenvalues --    4.11358   4.11516   4.11699   4.11988   4.12406
 Alpha virt. eigenvalues --    4.12643   4.13259   4.13600   4.13786   4.14207
 Alpha virt. eigenvalues --    4.14895   4.15223   4.15753   4.16642   4.16731
 Alpha virt. eigenvalues --    4.16854   4.17316   4.17798   4.18291   4.19035
 Alpha virt. eigenvalues --    4.19120   4.19977   4.21100   4.21712   4.22971
 Alpha virt. eigenvalues --    4.23534   4.28362   4.29434   4.32137   4.32779
 Alpha virt. eigenvalues --    4.33148   4.33512   4.33586   4.33707   4.34115
 Alpha virt. eigenvalues --    4.35551   4.37220   4.37263   4.37702   4.38074
 Alpha virt. eigenvalues --    4.39389   4.39716   4.40669   4.41624   4.43413
 Alpha virt. eigenvalues --    4.44128   4.45567   4.47574   4.48357   4.52057
 Alpha virt. eigenvalues --    4.54244   4.62218   4.62258   4.62304   4.69329
 Alpha virt. eigenvalues --    4.70603   4.72481   4.73814   4.75825   4.78038
 Alpha virt. eigenvalues --    4.79051   4.82795   4.91114   4.92269
          Condensed to atoms (all electrons):
 Mulliken charges:
               1
     1  C   -0.128411
     2  C   -0.140126
     3  C   -0.162470
     4  C    0.274980
     5  N   -0.653279
     6  C    0.273526
     7  C   -0.161389
     8  C   -0.140397
     9  C   -0.128143
    10  C   -0.140108
    11  C   -0.161742
    12  C    0.291025
    13  C   -0.173188
    14  C   -0.188340
    15  C    0.093887
    16  C    0.096113
    17  C   -0.237920
    18  C    0.093319
    19  C    0.090065
    20  C   -0.193896
    21  C   -0.206639
    22  C    0.076205
    23  C   -0.065024
    24  C    0.077379
    25  C   -0.179766
    26  C   -0.145916
    27  C   -0.130028
    28  C   -0.210531
    29  C    0.149230
    30  C   -0.207833
    31  C   -0.174160
    32  C    0.317989
    33  N   -0.736840
    34  C    0.256277
    35  C   -0.146707
    36  C   -0.142939
    37  C   -0.121691
    38  C   -0.142103
    39  C   -0.147322
    40  C    0.307473
    41  C   -0.240980
    42  C   -0.228701
    43  C    0.061064
    44  C    0.022634
    45  C   -0.240877
    46  C    0.324167
    47  C   -0.048988
    48  C    0.067136
    49  C   -0.183615
    50  C   -0.144998
    51  C   -0.132252
    52  C   -0.225693
    53  C    0.102795
    54  C    0.065139
    55  C   -0.203239
    56  C   -0.141745
    57  C   -0.143211
    58  C   -0.177326
    59  C    0.302369
    60  N   -0.738449
    61  C    0.265258
    62  C   -0.151988
    63  C   -0.189495
    64  C    0.099111
    65  C    0.065426
    66  C   -0.139233
    67  C   -0.144302
    68  C    0.041851
    69  N   -0.410525
    70  C    0.000166
    71  C   -0.189135
    72  C   -0.151787
    73  C   -0.226267
    74  C   -0.187134
    75  C   -0.172803
    76  C   -0.162297
    77  C   -0.140359
    78  H    0.127466
    79  H    0.131295
    80  H    0.144639
    81  H    0.144687
    82  H    0.132927
    83  H    0.127935
    84  H    0.131335
    85  H    0.144174
    86  H    0.145983
    87  H    0.136987
    88  H    0.137512
    89  H    0.124925
    90  H    0.142139
    91  H    0.135664
    92  H    0.127142
    93  H    0.126223
    94  H    0.126735
    95  H    0.129612
    96  H    0.144216
    97  H    0.153117
    98  H    0.139542
    99  H    0.136270
   100  H    0.144937
   101  H    0.154776
   102  H    0.147797
   103  H    0.140060
   104  H    0.149953
   105  H    0.135425
   106  H    0.125412
   107  H    0.127478
   108  H    0.147509
   109  H    0.142237
   110  H    0.124068
   111  H    0.127206
   112  H    0.139041
   113  H    0.157062
   114  H    0.146225
   115  H    0.146996
   116  H    0.141401
   117  H    0.144961
   118  H    0.145362
   119  H    0.142720
   120  H    0.157498
   121  H    0.134883
   122  H    0.132145
   123  H    0.145368
   124  H    0.144908
   125  H    0.131768
 Sum of Mulliken charges =  -0.00000
 Mulliken charges with hydrogens summed into heavy atoms:
               1
     1  C   -0.000945
     2  C   -0.008831
     3  C   -0.017831
     4  C    0.274980
     5  N   -0.653279
     6  C    0.273526
     7  C   -0.016702
     8  C   -0.007470
     9  C   -0.000207
    10  C   -0.008773
    11  C   -0.017568
    12  C    0.291025
    13  C   -0.027206
    14  C   -0.051353
    15  C    0.093887
    16  C    0.096113
    17  C   -0.100408
    18  C    0.093319
    19  C    0.090065
    20  C   -0.068971
    21  C   -0.064500
    22  C    0.076205
    23  C   -0.065024
    24  C    0.077379
    25  C   -0.044102
    26  C   -0.018773
    27  C   -0.003805
    28  C   -0.083796
    29  C    0.149230
    30  C   -0.078220
    31  C   -0.029943
    32  C    0.317989
    33  N   -0.736840
    34  C    0.256277
    35  C    0.006410
    36  C   -0.003397
    37  C    0.014578
    38  C    0.002834
    39  C    0.007454
    40  C    0.307473
    41  C   -0.093183
    42  C   -0.088640
    43  C    0.061064
    44  C    0.022634
    45  C   -0.090924
    46  C    0.324167
    47  C   -0.048988
    48  C    0.067136
    49  C   -0.048190
    50  C   -0.019586
    51  C   -0.004775
    52  C   -0.078184
    53  C    0.102795
    54  C    0.065139
    55  C   -0.061001
    56  C   -0.017676
    57  C   -0.016005
    58  C   -0.038285
    59  C    0.302369
    60  N   -0.738449
    61  C    0.265258
    62  C    0.005074
    63  C   -0.043270
    64  C    0.099111
    65  C    0.065426
    66  C    0.007763
    67  C   -0.002901
    68  C    0.186812
    69  N   -0.410525
    70  C    0.145529
    71  C   -0.046415
    72  C    0.005711
    73  C   -0.091384
    74  C   -0.054989
    75  C   -0.027434
    76  C   -0.017388
    77  C   -0.008591
 Electronic spatial extent (au):  <R**2>=         100338.5494
 Charge=             -0.0000 electrons
 Dipole moment (field-independent basis, Debye):
    X=              0.7973    Y=             -1.3803    Z=             -0.0442  Tot=              1.5946
 Quadrupole moment (field-independent basis, Debye-Ang):
   XX=           -411.1054   YY=           -418.8742   ZZ=           -407.6484
   XY=             -0.0108   XZ=             -7.5883   YZ=            -16.3463
 Traceless Quadrupole moment (field-independent basis, Debye-Ang):
   XX=              1.4373   YY=             -6.3316   ZZ=              4.8943
   XY=             -0.0108   XZ=             -7.5883   YZ=            -16.3463
 Octapole moment (field-independent basis, Debye-Ang**2):
  XXX=              6.5886  YYY=             42.9347  ZZZ=            -40.2693  XYY=           -227.3154
  XXY=              0.5111  XXZ=            -72.7124  XZZ=             -4.1854  YZZ=            -57.7117
  YYZ=            195.1209  XYZ=             61.4332
 Hexadecapole moment (field-independent basis, Debye-Ang**3):
 XXXX=         -53745.1023 YYYY=         -64283.7791 ZZZZ=         -17341.0320 XXXY=          -7391.8656
 XXXZ=          -3774.6235 YYYX=          -6851.9162 YYYZ=           4157.7684 ZZZX=          -4448.5569
 ZZZY=           3632.9696 XXYY=         -19729.1263 XXZZ=         -10916.5927 YYZZ=         -13509.5511
 XXYZ=           1392.3121 YYXZ=           -880.3042 ZZXY=          -2218.7083
 N-N= 1.042386478110D+04 E-N=-2.786533370828D+04  KE= 3.000462063216D+03
 Leave Link  601 at Sat Nov  5 11:20:26 2022, MaxMem=   402653184 cpu:               5.1 elap:               0.5
 (Enter /home/wykgroup/appl/g16/l9999.exe)
 1\1\GINC-NODE08\SP\RB3LYP TD-FC\6-31G(d)\C73H48N4\WYKGROUP\05-Nov-2022
 \0\\#p b3lyp/6-31g(d) 6D 10F nosymm GFInput td=(50-50,nstate=2) SCF=XQ
 C\\Gaussian input prepared by ASE\\0,1\C,0,-6.0765680986,7.360739509,-
 2.9077506924\C,0,-4.9092110333,8.0566007501,-3.229113879\C,0,-3.709231
 7421,7.7654367208,-2.5830847947\C,0,-3.6632568322,6.7784925661,-1.5852
 753385\N,0,-2.4426972607,6.4868011001,-0.9154490695\C,0,-1.5893936076,
 7.5503124148,-0.5086672284\C,0,-0.200493014,7.4619130193,-0.6951099795
 \C,0,0.6308980764,8.5039807878,-0.2888597011\C,0,0.0947732433,9.655813
 0357,0.2909923416\C,0,-1.2871241357,9.7503659555,0.4688233762\C,0,-2.1
 249008092,8.7058655896,0.0823940625\C,0,-2.0775757863,5.1421121976,-0.
 6533438296\C,0,-1.4661092444,4.7850975,0.560007401\C,0,-1.103408348,3.
 4661041165,0.8088564825\C,0,-1.346529998,2.4461472043,-0.1271497927\C,
 0,-0.9653234485,1.0386376443,0.1457959535\C,0,-1.7701456012,-0.0226155
 221,-0.2943399034\C,0,-1.4294501091,-1.3594166564,-0.039154197\C,0,-2.
 2955260865,-2.4708270171,-0.5094664825\C,0,-2.9458778881,-2.3988453715
 ,-1.7637262085\C,0,-3.7655910268,-3.4196213117,-2.2250788871\C,0,-3.96
 45333044,-4.568338057,-1.4401162514\C,0,-4.7351862576,-5.7885910541,-1
 .5681965072\C,0,-5.5973525239,-6.3222707123,-2.579315567\C,0,-5.912518
 9981,-5.6562458921,-3.7911007967\C,0,-6.7533459915,-6.2275852519,-4.72
 48140342\C,0,-7.323971452,-7.4982146582,-4.4967044043\C,0,-7.038120029
 6,-8.173030372,-3.3294340246\C,0,-6.1790250149,-7.6156328747,-2.348902
 3495\C,0,-5.8863474191,-8.3274121193,-1.1463282581\C,0,-5.0628554666,-
 7.8106925305,-0.1774911084\C,0,-4.5018209334,-6.5326365355,-0.39664753
 01\N,0,-3.6314076009,-5.8347668813,0.4393398655\C,0,-3.1811158478,-6.2
 572253294,1.721719421\C,0,-4.1071701736,-6.5379194438,2.733979108\C,0,
 -3.6605005714,-6.9544544726,3.98796171\C,0,-2.2932072001,-7.0718163767
 ,4.2457954631\C,0,-1.3707187471,-6.7806940721,3.2388086375\C,0,-1.8100
 441654,-6.384787026,1.9755889282\C,0,-3.2933816733,-4.6357862245,-0.18
 80922836\C,0,-2.4791128097,-3.6077226603,0.2856415764\C,0,-0.254126020
 1,-1.6240883815,0.679837698\C,0,0.5679781736,-0.586770784,1.1426457395
 \C,0,1.8536407403,-0.8767340615,1.8427088984\C,0,3.0153591952,-0.36021
 26763,1.3038927242\C,0,4.2529404412,-0.6507654562,1.9102824981\C,0,4.3
 667888624,-1.43993153,3.0651884223\C,0,3.1780761746,-1.9704898759,3.65
 98467602\C,0,3.1905524085,-2.7599231696,4.8382635028\C,0,2.024531902,-
 3.2303570672,5.4046457488\C,0,0.779385716,-2.9195588109,4.8228191419\C
 ,0,0.7297481288,-2.1585034299,3.6738846084\C,0,1.9088216393,-1.6775141
 207,3.045050899\C,0,5.7801020967,-1.4987880933,3.389701466\C,0,6.55207
 11196,-2.1186934053,4.3879898812\C,0,7.9347622996,-1.9703179213,4.3826
 021605\C,0,8.5769996228,-1.2138015271,3.3878905653\C,0,7.846471746,-0.
 586032979,2.3842963731\C,0,6.4565730558,-0.727887806,2.4027946853\N,0,
 5.5162131162,-0.218014978,1.506547867\C,0,5.8013344956,0.5982189737,0.
 3787911627\C,0,6.4697035614,1.8175676403,0.5416521033\C,0,6.7591084075
 ,2.6102911601,-0.565452535\C,0,6.3723678938,2.2220459556,-1.8594041888
 \C,0,6.6691770331,3.075539829,-3.0342036487\C,0,7.041666859,2.53453439
 96,-4.2736411029\C,0,7.3072005503,3.3869138667,-5.3413640148\C,0,7.198
 6840639,4.7635258381,-5.1403930178\N,0,6.8401360223,5.3086834818,-3.97
 13416623\C,0,6.5823437006,4.4771672148,-2.958657995\C,0,5.694446333,1.
 0001049126,-2.0049278169\C,0,5.4209662832,0.1910157946,-0.9057087782\C
 ,0,0.2029709208,0.7367302347,0.8639491502\C,0,-1.9654728322,2.81438129
 42,-1.3341255774\C,0,-2.3179125562,4.1326320631,-1.6003738842\C,0,-4.8
 407675559,6.0871826939,-1.2571736937\C,0,-6.0319176417,6.3727136421,-1
 .9217712043\H,0,-7.0085596286,7.5855718629,-3.4184613427\H,0,-4.926119
 8446,8.8237011002,-3.9989999748\H,0,-2.8018365239,8.2997174046,-2.8461
 40473\H,0,0.2196288629,6.5751454014,-1.1590319362\H,0,1.7036241784,8.4
 19079676,-0.441869984\H,0,0.7453229788,10.4691515847,0.5995981775\H,0,
 -1.7187569705,10.6375645819,0.9249062947\H,0,-3.1970897276,8.778243277
 2,0.2348957088\H,0,-1.2870445268,5.5465053739,1.3122874754\H,0,-0.6589
 459143,3.2165969043,1.7683288665\H,0,-2.7059905723,0.1962081166,-0.799
 3138765\H,0,-2.7777336035,-1.5306795798,-2.3938557787\H,0,-4.237565929
 9,-3.3150299398,-3.195452468\H,0,-5.4897206529,-4.6787464707,-3.989296
 1507\H,0,-6.9777685323,-5.6928569804,-5.6440951696\H,0,-7.9842630194,-
 7.9390440041,-5.2384113141\H,0,-7.4713315297,-9.1530736668,-3.14168794
 56\H,0,-6.3328508506,-9.308888058,-1.0074988391\H,0,-4.8418332083,-8.3
 659555461,0.7277662921\H,0,-5.167612653,-6.4175154338,2.5350449192\H,0
 ,-4.3838892299,-7.1732071407,4.7686104436\H,0,-1.9484281328,-7.3878377
 229,5.2263152935\H,0,-0.3053213635,-6.8710109749,3.4309058289\H,0,-1.0
 99196893,-6.1799903205,1.181160631\H,0,-2.0200986569,-3.6739755625,1.2
 660954005\H,0,0.047750196,-2.6532529654,0.8474975634\H,0,2.9721333907,
 0.2411041475,0.4023755358\H,0,4.1372094658,-2.9936335772,5.3088771281\
 H,0,2.0678775874,-3.8311527939,6.3094737785\H,0,-0.1408694825,-3.27113
 13601,5.2811717471\H,0,-0.2322147078,-1.9048943331,3.243013793\H,0,6.0
 891783184,-2.7179064673,5.1635217385\H,0,8.5265986542,-2.4503493105,5.
 1568793829\H,0,9.659286307,-1.118736355,3.3982047814\H,0,8.3398820283,
 -0.009543966,1.6087124648\H,0,6.7600103823,2.1385520672,1.5371321856\H
 ,0,7.3030545719,3.5395407387,-0.4239595157\H,0,7.1435215469,1.45886690
 1,-4.3901408219\H,0,7.604377651,2.9941846705,-6.3093351212\H,0,7.40774
 49333,5.4599651855,-5.9505903813\H,0,6.2663521569,4.9476075543,-2.0287
 5952\H,0,5.365542948,0.6826626667,-2.990318475\H,0,4.9117384489,-0.758
 6062055,-1.0369377994\H,0,0.8484378424,1.5421162762,1.201669318\H,0,-2
 .1388734682,2.0606469325,-2.0972516105\H,0,-2.7732098232,4.389718719,-
 2.5513394563\H,0,-4.8149416093,5.3286289598,-0.4813069229\H,0,-6.93365
 04201,5.8278000229,-1.654587036\\Version=ES64L-G16RevB.01\HF=-3029.790
 6462\RMSD=8.483e-09\PG=C01 [X(C73H48N4)]\\@


 WE HAVE LEARNED THAT NOTHING IS SIMPLE AND
 RATIONAL EXCEPT WHAT WE OURSELVES HAVE INVENTED;
 THAT GOD THINKS IN TERMS NEITHER OF EUCLID OR RIEMANN; THAT SCIENCE HAS "EXPLAINED" NOTHING;
 THAT THE MORE WE KNOW THE MORE FANTASTIC THE WORLD BECOMES
 AND THE PROFOUNDER THE SURROUNDING DARKNESS.
   --  ALDOUS HUXLEY
 Job cpu time:       0 days  9 hours 44 minutes 42.0 seconds.
 Elapsed time:       0 days  0 hours 43 minutes 51.4 seconds.
 File lengths (MBytes):  RWF=   8286 Int=      0 D2E=      0 Chk=    316 Scr=      1
 Normal termination of Gaussian 16 at Sat Nov  5 11:20:27 2022.
