 Entering Gaussian System, Link 0=/home/wykgroup/appl/g16/g16
 Input=calculation/no_transfer_pubchem_sampling_9_b3lyp/118528395_rwf.com
 Output=calculation/no_transfer_pubchem_sampling_9_b3lyp/118528395_rwf.log
 Initial command:
 /home/wykgroup/appl/g16/l1.exe "/userdata/scratch/wykgroup/khs/calculation/no_transfer_pubchem_sampling_9_b3lyp/118528395_rwf/Gau-21980.inp" -scrdir="/userdata/scratch/wykgroup/khs/calculation/no_transfer_pubchem_sampling_9_b3lyp/118528395_rwf/"
 Entering Link 1 = /home/wykgroup/appl/g16/l1.exe PID=     21981.
  
 Copyright (c) 1988-2017, Gaussian, Inc.  All Rights Reserved.
  
 This is part of the Gaussian(R) 16 program.  It is based on
 the Gaussian(R) 09 system (copyright 2009, Gaussian, Inc.),
 the Gaussian(R) 03 system (copyright 2003, Gaussian, Inc.),
 the Gaussian(R) 98 system (copyright 1998, Gaussian, Inc.),
 the Gaussian(R) 94 system (copyright 1995, Gaussian, Inc.),
 the Gaussian 92(TM) system (copyright 1992, Gaussian, Inc.),
 the Gaussian 90(TM) system (copyright 1990, Gaussian, Inc.),
 the Gaussian 88(TM) system (copyright 1988, Gaussian, Inc.),
 the Gaussian 86(TM) system (copyright 1986, Carnegie Mellon
 University), and the Gaussian 82(TM) system (copyright 1983,
 Carnegie Mellon University). Gaussian is a federally registered
 trademark of Gaussian, Inc.
  
 This software contains proprietary and confidential information,
 including trade secrets, belonging to Gaussian, Inc.
  
 This software is provided under written license and may be
 used, copied, transmitted, or stored only in accord with that
 written license.
  
 The following legend is applicable only to US Government
 contracts under FAR:
  
                    RESTRICTED RIGHTS LEGEND
  
 Use, reproduction and disclosure by the US Government is
 subject to restrictions as set forth in subparagraphs (a)
 and (c) of the Commercial Computer Software - Restricted
 Rights clause in FAR 52.227-19.
  
 Gaussian, Inc.
 340 Quinnipiac St., Bldg. 40, Wallingford CT 06492
  
  
 ---------------------------------------------------------------
 Warning -- This program may not be used in any manner that
 competes with the business of Gaussian, Inc. or will provide
 assistance to any competitor of Gaussian, Inc.  The licensee
 of this program is prohibited from giving any competitor of
 Gaussian, Inc. access to this program.  By using this program,
 the user acknowledges that Gaussian, Inc. is engaged in the
 business of creating and licensing software in the field of
 computational chemistry and represents and warrants to the
 licensee that it is not a competitor of Gaussian, Inc. and that
 it will not use this program in any manner prohibited above.
 ---------------------------------------------------------------
  

 Cite this work as:
 Gaussian 16, Revision B.01,
 M. J. Frisch, G. W. Trucks, H. B. Schlegel, G. E. Scuseria, 
 M. A. Robb, J. R. Cheeseman, G. Scalmani, V. Barone, 
 G. A. Petersson, H. Nakatsuji, X. Li, M. Caricato, A. V. Marenich, 
 J. Bloino, B. G. Janesko, R. Gomperts, B. Mennucci, H. P. Hratchian, 
 J. V. Ortiz, A. F. Izmaylov, J. L. Sonnenberg, D. Williams-Young, 
 F. Ding, F. Lipparini, F. Egidi, J. Goings, B. Peng, A. Petrone, 
 T. Henderson, D. Ranasinghe, V. G. Zakrzewski, J. Gao, N. Rega, 
 G. Zheng, W. Liang, M. Hada, M. Ehara, K. Toyota, R. Fukuda, 
 J. Hasegawa, M. Ishida, T. Nakajima, Y. Honda, O. Kitao, H. Nakai, 
 T. Vreven, K. Throssell, J. A. Montgomery, Jr., J. E. Peralta, 
 F. Ogliaro, M. J. Bearpark, J. J. Heyd, E. N. Brothers, K. N. Kudin, 
 V. N. Staroverov, T. A. Keith, R. Kobayashi, J. Normand, 
 K. Raghavachari, A. P. Rendell, J. C. Burant, S. S. Iyengar, 
 J. Tomasi, M. Cossi, J. M. Millam, M. Klene, C. Adamo, R. Cammi, 
 J. W. Ochterski, R. L. Martin, K. Morokuma, O. Farkas, 
 J. B. Foresman, and D. J. Fox, Gaussian, Inc., Wallingford CT, 2016.
 
 ******************************************
 Gaussian 16:  ES64L-G16RevB.01 20-Dec-2017
                 5-Nov-2022 
 ******************************************
 %chk=calculation/no_transfer_pubchem_sampling_9_b3lyp/118528395_rwf.chk
 %rwf=calculation/no_transfer_pubchem_sampling_9_b3lyp/118528395_rwf.rwf
 %nprocshared=14
 Will use up to   14 processors via shared memory.
 %mem=3GB
 -------------------------------------------------------------------
 #p b3lyp/6-31g(d) 6D 10F nosymm GFInput td=(50-50,nstate=2) SCF=XQC
 -------------------------------------------------------------------
 1/38=1,172=1/1;
 2/12=2,15=1,17=6,18=5,40=1/2;
 3/5=1,6=6,7=1,8=22,11=9,24=10,25=1,30=1,74=-5/1,2,3,8;
 4//1;
 5/5=2,8=3,13=1,38=5/2,8;
 8/6=1,10=2,108=2/1;
 9/41=2,42=1,48=2,70=2/14;
 6/7=2,8=2,9=2,10=2/1;
 99/5=1,9=1/99;
 Leave Link    1 at Sat Nov  5 10:37:42 2022, MaxMem=   402653184 cpu:               2.0 elap:               0.3
 (Enter /home/wykgroup/appl/g16/l101.exe)
 ------------------------------
 Gaussian input prepared by ASE
 ------------------------------
 Symbolic Z-matrix:
 Charge =  0 Multiplicity = 1
 C                     7.20124   2.47696   0.63919 
 C                     7.67411   1.22806   0.23326 
 C                     6.8089    0.13655   0.17253 
 C                     5.45424   0.27354   0.51634 
 C                     4.51412  -0.87849   0.46485 
 C                     4.96117  -2.20809   0.55296 
 C                     4.02631  -3.23491   0.4774 
 C                     2.67699  -2.92428   0.33768 
 C                     2.30004  -1.5724    0.29662 
 C                     0.87674  -1.15466   0.16886 
 C                    -0.18013  -1.99837   0.54712 
 C                    -1.5053   -1.58892   0.41495 
 C                    -1.80179  -0.32307  -0.09955 
 N                    -3.16356   0.09708  -0.23693 
 C                    -3.79993   0.80161   0.80506 
 C                    -3.15668   1.12581   2.00448 
 C                    -3.82943   1.82457   3.01215 
 C                    -5.15437   2.21041   2.83767 
 C                    -5.80873   1.89192   1.64327 
 C                    -5.14126   1.19799   0.64469 
 O                    -5.85578   0.9153   -0.50358 
 C                    -5.2154    0.24596  -1.52853 
 C                    -5.95559   0.0009   -2.67583 
 C                    -5.37772  -0.67375  -3.75619 
 C                    -4.05466  -1.09379  -3.66783 
 C                    -3.30859  -0.84554  -2.51109 
 C                    -3.87567  -0.17365  -1.42274 
 C                    -0.75666   0.52942  -0.47301 
 C                     0.56613   0.11879  -0.33626 
 N                     3.20853  -0.58513   0.34954 
 C                     4.98822   1.53801   0.91224 
 C                     5.85399   2.62699   0.97648 
 H                     7.87602   3.32739   0.68795 
 H                     8.71724   1.10334  -0.04491 
 H                     7.18918  -0.82064  -0.17221 
 H                     6.01269  -2.43197   0.69388 
 H                     4.34679  -4.27214   0.52775 
 H                     1.93822  -3.71276   0.24646 
 H                     0.02662  -2.97467   0.97476 
 H                    -2.31796  -2.24268   0.71727 
 H                    -2.12408   0.82931   2.1493 
 H                    -3.30333   2.06178   3.93236 
 H                    -5.68293   2.75326   3.61534 
 H                    -6.84226   2.1734    1.46684 
 H                    -6.98437   0.34637  -2.70382 
 H                    -5.96303  -0.86272  -4.65092 
 H                    -3.58681  -1.61804  -4.49617 
 H                    -2.27754  -1.17502  -2.45173 
 H                    -0.9913    1.51192  -0.87207 
 H                     1.37992   0.77622  -0.62079 
 H                     3.94061   1.64681   1.17046 
 H                     5.47682   3.59603   1.2927 
 
 ITRead=  0  0  0  0  0  0  0  0  0  0  0  0  0  0  0  0  0  0  0  0
 ITRead=  0  0  0  0  0  0  0  0  0  0  0  0  0  0  0  0  0  0  0  0
 ITRead=  0  0  0  0  0  0  0  0  0  0  0  0
 MicOpt= -1 -1 -1 -1 -1 -1 -1 -1 -1 -1 -1 -1 -1 -1 -1 -1 -1 -1 -1 -1
 MicOpt= -1 -1 -1 -1 -1 -1 -1 -1 -1 -1 -1 -1 -1 -1 -1 -1 -1 -1 -1 -1
 MicOpt= -1 -1 -1 -1 -1 -1 -1 -1 -1 -1 -1 -1
 NAtoms=     52 NQM=       52 NQMF=       0 NMMI=      0 NMMIF=      0
                NMic=       0 NMicF=      0.
                    Isotopes and Nuclear Properties:
 (Nuclear quadrupole moments (NQMom) in fm**2, nuclear magnetic moments (NMagM)
  in nuclear magnetons)

  Atom         1           2           3           4           5           6           7           8           9          10
 IAtWgt=          12          12          12          12          12          12          12          12          12          12
 AtmWgt=  12.0000000  12.0000000  12.0000000  12.0000000  12.0000000  12.0000000  12.0000000  12.0000000  12.0000000  12.0000000
 NucSpn=           0           0           0           0           0           0           0           0           0           0
 AtZEff=  -0.0000000  -0.0000000  -0.0000000  -0.0000000  -0.0000000  -0.0000000  -0.0000000  -0.0000000  -0.0000000  -0.0000000
 NQMom=    0.0000000   0.0000000   0.0000000   0.0000000   0.0000000   0.0000000   0.0000000   0.0000000   0.0000000   0.0000000
 NMagM=    0.0000000   0.0000000   0.0000000   0.0000000   0.0000000   0.0000000   0.0000000   0.0000000   0.0000000   0.0000000
 AtZNuc=   6.0000000   6.0000000   6.0000000   6.0000000   6.0000000   6.0000000   6.0000000   6.0000000   6.0000000   6.0000000

  Atom        11          12          13          14          15          16          17          18          19          20
 IAtWgt=          12          12          12          14          12          12          12          12          12          12
 AtmWgt=  12.0000000  12.0000000  12.0000000  14.0030740  12.0000000  12.0000000  12.0000000  12.0000000  12.0000000  12.0000000
 NucSpn=           0           0           0           2           0           0           0           0           0           0
 AtZEff=  -0.0000000  -0.0000000  -0.0000000  -0.0000000  -0.0000000  -0.0000000  -0.0000000  -0.0000000  -0.0000000  -0.0000000
 NQMom=    0.0000000   0.0000000   0.0000000   2.0440000   0.0000000   0.0000000   0.0000000   0.0000000   0.0000000   0.0000000
 NMagM=    0.0000000   0.0000000   0.0000000   0.4037610   0.0000000   0.0000000   0.0000000   0.0000000   0.0000000   0.0000000
 AtZNuc=   6.0000000   6.0000000   6.0000000   7.0000000   6.0000000   6.0000000   6.0000000   6.0000000   6.0000000   6.0000000

  Atom        21          22          23          24          25          26          27          28          29          30
 IAtWgt=          16          12          12          12          12          12          12          12          12          14
 AtmWgt=  15.9949146  12.0000000  12.0000000  12.0000000  12.0000000  12.0000000  12.0000000  12.0000000  12.0000000  14.0030740
 NucSpn=           0           0           0           0           0           0           0           0           0           2
 AtZEff=  -0.0000000  -0.0000000  -0.0000000  -0.0000000  -0.0000000  -0.0000000  -0.0000000  -0.0000000  -0.0000000  -0.0000000
 NQMom=    0.0000000   0.0000000   0.0000000   0.0000000   0.0000000   0.0000000   0.0000000   0.0000000   0.0000000   2.0440000
 NMagM=    0.0000000   0.0000000   0.0000000   0.0000000   0.0000000   0.0000000   0.0000000   0.0000000   0.0000000   0.4037610
 AtZNuc=   8.0000000   6.0000000   6.0000000   6.0000000   6.0000000   6.0000000   6.0000000   6.0000000   6.0000000   7.0000000

  Atom        31          32          33          34          35          36          37          38          39          40
 IAtWgt=          12          12           1           1           1           1           1           1           1           1
 AtmWgt=  12.0000000  12.0000000   1.0078250   1.0078250   1.0078250   1.0078250   1.0078250   1.0078250   1.0078250   1.0078250
 NucSpn=           0           0           1           1           1           1           1           1           1           1
 AtZEff=  -0.0000000  -0.0000000  -0.0000000  -0.0000000  -0.0000000  -0.0000000  -0.0000000  -0.0000000  -0.0000000  -0.0000000
 NQMom=    0.0000000   0.0000000   0.0000000   0.0000000   0.0000000   0.0000000   0.0000000   0.0000000   0.0000000   0.0000000
 NMagM=    0.0000000   0.0000000   2.7928460   2.7928460   2.7928460   2.7928460   2.7928460   2.7928460   2.7928460   2.7928460
 AtZNuc=   6.0000000   6.0000000   1.0000000   1.0000000   1.0000000   1.0000000   1.0000000   1.0000000   1.0000000   1.0000000

  Atom        41          42          43          44          45          46          47          48          49          50
 IAtWgt=           1           1           1           1           1           1           1           1           1           1
 AtmWgt=   1.0078250   1.0078250   1.0078250   1.0078250   1.0078250   1.0078250   1.0078250   1.0078250   1.0078250   1.0078250
 NucSpn=           1           1           1           1           1           1           1           1           1           1
 AtZEff=  -0.0000000  -0.0000000  -0.0000000  -0.0000000  -0.0000000  -0.0000000  -0.0000000  -0.0000000  -0.0000000  -0.0000000
 NQMom=    0.0000000   0.0000000   0.0000000   0.0000000   0.0000000   0.0000000   0.0000000   0.0000000   0.0000000   0.0000000
 NMagM=    2.7928460   2.7928460   2.7928460   2.7928460   2.7928460   2.7928460   2.7928460   2.7928460   2.7928460   2.7928460
 AtZNuc=   1.0000000   1.0000000   1.0000000   1.0000000   1.0000000   1.0000000   1.0000000   1.0000000   1.0000000   1.0000000

  Atom        51          52
 IAtWgt=           1           1
 AtmWgt=   1.0078250   1.0078250
 NucSpn=           1           1
 AtZEff=  -0.0000000  -0.0000000
 NQMom=    0.0000000   0.0000000
 NMagM=    2.7928460   2.7928460
 AtZNuc=   1.0000000   1.0000000
 Leave Link  101 at Sat Nov  5 10:37:42 2022, MaxMem=   402653184 cpu:               2.2 elap:               0.4
 (Enter /home/wykgroup/appl/g16/l202.exe)
 Symmetry turned off by external request.
 Stoichiometry    C29H20N2O
 Framework group  C1[X(C29H20N2O)]
 Deg. of freedom   150
 Full point group                 C1      NOp   1
                          Input orientation:                          
 ---------------------------------------------------------------------
 Center     Atomic      Atomic             Coordinates (Angstroms)
 Number     Number       Type             X           Y           Z
 ---------------------------------------------------------------------
      1          6           0        7.201236    2.476958    0.639195
      2          6           0        7.674109    1.228061    0.233265
      3          6           0        6.808900    0.136547    0.172528
      4          6           0        5.454245    0.273538    0.516340
      5          6           0        4.514118   -0.878488    0.464854
      6          6           0        4.961175   -2.208085    0.552964
      7          6           0        4.026314   -3.234911    0.477402
      8          6           0        2.676989   -2.924282    0.337677
      9          6           0        2.300041   -1.572396    0.296622
     10          6           0        0.876736   -1.154655    0.168859
     11          6           0       -0.180127   -1.998374    0.547125
     12          6           0       -1.505298   -1.588918    0.414946
     13          6           0       -1.801791   -0.323069   -0.099547
     14          7           0       -3.163558    0.097085   -0.236926
     15          6           0       -3.799926    0.801611    0.805059
     16          6           0       -3.156677    1.125806    2.004479
     17          6           0       -3.829430    1.824572    3.012147
     18          6           0       -5.154372    2.210407    2.837669
     19          6           0       -5.808734    1.891924    1.643268
     20          6           0       -5.141264    1.197990    0.644687
     21          8           0       -5.855780    0.915303   -0.503580
     22          6           0       -5.215400    0.245964   -1.528531
     23          6           0       -5.955591    0.000900   -2.675831
     24          6           0       -5.377725   -0.673754   -3.756190
     25          6           0       -4.054657   -1.093792   -3.667829
     26          6           0       -3.308590   -0.845544   -2.511094
     27          6           0       -3.875669   -0.173649   -1.422742
     28          6           0       -0.756657    0.529419   -0.473008
     29          6           0        0.566127    0.118787   -0.336262
     30          7           0        3.208529   -0.585133    0.349537
     31          6           0        4.988221    1.538008    0.912243
     32          6           0        5.853994    2.626990    0.976475
     33          1           0        7.876017    3.327394    0.687950
     34          1           0        8.717240    1.103338   -0.044909
     35          1           0        7.189179   -0.820636   -0.172212
     36          1           0        6.012689   -2.431975    0.693879
     37          1           0        4.346792   -4.272142    0.527748
     38          1           0        1.938218   -3.712764    0.246457
     39          1           0        0.026618   -2.974672    0.974765
     40          1           0       -2.317964   -2.242680    0.717271
     41          1           0       -2.124079    0.829308    2.149301
     42          1           0       -3.303331    2.061776    3.932356
     43          1           0       -5.682929    2.753260    3.615338
     44          1           0       -6.842257    2.173403    1.466838
     45          1           0       -6.984372    0.346371   -2.703824
     46          1           0       -5.963028   -0.862724   -4.650918
     47          1           0       -3.586806   -1.618039   -4.496167
     48          1           0       -2.277535   -1.175021   -2.451733
     49          1           0       -0.991300    1.511922   -0.872071
     50          1           0        1.379920    0.776223   -0.620790
     51          1           0        3.940612    1.646811    1.170463
     52          1           0        5.476822    3.596028    1.292696
 ---------------------------------------------------------------------
 Rotational constants (GHZ):           0.2692571           0.0560962           0.0518424
 Leave Link  202 at Sat Nov  5 10:37:43 2022, MaxMem=   402653184 cpu:               1.6 elap:               0.3
 (Enter /home/wykgroup/appl/g16/l301.exe)
 Standard basis: 6-31G(d) (6D, 10F)
 Ernie: Thresh=  0.10000D-02 Tol=  0.10000D-05 Strict=F.
 AO basis set in the form of general basis input (Overlap normalization):
      1 0
 S   6 1.00       0.000000000000
      0.3047524880D+04  0.1834737132D-02
      0.4573695180D+03  0.1403732281D-01
      0.1039486850D+03  0.6884262226D-01
      0.2921015530D+02  0.2321844432D+00
      0.9286662960D+01  0.4679413484D+00
      0.3163926960D+01  0.3623119853D+00
 SP   3 1.00       0.000000000000
      0.7868272350D+01 -0.1193324198D+00  0.6899906659D-01
      0.1881288540D+01 -0.1608541517D+00  0.3164239610D+00
      0.5442492580D+00  0.1143456438D+01  0.7443082909D+00
 SP   1 1.00       0.000000000000
      0.1687144782D+00  0.1000000000D+01  0.1000000000D+01
 D   1 1.00       0.000000000000
      0.8000000000D+00  0.1000000000D+01
 ****
      2 0
 S   6 1.00       0.000000000000
      0.3047524880D+04  0.1834737132D-02
      0.4573695180D+03  0.1403732281D-01
      0.1039486850D+03  0.6884262226D-01
      0.2921015530D+02  0.2321844432D+00
      0.9286662960D+01  0.4679413484D+00
      0.3163926960D+01  0.3623119853D+00
 SP   3 1.00       0.000000000000
      0.7868272350D+01 -0.1193324198D+00  0.6899906659D-01
      0.1881288540D+01 -0.1608541517D+00  0.3164239610D+00
      0.5442492580D+00  0.1143456438D+01  0.7443082909D+00
 SP   1 1.00       0.000000000000
      0.1687144782D+00  0.1000000000D+01  0.1000000000D+01
 D   1 1.00       0.000000000000
      0.8000000000D+00  0.1000000000D+01
 ****
      3 0
 S   6 1.00       0.000000000000
      0.3047524880D+04  0.1834737132D-02
      0.4573695180D+03  0.1403732281D-01
      0.1039486850D+03  0.6884262226D-01
      0.2921015530D+02  0.2321844432D+00
      0.9286662960D+01  0.4679413484D+00
      0.3163926960D+01  0.3623119853D+00
 SP   3 1.00       0.000000000000
      0.7868272350D+01 -0.1193324198D+00  0.6899906659D-01
      0.1881288540D+01 -0.1608541517D+00  0.3164239610D+00
      0.5442492580D+00  0.1143456438D+01  0.7443082909D+00
 SP   1 1.00       0.000000000000
      0.1687144782D+00  0.1000000000D+01  0.1000000000D+01
 D   1 1.00       0.000000000000
      0.8000000000D+00  0.1000000000D+01
 ****
      4 0
 S   6 1.00       0.000000000000
      0.3047524880D+04  0.1834737132D-02
      0.4573695180D+03  0.1403732281D-01
      0.1039486850D+03  0.6884262226D-01
      0.2921015530D+02  0.2321844432D+00
      0.9286662960D+01  0.4679413484D+00
      0.3163926960D+01  0.3623119853D+00
 SP   3 1.00       0.000000000000
      0.7868272350D+01 -0.1193324198D+00  0.6899906659D-01
      0.1881288540D+01 -0.1608541517D+00  0.3164239610D+00
      0.5442492580D+00  0.1143456438D+01  0.7443082909D+00
 SP   1 1.00       0.000000000000
      0.1687144782D+00  0.1000000000D+01  0.1000000000D+01
 D   1 1.00       0.000000000000
      0.8000000000D+00  0.1000000000D+01
 ****
      5 0
 S   6 1.00       0.000000000000
      0.3047524880D+04  0.1834737132D-02
      0.4573695180D+03  0.1403732281D-01
      0.1039486850D+03  0.6884262226D-01
      0.2921015530D+02  0.2321844432D+00
      0.9286662960D+01  0.4679413484D+00
      0.3163926960D+01  0.3623119853D+00
 SP   3 1.00       0.000000000000
      0.7868272350D+01 -0.1193324198D+00  0.6899906659D-01
      0.1881288540D+01 -0.1608541517D+00  0.3164239610D+00
      0.5442492580D+00  0.1143456438D+01  0.7443082909D+00
 SP   1 1.00       0.000000000000
      0.1687144782D+00  0.1000000000D+01  0.1000000000D+01
 D   1 1.00       0.000000000000
      0.8000000000D+00  0.1000000000D+01
 ****
      6 0
 S   6 1.00       0.000000000000
      0.3047524880D+04  0.1834737132D-02
      0.4573695180D+03  0.1403732281D-01
      0.1039486850D+03  0.6884262226D-01
      0.2921015530D+02  0.2321844432D+00
      0.9286662960D+01  0.4679413484D+00
      0.3163926960D+01  0.3623119853D+00
 SP   3 1.00       0.000000000000
      0.7868272350D+01 -0.1193324198D+00  0.6899906659D-01
      0.1881288540D+01 -0.1608541517D+00  0.3164239610D+00
      0.5442492580D+00  0.1143456438D+01  0.7443082909D+00
 SP   1 1.00       0.000000000000
      0.1687144782D+00  0.1000000000D+01  0.1000000000D+01
 D   1 1.00       0.000000000000
      0.8000000000D+00  0.1000000000D+01
 ****
      7 0
 S   6 1.00       0.000000000000
      0.3047524880D+04  0.1834737132D-02
      0.4573695180D+03  0.1403732281D-01
      0.1039486850D+03  0.6884262226D-01
      0.2921015530D+02  0.2321844432D+00
      0.9286662960D+01  0.4679413484D+00
      0.3163926960D+01  0.3623119853D+00
 SP   3 1.00       0.000000000000
      0.7868272350D+01 -0.1193324198D+00  0.6899906659D-01
      0.1881288540D+01 -0.1608541517D+00  0.3164239610D+00
      0.5442492580D+00  0.1143456438D+01  0.7443082909D+00
 SP   1 1.00       0.000000000000
      0.1687144782D+00  0.1000000000D+01  0.1000000000D+01
 D   1 1.00       0.000000000000
      0.8000000000D+00  0.1000000000D+01
 ****
      8 0
 S   6 1.00       0.000000000000
      0.3047524880D+04  0.1834737132D-02
      0.4573695180D+03  0.1403732281D-01
      0.1039486850D+03  0.6884262226D-01
      0.2921015530D+02  0.2321844432D+00
      0.9286662960D+01  0.4679413484D+00
      0.3163926960D+01  0.3623119853D+00
 SP   3 1.00       0.000000000000
      0.7868272350D+01 -0.1193324198D+00  0.6899906659D-01
      0.1881288540D+01 -0.1608541517D+00  0.3164239610D+00
      0.5442492580D+00  0.1143456438D+01  0.7443082909D+00
 SP   1 1.00       0.000000000000
      0.1687144782D+00  0.1000000000D+01  0.1000000000D+01
 D   1 1.00       0.000000000000
      0.8000000000D+00  0.1000000000D+01
 ****
      9 0
 S   6 1.00       0.000000000000
      0.3047524880D+04  0.1834737132D-02
      0.4573695180D+03  0.1403732281D-01
      0.1039486850D+03  0.6884262226D-01
      0.2921015530D+02  0.2321844432D+00
      0.9286662960D+01  0.4679413484D+00
      0.3163926960D+01  0.3623119853D+00
 SP   3 1.00       0.000000000000
      0.7868272350D+01 -0.1193324198D+00  0.6899906659D-01
      0.1881288540D+01 -0.1608541517D+00  0.3164239610D+00
      0.5442492580D+00  0.1143456438D+01  0.7443082909D+00
 SP   1 1.00       0.000000000000
      0.1687144782D+00  0.1000000000D+01  0.1000000000D+01
 D   1 1.00       0.000000000000
      0.8000000000D+00  0.1000000000D+01
 ****
     10 0
 S   6 1.00       0.000000000000
      0.3047524880D+04  0.1834737132D-02
      0.4573695180D+03  0.1403732281D-01
      0.1039486850D+03  0.6884262226D-01
      0.2921015530D+02  0.2321844432D+00
      0.9286662960D+01  0.4679413484D+00
      0.3163926960D+01  0.3623119853D+00
 SP   3 1.00       0.000000000000
      0.7868272350D+01 -0.1193324198D+00  0.6899906659D-01
      0.1881288540D+01 -0.1608541517D+00  0.3164239610D+00
      0.5442492580D+00  0.1143456438D+01  0.7443082909D+00
 SP   1 1.00       0.000000000000
      0.1687144782D+00  0.1000000000D+01  0.1000000000D+01
 D   1 1.00       0.000000000000
      0.8000000000D+00  0.1000000000D+01
 ****
     11 0
 S   6 1.00       0.000000000000
      0.3047524880D+04  0.1834737132D-02
      0.4573695180D+03  0.1403732281D-01
      0.1039486850D+03  0.6884262226D-01
      0.2921015530D+02  0.2321844432D+00
      0.9286662960D+01  0.4679413484D+00
      0.3163926960D+01  0.3623119853D+00
 SP   3 1.00       0.000000000000
      0.7868272350D+01 -0.1193324198D+00  0.6899906659D-01
      0.1881288540D+01 -0.1608541517D+00  0.3164239610D+00
      0.5442492580D+00  0.1143456438D+01  0.7443082909D+00
 SP   1 1.00       0.000000000000
      0.1687144782D+00  0.1000000000D+01  0.1000000000D+01
 D   1 1.00       0.000000000000
      0.8000000000D+00  0.1000000000D+01
 ****
     12 0
 S   6 1.00       0.000000000000
      0.3047524880D+04  0.1834737132D-02
      0.4573695180D+03  0.1403732281D-01
      0.1039486850D+03  0.6884262226D-01
      0.2921015530D+02  0.2321844432D+00
      0.9286662960D+01  0.4679413484D+00
      0.3163926960D+01  0.3623119853D+00
 SP   3 1.00       0.000000000000
      0.7868272350D+01 -0.1193324198D+00  0.6899906659D-01
      0.1881288540D+01 -0.1608541517D+00  0.3164239610D+00
      0.5442492580D+00  0.1143456438D+01  0.7443082909D+00
 SP   1 1.00       0.000000000000
      0.1687144782D+00  0.1000000000D+01  0.1000000000D+01
 D   1 1.00       0.000000000000
      0.8000000000D+00  0.1000000000D+01
 ****
     13 0
 S   6 1.00       0.000000000000
      0.3047524880D+04  0.1834737132D-02
      0.4573695180D+03  0.1403732281D-01
      0.1039486850D+03  0.6884262226D-01
      0.2921015530D+02  0.2321844432D+00
      0.9286662960D+01  0.4679413484D+00
      0.3163926960D+01  0.3623119853D+00
 SP   3 1.00       0.000000000000
      0.7868272350D+01 -0.1193324198D+00  0.6899906659D-01
      0.1881288540D+01 -0.1608541517D+00  0.3164239610D+00
      0.5442492580D+00  0.1143456438D+01  0.7443082909D+00
 SP   1 1.00       0.000000000000
      0.1687144782D+00  0.1000000000D+01  0.1000000000D+01
 D   1 1.00       0.000000000000
      0.8000000000D+00  0.1000000000D+01
 ****
     14 0
 S   6 1.00       0.000000000000
      0.4173511460D+04  0.1834772160D-02
      0.6274579110D+03  0.1399462700D-01
      0.1429020930D+03  0.6858655181D-01
      0.4023432930D+02  0.2322408730D+00
      0.1282021290D+02  0.4690699481D+00
      0.4390437010D+01  0.3604551991D+00
 SP   3 1.00       0.000000000000
      0.1162636186D+02 -0.1149611817D+00  0.6757974388D-01
      0.2716279807D+01 -0.1691174786D+00  0.3239072959D+00
      0.7722183966D+00  0.1145851947D+01  0.7408951398D+00
 SP   1 1.00       0.000000000000
      0.2120314975D+00  0.1000000000D+01  0.1000000000D+01
 D   1 1.00       0.000000000000
      0.8000000000D+00  0.1000000000D+01
 ****
     15 0
 S   6 1.00       0.000000000000
      0.3047524880D+04  0.1834737132D-02
      0.4573695180D+03  0.1403732281D-01
      0.1039486850D+03  0.6884262226D-01
      0.2921015530D+02  0.2321844432D+00
      0.9286662960D+01  0.4679413484D+00
      0.3163926960D+01  0.3623119853D+00
 SP   3 1.00       0.000000000000
      0.7868272350D+01 -0.1193324198D+00  0.6899906659D-01
      0.1881288540D+01 -0.1608541517D+00  0.3164239610D+00
      0.5442492580D+00  0.1143456438D+01  0.7443082909D+00
 SP   1 1.00       0.000000000000
      0.1687144782D+00  0.1000000000D+01  0.1000000000D+01
 D   1 1.00       0.000000000000
      0.8000000000D+00  0.1000000000D+01
 ****
     16 0
 S   6 1.00       0.000000000000
      0.3047524880D+04  0.1834737132D-02
      0.4573695180D+03  0.1403732281D-01
      0.1039486850D+03  0.6884262226D-01
      0.2921015530D+02  0.2321844432D+00
      0.9286662960D+01  0.4679413484D+00
      0.3163926960D+01  0.3623119853D+00
 SP   3 1.00       0.000000000000
      0.7868272350D+01 -0.1193324198D+00  0.6899906659D-01
      0.1881288540D+01 -0.1608541517D+00  0.3164239610D+00
      0.5442492580D+00  0.1143456438D+01  0.7443082909D+00
 SP   1 1.00       0.000000000000
      0.1687144782D+00  0.1000000000D+01  0.1000000000D+01
 D   1 1.00       0.000000000000
      0.8000000000D+00  0.1000000000D+01
 ****
     17 0
 S   6 1.00       0.000000000000
      0.3047524880D+04  0.1834737132D-02
      0.4573695180D+03  0.1403732281D-01
      0.1039486850D+03  0.6884262226D-01
      0.2921015530D+02  0.2321844432D+00
      0.9286662960D+01  0.4679413484D+00
      0.3163926960D+01  0.3623119853D+00
 SP   3 1.00       0.000000000000
      0.7868272350D+01 -0.1193324198D+00  0.6899906659D-01
      0.1881288540D+01 -0.1608541517D+00  0.3164239610D+00
      0.5442492580D+00  0.1143456438D+01  0.7443082909D+00
 SP   1 1.00       0.000000000000
      0.1687144782D+00  0.1000000000D+01  0.1000000000D+01
 D   1 1.00       0.000000000000
      0.8000000000D+00  0.1000000000D+01
 ****
     18 0
 S   6 1.00       0.000000000000
      0.3047524880D+04  0.1834737132D-02
      0.4573695180D+03  0.1403732281D-01
      0.1039486850D+03  0.6884262226D-01
      0.2921015530D+02  0.2321844432D+00
      0.9286662960D+01  0.4679413484D+00
      0.3163926960D+01  0.3623119853D+00
 SP   3 1.00       0.000000000000
      0.7868272350D+01 -0.1193324198D+00  0.6899906659D-01
      0.1881288540D+01 -0.1608541517D+00  0.3164239610D+00
      0.5442492580D+00  0.1143456438D+01  0.7443082909D+00
 SP   1 1.00       0.000000000000
      0.1687144782D+00  0.1000000000D+01  0.1000000000D+01
 D   1 1.00       0.000000000000
      0.8000000000D+00  0.1000000000D+01
 ****
     19 0
 S   6 1.00       0.000000000000
      0.3047524880D+04  0.1834737132D-02
      0.4573695180D+03  0.1403732281D-01
      0.1039486850D+03  0.6884262226D-01
      0.2921015530D+02  0.2321844432D+00
      0.9286662960D+01  0.4679413484D+00
      0.3163926960D+01  0.3623119853D+00
 SP   3 1.00       0.000000000000
      0.7868272350D+01 -0.1193324198D+00  0.6899906659D-01
      0.1881288540D+01 -0.1608541517D+00  0.3164239610D+00
      0.5442492580D+00  0.1143456438D+01  0.7443082909D+00
 SP   1 1.00       0.000000000000
      0.1687144782D+00  0.1000000000D+01  0.1000000000D+01
 D   1 1.00       0.000000000000
      0.8000000000D+00  0.1000000000D+01
 ****
     20 0
 S   6 1.00       0.000000000000
      0.3047524880D+04  0.1834737132D-02
      0.4573695180D+03  0.1403732281D-01
      0.1039486850D+03  0.6884262226D-01
      0.2921015530D+02  0.2321844432D+00
      0.9286662960D+01  0.4679413484D+00
      0.3163926960D+01  0.3623119853D+00
 SP   3 1.00       0.000000000000
      0.7868272350D+01 -0.1193324198D+00  0.6899906659D-01
      0.1881288540D+01 -0.1608541517D+00  0.3164239610D+00
      0.5442492580D+00  0.1143456438D+01  0.7443082909D+00
 SP   1 1.00       0.000000000000
      0.1687144782D+00  0.1000000000D+01  0.1000000000D+01
 D   1 1.00       0.000000000000
      0.8000000000D+00  0.1000000000D+01
 ****
     21 0
 S   6 1.00       0.000000000000
      0.5484671660D+04  0.1831074430D-02
      0.8252349460D+03  0.1395017220D-01
      0.1880469580D+03  0.6844507810D-01
      0.5296450000D+02  0.2327143360D+00
      0.1689757040D+02  0.4701928980D+00
      0.5799635340D+01  0.3585208530D+00
 SP   3 1.00       0.000000000000
      0.1553961625D+02 -0.1107775495D+00  0.7087426823D-01
      0.3599933586D+01 -0.1480262627D+00  0.3397528391D+00
      0.1013761750D+01  0.1130767015D+01  0.7271585773D+00
 SP   1 1.00       0.000000000000
      0.2700058226D+00  0.1000000000D+01  0.1000000000D+01
 D   1 1.00       0.000000000000
      0.8000000000D+00  0.1000000000D+01
 ****
     22 0
 S   6 1.00       0.000000000000
      0.3047524880D+04  0.1834737132D-02
      0.4573695180D+03  0.1403732281D-01
      0.1039486850D+03  0.6884262226D-01
      0.2921015530D+02  0.2321844432D+00
      0.9286662960D+01  0.4679413484D+00
      0.3163926960D+01  0.3623119853D+00
 SP   3 1.00       0.000000000000
      0.7868272350D+01 -0.1193324198D+00  0.6899906659D-01
      0.1881288540D+01 -0.1608541517D+00  0.3164239610D+00
      0.5442492580D+00  0.1143456438D+01  0.7443082909D+00
 SP   1 1.00       0.000000000000
      0.1687144782D+00  0.1000000000D+01  0.1000000000D+01
 D   1 1.00       0.000000000000
      0.8000000000D+00  0.1000000000D+01
 ****
     23 0
 S   6 1.00       0.000000000000
      0.3047524880D+04  0.1834737132D-02
      0.4573695180D+03  0.1403732281D-01
      0.1039486850D+03  0.6884262226D-01
      0.2921015530D+02  0.2321844432D+00
      0.9286662960D+01  0.4679413484D+00
      0.3163926960D+01  0.3623119853D+00
 SP   3 1.00       0.000000000000
      0.7868272350D+01 -0.1193324198D+00  0.6899906659D-01
      0.1881288540D+01 -0.1608541517D+00  0.3164239610D+00
      0.5442492580D+00  0.1143456438D+01  0.7443082909D+00
 SP   1 1.00       0.000000000000
      0.1687144782D+00  0.1000000000D+01  0.1000000000D+01
 D   1 1.00       0.000000000000
      0.8000000000D+00  0.1000000000D+01
 ****
     24 0
 S   6 1.00       0.000000000000
      0.3047524880D+04  0.1834737132D-02
      0.4573695180D+03  0.1403732281D-01
      0.1039486850D+03  0.6884262226D-01
      0.2921015530D+02  0.2321844432D+00
      0.9286662960D+01  0.4679413484D+00
      0.3163926960D+01  0.3623119853D+00
 SP   3 1.00       0.000000000000
      0.7868272350D+01 -0.1193324198D+00  0.6899906659D-01
      0.1881288540D+01 -0.1608541517D+00  0.3164239610D+00
      0.5442492580D+00  0.1143456438D+01  0.7443082909D+00
 SP   1 1.00       0.000000000000
      0.1687144782D+00  0.1000000000D+01  0.1000000000D+01
 D   1 1.00       0.000000000000
      0.8000000000D+00  0.1000000000D+01
 ****
     25 0
 S   6 1.00       0.000000000000
      0.3047524880D+04  0.1834737132D-02
      0.4573695180D+03  0.1403732281D-01
      0.1039486850D+03  0.6884262226D-01
      0.2921015530D+02  0.2321844432D+00
      0.9286662960D+01  0.4679413484D+00
      0.3163926960D+01  0.3623119853D+00
 SP   3 1.00       0.000000000000
      0.7868272350D+01 -0.1193324198D+00  0.6899906659D-01
      0.1881288540D+01 -0.1608541517D+00  0.3164239610D+00
      0.5442492580D+00  0.1143456438D+01  0.7443082909D+00
 SP   1 1.00       0.000000000000
      0.1687144782D+00  0.1000000000D+01  0.1000000000D+01
 D   1 1.00       0.000000000000
      0.8000000000D+00  0.1000000000D+01
 ****
     26 0
 S   6 1.00       0.000000000000
      0.3047524880D+04  0.1834737132D-02
      0.4573695180D+03  0.1403732281D-01
      0.1039486850D+03  0.6884262226D-01
      0.2921015530D+02  0.2321844432D+00
      0.9286662960D+01  0.4679413484D+00
      0.3163926960D+01  0.3623119853D+00
 SP   3 1.00       0.000000000000
      0.7868272350D+01 -0.1193324198D+00  0.6899906659D-01
      0.1881288540D+01 -0.1608541517D+00  0.3164239610D+00
      0.5442492580D+00  0.1143456438D+01  0.7443082909D+00
 SP   1 1.00       0.000000000000
      0.1687144782D+00  0.1000000000D+01  0.1000000000D+01
 D   1 1.00       0.000000000000
      0.8000000000D+00  0.1000000000D+01
 ****
     27 0
 S   6 1.00       0.000000000000
      0.3047524880D+04  0.1834737132D-02
      0.4573695180D+03  0.1403732281D-01
      0.1039486850D+03  0.6884262226D-01
      0.2921015530D+02  0.2321844432D+00
      0.9286662960D+01  0.4679413484D+00
      0.3163926960D+01  0.3623119853D+00
 SP   3 1.00       0.000000000000
      0.7868272350D+01 -0.1193324198D+00  0.6899906659D-01
      0.1881288540D+01 -0.1608541517D+00  0.3164239610D+00
      0.5442492580D+00  0.1143456438D+01  0.7443082909D+00
 SP   1 1.00       0.000000000000
      0.1687144782D+00  0.1000000000D+01  0.1000000000D+01
 D   1 1.00       0.000000000000
      0.8000000000D+00  0.1000000000D+01
 ****
     28 0
 S   6 1.00       0.000000000000
      0.3047524880D+04  0.1834737132D-02
      0.4573695180D+03  0.1403732281D-01
      0.1039486850D+03  0.6884262226D-01
      0.2921015530D+02  0.2321844432D+00
      0.9286662960D+01  0.4679413484D+00
      0.3163926960D+01  0.3623119853D+00
 SP   3 1.00       0.000000000000
      0.7868272350D+01 -0.1193324198D+00  0.6899906659D-01
      0.1881288540D+01 -0.1608541517D+00  0.3164239610D+00
      0.5442492580D+00  0.1143456438D+01  0.7443082909D+00
 SP   1 1.00       0.000000000000
      0.1687144782D+00  0.1000000000D+01  0.1000000000D+01
 D   1 1.00       0.000000000000
      0.8000000000D+00  0.1000000000D+01
 ****
     29 0
 S   6 1.00       0.000000000000
      0.3047524880D+04  0.1834737132D-02
      0.4573695180D+03  0.1403732281D-01
      0.1039486850D+03  0.6884262226D-01
      0.2921015530D+02  0.2321844432D+00
      0.9286662960D+01  0.4679413484D+00
      0.3163926960D+01  0.3623119853D+00
 SP   3 1.00       0.000000000000
      0.7868272350D+01 -0.1193324198D+00  0.6899906659D-01
      0.1881288540D+01 -0.1608541517D+00  0.3164239610D+00
      0.5442492580D+00  0.1143456438D+01  0.7443082909D+00
 SP   1 1.00       0.000000000000
      0.1687144782D+00  0.1000000000D+01  0.1000000000D+01
 D   1 1.00       0.000000000000
      0.8000000000D+00  0.1000000000D+01
 ****
     30 0
 S   6 1.00       0.000000000000
      0.4173511460D+04  0.1834772160D-02
      0.6274579110D+03  0.1399462700D-01
      0.1429020930D+03  0.6858655181D-01
      0.4023432930D+02  0.2322408730D+00
      0.1282021290D+02  0.4690699481D+00
      0.4390437010D+01  0.3604551991D+00
 SP   3 1.00       0.000000000000
      0.1162636186D+02 -0.1149611817D+00  0.6757974388D-01
      0.2716279807D+01 -0.1691174786D+00  0.3239072959D+00
      0.7722183966D+00  0.1145851947D+01  0.7408951398D+00
 SP   1 1.00       0.000000000000
      0.2120314975D+00  0.1000000000D+01  0.1000000000D+01
 D   1 1.00       0.000000000000
      0.8000000000D+00  0.1000000000D+01
 ****
     31 0
 S   6 1.00       0.000000000000
      0.3047524880D+04  0.1834737132D-02
      0.4573695180D+03  0.1403732281D-01
      0.1039486850D+03  0.6884262226D-01
      0.2921015530D+02  0.2321844432D+00
      0.9286662960D+01  0.4679413484D+00
      0.3163926960D+01  0.3623119853D+00
 SP   3 1.00       0.000000000000
      0.7868272350D+01 -0.1193324198D+00  0.6899906659D-01
      0.1881288540D+01 -0.1608541517D+00  0.3164239610D+00
      0.5442492580D+00  0.1143456438D+01  0.7443082909D+00
 SP   1 1.00       0.000000000000
      0.1687144782D+00  0.1000000000D+01  0.1000000000D+01
 D   1 1.00       0.000000000000
      0.8000000000D+00  0.1000000000D+01
 ****
     32 0
 S   6 1.00       0.000000000000
      0.3047524880D+04  0.1834737132D-02
      0.4573695180D+03  0.1403732281D-01
      0.1039486850D+03  0.6884262226D-01
      0.2921015530D+02  0.2321844432D+00
      0.9286662960D+01  0.4679413484D+00
      0.3163926960D+01  0.3623119853D+00
 SP   3 1.00       0.000000000000
      0.7868272350D+01 -0.1193324198D+00  0.6899906659D-01
      0.1881288540D+01 -0.1608541517D+00  0.3164239610D+00
      0.5442492580D+00  0.1143456438D+01  0.7443082909D+00
 SP   1 1.00       0.000000000000
      0.1687144782D+00  0.1000000000D+01  0.1000000000D+01
 D   1 1.00       0.000000000000
      0.8000000000D+00  0.1000000000D+01
 ****
     33 0
 S   3 1.00       0.000000000000
      0.1873113696D+02  0.3349460434D-01
      0.2825394365D+01  0.2347269535D+00
      0.6401216923D+00  0.8137573261D+00
 S   1 1.00       0.000000000000
      0.1612777588D+00  0.1000000000D+01
 ****
     34 0
 S   3 1.00       0.000000000000
      0.1873113696D+02  0.3349460434D-01
      0.2825394365D+01  0.2347269535D+00
      0.6401216923D+00  0.8137573261D+00
 S   1 1.00       0.000000000000
      0.1612777588D+00  0.1000000000D+01
 ****
     35 0
 S   3 1.00       0.000000000000
      0.1873113696D+02  0.3349460434D-01
      0.2825394365D+01  0.2347269535D+00
      0.6401216923D+00  0.8137573261D+00
 S   1 1.00       0.000000000000
      0.1612777588D+00  0.1000000000D+01
 ****
     36 0
 S   3 1.00       0.000000000000
      0.1873113696D+02  0.3349460434D-01
      0.2825394365D+01  0.2347269535D+00
      0.6401216923D+00  0.8137573261D+00
 S   1 1.00       0.000000000000
      0.1612777588D+00  0.1000000000D+01
 ****
     37 0
 S   3 1.00       0.000000000000
      0.1873113696D+02  0.3349460434D-01
      0.2825394365D+01  0.2347269535D+00
      0.6401216923D+00  0.8137573261D+00
 S   1 1.00       0.000000000000
      0.1612777588D+00  0.1000000000D+01
 ****
     38 0
 S   3 1.00       0.000000000000
      0.1873113696D+02  0.3349460434D-01
      0.2825394365D+01  0.2347269535D+00
      0.6401216923D+00  0.8137573261D+00
 S   1 1.00       0.000000000000
      0.1612777588D+00  0.1000000000D+01
 ****
     39 0
 S   3 1.00       0.000000000000
      0.1873113696D+02  0.3349460434D-01
      0.2825394365D+01  0.2347269535D+00
      0.6401216923D+00  0.8137573261D+00
 S   1 1.00       0.000000000000
      0.1612777588D+00  0.1000000000D+01
 ****
     40 0
 S   3 1.00       0.000000000000
      0.1873113696D+02  0.3349460434D-01
      0.2825394365D+01  0.2347269535D+00
      0.6401216923D+00  0.8137573261D+00
 S   1 1.00       0.000000000000
      0.1612777588D+00  0.1000000000D+01
 ****
     41 0
 S   3 1.00       0.000000000000
      0.1873113696D+02  0.3349460434D-01
      0.2825394365D+01  0.2347269535D+00
      0.6401216923D+00  0.8137573261D+00
 S   1 1.00       0.000000000000
      0.1612777588D+00  0.1000000000D+01
 ****
     42 0
 S   3 1.00       0.000000000000
      0.1873113696D+02  0.3349460434D-01
      0.2825394365D+01  0.2347269535D+00
      0.6401216923D+00  0.8137573261D+00
 S   1 1.00       0.000000000000
      0.1612777588D+00  0.1000000000D+01
 ****
     43 0
 S   3 1.00       0.000000000000
      0.1873113696D+02  0.3349460434D-01
      0.2825394365D+01  0.2347269535D+00
      0.6401216923D+00  0.8137573261D+00
 S   1 1.00       0.000000000000
      0.1612777588D+00  0.1000000000D+01
 ****
     44 0
 S   3 1.00       0.000000000000
      0.1873113696D+02  0.3349460434D-01
      0.2825394365D+01  0.2347269535D+00
      0.6401216923D+00  0.8137573261D+00
 S   1 1.00       0.000000000000
      0.1612777588D+00  0.1000000000D+01
 ****
     45 0
 S   3 1.00       0.000000000000
      0.1873113696D+02  0.3349460434D-01
      0.2825394365D+01  0.2347269535D+00
      0.6401216923D+00  0.8137573261D+00
 S   1 1.00       0.000000000000
      0.1612777588D+00  0.1000000000D+01
 ****
     46 0
 S   3 1.00       0.000000000000
      0.1873113696D+02  0.3349460434D-01
      0.2825394365D+01  0.2347269535D+00
      0.6401216923D+00  0.8137573261D+00
 S   1 1.00       0.000000000000
      0.1612777588D+00  0.1000000000D+01
 ****
     47 0
 S   3 1.00       0.000000000000
      0.1873113696D+02  0.3349460434D-01
      0.2825394365D+01  0.2347269535D+00
      0.6401216923D+00  0.8137573261D+00
 S   1 1.00       0.000000000000
      0.1612777588D+00  0.1000000000D+01
 ****
     48 0
 S   3 1.00       0.000000000000
      0.1873113696D+02  0.3349460434D-01
      0.2825394365D+01  0.2347269535D+00
      0.6401216923D+00  0.8137573261D+00
 S   1 1.00       0.000000000000
      0.1612777588D+00  0.1000000000D+01
 ****
     49 0
 S   3 1.00       0.000000000000
      0.1873113696D+02  0.3349460434D-01
      0.2825394365D+01  0.2347269535D+00
      0.6401216923D+00  0.8137573261D+00
 S   1 1.00       0.000000000000
      0.1612777588D+00  0.1000000000D+01
 ****
     50 0
 S   3 1.00       0.000000000000
      0.1873113696D+02  0.3349460434D-01
      0.2825394365D+01  0.2347269535D+00
      0.6401216923D+00  0.8137573261D+00
 S   1 1.00       0.000000000000
      0.1612777588D+00  0.1000000000D+01
 ****
     51 0
 S   3 1.00       0.000000000000
      0.1873113696D+02  0.3349460434D-01
      0.2825394365D+01  0.2347269535D+00
      0.6401216923D+00  0.8137573261D+00
 S   1 1.00       0.000000000000
      0.1612777588D+00  0.1000000000D+01
 ****
     52 0
 S   3 1.00       0.000000000000
      0.1873113696D+02  0.3349460434D-01
      0.2825394365D+01  0.2347269535D+00
      0.6401216923D+00  0.8137573261D+00
 S   1 1.00       0.000000000000
      0.1612777588D+00  0.1000000000D+01
 ****

   520 basis functions,   976 primitive gaussians,   520 cartesian basis functions
   108 alpha electrons      108 beta electrons
       nuclear repulsion energy      2744.3333687435 Hartrees.
 IExCor=  402 DFT=T Ex+Corr=B3LYP ExCW=0 ScaHFX=  0.200000
 ScaDFX=  0.800000  0.720000  1.000000  0.810000 ScalE2=  1.000000  1.000000
 IRadAn=      5 IRanWt=     -1 IRanGd=            0 ICorTp=0 IEmpDi=  4
 NAtoms=   52 NActive=   52 NUniq=   52 SFac= 1.00D+00 NAtFMM=   60 NAOKFM=F Big=F
 Integral buffers will be    131072 words long.
 Regular integral format.
 Two-electron integral symmetry is turned off.
 Leave Link  301 at Sat Nov  5 10:37:43 2022, MaxMem=   402653184 cpu:               1.6 elap:               0.3
 (Enter /home/wykgroup/appl/g16/l302.exe)
 NPDir=0 NMtPBC=     1 NCelOv=     1 NCel=       1 NClECP=     1 NCelD=      1
         NCelK=      1 NCelE2=     1 NClLst=     1 CellRange=     0.0.
 One-electron integrals computed using PRISM.
 NBasis=   520 RedAO= T EigKep=  3.56D-04  NBF=   520
 NBsUse=   520 1.00D-06 EigRej= -1.00D+00 NBFU=   520
 Precomputing XC quadrature grid using
 IXCGrd= 4 IRadAn=           5 IRanWt=          -1 IRanGd=           0 AccXCQ= 0.00D+00.
 Generated NRdTot=       0 NPtTot=           0 NUsed=           0 NTot=          32
 NSgBfM=   509   509   509   509   509 MxSgAt=    52 MxSgA2=    52.
 Leave Link  302 at Sat Nov  5 10:37:47 2022, MaxMem=   402653184 cpu:              21.6 elap:               3.3
 (Enter /home/wykgroup/appl/g16/l303.exe)
 DipDrv:  MaxL=1.
 Leave Link  303 at Sat Nov  5 10:37:47 2022, MaxMem=   402653184 cpu:               1.5 elap:               0.3
 (Enter /home/wykgroup/appl/g16/l308.exe)
 Leave Link  308 at Sat Nov  5 10:37:47 2022, MaxMem=   402653184 cpu:               2.2 elap:               0.5
 (Enter /home/wykgroup/appl/g16/l401.exe)
 ExpMin= 1.61D-01 ExpMax= 5.48D+03 ExpMxC= 8.25D+02 IAcc=3 IRadAn=         5 AccDes= 0.00D+00
 Harris functional with IExCor=  402 and IRadAn=       5 diagonalized for initial guess.
 HarFok:  IExCor=  402 AccDes= 0.00D+00 IRadAn=         5 IDoV= 1 UseB2=F ITyADJ=14
 ICtDFT=  3500011 ScaDFX=  1.000000  1.000000  1.000000  1.000000
 FoFCou: FMM=F IPFlag=           0 FMFlag=      100000 FMFlg1=           0
         NFxFlg=           0 DoJE=T BraDBF=F KetDBF=T FulRan=T
         wScrn=  0.000000 ICntrl=       500 IOpCl=  0 I1Cent=   200000004 NGrid=           0
         NMat0=    1 NMatS0=      1 NMatT0=    0 NMatD0=    1 NMtDS0=    0 NMtDT0=    0
 Symmetry not used in FoFCou.
 Harris En= -1301.84948139785    
 JPrj=0 DoOrth=F DoCkMO=F.
 Leave Link  401 at Sat Nov  5 10:37:55 2022, MaxMem=   402653184 cpu:              46.8 elap:               7.2
 (Enter /home/wykgroup/appl/g16/l502.exe)
 Two-electron integral symmetry not used.
 Closed shell SCF:
 Using DIIS extrapolation, IDIIS=  1040.
 NGot=   402653184 LenX=   402100830 LenY=   401829910
 Requested convergence on RMS density matrix=1.00D-08 within  32 cycles.
 Requested convergence on MAX density matrix=1.00D-06.
 Requested convergence on             energy=1.00D-06.
 No special actions if energy rises.
 Fock matrices will be formed incrementally for  20 cycles.
 Integral accuracy reduced to 1.0D-05 until final iterations.

 Cycle   1  Pass 0  IDiag  1:
 FoFJK:  IHMeth= 1 ICntrl=       0 DoSepK=F KAlg= 0 I1Cent=           0 FoldK=F
 IRaf= 580000000 NMat=       1 IRICut=       1 DoRegI=T DoRafI=F ISym2E= 0 IDoP0=0 IntGTp=1.
 FoFCou: FMM=F IPFlag=           0 FMFlag=      100000 FMFlg1=           0
         NFxFlg=           0 DoJE=F BraDBF=F KetDBF=F FulRan=T
         wScrn=  0.000000 ICntrl=         0 IOpCl=  0 I1Cent=           0 NGrid=           0
         NMat0=    1 NMatS0=      1 NMatT0=    0 NMatD0=    1 NMtDS0=    0 NMtDT0=    0
 Symmetry not used in FoFCou.
 E= -1301.21258339871    
 DIIS: error= 3.33D-02 at cycle   1 NSaved=   1.
 NSaved= 1 IEnMin= 1 EnMin= -1301.21258339871     IErMin= 1 ErrMin= 3.33D-02
 ErrMax= 3.33D-02  0.00D+00 EMaxC= 1.00D-01 BMatC= 6.17D-01 BMatP= 6.17D-01
 IDIUse=3 WtCom= 6.67D-01 WtEn= 3.33D-01
 Coeff-Com:  0.100D+01
 Coeff-En:   0.100D+01
 Coeff:      0.100D+01
 Gap=     0.173 Goal=   None    Shift=    0.000
 GapD=    0.173 DampG=1.000 DampE=0.500 DampFc=0.5000 IDamp=-1.
 Damping current iteration by 5.00D-01
 RMSDP=3.77D-03 MaxDP=1.23D-01              OVMax= 3.30D-01

 Cycle   2  Pass 0  IDiag  1:
 RMSU=  1.83D-03    CP:  9.72D-01
 E= -1301.46458222458     Delta-E=       -0.251998825861 Rises=F Damp=T
 DIIS: error= 1.02D-02 at cycle   2 NSaved=   2.
 NSaved= 2 IEnMin= 2 EnMin= -1301.46458222458     IErMin= 2 ErrMin= 1.02D-02
 ErrMax= 1.02D-02  0.00D+00 EMaxC= 1.00D-01 BMatC= 7.67D-02 BMatP= 6.17D-01
 IDIUse=3 WtCom= 8.98D-01 WtEn= 1.02D-01
 Coeff-Com:  0.110D+00 0.890D+00
 Coeff-En:   0.197D+00 0.803D+00
 Coeff:      0.119D+00 0.881D+00
 Gap=     0.135 Goal=   None    Shift=    0.000
 RMSDP=1.51D-03 MaxDP=1.10D-01 DE=-2.52D-01 OVMax= 3.80D-01

 Cycle   3  Pass 0  IDiag  1:
 RMSU=  1.44D-03    CP:  9.58D-01  7.68D-01
 E= -1301.71338550523     Delta-E=       -0.248803280651 Rises=F Damp=F
 DIIS: error= 1.48D-02 at cycle   3 NSaved=   3.
 NSaved= 3 IEnMin= 3 EnMin= -1301.71338550523     IErMin= 2 ErrMin= 1.02D-02
 ErrMax= 1.48D-02  0.00D+00 EMaxC= 1.00D-01 BMatC= 1.37D-01 BMatP= 7.67D-02
 IDIUse=2 WtCom= 0.00D+00 WtEn= 1.00D+00
 Coeff-En:   0.000D+00 0.324D-01 0.968D+00
 Coeff:      0.000D+00 0.324D-01 0.968D+00
 Gap=     0.204 Goal=   None    Shift=    0.000
 RMSDP=2.68D-03 MaxDP=1.66D-01 DE=-2.49D-01 OVMax= 3.78D-01

 Cycle   4  Pass 0  IDiag  1:
 RMSU=  1.20D-03    CP:  9.59D-01  1.39D+00 -4.66D-01
 E= -1301.04983034935     Delta-E=        0.663555155878 Rises=F Damp=F
 DIIS: error= 3.77D-02 at cycle   4 NSaved=   4.
 NSaved= 4 IEnMin= 3 EnMin= -1301.71338550523     IErMin= 2 ErrMin= 1.02D-02
 ErrMax= 3.77D-02  0.00D+00 EMaxC= 1.00D-01 BMatC= 7.40D-01 BMatP= 7.67D-02
 IDIUse=2 WtCom= 0.00D+00 WtEn= 1.00D+00
 Coeff-En:   0.000D+00 0.000D+00 0.779D+00 0.221D+00
 Coeff:      0.000D+00 0.000D+00 0.779D+00 0.221D+00
 Gap=     0.165 Goal=   None    Shift=    0.000
 RMSDP=1.37D-03 MaxDP=9.19D-02 DE= 6.64D-01 OVMax= 2.06D-01

 Cycle   5  Pass 0  IDiag  1:
 RMSU=  3.32D-04    CP:  9.60D-01  1.04D+00  2.29D-01  4.90D-01
 E= -1301.80695899029     Delta-E=       -0.757128640947 Rises=F Damp=F
 DIIS: error= 1.01D-02 at cycle   5 NSaved=   5.
 NSaved= 5 IEnMin= 5 EnMin= -1301.80695899029     IErMin= 5 ErrMin= 1.01D-02
 ErrMax= 1.01D-02  0.00D+00 EMaxC= 1.00D-01 BMatC= 5.65D-02 BMatP= 7.67D-02
 IDIUse=3 WtCom= 8.99D-01 WtEn= 1.01D-01
 Coeff-Com:  0.159D-02 0.127D-01 0.311D+00-0.800D-01 0.755D+00
 Coeff-En:   0.000D+00 0.000D+00 0.339D+00 0.000D+00 0.661D+00
 Coeff:      0.143D-02 0.114D-01 0.314D+00-0.719D-01 0.745D+00
 Gap=     0.120 Goal=   None    Shift=    0.000
 RMSDP=5.48D-04 MaxDP=3.40D-02 DE=-7.57D-01 OVMax= 9.46D-02

 Cycle   6  Pass 0  IDiag  1:
 RMSU=  1.23D-04    CP:  9.60D-01  9.32D-01  5.25D-01  2.94D-01  7.60D-01
 E= -1301.86843461672     Delta-E=       -0.061475626421 Rises=F Damp=F
 DIIS: error= 1.32D-03 at cycle   6 NSaved=   6.
 NSaved= 6 IEnMin= 6 EnMin= -1301.86843461672     IErMin= 6 ErrMin= 1.32D-03
 ErrMax= 1.32D-03  0.00D+00 EMaxC= 1.00D-01 BMatC= 1.15D-03 BMatP= 5.65D-02
 IDIUse=3 WtCom= 9.87D-01 WtEn= 1.32D-02
 Coeff-Com: -0.297D-02 0.126D-01 0.153D+00-0.755D-01 0.487D+00 0.425D+00
 Coeff-En:   0.000D+00 0.000D+00 0.000D+00 0.000D+00 0.000D+00 0.100D+01
 Coeff:     -0.293D-02 0.125D-01 0.151D+00-0.745D-01 0.481D+00 0.433D+00
 Gap=     0.117 Goal=   None    Shift=    0.000
 RMSDP=8.42D-05 MaxDP=4.22D-03 DE=-6.15D-02 OVMax= 9.66D-03

 Cycle   7  Pass 0  IDiag  1:
 RMSU=  3.07D-05    CP:  9.60D-01  9.32D-01  5.22D-01  2.88D-01  8.55D-01
                    CP:  4.20D-01
 E= -1301.86958439072     Delta-E=       -0.001149774000 Rises=F Damp=F
 DIIS: error= 3.17D-04 at cycle   7 NSaved=   7.
 NSaved= 7 IEnMin= 7 EnMin= -1301.86958439072     IErMin= 7 ErrMin= 3.17D-04
 ErrMax= 3.17D-04  0.00D+00 EMaxC= 1.00D-01 BMatC= 6.40D-05 BMatP= 1.15D-03
 IDIUse=3 WtCom= 9.97D-01 WtEn= 3.17D-03
 Coeff-Com: -0.706D-03 0.325D-02 0.597D-01-0.302D-01 0.185D+00 0.230D+00
 Coeff-Com:  0.553D+00
 Coeff-En:   0.000D+00 0.000D+00 0.000D+00 0.000D+00 0.000D+00 0.000D+00
 Coeff-En:   0.100D+01
 Coeff:     -0.704D-03 0.324D-02 0.595D-01-0.301D-01 0.184D+00 0.229D+00
 Coeff:      0.555D+00
 Gap=     0.117 Goal=   None    Shift=    0.000
 RMSDP=2.04D-05 MaxDP=1.02D-03 DE=-1.15D-03 OVMax= 2.24D-03

 Cycle   8  Pass 0  IDiag  1:
 RMSU=  1.21D-05    CP:  9.60D-01  9.31D-01  5.25D-01  2.89D-01  8.44D-01
                    CP:  4.92D-01  6.13D-01
 E= -1301.86964254587     Delta-E=       -0.000058155154 Rises=F Damp=F
 DIIS: error= 1.40D-04 at cycle   8 NSaved=   8.
 NSaved= 8 IEnMin= 8 EnMin= -1301.86964254587     IErMin= 8 ErrMin= 1.40D-04
 ErrMax= 1.40D-04  0.00D+00 EMaxC= 1.00D-01 BMatC= 1.24D-05 BMatP= 6.40D-05
 IDIUse=3 WtCom= 9.99D-01 WtEn= 1.40D-03
 Coeff-Com:  0.504D-03-0.162D-02 0.629D-02-0.254D-02 0.102D-01 0.584D-01
 Coeff-Com:  0.358D+00 0.571D+00
 Coeff-En:   0.000D+00 0.000D+00 0.000D+00 0.000D+00 0.000D+00 0.000D+00
 Coeff-En:   0.516D-01 0.948D+00
 Coeff:      0.503D-03-0.162D-02 0.628D-02-0.253D-02 0.102D-01 0.583D-01
 Coeff:      0.357D+00 0.572D+00
 Gap=     0.117 Goal=   None    Shift=    0.000
 RMSDP=7.30D-06 MaxDP=6.31D-04 DE=-5.82D-05 OVMax= 7.42D-04

 Initial convergence to 1.0D-05 achieved.  Increase integral accuracy.
 Cycle   9  Pass 1  IDiag  1:
 E= -1301.86966220494     Delta-E=       -0.000019659073 Rises=F Damp=F
 DIIS: error= 1.25D-04 at cycle   1 NSaved=   1.
 NSaved= 1 IEnMin= 1 EnMin= -1301.86966220494     IErMin= 1 ErrMin= 1.25D-04
 ErrMax= 1.25D-04  0.00D+00 EMaxC= 1.00D-01 BMatC= 3.01D-06 BMatP= 3.01D-06
 IDIUse=3 WtCom= 9.99D-01 WtEn= 1.25D-03
 Coeff-Com:  0.100D+01
 Coeff-En:   0.100D+01
 Coeff:      0.100D+01
 Gap=     0.117 Goal=   None    Shift=    0.000
 RMSDP=7.30D-06 MaxDP=6.31D-04 DE=-1.97D-05 OVMax= 4.46D-04

 Cycle  10  Pass 1  IDiag  1:
 RMSU=  4.92D-05    CP:  1.00D+00
 E= -1301.86966292745     Delta-E=       -0.000000722512 Rises=F Damp=F
 DIIS: error= 5.05D-05 at cycle   2 NSaved=   2.
 NSaved= 2 IEnMin= 2 EnMin= -1301.86966292745     IErMin= 2 ErrMin= 5.05D-05
 ErrMax= 5.05D-05  0.00D+00 EMaxC= 1.00D-01 BMatC= 1.83D-06 BMatP= 3.01D-06
 IDIUse=1 WtCom= 1.00D+00 WtEn= 0.00D+00
 Coeff-Com:  0.412D+00 0.588D+00
 Coeff:      0.412D+00 0.588D+00
 Gap=     0.117 Goal=   None    Shift=    0.000
 RMSDP=5.25D-06 MaxDP=3.35D-04 DE=-7.23D-07 OVMax= 5.50D-04

 Cycle  11  Pass 1  IDiag  1:
 RMSU=  5.25D-06    CP:  1.00D+00  9.97D-01
 E= -1301.86966359580     Delta-E=       -0.000000668344 Rises=F Damp=F
 DIIS: error= 4.34D-05 at cycle   3 NSaved=   3.
 NSaved= 3 IEnMin= 3 EnMin= -1301.86966359580     IErMin= 3 ErrMin= 4.34D-05
 ErrMax= 4.34D-05  0.00D+00 EMaxC= 1.00D-01 BMatC= 1.18D-06 BMatP= 1.83D-06
 IDIUse=1 WtCom= 1.00D+00 WtEn= 0.00D+00
 Coeff-Com:  0.273D-01 0.439D+00 0.533D+00
 Coeff:      0.273D-01 0.439D+00 0.533D+00
 Gap=     0.117 Goal=   None    Shift=    0.000
 RMSDP=2.65D-06 MaxDP=1.81D-04 DE=-6.68D-07 OVMax= 2.90D-04

 Cycle  12  Pass 1  IDiag  1:
 RMSU=  9.26D-07    CP:  1.00D+00  1.01D+00  5.34D-01
 E= -1301.86966480377     Delta-E=       -0.000001207968 Rises=F Damp=F
 DIIS: error= 7.73D-06 at cycle   4 NSaved=   4.
 NSaved= 4 IEnMin= 4 EnMin= -1301.86966480377     IErMin= 4 ErrMin= 7.73D-06
 ErrMax= 7.73D-06  0.00D+00 EMaxC= 1.00D-01 BMatC= 7.37D-08 BMatP= 1.18D-06
 IDIUse=1 WtCom= 1.00D+00 WtEn= 0.00D+00
 Coeff-Com: -0.221D-02 0.253D+00 0.339D+00 0.410D+00
 Coeff:     -0.221D-02 0.253D+00 0.339D+00 0.410D+00
 Gap=     0.117 Goal=   None    Shift=    0.000
 RMSDP=5.86D-07 MaxDP=2.69D-05 DE=-1.21D-06 OVMax= 7.82D-05

 Cycle  13  Pass 1  IDiag  1:
 RMSU=  1.81D-07    CP:  1.00D+00  1.01D+00  5.66D-01  4.26D-01
 E= -1301.86966487348     Delta-E=       -0.000000069710 Rises=F Damp=F
 DIIS: error= 1.50D-06 at cycle   5 NSaved=   5.
 NSaved= 5 IEnMin= 5 EnMin= -1301.86966487348     IErMin= 5 ErrMin= 1.50D-06
 ErrMax= 1.50D-06  0.00D+00 EMaxC= 1.00D-01 BMatC= 1.75D-09 BMatP= 7.37D-08
 IDIUse=1 WtCom= 1.00D+00 WtEn= 0.00D+00
 Coeff-Com: -0.205D-02 0.151D+00 0.203D+00 0.260D+00 0.389D+00
 Coeff:     -0.205D-02 0.151D+00 0.203D+00 0.260D+00 0.389D+00
 Gap=     0.117 Goal=   None    Shift=    0.000
 RMSDP=1.03D-07 MaxDP=7.47D-06 DE=-6.97D-08 OVMax= 1.52D-05

 Cycle  14  Pass 1  IDiag  1:
 RMSU=  6.02D-08    CP:  1.00D+00  1.01D+00  5.64D-01  4.39D-01  5.47D-01
 E= -1301.86966487522     Delta-E=       -0.000000001743 Rises=F Damp=F
 DIIS: error= 3.10D-07 at cycle   6 NSaved=   6.
 NSaved= 6 IEnMin= 6 EnMin= -1301.86966487522     IErMin= 6 ErrMin= 3.10D-07
 ErrMax= 3.10D-07  0.00D+00 EMaxC= 1.00D-01 BMatC= 8.05D-11 BMatP= 1.75D-09
 IDIUse=1 WtCom= 1.00D+00 WtEn= 0.00D+00
 Coeff-Com: -0.101D-02 0.663D-01 0.891D-01 0.117D+00 0.219D+00 0.509D+00
 Coeff:     -0.101D-02 0.663D-01 0.891D-01 0.117D+00 0.219D+00 0.509D+00
 Gap=     0.117 Goal=   None    Shift=    0.000
 RMSDP=2.74D-08 MaxDP=1.04D-06 DE=-1.74D-09 OVMax= 3.90D-06

 Cycle  15  Pass 1  IDiag  1:
 RMSU=  2.22D-08    CP:  1.00D+00  1.01D+00  5.63D-01  4.36D-01  6.01D-01
                    CP:  7.97D-01
 E= -1301.86966487528     Delta-E=       -0.000000000057 Rises=F Damp=F
 DIIS: error= 1.69D-07 at cycle   7 NSaved=   7.
 NSaved= 7 IEnMin= 7 EnMin= -1301.86966487528     IErMin= 7 ErrMin= 1.69D-07
 ErrMax= 1.69D-07  0.00D+00 EMaxC= 1.00D-01 BMatC= 1.77D-11 BMatP= 8.05D-11
 IDIUse=1 WtCom= 1.00D+00 WtEn= 0.00D+00
 Coeff-Com: -0.317D-03 0.183D-01 0.243D-01 0.333D-01 0.698D-01 0.332D+00
 Coeff-Com:  0.523D+00
 Coeff:     -0.317D-03 0.183D-01 0.243D-01 0.333D-01 0.698D-01 0.332D+00
 Coeff:      0.523D+00
 Gap=     0.117 Goal=   None    Shift=    0.000
 RMSDP=1.17D-08 MaxDP=5.01D-07 DE=-5.68D-11 OVMax= 1.27D-06

 Cycle  16  Pass 1  IDiag  1:
 RMSU=  7.80D-09    CP:  1.00D+00  1.01D+00  5.63D-01  4.38D-01  6.03D-01
                    CP:  8.72D-01  6.76D-01
 E= -1301.86966487530     Delta-E=       -0.000000000021 Rises=F Damp=F
 DIIS: error= 5.68D-08 at cycle   8 NSaved=   8.
 NSaved= 8 IEnMin= 8 EnMin= -1301.86966487530     IErMin= 8 ErrMin= 5.68D-08
 ErrMax= 5.68D-08  0.00D+00 EMaxC= 1.00D-01 BMatC= 2.05D-12 BMatP= 1.77D-11
 IDIUse=1 WtCom= 1.00D+00 WtEn= 0.00D+00
 Coeff-Com:  0.231D-04-0.291D-02-0.415D-02-0.441D-02-0.873D-02 0.845D-01
 Coeff-Com:  0.290D+00 0.646D+00
 Coeff:      0.231D-04-0.291D-02-0.415D-02-0.441D-02-0.873D-02 0.845D-01
 Coeff:      0.290D+00 0.646D+00
 Gap=     0.117 Goal=   None    Shift=    0.000
 RMSDP=4.76D-09 MaxDP=1.84D-07 DE=-2.09D-11 OVMax= 6.88D-07

 SCF Done:  E(RB3LYP) =  -1301.86966488     A.U. after   16 cycles
            NFock= 16  Conv=0.48D-08     -V/T= 2.0097
 KE= 1.289393064758D+03 PE=-8.507524834985D+03 EE= 3.171928736608D+03
 Leave Link  502 at Sat Nov  5 10:40:53 2022, MaxMem=   402653184 cpu:            1232.6 elap:             177.9
 (Enter /home/wykgroup/appl/g16/l508.exe)
 QCSCF skips out because SCF is already converged.
 Leave Link  508 at Sat Nov  5 10:40:53 2022, MaxMem=   402653184 cpu:               0.5 elap:               0.1
 (Enter /home/wykgroup/appl/g16/l801.exe)
 DoSCS=F DFT=T ScalE2(SS,OS)=  1.000000  1.000000
 ExpMin= 1.61D-01 ExpMax= 5.48D+03 ExpMxC= 8.25D+02 IAcc=3 IRadAn=         5 AccDes= 0.00D+00
 HarFok:  IExCor=  205 AccDes= 0.00D+00 IRadAn=         5 IDoV=-2 UseB2=F ITyADJ=14
 ICtDFT= 12500011 ScaDFX=  1.000000  1.000000  1.000000  1.000000
 GSVD:  LWork=       -1280 too small for GESVD, short by        5600 words or        5600 for optimal perf.
 Largest valence mixing into a core orbital is  5.53D-05
 Largest core mixing into a valence orbital is  1.31D-05
 Range of M.O.s used for correlation:    33   520
 NBasis=   520 NAE=   108 NBE=   108 NFC=    32 NFV=     0
 NROrb=    488 NOA=    76 NOB=    76 NVA=   412 NVB=   412
 Leave Link  801 at Sat Nov  5 10:40:56 2022, MaxMem=   402653184 cpu:              23.5 elap:               3.6
 (Enter /home/wykgroup/appl/g16/l914.exe)
 RHF ground state
 Two-electron integral symmetry not used.
 MDV=   402653184 DFT=T DoStab=F Mixed=T DoRPA=T DoScal=F NonHer=T
 Making orbital integer symmetry assigments:
    16 initial guesses have been made.
 Convergence on wavefunction:    0.001000000000000
 Davidson Disk Diagonalization:  ConvIn= 1.00D-03 SkipCon=T Conv= 1.00D-03.
 Max sub-space:  2000 roots to seek:    16 dimension of matrix:        62624
 Iteration     1 Dimension    16 NMult     0 NNew     16
 CISAX will form    16 AO SS matrices at one time.
 NMat=    16 NSing=     8 JSym2X= 0.
 FoFJK:  IHMeth= 1 ICntrl=       0 DoSepK=F KAlg= 0 I1Cent=           0 FoldK=F
 IRaf= 580000000 NMat=      32 IRICut=       1 DoRegI=T DoRafI=F ISym2E= 0 IDoP0=0 IntGTp=1.
 FoFCou: FMM=F IPFlag=           0 FMFlag=      100000 FMFlg1=           0
         NFxFlg=           0 DoJE=F BraDBF=F KetDBF=F FulRan=T
         wScrn=  0.000000 ICntrl=         0 IOpCl=  0 I1Cent=           0 NGrid=           0
         NMat0=   32 NMatS0=      8 NMatT0=    8 NMatD0=   32 NMtDS0=    0 NMtDT0=    0
 Symmetry not used in FoFCou.
 New state      1 was old state      2
 New state      2 was old state      1
 New state      3 was old state      4
 New state      4 was old state      3
 New state      5 was old state      6
 New state      6 was old state      8
 New state      7 was old state      5
 New state      8 was old state     14
 Excitation Energies [eV] at current iteration:
 Root      1 :     2.638471359270696
 Root      2 :     2.644110800401526
 Root      3 :     3.002958043532630
 Root      4 :     3.012254653750925
 Root      5 :     3.151012187133463
 Root      6 :     3.543830260900253
 Root      7 :     3.566972084303186
 Root      8 :     3.681493063655644
 Root      9 :     4.129016658045420
 Root     10 :     4.171831390591708
 Root     11 :     4.174809406060886
 Root     12 :     4.210924608817924
 Root     13 :     4.213227117318057
 Root     14 :     4.488445468189244
 Root     15 :     4.491051910369789
 Root     16 :     4.924970902622844
 Iteration     2 Dimension    24 NMult    16 NNew      8
 CISAX will form     8 AO SS matrices at one time.
 NMat=     8 NSing=     4 JSym2X= 0.
 Root      1 not converged, maximum delta is    0.061926125900708
 Root      2 not converged, maximum delta is    0.057931373548148
 New state      3 was old state      5
 Root      3 not converged, maximum delta is    0.337830758817633
 Root      4 not converged, maximum delta is    0.016394911464576
 Excitation Energies [eV] at current iteration:
 Root      1 :     2.605908641327344   Change is   -0.032562717943352
 Root      2 :     2.615425599707640   Change is   -0.028685200693886
 Root      3 :     2.865968021227584   Change is   -0.285044165905880
 Root      4 :     3.009430750509726   Change is   -0.002823903241200
 Iteration     3 Dimension    32 NMult    24 NNew      8
 CISAX will form     8 AO SS matrices at one time.
 NMat=     8 NSing=     4 JSym2X= 0.
 Root      1 not converged, maximum delta is    0.001911887641626
 Root      2 not converged, maximum delta is    0.002640032536054
 Root      3 not converged, maximum delta is    0.062708713330668
 Root      4 not converged, maximum delta is    0.003154002842350
 Excitation Energies [eV] at current iteration:
 Root      1 :     2.605515641913450   Change is   -0.000392999413894
 Root      2 :     2.614711902914880   Change is   -0.000713696792760
 Root      3 :     2.809306087131519   Change is   -0.056661934096065
 Root      4 :     3.009134105984311   Change is   -0.000296644525414
 Iteration     4 Dimension    40 NMult    32 NNew      8
 CISAX will form     8 AO SS matrices at one time.
 NMat=     8 NSing=     4 JSym2X= 0.
 Root      1 not converged, maximum delta is    0.001236990353148
 Root      2 has converged.
 Root      3 not converged, maximum delta is    0.015071749101718
 Root      4 has converged.
 Excitation Energies [eV] at current iteration:
 Root      1 :     2.605469777330514   Change is   -0.000045864582936
 Root      2 :     2.614646294772969   Change is   -0.000065608141911
 Root      3 :     2.803013105030396   Change is   -0.006292982101123
 Root      4 :     3.009099704012278   Change is   -0.000034401972033
 Iteration     5 Dimension    44 NMult    40 NNew      4
 CISAX will form     4 AO SS matrices at one time.
 NMat=     4 NSing=     0 JSym2X= 0.
 Root      1 has converged.
 Root      2 has converged.
 Root      3 not converged, maximum delta is    0.003012828464955
 Root      4 has converged.
 Excitation Energies [eV] at current iteration:
 Root      1 :     2.605455168348104   Change is   -0.000014608982410
 Root      2 :     2.614646294772812   Change is   -0.000000000000157
 Root      3 :     2.802522488629150   Change is   -0.000490616401245
 Root      4 :     3.009099704012086   Change is   -0.000000000000191
 Iteration     6 Dimension    46 NMult    44 NNew      2
 CISAX will form     2 AO SS matrices at one time.
 NMat=     2 NSing=     0 JSym2X= 0.
 Root      1 has converged.
 Root      2 has converged.
 Root      3 has converged.
 Root      4 has converged.
 Excitation Energies [eV] at current iteration:
 Root      1 :     2.605455112920290   Change is   -0.000000055427814
 Root      2 :     2.614646294772969   Change is    0.000000000000157
 Root      3 :     2.802493918827739   Change is   -0.000028569801411
 Root      4 :     3.009099704012223   Change is    0.000000000000137
 Convergence achieved on expansion vectors.
 ***********************************************************************
 Excited states from <AA,BB:AA,BB> singles matrix:
 ***********************************************************************
 
 1PDM for each excited state written to RWF  633
 Ground to excited state transition densities written to RWF  633
 Ground to excited state transition electric dipole moments (Au):
       state          X           Y           Z        Dip. S.      Osc.
         1        -0.0000     -0.0000     -0.0000      0.0000      0.0000
         2         0.0706     -0.0159      0.0067      0.0053      0.0003
         3        -0.0000     -0.0000     -0.0000      0.0000      0.0000
         4        -0.0073      0.0074      0.0129      0.0003      0.0000
 Ground to excited state transition velocity dipole moments (Au):
       state          X           Y           Z        Dip. S.      Osc.
         1         0.0000      0.0000      0.0000      0.0000      0.0000
         2        -0.0066      0.0016     -0.0004      0.0000      0.0003
         3         0.0000     -0.0000      0.0000      0.0000      0.0000
         4         0.0002     -0.0038     -0.0067      0.0001      0.0004
 Ground to excited state transition magnetic dipole moments (Au):
       state          X           Y           Z
         1        -0.0000      0.0000      0.0000
         2        -0.1394      0.0599     -0.0326
         3         0.0000      0.0000     -0.0000
         4        -0.0751     -0.2021      0.1303
 Ground to excited state transition velocity quadrupole moments (Au):
       state          XX          YY          ZZ          XY          XZ          YZ
         1         0.0000     -0.0000     -0.0000      0.0000      0.0000     -0.0000
         2         0.0202     -0.0025      0.0155     -0.0042      0.0003      0.0102
         3         0.0000      0.0000     -0.0000     -0.0000     -0.0000      0.0000
         4         0.0013      0.0092     -0.0011      0.0105      0.0126      0.0050
 <0|del|b> * <b|rxdel|0> + <0|del|b> * <b|delr+rdel|0>
 Rotatory Strengths (R) in cgs (10**-40 erg-esu-cm/Gauss)
       state          XX          YY          ZZ    R(velocity)    E-M Angle
         1         0.0000     -0.0000      0.0000      0.0000       90.00
         2         0.4106      3.1644      3.9721      2.5157       12.73
         3        -0.0000      0.0000      0.0000     -0.0000       90.00
         4        -0.3938     -2.6157      2.2568     -0.2509       93.47
 1/2[<0|r|b>*<b|rxdel|0> + (<0|rxdel|b>*<b|r|0>)*]
 Rotatory Strengths (R) in cgs (10**-40 erg-esu-cm/Gauss)
       state          XX          YY          ZZ     R(length)
         1        -0.0000      0.0000      0.0000      0.0000
         2         6.9605      0.6733      0.1547      2.5962
         3         0.0000      0.0000     -0.0000     -0.0000
         4        -0.3899      1.0545     -1.1929     -0.1761
  1/2[<0|del|b>*<b|r|0> + (<0|r|b>*<b|del|0>)*] (Au)
       state          X           Y           Z        Dip. S.   Osc.(frdel)
         1        -0.0000     -0.0000     -0.0000      0.0000      0.0000
         2        -0.0005     -0.0000     -0.0000      0.0005      0.0003
         3        -0.0000      0.0000     -0.0000      0.0000      0.0000
         4        -0.0000     -0.0000     -0.0001      0.0001      0.0001

 Excitation energies and oscillator strengths:
 
 Excited state symmetry could not be determined.
 Excited State   1:      Triplet-?Sym    2.6055 eV  475.86 nm  f=0.0000  <S**2>=2.000
     108 ->109         0.69682
 This state for optimization and/or second-order correction.
 Total Energy, E(TD-HF/TD-DFT) =  -1301.77391616    
 Copying the excited state density for this state as the 1-particle RhoCI density.
 
 Excited state symmetry could not be determined.
 Excited State   2:      Singlet-?Sym    2.6146 eV  474.19 nm  f=0.0003  <S**2>=0.000
     108 ->109         0.69757
 
 Excited state symmetry could not be determined.
 Excited State   3:      Triplet-?Sym    2.8025 eV  442.41 nm  f=0.0000  <S**2>=2.000
     103 ->118        -0.12138
     107 ->115         0.11875
     108 ->110        -0.11230
     108 ->111        -0.39932
     108 ->112         0.42156
     108 ->113        -0.30944
 
 Excited state symmetry could not be determined.
 Excited State   4:      Singlet-?Sym    3.0091 eV  412.03 nm  f=0.0000  <S**2>=0.000
     108 ->110         0.69959
 SavETr:  write IOETrn=   770 NScale= 10 NData=  16 NLR=1 NState=    4 LETran=      82.
 Leave Link  914 at Sat Nov  5 10:53:40 2022, MaxMem=   402653184 cpu:            5405.6 elap:             763.8
 (Enter /home/wykgroup/appl/g16/l601.exe)
 Copying SCF densities to generalized density rwf, IOpCl= 0 IROHF=0.

 **********************************************************************

            Population analysis using the SCF Density.

 **********************************************************************

 Alpha  occ. eigenvalues --  -19.18700 -14.37110 -14.33224 -10.24500 -10.24490
 Alpha  occ. eigenvalues --  -10.23952 -10.23812 -10.23507 -10.23315 -10.23303
 Alpha  occ. eigenvalues --  -10.21446 -10.20909 -10.20421 -10.20360 -10.20336
 Alpha  occ. eigenvalues --  -10.20197 -10.20027 -10.20010 -10.19682 -10.19478
 Alpha  occ. eigenvalues --  -10.19350 -10.19291 -10.19117 -10.18825 -10.18383
 Alpha  occ. eigenvalues --  -10.18359 -10.18292 -10.18280 -10.18192 -10.18170
 Alpha  occ. eigenvalues --  -10.18049 -10.18033  -1.07961  -0.96843  -0.95143
 Alpha  occ. eigenvalues --   -0.86606  -0.85963  -0.85514  -0.83020  -0.80917
 Alpha  occ. eigenvalues --   -0.79839  -0.76186  -0.76035  -0.75663  -0.75238
 Alpha  occ. eigenvalues --   -0.74581  -0.73161  -0.72623  -0.69996  -0.65563
 Alpha  occ. eigenvalues --   -0.64902  -0.64007  -0.62742  -0.61726  -0.60177
 Alpha  occ. eigenvalues --   -0.59502  -0.58988  -0.58052  -0.56471  -0.55896
 Alpha  occ. eigenvalues --   -0.54200  -0.52852  -0.50684  -0.49761  -0.49332
 Alpha  occ. eigenvalues --   -0.49210  -0.47837  -0.46831  -0.46240  -0.46232
 Alpha  occ. eigenvalues --   -0.46078  -0.44476  -0.44258  -0.44028  -0.43422
 Alpha  occ. eigenvalues --   -0.42978  -0.42903  -0.42774  -0.42638  -0.42148
 Alpha  occ. eigenvalues --   -0.41322  -0.41081  -0.39117  -0.38207  -0.37671
 Alpha  occ. eigenvalues --   -0.37406  -0.37082  -0.36964  -0.36561  -0.36258
 Alpha  occ. eigenvalues --   -0.35227  -0.35186  -0.34919  -0.34771  -0.34264
 Alpha  occ. eigenvalues --   -0.32718  -0.31152  -0.29874  -0.29613  -0.26538
 Alpha  occ. eigenvalues --   -0.26047  -0.25231  -0.25053  -0.24979  -0.24879
 Alpha  occ. eigenvalues --   -0.22756  -0.22198  -0.16849
 Alpha virt. eigenvalues --   -0.05159  -0.04567  -0.01556  -0.00294  -0.00246
 Alpha virt. eigenvalues --    0.00793   0.00996   0.01107   0.03506   0.04409
 Alpha virt. eigenvalues --    0.08469   0.08955   0.09730   0.10236   0.10842
 Alpha virt. eigenvalues --    0.12134   0.12711   0.13715   0.14542   0.15007
 Alpha virt. eigenvalues --    0.15086   0.15396   0.15715   0.16325   0.16373
 Alpha virt. eigenvalues --    0.16813   0.17734   0.17805   0.18205   0.18493
 Alpha virt. eigenvalues --    0.18679   0.19440   0.19490   0.19527   0.21243
 Alpha virt. eigenvalues --    0.21857   0.22879   0.23595   0.24384   0.24609
 Alpha virt. eigenvalues --    0.25617   0.25937   0.27343   0.27487   0.28894
 Alpha virt. eigenvalues --    0.29203   0.29735   0.30534   0.30943   0.32722
 Alpha virt. eigenvalues --    0.32962   0.33243   0.33323   0.33793   0.34470
 Alpha virt. eigenvalues --    0.35300   0.37080   0.37347   0.38210   0.39778
 Alpha virt. eigenvalues --    0.39820   0.41897   0.44636   0.45640   0.47127
 Alpha virt. eigenvalues --    0.48576   0.49072   0.49407   0.50589   0.51341
 Alpha virt. eigenvalues --    0.51807   0.52058   0.52117   0.52304   0.52850
 Alpha virt. eigenvalues --    0.53799   0.54298   0.54619   0.55160   0.55584
 Alpha virt. eigenvalues --    0.55853   0.56044   0.56148   0.56385   0.56835
 Alpha virt. eigenvalues --    0.57475   0.57576   0.57643   0.57909   0.58227
 Alpha virt. eigenvalues --    0.58469   0.58520   0.58719   0.59265   0.59445
 Alpha virt. eigenvalues --    0.59852   0.60144   0.60643   0.60909   0.61230
 Alpha virt. eigenvalues --    0.61396   0.61577   0.61755   0.61849   0.61934
 Alpha virt. eigenvalues --    0.61998   0.62138   0.62772   0.62812   0.63383
 Alpha virt. eigenvalues --    0.63715   0.64114   0.65121   0.65726   0.66356
 Alpha virt. eigenvalues --    0.66415   0.66785   0.67629   0.68104   0.70099
 Alpha virt. eigenvalues --    0.70796   0.72339   0.74601   0.75057   0.76089
 Alpha virt. eigenvalues --    0.76743   0.77168   0.78281   0.78737   0.79579
 Alpha virt. eigenvalues --    0.80500   0.82278   0.82656   0.82963   0.83433
 Alpha virt. eigenvalues --    0.83668   0.83811   0.84311   0.84368   0.84466
 Alpha virt. eigenvalues --    0.84643   0.85596   0.85769   0.85873   0.86155
 Alpha virt. eigenvalues --    0.86893   0.87652   0.88485   0.89159   0.89441
 Alpha virt. eigenvalues --    0.89669   0.90941   0.91329   0.92036   0.92388
 Alpha virt. eigenvalues --    0.92680   0.93048   0.93110   0.93943   0.93990
 Alpha virt. eigenvalues --    0.95189   0.96245   0.97007   0.97661   0.98622
 Alpha virt. eigenvalues --    0.99378   1.00108   1.01235   1.01839   1.02087
 Alpha virt. eigenvalues --    1.03866   1.05171   1.05603   1.06033   1.08331
 Alpha virt. eigenvalues --    1.08558   1.09630   1.10127   1.11239   1.12453
 Alpha virt. eigenvalues --    1.12900   1.13897   1.14710   1.15482   1.16207
 Alpha virt. eigenvalues --    1.17087   1.17614   1.18816   1.19070   1.19627
 Alpha virt. eigenvalues --    1.20175   1.20398   1.20766   1.21785   1.22167
 Alpha virt. eigenvalues --    1.22410   1.24584   1.25278   1.26811   1.27627
 Alpha virt. eigenvalues --    1.28302   1.29956   1.31018   1.31555   1.35773
 Alpha virt. eigenvalues --    1.37748   1.38134   1.38430   1.39269   1.40002
 Alpha virt. eigenvalues --    1.41694   1.42434   1.43154   1.44108   1.44441
 Alpha virt. eigenvalues --    1.44829   1.44918   1.45074   1.45984   1.47286
 Alpha virt. eigenvalues --    1.47507   1.47888   1.48610   1.48877   1.49124
 Alpha virt. eigenvalues --    1.49468   1.49554   1.49841   1.50287   1.50749
 Alpha virt. eigenvalues --    1.50827   1.51076   1.51314   1.51842   1.54069
 Alpha virt. eigenvalues --    1.55786   1.62090   1.63665   1.67591   1.69663
 Alpha virt. eigenvalues --    1.70842   1.71645   1.73629   1.76055   1.77812
 Alpha virt. eigenvalues --    1.78508   1.78960   1.79498   1.80565   1.80847
 Alpha virt. eigenvalues --    1.81814   1.82039   1.82559   1.84026   1.84354
 Alpha virt. eigenvalues --    1.85072   1.85793   1.86004   1.86771   1.87159
 Alpha virt. eigenvalues --    1.88118   1.89683   1.90635   1.90743   1.91314
 Alpha virt. eigenvalues --    1.91703   1.92295   1.93392   1.93549   1.94608
 Alpha virt. eigenvalues --    1.95115   1.96457   1.97722   1.98018   1.98614
 Alpha virt. eigenvalues --    1.98704   2.01122   2.01535   2.04490   2.05552
 Alpha virt. eigenvalues --    2.05989   2.06168   2.07439   2.08724   2.09427
 Alpha virt. eigenvalues --    2.11419   2.11750   2.12486   2.12602   2.13228
 Alpha virt. eigenvalues --    2.13729   2.14646   2.14787   2.15847   2.16321
 Alpha virt. eigenvalues --    2.16838   2.17836   2.19400   2.21571   2.22670
 Alpha virt. eigenvalues --    2.23004   2.23881   2.24065   2.24689   2.24965
 Alpha virt. eigenvalues --    2.25873   2.26962   2.28354   2.28917   2.29685
 Alpha virt. eigenvalues --    2.30428   2.30485   2.30600   2.30968   2.31788
 Alpha virt. eigenvalues --    2.33263   2.34660   2.35727   2.35986   2.36697
 Alpha virt. eigenvalues --    2.37761   2.40360   2.45665   2.45885   2.49363
 Alpha virt. eigenvalues --    2.50035   2.50494   2.51792   2.53866   2.55614
 Alpha virt. eigenvalues --    2.57690   2.58235   2.59333   2.60395   2.60644
 Alpha virt. eigenvalues --    2.61647   2.62998   2.63074   2.63284   2.64058
 Alpha virt. eigenvalues --    2.65867   2.66135   2.66909   2.67295   2.67926
 Alpha virt. eigenvalues --    2.70427   2.71734   2.72156   2.72999   2.73474
 Alpha virt. eigenvalues --    2.73513   2.74005   2.74385   2.74556   2.75034
 Alpha virt. eigenvalues --    2.76154   2.79835   2.80239   2.81508   2.83740
 Alpha virt. eigenvalues --    2.85537   2.85892   2.89313   2.92534   2.95380
 Alpha virt. eigenvalues --    2.95991   2.96366   3.00489   3.01519   3.04891
 Alpha virt. eigenvalues --    3.05141   3.12824   3.16386   3.29159   3.33359
 Alpha virt. eigenvalues --    3.36353   3.41308   3.48869   3.51293   3.52181
 Alpha virt. eigenvalues --    4.05328   4.08469   4.08844   4.09673   4.09937
 Alpha virt. eigenvalues --    4.10717   4.10895   4.11087   4.11652   4.14024
 Alpha virt. eigenvalues --    4.14483   4.15536   4.17489   4.19300   4.23696
 Alpha virt. eigenvalues --    4.25802   4.30269   4.32223   4.32864   4.34430
 Alpha virt. eigenvalues --    4.35451   4.40615   4.42248   4.42946   4.44271
 Alpha virt. eigenvalues --    4.49970   4.60488   4.69668   4.73504   4.77217
 Alpha virt. eigenvalues --    4.78632   5.02994
          Condensed to atoms (all electrons):
 Mulliken charges:
               1
     1  C   -0.122514
     2  C   -0.137059
     3  C   -0.178121
     4  C    0.098822
     5  C    0.257316
     6  C   -0.171463
     7  C   -0.103829
     8  C   -0.172603
     9  C    0.256811
    10  C    0.113381
    11  C   -0.196480
    12  C   -0.133059
    13  C    0.204662
    14  N   -0.725333
    15  C    0.344355
    16  C   -0.202747
    17  C   -0.137008
    18  C   -0.136534
    19  C   -0.205015
    20  C    0.321514
    21  O   -0.583639
    22  C    0.321671
    23  C   -0.205019
    24  C   -0.136564
    25  C   -0.136932
    26  C   -0.202339
    27  C    0.344603
    28  C   -0.130838
    29  C   -0.177765
    30  N   -0.563064
    31  C   -0.159184
    32  C   -0.134906
    33  H    0.131769
    34  H    0.131283
    35  H    0.129420
    36  H    0.143750
    37  H    0.144194
    38  H    0.142643
    39  H    0.137823
    40  H    0.148715
    41  H    0.145814
    42  H    0.126718
    43  H    0.126585
    44  H    0.140629
    45  H    0.140686
    46  H    0.126555
    47  H    0.126244
    48  H    0.144291
    49  H    0.149932
    50  H    0.164566
    51  H    0.154352
    52  H    0.132913
 Sum of Mulliken charges =  -0.00000
 Mulliken charges with hydrogens summed into heavy atoms:
               1
     1  C    0.009255
     2  C   -0.005776
     3  C   -0.048701
     4  C    0.098822
     5  C    0.257316
     6  C   -0.027713
     7  C    0.040365
     8  C   -0.029960
     9  C    0.256811
    10  C    0.113381
    11  C   -0.058657
    12  C    0.015656
    13  C    0.204662
    14  N   -0.725333
    15  C    0.344355
    16  C   -0.056932
    17  C   -0.010290
    18  C   -0.009950
    19  C   -0.064386
    20  C    0.321514
    21  O   -0.583639
    22  C    0.321671
    23  C   -0.064333
    24  C   -0.010009
    25  C   -0.010688
    26  C   -0.058048
    27  C    0.344603
    28  C    0.019094
    29  C   -0.013198
    30  N   -0.563064
    31  C   -0.004832
    32  C   -0.001993
 Electronic spatial extent (au):  <R**2>=          20093.5318
 Charge=             -0.0000 electrons
 Dipole moment (field-independent basis, Debye):
    X=              3.3320    Y=             -1.9751    Z=              0.3557  Tot=              3.8897
 Quadrupole moment (field-independent basis, Debye-Ang):
   XX=           -171.1912   YY=           -167.1602   ZZ=           -180.0781
   XY=             -4.2704   XZ=             -0.2536   YZ=              2.5723
 Traceless Quadrupole moment (field-independent basis, Debye-Ang):
   XX=              1.6186   YY=              5.6496   ZZ=             -7.2683
   XY=             -4.2704   XZ=             -0.2536   YZ=              2.5723
 Octapole moment (field-independent basis, Debye-Ang**2):
  XXX=            275.2945  YYY=            -29.1679  ZZZ=            -27.1160  XYY=             94.7898
  XXY=              2.2870  XXZ=            -16.3264  XZZ=            -10.9943  YZZ=              2.8619
  YYZ=             15.3790  XYZ=            -12.0609
 Hexadecapole moment (field-independent basis, Debye-Ang**3):
 XXXX=         -20541.1695 YYYY=          -2618.3012 ZZZZ=          -2779.2341 XXXY=            268.9599
 XXXZ=           -981.9184 YYYX=            382.4302 YYYZ=           -480.0881 ZZZX=           -953.6643
 ZZZY=           -352.4689 XXYY=          -3864.2537 XXZZ=          -4161.9929 YYZZ=           -941.5809
 XXYZ=            -42.9450 YYXZ=           -325.0772 ZZXY=            115.1126
 N-N= 2.744333368744D+03 E-N=-8.507524842113D+03  KE= 1.289393064758D+03
 Leave Link  601 at Sat Nov  5 10:53:41 2022, MaxMem=   402653184 cpu:               2.6 elap:               0.6
 (Enter /home/wykgroup/appl/g16/l9999.exe)
 Electronic transition elements 
                 1             2             3             4 
      1  -0.130177D+04 -0.130177D+04 -0.130177D+04 -0.130176D+04
      2   0.000000D+00  0.706261D-01  0.000000D+00 -0.733848D-02
      3   0.000000D+00 -0.158859D-01  0.000000D+00  0.737766D-02
      4   0.000000D+00  0.670563D-02  0.000000D+00  0.129492D-01
      5   0.000000D+00 -0.656658D-02  0.000000D+00  0.222658D-03
      6   0.000000D+00  0.161539D-02  0.000000D+00 -0.381767D-02
      7   0.000000D+00 -0.413909D-03  0.000000D+00 -0.669861D-02
      8   0.000000D+00 -0.139366D+00  0.000000D+00 -0.751232D-01
      9   0.000000D+00  0.599333D-01  0.000000D+00 -0.202115D+00
     10   0.000000D+00 -0.326249D-01  0.000000D+00  0.130264D+00
     11   0.000000D+00  0.201713D-01  0.000000D+00  0.134717D-02
     12   0.000000D+00 -0.251208D-02  0.000000D+00  0.918548D-02
     13   0.000000D+00  0.155466D-01  0.000000D+00 -0.107103D-02
     14   0.000000D+00 -0.422124D-02  0.000000D+00  0.104693D-01
     15   0.000000D+00  0.293198D-03  0.000000D+00  0.125579D-01
     16   0.000000D+00  0.102001D-01  0.000000D+00  0.502132D-02
 1\1\GINC-NODE45\SP\RB3LYP TD-FC\6-31G(d)\C29H20N2O1\WYKGROUP\05-Nov-20
 22\0\\#p b3lyp/6-31g(d) 6D 10F nosymm GFInput td=(50-50,nstate=2) SCF=
 XQC\\Gaussian input prepared by ASE\\0,1\C,0,7.201235619,2.4769580676,
 0.6391948442\C,0,7.6741091826,1.2280609733,0.2332645932\C,0,6.80890003
 98,0.1365469561,0.1725280254\C,0,5.4542447851,0.2735378314,0.516340353
 8\C,0,4.5141182874,-0.8784879266,0.4648537885\C,0,4.961174634,-2.20808
 53973,0.5529635681\C,0,4.0263135883,-3.2349107249,0.4774023168\C,0,2.6
 76988757,-2.9242816658,0.3376771462\C,0,2.3000409195,-1.5723961977,0.2
 966220544\C,0,0.8767363767,-1.1546551335,0.1688587667\C,0,-0.180127372
 1,-1.9983737452,0.5471245647\C,0,-1.5052975053,-1.5889175102,0.4149456
 412\C,0,-1.8017912389,-0.3230687724,-0.0995466047\N,0,-3.1635582897,0.
 0970847451,-0.2369260975\C,0,-3.7999256185,0.8016111854,0.8050593424\C
 ,0,-3.1566767089,1.125806333,2.0044788349\C,0,-3.8294302916,1.82457192
 86,3.0121470025\C,0,-5.154371725,2.2104074054,2.8376693022\C,0,-5.8087
 343861,1.8919236153,1.6432679351\C,0,-5.1412640632,1.1979896462,0.6446
 868522\O,0,-5.8557800868,0.9153030022,-0.5035799698\C,0,-5.2153998752,
 0.2459641504,-1.5285306972\C,0,-5.9555908014,0.0008995835,-2.675830857
 6\C,0,-5.3777246607,-0.6737538541,-3.7561904689\C,0,-4.0546571069,-1.0
 937921685,-3.6678292353\C,0,-3.3085902843,-0.8455441222,-2.5110936792\
 C,0,-3.8756688992,-0.1736486674,-1.4227423325\C,0,-0.7566570254,0.5294
 194373,-0.4730077846\C,0,0.5661267121,0.1187870623,-0.3362619135\N,0,3
 .2085287822,-0.5851326377,0.3495368147\C,0,4.9882213223,1.5380079644,0
 .9122433046\C,0,5.8539939329,2.6269895259,0.9764753735\H,0,7.876017351
 7,3.3273940813,0.6879502133\H,0,8.7172401784,1.1033382327,-0.044908697
 3\H,0,7.1891788414,-0.8206357467,-0.1722121716\H,0,6.0126887898,-2.431
 9749498,0.6938791609\H,0,4.3467916663,-4.2721418552,0.5277481577\H,0,1
 .9382184085,-3.7127639733,0.2464568289\H,0,0.0266177989,-2.9746719979,
 0.9747648123\H,0,-2.3179641822,-2.2426795322,0.7172709345\H,0,-2.12407
 86987,0.8293076793,2.1493009868\H,0,-3.3033306089,2.0617763546,3.93235
 62337\H,0,-5.6829285072,2.7532598095,3.6153382408\H,0,-6.8422574442,2.
 1734027135,1.466837993\H,0,-6.9843717961,0.346371292,-2.7038241628\H,0
 ,-5.963027512,-0.862723911,-4.650918164\H,0,-3.5868055449,-1.618038505
 3,-4.4961669013\H,0,-2.2775350763,-1.1750208931,-2.4517325611\H,0,-0.9
 912995456,1.511922022,-0.8720714383\H,0,1.3799203943,0.776223035,-0.62
 07895191\H,0,3.9406123737,1.6468113996,1.1704632288\H,0,5.4768221133,3
 .5960278551,1.29269604\\Version=ES64L-G16RevB.01\HF=-1301.8696649\RMSD
 =4.764e-09\PG=C01 [X(C29H20N2O1)]\\@


 My opinions may have changed, but not the fact that I am right.
                       -- Ashleigh Brilliant
 Job cpu time:       0 days  1 hours 52 minutes 26.0 seconds.
 Elapsed time:       0 days  0 hours 15 minutes 59.1 seconds.
 File lengths (MBytes):  RWF=   1579 Int=      0 D2E=      0 Chk=     56 Scr=      1
 Normal termination of Gaussian 16 at Sat Nov  5 10:53:42 2022.
