 Entering Gaussian System, Link 0=/home/wykgroup/appl/g16/g16
 Input=./calculation/no_transfer_pubchem_sampling_9_b3lyp/132272891.com
 Output=./calculation/no_transfer_pubchem_sampling_9_b3lyp/132272891.log
 Initial command:
 /home/wykgroup/appl/g16/l1.exe "/userdata/scratch/wykgroup/khs/./calculation/no_transfer_pubchem_sampling_9_b3lyp/132272891/Gau-8042.inp" -scrdir="/userdata/scratch/wykgroup/khs/./calculation/no_transfer_pubchem_sampling_9_b3lyp/132272891/"
 Entering Link 1 = /home/wykgroup/appl/g16/l1.exe PID=      8043.
  
 Copyright (c) 1988-2017, Gaussian, Inc.  All Rights Reserved.
  
 This is part of the Gaussian(R) 16 program.  It is based on
 the Gaussian(R) 09 system (copyright 2009, Gaussian, Inc.),
 the Gaussian(R) 03 system (copyright 2003, Gaussian, Inc.),
 the Gaussian(R) 98 system (copyright 1998, Gaussian, Inc.),
 the Gaussian(R) 94 system (copyright 1995, Gaussian, Inc.),
 the Gaussian 92(TM) system (copyright 1992, Gaussian, Inc.),
 the Gaussian 90(TM) system (copyright 1990, Gaussian, Inc.),
 the Gaussian 88(TM) system (copyright 1988, Gaussian, Inc.),
 the Gaussian 86(TM) system (copyright 1986, Carnegie Mellon
 University), and the Gaussian 82(TM) system (copyright 1983,
 Carnegie Mellon University). Gaussian is a federally registered
 trademark of Gaussian, Inc.
  
 This software contains proprietary and confidential information,
 including trade secrets, belonging to Gaussian, Inc.
  
 This software is provided under written license and may be
 used, copied, transmitted, or stored only in accord with that
 written license.
  
 The following legend is applicable only to US Government
 contracts under FAR:
  
                    RESTRICTED RIGHTS LEGEND
  
 Use, reproduction and disclosure by the US Government is
 subject to restrictions as set forth in subparagraphs (a)
 and (c) of the Commercial Computer Software - Restricted
 Rights clause in FAR 52.227-19.
  
 Gaussian, Inc.
 340 Quinnipiac St., Bldg. 40, Wallingford CT 06492
  
  
 ---------------------------------------------------------------
 Warning -- This program may not be used in any manner that
 competes with the business of Gaussian, Inc. or will provide
 assistance to any competitor of Gaussian, Inc.  The licensee
 of this program is prohibited from giving any competitor of
 Gaussian, Inc. access to this program.  By using this program,
 the user acknowledges that Gaussian, Inc. is engaged in the
 business of creating and licensing software in the field of
 computational chemistry and represents and warrants to the
 licensee that it is not a competitor of Gaussian, Inc. and that
 it will not use this program in any manner prohibited above.
 ---------------------------------------------------------------
  

 Cite this work as:
 Gaussian 16, Revision B.01,
 M. J. Frisch, G. W. Trucks, H. B. Schlegel, G. E. Scuseria, 
 M. A. Robb, J. R. Cheeseman, G. Scalmani, V. Barone, 
 G. A. Petersson, H. Nakatsuji, X. Li, M. Caricato, A. V. Marenich, 
 J. Bloino, B. G. Janesko, R. Gomperts, B. Mennucci, H. P. Hratchian, 
 J. V. Ortiz, A. F. Izmaylov, J. L. Sonnenberg, D. Williams-Young, 
 F. Ding, F. Lipparini, F. Egidi, J. Goings, B. Peng, A. Petrone, 
 T. Henderson, D. Ranasinghe, V. G. Zakrzewski, J. Gao, N. Rega, 
 G. Zheng, W. Liang, M. Hada, M. Ehara, K. Toyota, R. Fukuda, 
 J. Hasegawa, M. Ishida, T. Nakajima, Y. Honda, O. Kitao, H. Nakai, 
 T. Vreven, K. Throssell, J. A. Montgomery, Jr., J. E. Peralta, 
 F. Ogliaro, M. J. Bearpark, J. J. Heyd, E. N. Brothers, K. N. Kudin, 
 V. N. Staroverov, T. A. Keith, R. Kobayashi, J. Normand, 
 K. Raghavachari, A. P. Rendell, J. C. Burant, S. S. Iyengar, 
 J. Tomasi, M. Cossi, J. M. Millam, M. Klene, C. Adamo, R. Cammi, 
 J. W. Ochterski, R. L. Martin, K. Morokuma, O. Farkas, 
 J. B. Foresman, and D. J. Fox, Gaussian, Inc., Wallingford CT, 2016.
 
 ******************************************
 Gaussian 16:  ES64L-G16RevB.01 20-Dec-2017
                 5-Nov-2022 
 ******************************************
 %chk=./calculation/no_transfer_pubchem_sampling_9_b3lyp/132272891.chk
 %nprocshared=7
 Will use up to    7 processors via shared memory.
 %mem=6GB
 -----------------------------
 #p b3lyp/6-31g(d) opt SCF=XQC
 -----------------------------
 1/18=20,19=15,26=3,38=1/1,3;
 2/9=110,12=2,17=6,18=5,40=1/2;
 3/5=1,6=6,7=1,11=2,25=1,30=1,71=1,74=-5/1,2,3;
 4//1;
 5/5=2,8=3,13=1,38=5/2,8;
 6/7=2,8=2,9=2,10=2,28=1/1;
 7//1,2,3,16;
 1/18=20,19=15,26=3/3(2);
 2/9=110/2;
 99//99;
 2/9=110/2;
 3/5=1,6=6,7=1,11=2,25=1,30=1,71=1,74=-5/1,2,3;
 4/5=5,16=3,69=1/1;
 5/5=2,8=3,13=1,38=5/2,8;
 7//1,2,3,16;
 1/18=20,19=15,26=3/3(-5);
 2/9=110/2;
 6/7=2,8=2,9=2,10=2,19=2,28=1/1;
 99/9=1/99;
 Leave Link    1 at Sat Nov  5 00:49:03 2022, MaxMem=   805306368 cpu:               1.0 elap:               0.2
 (Enter /home/wykgroup/appl/g16/l101.exe)
 ------------------------------
 Gaussian input prepared by ASE
 ------------------------------
 Symbolic Z-matrix:
 Charge =  0 Multiplicity = 1
 C                     12.37597  -3.87861  -1.35344 
 C                     12.31374  -5.26303  -1.29553 
 N                     11.1872  -5.92572  -1.09567 
 C                     10.07435  -5.23678  -0.93791 
 C                     10.01057  -3.84183  -0.96469 
 C                     8.74042  -3.13306  -0.77666 
 C                     8.42879  -2.01373  -1.54598 
 C                     7.23244  -1.34878  -1.37114 
 C                     6.30787  -1.78085  -0.42205 
 C                     5.03473  -1.07403  -0.23515 
 C                     3.8496   -1.7806   -0.03233 
 C                     2.65478  -1.11568   0.13976 
 C                     2.60718   0.27799   0.13036 
 C                     1.31872   0.95164   0.32426 
 C                     1.21147   2.25688   0.80349 
 C                    -0.07244   2.78761   0.93111 
 C                    -0.2698    4.17659   1.37757 
 C                     0.53395   5.14198   0.85328 
 C                     0.39573   6.51077   1.20015 
 C                     1.23898   7.47701   0.62644 
 C                     1.11219   8.80226   0.95062 
 C                     0.13007   9.19625   1.86041 
 C                    -0.70548   8.26794   2.43163 
 C                    -0.60046   6.90194   2.12428 
 C                    -1.45161   5.88876   2.70104 
 C                    -2.4518    6.1999    3.63691 
 C                    -3.25069   5.22918   4.18693 
 C                    -3.07552   3.89399   3.8276 
 C                    -2.10667   3.55514   2.91834 
 C                    -1.28769   4.53125   2.32789 
 N                    -1.14345   2.06359   0.62706 
 C                    -0.95386   0.81755   0.20285 
 C                    -2.14653   0.02187  -0.09241 
 C                    -3.41744   0.54732   0.13677 
 C                    -4.54042  -0.20532  -0.13619 
 C                    -4.42234  -1.49894  -0.6431 
 C                    -5.61643  -2.32343  -0.89862 
 C                    -5.73635  -3.52474  -0.27331 
 C                    -6.88959  -4.33986  -0.42071 
 C                    -6.9839   -5.56654   0.25724 
 C                    -8.10201  -6.35034   0.14176 
 C                    -9.16331  -5.92186  -0.65659 
 C                    -9.09122  -4.72703  -1.32978 
 C                    -7.95746  -3.90394  -1.2392 
 C                    -7.82685  -2.65168  -1.94505 
 C                    -8.82102  -2.17212  -2.81361 
 C                    -8.66674  -0.99674  -3.50516 
 C                    -7.49539  -0.25307  -3.36941 
 C                    -6.50754  -0.68906  -2.52435 
 C                    -6.65441  -1.87354  -1.78281 
 C                    -3.15011  -2.02357  -0.86081 
 C                    -2.02447  -1.2725   -0.59408 
 N                     0.22988   0.24209   0.03449 
 C                     3.78898   0.98633  -0.07601 
 C                     4.98231   0.31861  -0.26062 
 C                     6.62032  -2.90125   0.34608 
 C                     7.81648  -3.56664   0.1723 
 C                     11.20643  -3.15936  -1.1837 
 H                     13.31679  -3.37654  -1.51979 
 H                     13.20041  -5.87175  -1.41356 
 H                     9.17731  -5.82662  -0.79871 
 H                     9.12149  -1.67745  -2.30404 
 H                     6.99844  -0.49777  -1.99409 
 H                     3.86759  -2.86068  -0.03334 
 H                     1.73546  -1.66028   0.28896 
 H                     2.07565   2.82731   1.10096 
 H                     1.28711   4.88266   0.12146 
 H                     1.99257   7.1546   -0.07834 
 H                     1.76365   9.54075   0.50722 
 H                     0.0272    10.24084   2.11576 
 H                    -1.4531    8.61113   3.12884 
 H                    -2.60303   7.22342   3.94077 
 H                    -4.01283   5.49917   4.90341 
 H                    -3.69923   3.12968   4.26728 
 H                    -1.97313   2.52281   2.63774 
 H                    -3.50426   1.5488    0.52912 
 H                    -5.52358   0.19979   0.05753 
 H                    -4.9511   -3.8676    0.38665 
 H                    -6.15497  -5.88087   0.87571 
 H                    -8.16806  -7.29278   0.66528 
 H                    -10.0476  -6.53617  -0.74479 
 H                    -9.93135  -4.42777  -1.93627 
 H                    -9.72895  -2.73664  -2.95471 
 H                    -9.44873  -0.65273  -4.16635 
 H                    -7.36653   0.65959  -3.93239 
 H                    -5.59236  -0.12376  -2.43168 
 H                    -3.05365  -3.02431  -1.25734 
 H                    -1.03744  -1.66989  -0.77166 
 H                     3.77742   2.06563  -0.11297 
 H                     5.89207   0.88257  -0.40755 
 H                     5.92691  -3.23769   1.10295 
 H                     8.05102  -4.41909   0.79295 
 H                     11.2186  -2.07854  -1.19957 
 
 ITRead=  0  0  0  0  0  0  0  0  0  0  0  0  0  0  0  0  0  0  0  0
 ITRead=  0  0  0  0  0  0  0  0  0  0  0  0  0  0  0  0  0  0  0  0
 ITRead=  0  0  0  0  0  0  0  0  0  0  0  0  0  0  0  0  0  0  0  0
 ITRead=  0  0  0  0  0  0  0  0  0  0  0  0  0  0  0  0  0  0  0  0
 ITRead=  0  0  0  0  0  0  0  0  0  0  0  0  0
 MicOpt= -1 -1 -1 -1 -1 -1 -1 -1 -1 -1 -1 -1 -1 -1 -1 -1 -1 -1 -1 -1
 MicOpt= -1 -1 -1 -1 -1 -1 -1 -1 -1 -1 -1 -1 -1 -1 -1 -1 -1 -1 -1 -1
 MicOpt= -1 -1 -1 -1 -1 -1 -1 -1 -1 -1 -1 -1 -1 -1 -1 -1 -1 -1 -1 -1
 MicOpt= -1 -1 -1 -1 -1 -1 -1 -1 -1 -1 -1 -1 -1 -1 -1 -1 -1 -1 -1 -1
 MicOpt= -1 -1 -1 -1 -1 -1 -1 -1 -1 -1 -1 -1 -1
 NAtoms=     93 NQM=       93 NQMF=       0 NMMI=      0 NMMIF=      0
                NMic=       0 NMicF=      0.
                    Isotopes and Nuclear Properties:
 (Nuclear quadrupole moments (NQMom) in fm**2, nuclear magnetic moments (NMagM)
  in nuclear magnetons)

  Atom         1           2           3           4           5           6           7           8           9          10
 IAtWgt=          12          12          14          12          12          12          12          12          12          12
 AtmWgt=  12.0000000  12.0000000  14.0030740  12.0000000  12.0000000  12.0000000  12.0000000  12.0000000  12.0000000  12.0000000
 NucSpn=           0           0           2           0           0           0           0           0           0           0
 AtZEff=  -0.0000000  -0.0000000  -0.0000000  -0.0000000  -0.0000000  -0.0000000  -0.0000000  -0.0000000  -0.0000000  -0.0000000
 NQMom=    0.0000000   0.0000000   2.0440000   0.0000000   0.0000000   0.0000000   0.0000000   0.0000000   0.0000000   0.0000000
 NMagM=    0.0000000   0.0000000   0.4037610   0.0000000   0.0000000   0.0000000   0.0000000   0.0000000   0.0000000   0.0000000
 AtZNuc=   6.0000000   6.0000000   7.0000000   6.0000000   6.0000000   6.0000000   6.0000000   6.0000000   6.0000000   6.0000000

  Atom        11          12          13          14          15          16          17          18          19          20
 IAtWgt=          12          12          12          12          12          12          12          12          12          12
 AtmWgt=  12.0000000  12.0000000  12.0000000  12.0000000  12.0000000  12.0000000  12.0000000  12.0000000  12.0000000  12.0000000
 NucSpn=           0           0           0           0           0           0           0           0           0           0
 AtZEff=  -0.0000000  -0.0000000  -0.0000000  -0.0000000  -0.0000000  -0.0000000  -0.0000000  -0.0000000  -0.0000000  -0.0000000
 NQMom=    0.0000000   0.0000000   0.0000000   0.0000000   0.0000000   0.0000000   0.0000000   0.0000000   0.0000000   0.0000000
 NMagM=    0.0000000   0.0000000   0.0000000   0.0000000   0.0000000   0.0000000   0.0000000   0.0000000   0.0000000   0.0000000
 AtZNuc=   6.0000000   6.0000000   6.0000000   6.0000000   6.0000000   6.0000000   6.0000000   6.0000000   6.0000000   6.0000000

  Atom        21          22          23          24          25          26          27          28          29          30
 IAtWgt=          12          12          12          12          12          12          12          12          12          12
 AtmWgt=  12.0000000  12.0000000  12.0000000  12.0000000  12.0000000  12.0000000  12.0000000  12.0000000  12.0000000  12.0000000
 NucSpn=           0           0           0           0           0           0           0           0           0           0
 AtZEff=  -0.0000000  -0.0000000  -0.0000000  -0.0000000  -0.0000000  -0.0000000  -0.0000000  -0.0000000  -0.0000000  -0.0000000
 NQMom=    0.0000000   0.0000000   0.0000000   0.0000000   0.0000000   0.0000000   0.0000000   0.0000000   0.0000000   0.0000000
 NMagM=    0.0000000   0.0000000   0.0000000   0.0000000   0.0000000   0.0000000   0.0000000   0.0000000   0.0000000   0.0000000
 AtZNuc=   6.0000000   6.0000000   6.0000000   6.0000000   6.0000000   6.0000000   6.0000000   6.0000000   6.0000000   6.0000000

  Atom        31          32          33          34          35          36          37          38          39          40
 IAtWgt=          14          12          12          12          12          12          12          12          12          12
 AtmWgt=  14.0030740  12.0000000  12.0000000  12.0000000  12.0000000  12.0000000  12.0000000  12.0000000  12.0000000  12.0000000
 NucSpn=           2           0           0           0           0           0           0           0           0           0
 AtZEff=  -0.0000000  -0.0000000  -0.0000000  -0.0000000  -0.0000000  -0.0000000  -0.0000000  -0.0000000  -0.0000000  -0.0000000
 NQMom=    2.0440000   0.0000000   0.0000000   0.0000000   0.0000000   0.0000000   0.0000000   0.0000000   0.0000000   0.0000000
 NMagM=    0.4037610   0.0000000   0.0000000   0.0000000   0.0000000   0.0000000   0.0000000   0.0000000   0.0000000   0.0000000
 AtZNuc=   7.0000000   6.0000000   6.0000000   6.0000000   6.0000000   6.0000000   6.0000000   6.0000000   6.0000000   6.0000000

  Atom        41          42          43          44          45          46          47          48          49          50
 IAtWgt=          12          12          12          12          12          12          12          12          12          12
 AtmWgt=  12.0000000  12.0000000  12.0000000  12.0000000  12.0000000  12.0000000  12.0000000  12.0000000  12.0000000  12.0000000
 NucSpn=           0           0           0           0           0           0           0           0           0           0
 AtZEff=  -0.0000000  -0.0000000  -0.0000000  -0.0000000  -0.0000000  -0.0000000  -0.0000000  -0.0000000  -0.0000000  -0.0000000
 NQMom=    0.0000000   0.0000000   0.0000000   0.0000000   0.0000000   0.0000000   0.0000000   0.0000000   0.0000000   0.0000000
 NMagM=    0.0000000   0.0000000   0.0000000   0.0000000   0.0000000   0.0000000   0.0000000   0.0000000   0.0000000   0.0000000
 AtZNuc=   6.0000000   6.0000000   6.0000000   6.0000000   6.0000000   6.0000000   6.0000000   6.0000000   6.0000000   6.0000000

  Atom        51          52          53          54          55          56          57          58          59          60
 IAtWgt=          12          12          14          12          12          12          12          12           1           1
 AtmWgt=  12.0000000  12.0000000  14.0030740  12.0000000  12.0000000  12.0000000  12.0000000  12.0000000   1.0078250   1.0078250
 NucSpn=           0           0           2           0           0           0           0           0           1           1
 AtZEff=  -0.0000000  -0.0000000  -0.0000000  -0.0000000  -0.0000000  -0.0000000  -0.0000000  -0.0000000  -0.0000000  -0.0000000
 NQMom=    0.0000000   0.0000000   2.0440000   0.0000000   0.0000000   0.0000000   0.0000000   0.0000000   0.0000000   0.0000000
 NMagM=    0.0000000   0.0000000   0.4037610   0.0000000   0.0000000   0.0000000   0.0000000   0.0000000   2.7928460   2.7928460
 AtZNuc=   6.0000000   6.0000000   7.0000000   6.0000000   6.0000000   6.0000000   6.0000000   6.0000000   1.0000000   1.0000000

  Atom        61          62          63          64          65          66          67          68          69          70
 IAtWgt=           1           1           1           1           1           1           1           1           1           1
 AtmWgt=   1.0078250   1.0078250   1.0078250   1.0078250   1.0078250   1.0078250   1.0078250   1.0078250   1.0078250   1.0078250
 NucSpn=           1           1           1           1           1           1           1           1           1           1
 AtZEff=  -0.0000000  -0.0000000  -0.0000000  -0.0000000  -0.0000000  -0.0000000  -0.0000000  -0.0000000  -0.0000000  -0.0000000
 NQMom=    0.0000000   0.0000000   0.0000000   0.0000000   0.0000000   0.0000000   0.0000000   0.0000000   0.0000000   0.0000000
 NMagM=    2.7928460   2.7928460   2.7928460   2.7928460   2.7928460   2.7928460   2.7928460   2.7928460   2.7928460   2.7928460
 AtZNuc=   1.0000000   1.0000000   1.0000000   1.0000000   1.0000000   1.0000000   1.0000000   1.0000000   1.0000000   1.0000000

  Atom        71          72          73          74          75          76          77          78          79          80
 IAtWgt=           1           1           1           1           1           1           1           1           1           1
 AtmWgt=   1.0078250   1.0078250   1.0078250   1.0078250   1.0078250   1.0078250   1.0078250   1.0078250   1.0078250   1.0078250
 NucSpn=           1           1           1           1           1           1           1           1           1           1
 AtZEff=  -0.0000000  -0.0000000  -0.0000000  -0.0000000  -0.0000000  -0.0000000  -0.0000000  -0.0000000  -0.0000000  -0.0000000
 NQMom=    0.0000000   0.0000000   0.0000000   0.0000000   0.0000000   0.0000000   0.0000000   0.0000000   0.0000000   0.0000000
 NMagM=    2.7928460   2.7928460   2.7928460   2.7928460   2.7928460   2.7928460   2.7928460   2.7928460   2.7928460   2.7928460
 AtZNuc=   1.0000000   1.0000000   1.0000000   1.0000000   1.0000000   1.0000000   1.0000000   1.0000000   1.0000000   1.0000000

  Atom        81          82          83          84          85          86          87          88          89          90
 IAtWgt=           1           1           1           1           1           1           1           1           1           1
 AtmWgt=   1.0078250   1.0078250   1.0078250   1.0078250   1.0078250   1.0078250   1.0078250   1.0078250   1.0078250   1.0078250
 NucSpn=           1           1           1           1           1           1           1           1           1           1
 AtZEff=  -0.0000000  -0.0000000  -0.0000000  -0.0000000  -0.0000000  -0.0000000  -0.0000000  -0.0000000  -0.0000000  -0.0000000
 NQMom=    0.0000000   0.0000000   0.0000000   0.0000000   0.0000000   0.0000000   0.0000000   0.0000000   0.0000000   0.0000000
 NMagM=    2.7928460   2.7928460   2.7928460   2.7928460   2.7928460   2.7928460   2.7928460   2.7928460   2.7928460   2.7928460
 AtZNuc=   1.0000000   1.0000000   1.0000000   1.0000000   1.0000000   1.0000000   1.0000000   1.0000000   1.0000000   1.0000000

  Atom        91          92          93
 IAtWgt=           1           1           1
 AtmWgt=   1.0078250   1.0078250   1.0078250
 NucSpn=           1           1           1
 AtZEff=  -0.0000000  -0.0000000  -0.0000000
 NQMom=    0.0000000   0.0000000   0.0000000
 NMagM=    2.7928460   2.7928460   2.7928460
 AtZNuc=   1.0000000   1.0000000   1.0000000
 Leave Link  101 at Sat Nov  5 00:49:03 2022, MaxMem=   805306368 cpu:               1.8 elap:               0.3
 (Enter /home/wykgroup/appl/g16/l103.exe)

 GradGradGradGradGradGradGradGradGradGradGradGradGradGradGradGradGradGrad
 Berny optimization.
 Initialization pass.
                           ----------------------------
                           !    Initial Parameters    !
                           ! (Angstroms and Degrees)  !
 --------------------------                            --------------------------
 ! Name  Definition              Value          Derivative Info.                !
 --------------------------------------------------------------------------------
 ! R1    R(1,2)                  1.387          estimate D2E/DX2                !
 ! R2    R(1,58)                 1.3835         estimate D2E/DX2                !
 ! R3    R(1,59)                 1.0793         estimate D2E/DX2                !
 ! R4    R(2,3)                  1.3222         estimate D2E/DX2                !
 ! R5    R(2,60)                 1.082          estimate D2E/DX2                !
 ! R6    R(3,4)                  1.3183         estimate D2E/DX2                !
 ! R7    R(4,5)                  1.3967         estimate D2E/DX2                !
 ! R8    R(4,61)                 1.0826         estimate D2E/DX2                !
 ! R9    R(5,6)                  1.4666         estimate D2E/DX2                !
 ! R10   R(5,58)                 1.3942         estimate D2E/DX2                !
 ! R11   R(6,7)                  1.3935         estimate D2E/DX2                !
 ! R12   R(6,57)                 1.3936         estimate D2E/DX2                !
 ! R13   R(7,8)                  1.3798         estimate D2E/DX2                !
 ! R14   R(7,62)                 1.0805         estimate D2E/DX2                !
 ! R15   R(8,9)                  1.3937         estimate D2E/DX2                !
 ! R16   R(8,63)                 1.0803         estimate D2E/DX2                !
 ! R17   R(9,10)                 1.4681         estimate D2E/DX2                !
 ! R18   R(9,56)                 1.3939         estimate D2E/DX2                !
 ! R19   R(10,11)                1.3946         estimate D2E/DX2                !
 ! R20   R(10,55)                1.3939         estimate D2E/DX2                !
 ! R21   R(11,12)                1.3782         estimate D2E/DX2                !
 ! R22   R(11,64)                1.0802         estimate D2E/DX2                !
 ! R23   R(12,13)                1.3945         estimate D2E/DX2                !
 ! R24   R(12,65)                1.0789         estimate D2E/DX2                !
 ! R25   R(13,14)                1.4668         estimate D2E/DX2                !
 ! R26   R(13,54)                1.3932         estimate D2E/DX2                !
 ! R27   R(14,15)                1.3946         estimate D2E/DX2                !
 ! R28   R(14,53)                1.3315         estimate D2E/DX2                !
 ! R29   R(15,16)                1.3951         estimate D2E/DX2                !
 ! R30   R(15,66)                1.0773         estimate D2E/DX2                !
 ! R31   R(16,17)                1.4723         estimate D2E/DX2                !
 ! R32   R(16,31)                1.328          estimate D2E/DX2                !
 ! R33   R(17,18)                1.3612         estimate D2E/DX2                !
 ! R34   R(17,30)                1.437          estimate D2E/DX2                !
 ! R35   R(18,19)                1.4188         estimate D2E/DX2                !
 ! R36   R(18,67)                1.0817         estimate D2E/DX2                !
 ! R37   R(19,20)                1.4049         estimate D2E/DX2                !
 ! R38   R(19,24)                1.414          estimate D2E/DX2                !
 ! R39   R(20,21)                1.3702         estimate D2E/DX2                !
 ! R40   R(20,68)                1.081          estimate D2E/DX2                !
 ! R41   R(21,22)                1.3955         estimate D2E/DX2                !
 ! R42   R(21,69)                1.08           estimate D2E/DX2                !
 ! R43   R(22,23)                1.3734         estimate D2E/DX2                !
 ! R44   R(22,70)                1.0803         estimate D2E/DX2                !
 ! R45   R(23,24)                1.4041         estimate D2E/DX2                !
 ! R46   R(23,71)                1.0783         estimate D2E/DX2                !
 ! R47   R(24,25)                1.4435         estimate D2E/DX2                !
 ! R48   R(25,26)                1.4046         estimate D2E/DX2                !
 ! R49   R(25,30)                1.4174         estimate D2E/DX2                !
 ! R50   R(26,27)                1.3722         estimate D2E/DX2                !
 ! R51   R(26,72)                1.0783         estimate D2E/DX2                !
 ! R52   R(27,28)                1.3937         estimate D2E/DX2                !
 ! R53   R(27,73)                1.0803         estimate D2E/DX2                !
 ! R54   R(28,29)                1.3712         estimate D2E/DX2                !
 ! R55   R(28,74)                1.08           estimate D2E/DX2                !
 ! R56   R(29,30)                1.4043         estimate D2E/DX2                !
 ! R57   R(29,75)                1.0781         estimate D2E/DX2                !
 ! R58   R(31,32)                1.3299         estimate D2E/DX2                !
 ! R59   R(32,33)                1.4638         estimate D2E/DX2                !
 ! R60   R(32,53)                1.3269         estimate D2E/DX2                !
 ! R61   R(33,34)                1.3942         estimate D2E/DX2                !
 ! R62   R(33,52)                1.3935         estimate D2E/DX2                !
 ! R63   R(34,35)                1.3791         estimate D2E/DX2                !
 ! R64   R(34,76)                1.0791         estimate D2E/DX2                !
 ! R65   R(35,36)                1.3944         estimate D2E/DX2                !
 ! R66   R(35,77)                1.0809         estimate D2E/DX2                !
 ! R67   R(36,37)                1.4734         estimate D2E/DX2                !
 ! R68   R(36,51)                1.3933         estimate D2E/DX2                !
 ! R69   R(37,38)                1.3596         estimate D2E/DX2                !
 ! R70   R(37,50)                1.4358         estimate D2E/DX2                !
 ! R71   R(38,39)                1.4199         estimate D2E/DX2                !
 ! R72   R(38,78)                1.0815         estimate D2E/DX2                !
 ! R73   R(39,40)                1.4047         estimate D2E/DX2                !
 ! R74   R(39,44)                1.4143         estimate D2E/DX2                !
 ! R75   R(40,41)                1.3703         estimate D2E/DX2                !
 ! R76   R(40,79)                1.0809         estimate D2E/DX2                !
 ! R77   R(41,42)                1.3955         estimate D2E/DX2                !
 ! R78   R(41,80)                1.0801         estimate D2E/DX2                !
 ! R79   R(42,43)                1.3733         estimate D2E/DX2                !
 ! R80   R(42,81)                1.0803         estimate D2E/DX2                !
 ! R81   R(43,44)                1.404          estimate D2E/DX2                !
 ! R82   R(43,82)                1.0785         estimate D2E/DX2                !
 ! R83   R(44,45)                1.4434         estimate D2E/DX2                !
 ! R84   R(45,46)                1.4046         estimate D2E/DX2                !
 ! R85   R(45,50)                1.4165         estimate D2E/DX2                !
 ! R86   R(46,47)                1.3724         estimate D2E/DX2                !
 ! R87   R(46,83)                1.0784         estimate D2E/DX2                !
 ! R88   R(47,48)                1.3941         estimate D2E/DX2                !
 ! R89   R(47,84)                1.0803         estimate D2E/DX2                !
 ! R90   R(48,49)                1.3711         estimate D2E/DX2                !
 ! R91   R(48,85)                1.08           estimate D2E/DX2                !
 ! R92   R(49,50)                1.4051         estimate D2E/DX2                !
 ! R93   R(49,86)                1.0797         estimate D2E/DX2                !
 ! R94   R(51,52)                1.3792         estimate D2E/DX2                !
 ! R95   R(51,87)                1.0807         estimate D2E/DX2                !
 ! R96   R(52,88)                1.0788         estimate D2E/DX2                !
 ! R97   R(54,55)                1.3798         estimate D2E/DX2                !
 ! R98   R(54,89)                1.08           estimate D2E/DX2                !
 ! R99   R(55,90)                1.0804         estimate D2E/DX2                !
 ! R100  R(56,57)                1.3798         estimate D2E/DX2                !
 ! R101  R(56,91)                1.0802         estimate D2E/DX2                !
 ! R102  R(57,92)                1.0802         estimate D2E/DX2                !
 ! R103  R(58,93)                1.081          estimate D2E/DX2                !
 ! A1    A(2,1,58)             118.4154         estimate D2E/DX2                !
 ! A2    A(2,1,59)             120.6542         estimate D2E/DX2                !
 ! A3    A(58,1,59)            120.9288         estimate D2E/DX2                !
 ! A4    A(1,2,3)              123.0108         estimate D2E/DX2                !
 ! A5    A(1,2,60)             121.3473         estimate D2E/DX2                !
 ! A6    A(3,2,60)             115.6419         estimate D2E/DX2                !
 ! A7    A(2,3,4)              118.3853         estimate D2E/DX2                !
 ! A8    A(3,4,5)              123.9314         estimate D2E/DX2                !
 ! A9    A(3,4,61)             115.4752         estimate D2E/DX2                !
 ! A10   A(5,4,61)             120.585          estimate D2E/DX2                !
 ! A11   A(4,5,6)              121.3159         estimate D2E/DX2                !
 ! A12   A(4,5,58)             116.9202         estimate D2E/DX2                !
 ! A13   A(6,5,58)             121.7633         estimate D2E/DX2                !
 ! A14   A(5,6,7)              120.7355         estimate D2E/DX2                !
 ! A15   A(5,6,57)             120.7377         estimate D2E/DX2                !
 ! A16   A(7,6,57)             118.5265         estimate D2E/DX2                !
 ! A17   A(6,7,8)              120.7323         estimate D2E/DX2                !
 ! A18   A(6,7,62)             119.5988         estimate D2E/DX2                !
 ! A19   A(8,7,62)             119.6522         estimate D2E/DX2                !
 ! A20   A(7,8,9)              120.802          estimate D2E/DX2                !
 ! A21   A(7,8,63)             119.6274         estimate D2E/DX2                !
 ! A22   A(9,8,63)             119.5528         estimate D2E/DX2                !
 ! A23   A(8,9,10)             120.8466         estimate D2E/DX2                !
 ! A24   A(8,9,56)             118.4095         estimate D2E/DX2                !
 ! A25   A(10,9,56)            120.7439         estimate D2E/DX2                !
 ! A26   A(9,10,11)            120.766          estimate D2E/DX2                !
 ! A27   A(9,10,55)            120.7508         estimate D2E/DX2                !
 ! A28   A(11,10,55)           118.4829         estimate D2E/DX2                !
 ! A29   A(10,11,12)           120.695          estimate D2E/DX2                !
 ! A30   A(10,11,64)           119.4909         estimate D2E/DX2                !
 ! A31   A(12,11,64)           119.799          estimate D2E/DX2                !
 ! A32   A(11,12,13)           120.7255         estimate D2E/DX2                !
 ! A33   A(11,12,65)           120.828          estimate D2E/DX2                !
 ! A34   A(13,12,65)           118.446          estimate D2E/DX2                !
 ! A35   A(12,13,14)           119.2141         estimate D2E/DX2                !
 ! A36   A(12,13,54)           118.6962         estimate D2E/DX2                !
 ! A37   A(14,13,54)           122.0871         estimate D2E/DX2                !
 ! A38   A(13,14,15)           122.8767         estimate D2E/DX2                !
 ! A39   A(13,14,53)           116.4106         estimate D2E/DX2                !
 ! A40   A(15,14,53)           120.7062         estimate D2E/DX2                !
 ! A41   A(14,15,16)           117.2749         estimate D2E/DX2                !
 ! A42   A(14,15,66)           121.9207         estimate D2E/DX2                !
 ! A43   A(16,15,66)           120.7649         estimate D2E/DX2                !
 ! A44   A(15,16,17)           120.6637         estimate D2E/DX2                !
 ! A45   A(15,16,31)           120.9196         estimate D2E/DX2                !
 ! A46   A(17,16,31)           118.4021         estimate D2E/DX2                !
 ! A47   A(16,17,18)           118.2391         estimate D2E/DX2                !
 ! A48   A(16,17,30)           121.8932         estimate D2E/DX2                !
 ! A49   A(18,17,30)           119.8634         estimate D2E/DX2                !
 ! A50   A(17,18,19)           122.1765         estimate D2E/DX2                !
 ! A51   A(17,18,67)           120.112          estimate D2E/DX2                !
 ! A52   A(19,18,67)           117.6792         estimate D2E/DX2                !
 ! A53   A(18,19,20)           120.3442         estimate D2E/DX2                !
 ! A54   A(18,19,24)           119.6896         estimate D2E/DX2                !
 ! A55   A(20,19,24)           119.9656         estimate D2E/DX2                !
 ! A56   A(19,20,21)           120.866          estimate D2E/DX2                !
 ! A57   A(19,20,68)           118.6548         estimate D2E/DX2                !
 ! A58   A(21,20,68)           120.4792         estimate D2E/DX2                !
 ! A59   A(20,21,22)           119.4999         estimate D2E/DX2                !
 ! A60   A(20,21,69)           120.5579         estimate D2E/DX2                !
 ! A61   A(22,21,69)           119.9422         estimate D2E/DX2                !
 ! A62   A(21,22,23)           120.5627         estimate D2E/DX2                !
 ! A63   A(21,22,70)           119.6119         estimate D2E/DX2                !
 ! A64   A(23,22,70)           119.8254         estimate D2E/DX2                !
 ! A65   A(22,23,24)           121.4026         estimate D2E/DX2                !
 ! A66   A(22,23,71)           118.3984         estimate D2E/DX2                !
 ! A67   A(24,23,71)           120.1991         estimate D2E/DX2                !
 ! A68   A(19,24,23)           117.7029         estimate D2E/DX2                !
 ! A69   A(19,24,25)           118.8407         estimate D2E/DX2                !
 ! A70   A(23,24,25)           123.4564         estimate D2E/DX2                !
 ! A71   A(24,25,26)           122.0457         estimate D2E/DX2                !
 ! A72   A(24,25,30)           119.9253         estimate D2E/DX2                !
 ! A73   A(26,25,30)           118.0287         estimate D2E/DX2                !
 ! A74   A(25,26,27)           121.6615         estimate D2E/DX2                !
 ! A75   A(25,26,72)           119.8587         estimate D2E/DX2                !
 ! A76   A(27,26,72)           118.4796         estimate D2E/DX2                !
 ! A77   A(26,27,28)           120.0774         estimate D2E/DX2                !
 ! A78   A(26,27,73)           119.9836         estimate D2E/DX2                !
 ! A79   A(28,27,73)           119.9382         estimate D2E/DX2                !
 ! A80   A(27,28,29)           119.7683         estimate D2E/DX2                !
 ! A81   A(27,28,74)           120.0265         estimate D2E/DX2                !
 ! A82   A(29,28,74)           120.2049         estimate D2E/DX2                !
 ! A83   A(28,29,30)           121.2714         estimate D2E/DX2                !
 ! A84   A(28,29,75)           119.7845         estimate D2E/DX2                !
 ! A85   A(30,29,75)           118.9401         estimate D2E/DX2                !
 ! A86   A(17,30,25)           119.4988         estimate D2E/DX2                !
 ! A87   A(17,30,29)           121.3053         estimate D2E/DX2                !
 ! A88   A(25,30,29)           119.1813         estimate D2E/DX2                !
 ! A89   A(16,31,32)           117.9609         estimate D2E/DX2                !
 ! A90   A(31,32,33)           117.2254         estimate D2E/DX2                !
 ! A91   A(31,32,53)           125.0296         estimate D2E/DX2                !
 ! A92   A(33,32,53)           117.7441         estimate D2E/DX2                !
 ! A93   A(32,33,34)           120.3109         estimate D2E/DX2                !
 ! A94   A(32,33,52)           120.4065         estimate D2E/DX2                !
 ! A95   A(34,33,52)           119.2801         estimate D2E/DX2                !
 ! A96   A(33,34,35)           120.267          estimate D2E/DX2                !
 ! A97   A(33,34,76)           118.8739         estimate D2E/DX2                !
 ! A98   A(35,34,76)           120.8592         estimate D2E/DX2                !
 ! A99   A(34,35,36)           120.6161         estimate D2E/DX2                !
 ! A100  A(34,35,77)           120.0426         estimate D2E/DX2                !
 ! A101  A(36,35,77)           119.3338         estimate D2E/DX2                !
 ! A102  A(35,36,37)           120.9009         estimate D2E/DX2                !
 ! A103  A(35,36,51)           118.9118         estimate D2E/DX2                !
 ! A104  A(37,36,51)           120.1464         estimate D2E/DX2                !
 ! A105  A(36,37,38)           119.0883         estimate D2E/DX2                !
 ! A106  A(36,37,50)           121.1531         estimate D2E/DX2                !
 ! A107  A(38,37,50)           119.7559         estimate D2E/DX2                !
 ! A108  A(37,38,39)           122.0814         estimate D2E/DX2                !
 ! A109  A(37,38,78)           119.7819         estimate D2E/DX2                !
 ! A110  A(39,38,78)           118.1035         estimate D2E/DX2                !
 ! A111  A(38,39,40)           120.3799         estimate D2E/DX2                !
 ! A112  A(38,39,44)           119.761          estimate D2E/DX2                !
 ! A113  A(40,39,44)           119.8522         estimate D2E/DX2                !
 ! A114  A(39,40,41)           120.9033         estimate D2E/DX2                !
 ! A115  A(39,40,79)           118.5935         estimate D2E/DX2                !
 ! A116  A(41,40,79)           120.5031         estimate D2E/DX2                !
 ! A117  A(40,41,42)           119.5462         estimate D2E/DX2                !
 ! A118  A(40,41,80)           120.5393         estimate D2E/DX2                !
 ! A119  A(42,41,80)           119.9143         estimate D2E/DX2                !
 ! A120  A(41,42,43)           120.5082         estimate D2E/DX2                !
 ! A121  A(41,42,81)           119.646          estimate D2E/DX2                !
 ! A122  A(43,42,81)           119.8458         estimate D2E/DX2                !
 ! A123  A(42,43,44)           121.3888         estimate D2E/DX2                !
 ! A124  A(42,43,82)           118.4355         estimate D2E/DX2                !
 ! A125  A(44,43,82)           120.1756         estimate D2E/DX2                !
 ! A126  A(39,44,43)           117.7984         estimate D2E/DX2                !
 ! A127  A(39,44,45)           118.8214         estimate D2E/DX2                !
 ! A128  A(43,44,45)           123.3777         estimate D2E/DX2                !
 ! A129  A(44,45,46)           122.315          estimate D2E/DX2                !
 ! A130  A(44,45,50)           119.702          estimate D2E/DX2                !
 ! A131  A(46,45,50)           117.9776         estimate D2E/DX2                !
 ! A132  A(45,46,47)           121.631          estimate D2E/DX2                !
 ! A133  A(45,46,83)           119.8748         estimate D2E/DX2                !
 ! A134  A(47,46,83)           118.4924         estimate D2E/DX2                !
 ! A135  A(46,47,48)           120.1478         estimate D2E/DX2                !
 ! A136  A(46,47,84)           119.9834         estimate D2E/DX2                !
 ! A137  A(48,47,84)           119.8639         estimate D2E/DX2                !
 ! A138  A(47,48,49)           119.718          estimate D2E/DX2                !
 ! A139  A(47,48,85)           120.0168         estimate D2E/DX2                !
 ! A140  A(49,48,85)           120.2644         estimate D2E/DX2                !
 ! A141  A(48,49,50)           121.197          estimate D2E/DX2                !
 ! A142  A(48,49,86)           119.8085         estimate D2E/DX2                !
 ! A143  A(50,49,86)           118.9898         estimate D2E/DX2                !
 ! A144  A(37,50,45)           119.7861         estimate D2E/DX2                !
 ! A145  A(37,50,49)           120.9002         estimate D2E/DX2                !
 ! A146  A(45,50,49)           119.2846         estimate D2E/DX2                !
 ! A147  A(36,51,52)           120.6608         estimate D2E/DX2                !
 ! A148  A(36,51,87)           119.1763         estimate D2E/DX2                !
 ! A149  A(52,51,87)           120.156          estimate D2E/DX2                !
 ! A150  A(33,52,51)           120.2607         estimate D2E/DX2                !
 ! A151  A(33,52,88)           118.788          estimate D2E/DX2                !
 ! A152  A(51,52,88)           120.9509         estimate D2E/DX2                !
 ! A153  A(14,53,32)           118.0849         estimate D2E/DX2                !
 ! A154  A(13,54,55)           120.4904         estimate D2E/DX2                !
 ! A155  A(13,54,89)           120.2708         estimate D2E/DX2                !
 ! A156  A(55,54,89)           119.2275         estimate D2E/DX2                !
 ! A157  A(10,55,54)           120.9019         estimate D2E/DX2                !
 ! A158  A(10,55,90)           119.4944         estimate D2E/DX2                !
 ! A159  A(54,55,90)           119.5926         estimate D2E/DX2                !
 ! A160  A(9,56,57)            120.8335         estimate D2E/DX2                !
 ! A161  A(9,56,91)            119.5097         estimate D2E/DX2                !
 ! A162  A(57,56,91)           119.6403         estimate D2E/DX2                !
 ! A163  A(6,57,56)            120.6961         estimate D2E/DX2                !
 ! A164  A(6,57,92)            119.5249         estimate D2E/DX2                !
 ! A165  A(56,57,92)           119.7638         estimate D2E/DX2                !
 ! A166  A(1,58,5)             119.3338         estimate D2E/DX2                !
 ! A167  A(1,58,93)            120.5624         estimate D2E/DX2                !
 ! A168  A(5,58,93)            120.0917         estimate D2E/DX2                !
 ! D1    D(58,1,2,3)             0.5197         estimate D2E/DX2                !
 ! D2    D(58,1,2,60)         -179.4822         estimate D2E/DX2                !
 ! D3    D(59,1,2,3)          -179.9247         estimate D2E/DX2                !
 ! D4    D(59,1,2,60)            0.0734         estimate D2E/DX2                !
 ! D5    D(2,1,58,5)            -0.1509         estimate D2E/DX2                !
 ! D6    D(2,1,58,93)          178.5866         estimate D2E/DX2                !
 ! D7    D(59,1,58,5)         -179.7052         estimate D2E/DX2                !
 ! D8    D(59,1,58,93)          -0.9677         estimate D2E/DX2                !
 ! D9    D(1,2,3,4)             -0.344          estimate D2E/DX2                !
 ! D10   D(60,2,3,4)           179.6577         estimate D2E/DX2                !
 ! D11   D(2,3,4,5)             -0.2046         estimate D2E/DX2                !
 ! D12   D(2,3,4,61)           178.74           estimate D2E/DX2                !
 ! D13   D(3,4,5,6)           -179.7331         estimate D2E/DX2                !
 ! D14   D(3,4,5,58)             0.5407         estimate D2E/DX2                !
 ! D15   D(61,4,5,6)             1.3737         estimate D2E/DX2                !
 ! D16   D(61,4,5,58)         -178.3526         estimate D2E/DX2                !
 ! D17   D(4,5,6,7)           -139.3857         estimate D2E/DX2                !
 ! D18   D(4,5,6,57)            40.4029         estimate D2E/DX2                !
 ! D19   D(58,5,6,7)            40.3272         estimate D2E/DX2                !
 ! D20   D(58,5,6,57)         -139.8841         estimate D2E/DX2                !
 ! D21   D(4,5,58,1)            -0.3372         estimate D2E/DX2                !
 ! D22   D(4,5,58,93)         -179.0808         estimate D2E/DX2                !
 ! D23   D(6,5,58,1)           179.9378         estimate D2E/DX2                !
 ! D24   D(6,5,58,93)            1.1942         estimate D2E/DX2                !
 ! D25   D(5,6,7,8)            179.8502         estimate D2E/DX2                !
 ! D26   D(5,6,7,62)             1.3374         estimate D2E/DX2                !
 ! D27   D(57,6,7,8)             0.0569         estimate D2E/DX2                !
 ! D28   D(57,6,7,62)         -178.4558         estimate D2E/DX2                !
 ! D29   D(5,6,57,56)         -179.8318         estimate D2E/DX2                !
 ! D30   D(5,6,57,92)            1.5869         estimate D2E/DX2                !
 ! D31   D(7,6,57,56)           -0.0385         estimate D2E/DX2                !
 ! D32   D(7,6,57,92)         -178.6199         estimate D2E/DX2                !
 ! D33   D(6,7,8,9)             -0.0241         estimate D2E/DX2                !
 ! D34   D(6,7,8,63)          -178.4864         estimate D2E/DX2                !
 ! D35   D(62,7,8,9)           178.4879         estimate D2E/DX2                !
 ! D36   D(62,7,8,63)            0.0256         estimate D2E/DX2                !
 ! D37   D(7,8,9,10)           179.9956         estimate D2E/DX2                !
 ! D38   D(7,8,9,56)            -0.0275         estimate D2E/DX2                !
 ! D39   D(63,8,9,10)           -1.541          estimate D2E/DX2                !
 ! D40   D(63,8,9,56)          178.4359         estimate D2E/DX2                !
 ! D41   D(8,9,10,11)          139.0985         estimate D2E/DX2                !
 ! D42   D(8,9,10,55)          -40.6956         estimate D2E/DX2                !
 ! D43   D(56,9,10,11)         -40.8778         estimate D2E/DX2                !
 ! D44   D(56,9,10,55)         139.3281         estimate D2E/DX2                !
 ! D45   D(8,9,56,57)            0.0459         estimate D2E/DX2                !
 ! D46   D(8,9,56,91)          178.5626         estimate D2E/DX2                !
 ! D47   D(10,9,56,57)        -179.9772         estimate D2E/DX2                !
 ! D48   D(10,9,56,91)          -1.4605         estimate D2E/DX2                !
 ! D49   D(9,10,11,12)        -179.8434         estimate D2E/DX2                !
 ! D50   D(9,10,11,64)          -1.2622         estimate D2E/DX2                !
 ! D51   D(55,10,11,12)         -0.0448         estimate D2E/DX2                !
 ! D52   D(55,10,11,64)        178.5364         estimate D2E/DX2                !
 ! D53   D(9,10,55,54)        -179.5438         estimate D2E/DX2                !
 ! D54   D(9,10,55,90)          -0.7596         estimate D2E/DX2                !
 ! D55   D(11,10,55,54)          0.6575         estimate D2E/DX2                !
 ! D56   D(11,10,55,90)        179.4417         estimate D2E/DX2                !
 ! D57   D(10,11,12,13)         -0.7496         estimate D2E/DX2                !
 ! D58   D(10,11,12,65)        179.509          estimate D2E/DX2                !
 ! D59   D(64,11,12,13)       -179.3264         estimate D2E/DX2                !
 ! D60   D(64,11,12,65)          0.9321         estimate D2E/DX2                !
 ! D61   D(11,12,13,14)       -179.6545         estimate D2E/DX2                !
 ! D62   D(11,12,13,54)          0.9225         estimate D2E/DX2                !
 ! D63   D(65,12,13,14)          0.093          estimate D2E/DX2                !
 ! D64   D(65,12,13,54)       -179.3301         estimate D2E/DX2                !
 ! D65   D(12,13,14,15)        156.2126         estimate D2E/DX2                !
 ! D66   D(12,13,14,53)        -22.8668         estimate D2E/DX2                !
 ! D67   D(54,13,14,15)        -24.3847         estimate D2E/DX2                !
 ! D68   D(54,13,14,53)        156.5359         estimate D2E/DX2                !
 ! D69   D(12,13,54,55)         -0.3107         estimate D2E/DX2                !
 ! D70   D(12,13,54,89)        178.4582         estimate D2E/DX2                !
 ! D71   D(14,13,54,55)       -179.7164         estimate D2E/DX2                !
 ! D72   D(14,13,54,89)         -0.9475         estimate D2E/DX2                !
 ! D73   D(13,14,15,16)        179.4154         estimate D2E/DX2                !
 ! D74   D(13,14,15,66)         -2.8515         estimate D2E/DX2                !
 ! D75   D(53,14,15,16)         -1.5436         estimate D2E/DX2                !
 ! D76   D(53,14,15,66)        176.1895         estimate D2E/DX2                !
 ! D77   D(13,14,53,32)        179.7403         estimate D2E/DX2                !
 ! D78   D(15,14,53,32)          0.6396         estimate D2E/DX2                !
 ! D79   D(14,15,16,17)       -177.4999         estimate D2E/DX2                !
 ! D80   D(14,15,16,31)          1.0868         estimate D2E/DX2                !
 ! D81   D(66,15,16,17)          4.7393         estimate D2E/DX2                !
 ! D82   D(66,15,16,31)       -176.674          estimate D2E/DX2                !
 ! D83   D(15,16,17,18)         43.4504         estimate D2E/DX2                !
 ! D84   D(15,16,17,30)       -137.3091         estimate D2E/DX2                !
 ! D85   D(31,16,17,18)       -135.1712         estimate D2E/DX2                !
 ! D86   D(31,16,17,30)         44.0694         estimate D2E/DX2                !
 ! D87   D(15,16,31,32)          0.251          estimate D2E/DX2                !
 ! D88   D(17,16,31,32)        178.8689         estimate D2E/DX2                !
 ! D89   D(16,17,18,19)        178.4745         estimate D2E/DX2                !
 ! D90   D(16,17,18,67)          0.5936         estimate D2E/DX2                !
 ! D91   D(30,17,18,19)         -0.782          estimate D2E/DX2                !
 ! D92   D(30,17,18,67)       -178.6629         estimate D2E/DX2                !
 ! D93   D(16,17,30,25)       -178.674          estimate D2E/DX2                !
 ! D94   D(16,17,30,29)          2.7294         estimate D2E/DX2                !
 ! D95   D(18,17,30,25)          0.5545         estimate D2E/DX2                !
 ! D96   D(18,17,30,29)       -178.0421         estimate D2E/DX2                !
 ! D97   D(17,18,19,20)       -179.4341         estimate D2E/DX2                !
 ! D98   D(17,18,19,24)          0.3081         estimate D2E/DX2                !
 ! D99   D(67,18,19,20)         -1.504          estimate D2E/DX2                !
 ! D100  D(67,18,19,24)        178.2382         estimate D2E/DX2                !
 ! D101  D(18,19,20,21)        179.7983         estimate D2E/DX2                !
 ! D102  D(18,19,20,68)         -0.1937         estimate D2E/DX2                !
 ! D103  D(24,19,20,21)          0.0568         estimate D2E/DX2                !
 ! D104  D(24,19,20,68)       -179.9353         estimate D2E/DX2                !
 ! D105  D(18,19,24,23)       -179.639          estimate D2E/DX2                !
 ! D106  D(18,19,24,25)          0.3844         estimate D2E/DX2                !
 ! D107  D(20,19,24,23)          0.1042         estimate D2E/DX2                !
 ! D108  D(20,19,24,25)       -179.8723         estimate D2E/DX2                !
 ! D109  D(19,20,21,22)         -0.1497         estimate D2E/DX2                !
 ! D110  D(19,20,21,69)        179.9482         estimate D2E/DX2                !
 ! D111  D(68,20,21,22)        179.8422         estimate D2E/DX2                !
 ! D112  D(68,20,21,69)         -0.0599         estimate D2E/DX2                !
 ! D113  D(20,21,22,23)          0.0791         estimate D2E/DX2                !
 ! D114  D(20,21,22,70)       -179.8754         estimate D2E/DX2                !
 ! D115  D(69,21,22,23)        179.9818         estimate D2E/DX2                !
 ! D116  D(69,21,22,70)          0.0273         estimate D2E/DX2                !
 ! D117  D(21,22,23,24)          0.087          estimate D2E/DX2                !
 ! D118  D(21,22,23,71)       -179.8956         estimate D2E/DX2                !
 ! D119  D(70,22,23,24)       -179.9586         estimate D2E/DX2                !
 ! D120  D(70,22,23,71)          0.0588         estimate D2E/DX2                !
 ! D121  D(22,23,24,19)         -0.1758         estimate D2E/DX2                !
 ! D122  D(22,23,24,25)        179.7995         estimate D2E/DX2                !
 ! D123  D(71,23,24,19)        179.8064         estimate D2E/DX2                !
 ! D124  D(71,23,24,25)         -0.2182         estimate D2E/DX2                !
 ! D125  D(19,24,25,26)        179.244          estimate D2E/DX2                !
 ! D126  D(19,24,25,30)         -0.5892         estimate D2E/DX2                !
 ! D127  D(23,24,25,26)         -0.7311         estimate D2E/DX2                !
 ! D128  D(23,24,25,30)        179.4358         estimate D2E/DX2                !
 ! D129  D(24,25,26,27)       -179.5596         estimate D2E/DX2                !
 ! D130  D(24,25,26,72)          0.2505         estimate D2E/DX2                !
 ! D131  D(30,25,26,27)          0.2766         estimate D2E/DX2                !
 ! D132  D(30,25,26,72)       -179.9133         estimate D2E/DX2                !
 ! D133  D(24,25,30,17)          0.1298         estimate D2E/DX2                !
 ! D134  D(24,25,30,29)        178.7564         estimate D2E/DX2                !
 ! D135  D(26,25,30,17)       -179.71           estimate D2E/DX2                !
 ! D136  D(26,25,30,29)         -1.0834         estimate D2E/DX2                !
 ! D137  D(25,26,27,28)          0.4249         estimate D2E/DX2                !
 ! D138  D(25,26,27,73)       -179.9098         estimate D2E/DX2                !
 ! D139  D(72,26,27,28)       -179.3878         estimate D2E/DX2                !
 ! D140  D(72,26,27,73)          0.2775         estimate D2E/DX2                !
 ! D141  D(26,27,28,29)         -0.3029         estimate D2E/DX2                !
 ! D142  D(26,27,28,74)        179.4841         estimate D2E/DX2                !
 ! D143  D(73,27,28,29)       -179.9683         estimate D2E/DX2                !
 ! D144  D(73,27,28,74)         -0.1813         estimate D2E/DX2                !
 ! D145  D(27,28,29,30)         -0.5342         estimate D2E/DX2                !
 ! D146  D(27,28,29,75)       -179.7972         estimate D2E/DX2                !
 ! D147  D(74,28,29,30)        179.6792         estimate D2E/DX2                !
 ! D148  D(74,28,29,75)          0.4162         estimate D2E/DX2                !
 ! D149  D(28,29,30,17)        179.8345         estimate D2E/DX2                !
 ! D150  D(28,29,30,25)          1.2336         estimate D2E/DX2                !
 ! D151  D(75,29,30,17)         -0.8965         estimate D2E/DX2                !
 ! D152  D(75,29,30,25)       -179.4974         estimate D2E/DX2                !
 ! D153  D(16,31,32,33)        178.3539         estimate D2E/DX2                !
 ! D154  D(16,31,32,53)         -1.2872         estimate D2E/DX2                !
 ! D155  D(31,32,33,34)         -3.2609         estimate D2E/DX2                !
 ! D156  D(31,32,33,52)        177.3114         estimate D2E/DX2                !
 ! D157  D(53,32,33,34)        176.4071         estimate D2E/DX2                !
 ! D158  D(53,32,33,52)         -3.0206         estimate D2E/DX2                !
 ! D159  D(31,32,53,14)          0.8363         estimate D2E/DX2                !
 ! D160  D(33,32,53,14)       -178.8031         estimate D2E/DX2                !
 ! D161  D(32,33,34,35)       -179.7127         estimate D2E/DX2                !
 ! D162  D(32,33,34,76)          0.3187         estimate D2E/DX2                !
 ! D163  D(52,33,34,35)         -0.2786         estimate D2E/DX2                !
 ! D164  D(52,33,34,76)        179.7528         estimate D2E/DX2                !
 ! D165  D(32,33,52,51)        179.4624         estimate D2E/DX2                !
 ! D166  D(32,33,52,88)         -0.7764         estimate D2E/DX2                !
 ! D167  D(34,33,52,51)          0.0289         estimate D2E/DX2                !
 ! D168  D(34,33,52,88)        179.7901         estimate D2E/DX2                !
 ! D169  D(33,34,35,36)          0.0327         estimate D2E/DX2                !
 ! D170  D(33,34,35,77)        179.0322         estimate D2E/DX2                !
 ! D171  D(76,34,35,36)       -179.9993         estimate D2E/DX2                !
 ! D172  D(76,34,35,77)         -0.9999         estimate D2E/DX2                !
 ! D173  D(34,35,36,37)        178.1353         estimate D2E/DX2                !
 ! D174  D(34,35,36,51)          0.4566         estimate D2E/DX2                !
 ! D175  D(77,35,36,37)         -0.8712         estimate D2E/DX2                !
 ! D176  D(77,35,36,51)       -178.5498         estimate D2E/DX2                !
 ! D177  D(35,36,37,38)       -121.8227         estimate D2E/DX2                !
 ! D178  D(35,36,37,50)         57.5769         estimate D2E/DX2                !
 ! D179  D(51,36,37,38)         55.8274         estimate D2E/DX2                !
 ! D180  D(51,36,37,50)       -124.7731         estimate D2E/DX2                !
 ! D181  D(35,36,51,52)         -0.7081         estimate D2E/DX2                !
 ! D182  D(35,36,51,87)       -179.7546         estimate D2E/DX2                !
 ! D183  D(37,36,51,52)       -178.4047         estimate D2E/DX2                !
 ! D184  D(37,36,51,87)          2.5488         estimate D2E/DX2                !
 ! D185  D(36,37,38,39)        176.786          estimate D2E/DX2                !
 ! D186  D(36,37,38,78)         -1.0794         estimate D2E/DX2                !
 ! D187  D(50,37,38,39)         -2.6221         estimate D2E/DX2                !
 ! D188  D(50,37,38,78)        179.5125         estimate D2E/DX2                !
 ! D189  D(36,37,50,45)       -176.1793         estimate D2E/DX2                !
 ! D190  D(36,37,50,49)          5.7981         estimate D2E/DX2                !
 ! D191  D(38,37,50,45)          3.2162         estimate D2E/DX2                !
 ! D192  D(38,37,50,49)       -174.8063         estimate D2E/DX2                !
 ! D193  D(37,38,39,40)       -179.0905         estimate D2E/DX2                !
 ! D194  D(37,38,39,44)         -0.0436         estimate D2E/DX2                !
 ! D195  D(78,38,39,40)         -1.1908         estimate D2E/DX2                !
 ! D196  D(78,38,39,44)        177.8561         estimate D2E/DX2                !
 ! D197  D(38,39,40,41)        178.8143         estimate D2E/DX2                !
 ! D198  D(38,39,40,79)         -1.0778         estimate D2E/DX2                !
 ! D199  D(44,39,40,41)         -0.2318         estimate D2E/DX2                !
 ! D200  D(44,39,40,79)        179.8762         estimate D2E/DX2                !
 ! D201  D(38,39,44,43)       -178.4776         estimate D2E/DX2                !
 ! D202  D(38,39,44,45)          2.0761         estimate D2E/DX2                !
 ! D203  D(40,39,44,43)          0.5744         estimate D2E/DX2                !
 ! D204  D(40,39,44,45)       -178.8719         estimate D2E/DX2                !
 ! D205  D(39,40,41,42)         -0.2224         estimate D2E/DX2                !
 ! D206  D(39,40,41,80)        179.9678         estimate D2E/DX2                !
 ! D207  D(79,40,41,42)        179.6676         estimate D2E/DX2                !
 ! D208  D(79,40,41,80)         -0.1422         estimate D2E/DX2                !
 ! D209  D(40,41,42,43)          0.3216         estimate D2E/DX2                !
 ! D210  D(40,41,42,81)       -179.6915         estimate D2E/DX2                !
 ! D211  D(80,41,42,43)       -179.8674         estimate D2E/DX2                !
 ! D212  D(80,41,42,81)          0.1195         estimate D2E/DX2                !
 ! D213  D(41,42,43,44)          0.0401         estimate D2E/DX2                !
 ! D214  D(41,42,43,82)       -179.9165         estimate D2E/DX2                !
 ! D215  D(81,42,43,44)       -179.9468         estimate D2E/DX2                !
 ! D216  D(81,42,43,82)          0.0966         estimate D2E/DX2                !
 ! D217  D(42,43,44,39)         -0.4836         estimate D2E/DX2                !
 ! D218  D(42,43,44,45)        178.9354         estimate D2E/DX2                !
 ! D219  D(82,43,44,39)        179.4722         estimate D2E/DX2                !
 ! D220  D(82,43,44,45)         -1.1088         estimate D2E/DX2                !
 ! D221  D(39,44,45,46)        177.7021         estimate D2E/DX2                !
 ! D222  D(39,44,45,50)         -1.431          estimate D2E/DX2                !
 ! D223  D(43,44,45,46)         -1.7113         estimate D2E/DX2                !
 ! D224  D(43,44,45,50)        179.1556         estimate D2E/DX2                !
 ! D225  D(44,45,46,47)       -178.2338         estimate D2E/DX2                !
 ! D226  D(44,45,46,83)          1.2703         estimate D2E/DX2                !
 ! D227  D(50,45,46,47)          0.9135         estimate D2E/DX2                !
 ! D228  D(50,45,46,83)       -179.5824         estimate D2E/DX2                !
 ! D229  D(44,45,50,37)         -1.1771         estimate D2E/DX2                !
 ! D230  D(44,45,50,49)        176.8776         estimate D2E/DX2                !
 ! D231  D(46,45,50,37)        179.6525         estimate D2E/DX2                !
 ! D232  D(46,45,50,49)         -2.2928         estimate D2E/DX2                !
 ! D233  D(45,46,47,48)          0.8035         estimate D2E/DX2                !
 ! D234  D(45,46,47,84)       -179.998          estimate D2E/DX2                !
 ! D235  D(83,46,47,48)       -178.7073         estimate D2E/DX2                !
 ! D236  D(83,46,47,84)          0.4913         estimate D2E/DX2                !
 ! D237  D(46,47,48,49)         -1.1207         estimate D2E/DX2                !
 ! D238  D(46,47,48,85)        178.5582         estimate D2E/DX2                !
 ! D239  D(84,47,48,49)        179.6798         estimate D2E/DX2                !
 ! D240  D(84,47,48,85)         -0.6413         estimate D2E/DX2                !
 ! D241  D(47,48,49,50)         -0.3118         estimate D2E/DX2                !
 ! D242  D(47,48,49,86)        178.8898         estimate D2E/DX2                !
 ! D243  D(85,48,49,50)       -179.9898         estimate D2E/DX2                !
 ! D244  D(85,48,49,86)         -0.7883         estimate D2E/DX2                !
 ! D245  D(48,49,50,37)       -179.9316         estimate D2E/DX2                !
 ! D246  D(48,49,50,45)          2.036          estimate D2E/DX2                !
 ! D247  D(86,49,50,37)          0.8604         estimate D2E/DX2                !
 ! D248  D(86,49,50,45)       -177.1719         estimate D2E/DX2                !
 ! D249  D(36,51,52,33)          0.4693         estimate D2E/DX2                !
 ! D250  D(36,51,52,88)       -179.2867         estimate D2E/DX2                !
 ! D251  D(87,51,52,33)        179.5065         estimate D2E/DX2                !
 ! D252  D(87,51,52,88)         -0.2494         estimate D2E/DX2                !
 ! D253  D(13,54,55,10)         -0.4799         estimate D2E/DX2                !
 ! D254  D(13,54,55,90)       -179.263          estimate D2E/DX2                !
 ! D255  D(89,54,55,10)       -179.2616         estimate D2E/DX2                !
 ! D256  D(89,54,55,90)          1.9553         estimate D2E/DX2                !
 ! D257  D(9,56,57,6)           -0.0129         estimate D2E/DX2                !
 ! D258  D(9,56,57,92)         178.565          estimate D2E/DX2                !
 ! D259  D(91,56,57,6)        -178.5277         estimate D2E/DX2                !
 ! D260  D(91,56,57,92)          0.0503         estimate D2E/DX2                !
 --------------------------------------------------------------------------------
 Trust Radius=3.00D-01 FncErr=1.00D-07 GrdErr=1.00D-06 EigMax=2.50D+02 EigMin=1.00D-04
 Number of steps in this run=    541 maximum allowed number of steps=    558.
 GradGradGradGradGradGradGradGradGradGradGradGradGradGradGradGradGradGrad

 Leave Link  103 at Sat Nov  5 00:49:03 2022, MaxMem=   805306368 cpu:               0.1 elap:               0.0
 (Enter /home/wykgroup/appl/g16/l202.exe)
 Stoichiometry    C55H35N3
 Framework group  C1[X(C55H35N3)]
 Deg. of freedom   273
 Full point group                 C1      NOp   1
 Largest Abelian subgroup         C1      NOp   1
 Largest concise Abelian subgroup C1      NOp   1
                         Standard orientation:                         
 ---------------------------------------------------------------------
 Center     Atomic      Atomic             Coordinates (Angstroms)
 Number     Number       Type             X           Y           Z
 ---------------------------------------------------------------------
      1          6           0      -12.712465   -2.823244    0.449625
      2          6           0      -12.792673   -4.134489    0.004589
      3          7           0      -11.738376   -4.825590   -0.394200
      4          6           0      -10.558805   -4.237250   -0.373237
      5          6           0      -10.351853   -2.920061    0.042520
      6          6           0       -9.013460   -2.320336    0.037053
      7          6           0       -8.596344   -1.500018    1.083448
      8          6           0       -7.336016   -0.938289    1.079737
      9          6           0       -6.450821   -1.178259    0.030394
     10          6           0       -5.109668   -0.581020    0.025399
     11          6           0       -4.001594   -1.319137   -0.389634
     12          6           0       -2.742813   -0.758048   -0.390696
     13          6           0       -2.551899    0.564445    0.008330
     14          6           0       -1.198859    1.130443   -0.012972
     15          6           0       -0.952492    2.499729   -0.108800
     16          6           0        0.380579    2.911176   -0.106485
     17          6           0        0.724840    4.341990   -0.149062
     18          6           0        0.019341    5.197923    0.639921
     19          6           0        0.301639    6.587521    0.688359
     20          6           0       -0.443594    7.434411    1.525762
     21          6           0       -0.177403    8.777246    1.583978
     22          6           0        0.849777    9.308681    0.802959
     23          6           0        1.591237    8.498071   -0.021265
     24          6           0        1.342677    7.118859   -0.107473
     25          6           0        2.090963    6.227217   -0.961105
     26          6           0        3.127846    6.685077   -1.790724
     27          6           0        3.828247    5.831774   -2.605811
     28          6           0        3.512530    4.474512   -2.632176
     29          6           0        2.504238    3.994496   -1.836456
     30          6           0        1.783981    4.843629   -0.980679
     31          7           0        1.367931    2.025664   -0.037854
     32          6           0        1.046364    0.736715    0.023317
     33          6           0        2.147425   -0.227125    0.061146
     34          6           0        3.468110    0.209149   -0.035245
     35          6           0        4.504526   -0.700246   -0.005448
     36          6           0        4.248299   -2.065112    0.120403
     37          6           0        5.348225   -3.045428    0.111974
     38          6           0        5.350345   -4.028427   -0.827310
     39          6           0        6.411764   -4.965264   -0.936092
     40          6           0        6.386358   -5.955065   -1.932531
     41          6           0        7.416404   -6.849472   -2.062519
     42          6           0        8.507621   -6.773013   -1.196075
     43          6           0        8.551895   -5.814523   -0.213561
     44          6           0        7.510069   -4.888026   -0.048362
     45          6           0        7.501709   -3.877945    0.982697
     46          6           0        8.530672   -3.765615    1.932108
     47          6           0        8.490999   -2.822468    2.928332
     48          6           0        7.404079   -1.955244    3.028595
     49          6           0        6.385641   -2.033244    2.113855
     50          6           0        6.417545   -2.970268    1.067238
     51          6           0        2.926509   -2.497243    0.206041
     52          6           0        1.887219   -1.590824    0.181829
     53          7           0       -0.192127    0.260922    0.045688
     54          6           0       -3.656519    1.302915    0.427204
     55          6           0       -4.914227    0.735491    0.439466
     56          6           0       -6.868874   -1.999854   -1.015157
     57          6           0       -8.129044   -2.561723   -1.012579
     58          6           0      -11.473251   -2.208401    0.466539
     59          1           0      -13.598232   -2.294938    0.767735
     60          1           0      -13.738579   -4.658163   -0.036247
     61          1           0       -9.725918   -4.852483   -0.689084
     62          1           0       -9.258760   -1.321433    1.918249
     63          1           0       -7.022210   -0.325002    1.911869
     64          1           0       -4.130847   -2.348319   -0.691268
     65          1           0       -1.882997   -1.329572   -0.703871
     66          1           0       -1.750032    3.215739   -0.218081
     67          1           0       -0.764330    4.821655    1.283622
     68          1           0       -1.233911    7.005576    2.125817
     69          1           0       -0.753966    9.423846    2.228846
     70          1           0        1.062519   10.366787    0.848966
     71          1           0        2.377666    8.945213   -0.608122
     72          1           0        3.387034    7.731765   -1.798091
     73          1           0        4.621782    6.212997   -3.231970
     74          1           0        4.058784    3.805051   -3.280193
     75          1           0        2.261984    2.944119   -1.854210
     76          1           0        3.661901    1.266226   -0.132517
     77          1           0        5.526234   -0.359450   -0.096171
     78          1           0        4.541035   -4.090190   -1.542092
     79          1           0        5.536100   -5.996812   -2.598688
     80          1           0        7.390543   -7.608522   -2.830498
     81          1           0        9.322881   -7.474162   -1.300307
     82          1           0        9.411870   -5.784942    0.436666
     83          1           0        9.374004   -4.436529    1.892154
     84          1           0        9.297165   -2.759624    3.644684
     85          1           0        7.363976   -1.229289    3.827272
     86          1           0        5.534655   -1.374447    2.200627
     87          1           0        2.723163   -3.553808    0.307707
     88          1           0        0.862628   -1.919328    0.259296
     89          1           0       -3.534147    2.321346    0.765178
     90          1           0       -5.762522    1.325144    0.755710
     91          1           0       -6.205789   -2.178994   -1.848870
     92          1           0       -8.443566   -3.176969   -1.842900
     93          1           0      -11.374108   -1.180181    0.785138
 ---------------------------------------------------------------------
 Rotational constants (GHZ):           0.0352785           0.0177541           0.0123882
 Leave Link  202 at Sat Nov  5 00:49:03 2022, MaxMem=   805306368 cpu:               0.2 elap:               0.1
 (Enter /home/wykgroup/appl/g16/l301.exe)
 Standard basis: 6-31G(d) (6D, 7F)
 Ernie: Thresh=  0.10000D-02 Tol=  0.10000D-05 Strict=F.
 There are   940 symmetry adapted cartesian basis functions of A   symmetry.
 There are   940 symmetry adapted basis functions of A   symmetry.
   940 basis functions,  1764 primitive gaussians,   940 cartesian basis functions
   193 alpha electrons      193 beta electrons
       nuclear repulsion energy      6364.8770516198 Hartrees.
 IExCor=  402 DFT=T Ex+Corr=B3LYP ExCW=0 ScaHFX=  0.200000
 ScaDFX=  0.800000  0.720000  1.000000  0.810000 ScalE2=  1.000000  1.000000
 IRadAn=      5 IRanWt=     -1 IRanGd=            0 ICorTp=0 IEmpDi=  4
 NAtoms=   93 NActive=   93 NUniq=   93 SFac= 1.00D+00 NAtFMM=   60 NAOKFM=T Big=T
 Integral buffers will be    131072 words long.
 Raffenetti 2 integral format.
 Two-electron integral symmetry is turned on.
 Leave Link  301 at Sat Nov  5 00:49:04 2022, MaxMem=   805306368 cpu:               0.5 elap:               0.1
 (Enter /home/wykgroup/appl/g16/l302.exe)
 NPDir=0 NMtPBC=     1 NCelOv=     1 NCel=       1 NClECP=     1 NCelD=      1
         NCelK=      1 NCelE2=     1 NClLst=     1 CellRange=     0.0.
 One-electron integrals computed using PRISM.
 One-electron integral symmetry used in STVInt
 NBasis=   940 RedAO= T EigKep=  1.68D-04  NBF=   940
 NBsUse=   940 1.00D-06 EigRej= -1.00D+00 NBFU=   940
 Precomputing XC quadrature grid using
 IXCGrd= 4 IRadAn=           5 IRanWt=          -1 IRanGd=           0 AccXCQ= 0.00D+00.
 Generated NRdTot=       0 NPtTot=           0 NUsed=           0 NTot=          32
 NSgBfM=   819   812   818   819   819 MxSgAt=    93 MxSgA2=    93.
 Leave Link  302 at Sat Nov  5 00:49:06 2022, MaxMem=   805306368 cpu:              18.0 elap:               2.7
 (Enter /home/wykgroup/appl/g16/l303.exe)
 DipDrv:  MaxL=1.
 Leave Link  303 at Sat Nov  5 00:49:06 2022, MaxMem=   805306368 cpu:               0.9 elap:               0.2
 (Enter /home/wykgroup/appl/g16/l401.exe)
 ExpMin= 1.61D-01 ExpMax= 4.17D+03 ExpMxC= 6.27D+02 IAcc=3 IRadAn=         5 AccDes= 0.00D+00
 Harris functional with IExCor=  402 and IRadAn=       5 diagonalized for initial guess.
 HarFok:  IExCor=  402 AccDes= 0.00D+00 IRadAn=         5 IDoV= 1 UseB2=F ITyADJ=14
 ICtDFT=  3500011 ScaDFX=  1.000000  1.000000  1.000000  1.000000
 FoFCou: FMM=F IPFlag=           0 FMFlag=      100000 FMFlg1=        2001
         NFxFlg=           0 DoJE=T BraDBF=F KetDBF=T FulRan=T
         wScrn=  0.000000 ICntrl=       500 IOpCl=  0 I1Cent=   200000004 NGrid=           0
         NMat0=    1 NMatS0=      1 NMatT0=    0 NMatD0=    1 NMtDS0=    0 NMtDT0=    0
 Petite list used in FoFCou.
 Harris En= -2281.26773375014    
 JPrj=0 DoOrth=F DoCkMO=F.
 Leave Link  401 at Sat Nov  5 00:49:14 2022, MaxMem=   805306368 cpu:              53.3 elap:               7.6
 (Enter /home/wykgroup/appl/g16/l502.exe)
 Integral symmetry usage will be decided dynamically.
 Closed shell SCF:
 Using DIIS extrapolation, IDIIS=  1040.
 NGot=   805306368 LenX=   803522843 LenY=   802638303
 Requested convergence on RMS density matrix=1.00D-08 within  32 cycles.
 Requested convergence on MAX density matrix=1.00D-06.
 Requested convergence on             energy=1.00D-06.
 No special actions if energy rises.
 Fock matrices will be formed incrementally for  20 cycles.
 Integral accuracy reduced to 1.0D-05 until final iterations.

 Cycle   1  Pass 0  IDiag  1:
 FoFJK:  IHMeth= 1 ICntrl=       0 DoSepK=F KAlg= 0 I1Cent=           0 FoldK=F
 IRaf= 520000000 NMat=       1 IRICut=       1 DoRegI=T DoRafI=F ISym2E= 0 IDoP0=0 IntGTp=1.
 FoFCou: FMM=T IPFlag=           0 FMFlag=      100000 FMFlg1=        2001
         NFxFlg=           0 DoJE=F BraDBF=F KetDBF=F FulRan=T
         wScrn=  0.000000 ICntrl=         0 IOpCl=  0 I1Cent=           0 NGrid=           0
         NMat0=    1 NMatS0=      1 NMatT0=    0 NMatD0=    1 NMtDS0=    0 NMtDT0=    0
 Symmetry not used in FoFCou.
 FMM levels:  10  Number of levels for PrismC:   9
 E= -2280.18988936944    
 DIIS: error= 2.67D-02 at cycle   1 NSaved=   1.
 NSaved= 1 IEnMin= 1 EnMin= -2280.18988936944     IErMin= 1 ErrMin= 2.67D-02
 ErrMax= 2.67D-02  0.00D+00 EMaxC= 1.00D-01 BMatC= 1.00D+00 BMatP= 1.00D+00
 IDIUse=3 WtCom= 7.33D-01 WtEn= 2.67D-01
 Coeff-Com:  0.100D+01
 Coeff-En:   0.100D+01
 Coeff:      0.100D+01
 Gap=     0.134 Goal=   None    Shift=    0.000
 GapD=    0.134 DampG=1.000 DampE=0.500 DampFc=0.5000 IDamp=-1.
 Damping current iteration by 5.00D-01
 RMSDP=2.93D-03 MaxDP=1.17D-01              OVMax= 1.37D-01

 Cycle   2  Pass 0  IDiag  1:
 RMSU=  1.38D-03    CP:  9.58D-01
 E= -2280.72907818596     Delta-E=       -0.539188816518 Rises=F Damp=T
 DIIS: error= 7.10D-03 at cycle   2 NSaved=   2.
 NSaved= 2 IEnMin= 2 EnMin= -2280.72907818596     IErMin= 2 ErrMin= 7.10D-03
 ErrMax= 7.10D-03  0.00D+00 EMaxC= 1.00D-01 BMatC= 6.40D-02 BMatP= 1.00D+00
 IDIUse=3 WtCom= 9.29D-01 WtEn= 7.10D-02
 Coeff-Com: -0.549D-01 0.105D+01
 Coeff-En:   0.000D+00 0.100D+01
 Coeff:     -0.510D-01 0.105D+01
 Gap=     0.166 Goal=   None    Shift=    0.000
 RMSDP=9.52D-04 MaxDP=5.77D-02 DE=-5.39D-01 OVMax= 9.51D-02

 Cycle   3  Pass 0  IDiag  1:
 RMSU=  8.69D-04    CP:  9.30D-01  1.17D+00
 E= -2281.24043333809     Delta-E=       -0.511355152130 Rises=F Damp=F
 DIIS: error= 2.96D-03 at cycle   3 NSaved=   3.
 NSaved= 3 IEnMin= 3 EnMin= -2281.24043333809     IErMin= 3 ErrMin= 2.96D-03
 ErrMax= 2.96D-03  0.00D+00 EMaxC= 1.00D-01 BMatC= 3.46D-02 BMatP= 6.40D-02
 IDIUse=3 WtCom= 9.70D-01 WtEn= 2.96D-02
 Coeff-Com: -0.735D-01 0.456D+00 0.618D+00
 Coeff-En:   0.000D+00 0.000D+00 0.100D+01
 Coeff:     -0.714D-01 0.442D+00 0.629D+00
 Gap=     0.149 Goal=   None    Shift=    0.000
 RMSDP=4.06D-04 MaxDP=2.52D-02 DE=-5.11D-01 OVMax= 7.71D-02

 Cycle   4  Pass 0  IDiag  1:
 RMSU=  3.40D-04    CP:  9.31D-01  1.21D+00  7.55D-01
 E= -2281.26067918152     Delta-E=       -0.020245843431 Rises=F Damp=F
 DIIS: error= 2.84D-03 at cycle   4 NSaved=   4.
 NSaved= 4 IEnMin= 4 EnMin= -2281.26067918152     IErMin= 4 ErrMin= 2.84D-03
 ErrMax= 2.84D-03  0.00D+00 EMaxC= 1.00D-01 BMatC= 1.42D-02 BMatP= 3.46D-02
 IDIUse=3 WtCom= 9.72D-01 WtEn= 2.84D-02
 Coeff-Com: -0.374D-01 0.149D+00 0.411D+00 0.478D+00
 Coeff-En:   0.000D+00 0.000D+00 0.337D+00 0.663D+00
 Coeff:     -0.363D-01 0.144D+00 0.409D+00 0.483D+00
 Gap=     0.140 Goal=   None    Shift=    0.000
 RMSDP=2.07D-04 MaxDP=1.36D-02 DE=-2.02D-02 OVMax= 4.61D-02

 Cycle   5  Pass 0  IDiag  1:
 RMSU=  1.03D-04    CP:  9.31D-01  1.21D+00  7.86D-01  4.78D-01
 E= -2281.27650096273     Delta-E=       -0.015821781204 Rises=F Damp=F
 DIIS: error= 8.85D-04 at cycle   5 NSaved=   5.
 NSaved= 5 IEnMin= 5 EnMin= -2281.27650096273     IErMin= 5 ErrMin= 8.85D-04
 ErrMax= 8.85D-04  0.00D+00 EMaxC= 1.00D-01 BMatC= 1.38D-03 BMatP= 1.42D-02
 IDIUse=3 WtCom= 9.91D-01 WtEn= 8.85D-03
 Coeff-Com: -0.153D-01 0.447D-01 0.187D+00 0.299D+00 0.485D+00
 Coeff-En:   0.000D+00 0.000D+00 0.000D+00 0.391D-01 0.961D+00
 Coeff:     -0.151D-01 0.443D-01 0.185D+00 0.296D+00 0.489D+00
 Gap=     0.139 Goal=   None    Shift=    0.000
 RMSDP=5.95D-05 MaxDP=3.66D-03 DE=-1.58D-02 OVMax= 1.05D-02

 Cycle   6  Pass 0  IDiag  1:
 RMSU=  3.61D-05    CP:  9.31D-01  1.21D+00  7.94D-01  5.26D-01  5.77D-01
 E= -2281.27786776842     Delta-E=       -0.001366805694 Rises=F Damp=F
 DIIS: error= 2.12D-04 at cycle   6 NSaved=   6.
 NSaved= 6 IEnMin= 6 EnMin= -2281.27786776842     IErMin= 6 ErrMin= 2.12D-04
[...]
 Alpha virt. eigenvalues --    0.49492   0.49789   0.49932   0.50296   0.51007
 Alpha virt. eigenvalues --    0.51216   0.51846   0.52145   0.52313   0.52452
 Alpha virt. eigenvalues --    0.52748   0.52845   0.53332   0.53514   0.53679
 Alpha virt. eigenvalues --    0.53916   0.54063   0.54284   0.54347   0.54489
 Alpha virt. eigenvalues --    0.54542   0.54607   0.54889   0.55102   0.55330
 Alpha virt. eigenvalues --    0.55526   0.55758   0.55811   0.56118   0.56384
 Alpha virt. eigenvalues --    0.56631   0.56807   0.56933   0.57025   0.57232
 Alpha virt. eigenvalues --    0.57388   0.57474   0.57574   0.57694   0.57745
 Alpha virt. eigenvalues --    0.58055   0.58286   0.58421   0.58518   0.58702
 Alpha virt. eigenvalues --    0.58785   0.58975   0.59091   0.59236   0.59372
 Alpha virt. eigenvalues --    0.59520   0.59675   0.59764   0.59799   0.60156
 Alpha virt. eigenvalues --    0.60335   0.60700   0.60758   0.61036   0.61099
 Alpha virt. eigenvalues --    0.61218   0.61298   0.61490   0.61547   0.61661
 Alpha virt. eigenvalues --    0.61729   0.61947   0.61972   0.62149   0.62240
 Alpha virt. eigenvalues --    0.62330   0.62632   0.62735   0.62931   0.63074
 Alpha virt. eigenvalues --    0.63179   0.63314   0.63614   0.63759   0.64028
 Alpha virt. eigenvalues --    0.64354   0.64556   0.64693   0.65375   0.65752
 Alpha virt. eigenvalues --    0.65843   0.66297   0.66839   0.67429   0.67515
 Alpha virt. eigenvalues --    0.67842   0.68158   0.68473   0.68645   0.68880
 Alpha virt. eigenvalues --    0.69357   0.69734   0.70261   0.71106   0.71229
 Alpha virt. eigenvalues --    0.72889   0.73246   0.73448   0.73914   0.74424
 Alpha virt. eigenvalues --    0.74993   0.75852   0.76754   0.77817   0.78143
 Alpha virt. eigenvalues --    0.78590   0.79175   0.79528   0.80069   0.80205
 Alpha virt. eigenvalues --    0.80351   0.80766   0.80846   0.81106   0.81217
 Alpha virt. eigenvalues --    0.81361   0.81926   0.82241   0.82330   0.82579
 Alpha virt. eigenvalues --    0.83256   0.83307   0.83355   0.83694   0.83860
 Alpha virt. eigenvalues --    0.84153   0.84168   0.84263   0.84521   0.84826
 Alpha virt. eigenvalues --    0.85180   0.85266   0.85792   0.85950   0.86158
 Alpha virt. eigenvalues --    0.86416   0.86617   0.87112   0.87730   0.87890
 Alpha virt. eigenvalues --    0.88376   0.88508   0.88853   0.89287   0.89337
 Alpha virt. eigenvalues --    0.90202   0.90255   0.90703   0.90957   0.91417
 Alpha virt. eigenvalues --    0.91662   0.91906   0.92035   0.92576   0.92671
 Alpha virt. eigenvalues --    0.93262   0.93581   0.93842   0.94116   0.94375
 Alpha virt. eigenvalues --    0.94619   0.94799   0.95098   0.95395   0.95644
 Alpha virt. eigenvalues --    0.95790   0.96048   0.96441   0.96784   0.97321
 Alpha virt. eigenvalues --    0.97495   0.98154   0.98270   0.98562   0.99935
 Alpha virt. eigenvalues --    1.00165   1.00308   1.00522   1.00706   1.01403
 Alpha virt. eigenvalues --    1.02197   1.03517   1.04040   1.04374   1.04682
 Alpha virt. eigenvalues --    1.05083   1.05687   1.06037   1.06660   1.06950
 Alpha virt. eigenvalues --    1.07513   1.07710   1.08152   1.08540   1.09172
 Alpha virt. eigenvalues --    1.10122   1.10579   1.10665   1.11388   1.12006
 Alpha virt. eigenvalues --    1.12333   1.12699   1.13229   1.14370   1.14880
 Alpha virt. eigenvalues --    1.14970   1.15346   1.15558   1.16164   1.16525
 Alpha virt. eigenvalues --    1.16895   1.17051   1.17813   1.18061   1.18374
 Alpha virt. eigenvalues --    1.18897   1.19470   1.20151   1.20279   1.21037
 Alpha virt. eigenvalues --    1.21461   1.21692   1.22241   1.22673   1.23259
 Alpha virt. eigenvalues --    1.24043   1.24273   1.24700   1.24925   1.25191
 Alpha virt. eigenvalues --    1.25445   1.26358   1.26579   1.26956   1.27167
 Alpha virt. eigenvalues --    1.27466   1.27745   1.28704   1.29146   1.29493
 Alpha virt. eigenvalues --    1.29911   1.31703   1.32023   1.32775   1.33364
 Alpha virt. eigenvalues --    1.34775   1.35294   1.36368   1.36836   1.36986
 Alpha virt. eigenvalues --    1.38010   1.39240   1.40348   1.40952   1.41153
 Alpha virt. eigenvalues --    1.41467   1.42443   1.43446   1.43974   1.44104
 Alpha virt. eigenvalues --    1.44260   1.44499   1.44645   1.45302   1.45400
 Alpha virt. eigenvalues --    1.45719   1.45940   1.46111   1.46229   1.46582
 Alpha virt. eigenvalues --    1.46827   1.47079   1.47498   1.47706   1.47928
 Alpha virt. eigenvalues --    1.48056   1.48425   1.48547   1.48982   1.49299
 Alpha virt. eigenvalues --    1.49452   1.49473   1.49623   1.49698   1.49885
 Alpha virt. eigenvalues --    1.50132   1.50141   1.50318   1.50372   1.50479
 Alpha virt. eigenvalues --    1.50659   1.50803   1.50943   1.51052   1.51870
 Alpha virt. eigenvalues --    1.51962   1.52212   1.52492   1.53349   1.53450
 Alpha virt. eigenvalues --    1.54112   1.54323   1.58710   1.59539   1.60115
 Alpha virt. eigenvalues --    1.62348   1.64218   1.64976   1.67821   1.69703
 Alpha virt. eigenvalues --    1.70404   1.71161   1.72439   1.72714   1.73034
 Alpha virt. eigenvalues --    1.73867   1.74331   1.74438   1.75303   1.75902
 Alpha virt. eigenvalues --    1.76144   1.76539   1.77342   1.77853   1.78177
 Alpha virt. eigenvalues --    1.78419   1.78781   1.79292   1.79552   1.79860
 Alpha virt. eigenvalues --    1.80229   1.80349   1.81540   1.82078   1.82155
 Alpha virt. eigenvalues --    1.82379   1.82493   1.82993   1.83432   1.84297
 Alpha virt. eigenvalues --    1.84968   1.85247   1.85625   1.85695   1.86999
 Alpha virt. eigenvalues --    1.87305   1.87439   1.88021   1.88268   1.89335
 Alpha virt. eigenvalues --    1.89737   1.89821   1.90219   1.90943   1.91350
 Alpha virt. eigenvalues --    1.91536   1.91872   1.93058   1.93490   1.93769
 Alpha virt. eigenvalues --    1.94127   1.94176   1.94684   1.94893   1.95082
 Alpha virt. eigenvalues --    1.95287   1.97136   1.97447   1.98175   1.98354
 Alpha virt. eigenvalues --    1.98577   1.98992   1.99462   1.99683   2.00160
 Alpha virt. eigenvalues --    2.00468   2.00602   2.02412   2.02888   2.03137
 Alpha virt. eigenvalues --    2.03240   2.03817   2.04319   2.05442   2.06035
 Alpha virt. eigenvalues --    2.07502   2.08267   2.08522   2.08721   2.09400
 Alpha virt. eigenvalues --    2.09625   2.10473   2.10685   2.10966   2.11253
 Alpha virt. eigenvalues --    2.11462   2.11985   2.12260   2.12917   2.13577
 Alpha virt. eigenvalues --    2.13956   2.14145   2.14793   2.14954   2.15359
 Alpha virt. eigenvalues --    2.15676   2.15772   2.16058   2.16330   2.16969
 Alpha virt. eigenvalues --    2.18139   2.18648   2.19784   2.20252   2.20591
 Alpha virt. eigenvalues --    2.21274   2.21454   2.22431   2.22714   2.22973
 Alpha virt. eigenvalues --    2.23201   2.23417   2.23781   2.24173   2.24551
 Alpha virt. eigenvalues --    2.25048   2.25594   2.26348   2.26629   2.27010
 Alpha virt. eigenvalues --    2.27491   2.28232   2.28582   2.29800   2.29988
 Alpha virt. eigenvalues --    2.30698   2.30828   2.30901   2.30943   2.31280
 Alpha virt. eigenvalues --    2.31389   2.31819   2.32815   2.33299   2.33415
 Alpha virt. eigenvalues --    2.33943   2.34168   2.34464   2.34686   2.35220
 Alpha virt. eigenvalues --    2.35575   2.36046   2.36967   2.37436   2.37661
 Alpha virt. eigenvalues --    2.37950   2.38476   2.38655   2.38997   2.39447
 Alpha virt. eigenvalues --    2.40285   2.41373   2.41970   2.43370   2.44724
 Alpha virt. eigenvalues --    2.46765   2.47717   2.48867   2.52462   2.52875
 Alpha virt. eigenvalues --    2.53130   2.53826   2.54392   2.55126   2.57411
 Alpha virt. eigenvalues --    2.57991   2.58825   2.59042   2.59720   2.60081
 Alpha virt. eigenvalues --    2.60601   2.61202   2.61607   2.61668   2.61966
 Alpha virt. eigenvalues --    2.62477   2.62549   2.63279   2.63664   2.64414
 Alpha virt. eigenvalues --    2.64857   2.65428   2.66004   2.66173   2.66529
 Alpha virt. eigenvalues --    2.66848   2.67050   2.67288   2.68310   2.68733
 Alpha virt. eigenvalues --    2.68932   2.69386   2.69772   2.69880   2.70192
 Alpha virt. eigenvalues --    2.70323   2.71847   2.72591   2.74045   2.74505
 Alpha virt. eigenvalues --    2.75253   2.75953   2.76807   2.77009   2.77795
 Alpha virt. eigenvalues --    2.78200   2.78425   2.79507   2.79706   2.81100
 Alpha virt. eigenvalues --    2.81594   2.82327   2.82505   2.82831   2.83584
 Alpha virt. eigenvalues --    2.84751   2.85181   2.85952   2.86456   2.87570
 Alpha virt. eigenvalues --    2.87838   2.88750   2.90103   2.90639   2.91439
 Alpha virt. eigenvalues --    2.93038   2.94129   2.95015   2.96665   2.97406
 Alpha virt. eigenvalues --    2.99621   3.00475   3.02046   3.02903   3.04494
 Alpha virt. eigenvalues --    3.08554   3.09561   3.11907   3.17275   3.17358
 Alpha virt. eigenvalues --    3.20173   3.24494   3.31045   3.33487   3.34246
 Alpha virt. eigenvalues --    3.35040   3.35504   3.39174   3.40523   3.42986
 Alpha virt. eigenvalues --    3.46709   3.50852   3.53128   3.54274   4.05444
 Alpha virt. eigenvalues --    4.06591   4.07126   4.07824   4.07939   4.08851
 Alpha virt. eigenvalues --    4.09283   4.09614   4.09937   4.10077   4.10560
 Alpha virt. eigenvalues --    4.10701   4.11074   4.11196   4.11364   4.11717
 Alpha virt. eigenvalues --    4.11898   4.12100   4.12989   4.13608   4.13626
 Alpha virt. eigenvalues --    4.15608   4.16052   4.16873   4.17348   4.17436
 Alpha virt. eigenvalues --    4.18316   4.23098   4.24025   4.26046   4.27661
 Alpha virt. eigenvalues --    4.29298   4.29755   4.30596   4.31708   4.32297
 Alpha virt. eigenvalues --    4.33351   4.34145   4.35446   4.36991   4.37901
 Alpha virt. eigenvalues --    4.38427   4.41117   4.42027   4.42441   4.43631
 Alpha virt. eigenvalues --    4.45968   4.50483   4.54286   4.58450   4.62583
 Alpha virt. eigenvalues --    4.64341   4.65074   4.72042   4.75876   4.79342
 Alpha virt. eigenvalues --    4.88459   4.89059
          Condensed to atoms (all electrons):
 Mulliken charges:
               1
     1  C   -0.144485
     2  C    0.041071
     3  N   -0.411087
     4  C   -0.000843
     5  C    0.068089
     6  C    0.093841
     7  C   -0.180694
     8  C   -0.179600
     9  C    0.095418
    10  C    0.101509
    11  C   -0.182903
    12  C   -0.163485
    13  C    0.097065
    14  C    0.281955
    15  C   -0.217517
    16  C    0.226728
    17  C    0.073534
    18  C   -0.268373
    19  C    0.147590
    20  C   -0.202478
    21  C   -0.130831
    22  C   -0.135339
    23  C   -0.192066
    24  C    0.074639
    25  C    0.044956
    26  C   -0.191170
    27  C   -0.133340
    28  C   -0.131917
    29  C   -0.195500
    30  C    0.103908
    31  N   -0.528026
    32  C    0.439192
    33  C    0.081634
    34  C   -0.174210
    35  C   -0.179482
    36  C    0.069148
    37  C    0.035611
    38  C   -0.263887
    39  C    0.150754
    40  C   -0.204429
    41  C   -0.130396
    42  C   -0.137427
    43  C   -0.191648
    44  C    0.069614
    45  C    0.049211
    46  C   -0.190260
    47  C   -0.135451
    48  C   -0.128490
    49  C   -0.219252
    50  C    0.102380
    51  C   -0.175847
    52  C   -0.170516
    53  N   -0.557838
    54  C   -0.179188
    55  C   -0.186258
    56  C   -0.180270
    57  C   -0.180161
    58  C   -0.139909
    59  H    0.139466
    60  H    0.143443
    61  H    0.145190
    62  H    0.135255
    63  H    0.136869
    64  H    0.138366
    65  H    0.162854
    66  H    0.153627
    67  H    0.135098
    68  H    0.130776
    69  H    0.132499
    70  H    0.132264
    71  H    0.136913
    72  H    0.133262
    73  H    0.130576
    74  H    0.132334
    75  H    0.153891
    76  H    0.164405
    77  H    0.142477
    78  H    0.134854
    79  H    0.130547
    80  H    0.130080
    81  H    0.129237
    82  H    0.133917
    83  H    0.132819
    84  H    0.129128
    85  H    0.130668
    86  H    0.149385
    87  H    0.135136
    88  H    0.156731
    89  H    0.133479
    90  H    0.135717
    91  H    0.139258
    92  H    0.141059
    93  H    0.145147
 Sum of Mulliken charges =  -0.00000
 Mulliken charges with hydrogens summed into heavy atoms:
               1
     1  C   -0.005020
     2  C    0.184514
     3  N   -0.411087
     4  C    0.144347
     5  C    0.068089
     6  C    0.093841
     7  C   -0.045439
     8  C   -0.042732
     9  C    0.095418
    10  C    0.101509
    11  C   -0.044537
    12  C   -0.000631
    13  C    0.097065
    14  C    0.281955
    15  C   -0.063891
    16  C    0.226728
    17  C    0.073534
    18  C   -0.133275
    19  C    0.147590
    20  C   -0.071702
    21  C    0.001667
    22  C   -0.003075
    23  C   -0.055153
    24  C    0.074639
    25  C    0.044956
    26  C   -0.057909
    27  C   -0.002764
    28  C    0.000417
    29  C   -0.041609
    30  C    0.103908
    31  N   -0.528026
    32  C    0.439192
    33  C    0.081634
    34  C   -0.009805
    35  C   -0.037005
    36  C    0.069148
    37  C    0.035611
    38  C   -0.129033
    39  C    0.150754
    40  C   -0.073882
    41  C   -0.000316
    42  C   -0.008190
    43  C   -0.057731
    44  C    0.069614
    45  C    0.049211
    46  C   -0.057441
    47  C   -0.006324
    48  C    0.002179
    49  C   -0.069866
    50  C    0.102380
    51  C   -0.040711
    52  C   -0.013785
    53  N   -0.557838
    54  C   -0.045709
    55  C   -0.050541
    56  C   -0.041012
    57  C   -0.039101
    58  C    0.005238
 Electronic spatial extent (au):  <R**2>=          81793.5227
 Charge=             -0.0000 electrons
 Dipole moment (field-independent basis, Debye):
    X=             -1.1941    Y=              3.2764    Z=              0.2746  Tot=              3.4980
 Quadrupole moment (field-independent basis, Debye-Ang):
   XX=           -298.7795   YY=           -309.7528   ZZ=           -321.7591
   XY=            -29.5060   XZ=            -11.3665   YZ=             10.1393
 Traceless Quadrupole moment (field-independent basis, Debye-Ang):
   XX=             11.3176   YY=              0.3444   ZZ=            -11.6620
   XY=            -29.5060   XZ=            -11.3665   YZ=             10.1393
 Octapole moment (field-independent basis, Debye-Ang**2):
  XXX=            -98.3281  YYY=            299.0916  ZZZ=              0.0338  XYY=            274.2508
  XXY=            173.7445  XXZ=            152.3629  XZZ=             43.0134  YZZ=              8.2741
  YYZ=            -32.8938  XYZ=            -34.7807
 Hexadecapole moment (field-independent basis, Debye-Ang**3):
 XXXX=         -67983.8093 YYYY=         -33851.5128 ZZZZ=          -3201.0640 XXXY=          -3824.6275
 XXXZ=           -658.4265 YYYX=          -1309.7117 YYYZ=            656.1822 ZZZX=             12.2164
 ZZZY=             74.4037 XXYY=         -19634.0784 XXZZ=         -12876.6286 YYZZ=          -6442.2785
 XXYZ=           -191.6710 YYXZ=           -670.0180 ZZXY=            -50.8176
 N-N= 6.294037210749D+03 E-N=-1.787240304889D+04  KE= 2.259247593314D+03
 No NMR shielding tensors so no spin-rotation constants.
 Leave Link  601 at Sat Nov  5 01:29:53 2022, MaxMem=   805306368 cpu:               3.1 elap:               0.5
 (Enter /home/wykgroup/appl/g16/l9999.exe)
 1\1\GINC-NODE83\FOpt\RB3LYP\6-31G(d)\C55H35N3\WYKGROUP\05-Nov-2022\0\\
 #p b3lyp/6-31g(d) opt SCF=XQC\\Gaussian input prepared by ASE\\0,1\C,1
 2.5551885509,-3.8367472495,-1.2044322989\C,12.4944042855,-5.2282351081
 ,-1.2894008482\N,11.3490378665,-5.9182406936,-1.2222246543\C,10.220602
 7092,-5.2223418028,-1.0612200354\C,10.1541385152,-3.8216930848,-0.9496
 151423\C,8.8603105695,-3.1246503313,-0.7649658485\C,8.6061362456,-1.88
 90212599,-1.3835186313\C,7.3914983922,-1.2338359187,-1.2106155253\C,6.
 373997027,-1.7854393358,-0.4132617379\C,5.0788721809,-1.0884601709,-0.
 2287432365\C,3.8726155608,-1.8053947677,-0.1362414288\C,2.657995038,-1
 .1531789175,0.0362668272\C,2.5974417723,0.2464354795,0.1329110483\C,1.
 2896578044,0.9204916711,0.3290018921\C,1.1838449561,2.2314523333,0.811
 6458116\C,-0.0976828483,2.7757943151,0.9583898616\C,-0.2729399949,4.18
 72416425,1.4044237373\C,0.5010138564,5.1425353022,0.803643712\C,0.3980
 68088,6.5328069382,1.1189962125\C,1.2043375757,7.4837160283,0.44990825
 46\C,1.1055847094,8.8289526946,0.7422029776\C,0.1865703342,9.258948276
 8,1.7178274113\C,-0.6120817295,8.3453123757,2.38221733\C,-0.5324928641
 ,6.9596953422,2.1080670494\C,-1.3473381059,5.9576966909,2.784253691\C,
 -2.2626924489,6.3091458026,3.8043082358\C,-3.0204282467,5.3581386054,4
 .4599184017\C,-2.8879123046,4.0014120599,4.1206947698\C,-2.0065363865,
 3.6225078912,3.1270683075\C,-1.2247308379,4.5765544323,2.4311836488\N,
 -1.1913885585,2.0533897323,0.6704512455\C,-1.0045009284,0.7976999413,0
 .2284550271\C,-2.2202442342,0.0042973306,-0.0857298314\C,-3.4991229763
 ,0.5521559832,0.1034641438\C,-4.6384324658,-0.1895409181,-0.1895594406
 \C,-4.5426864583,-1.5034267536,-0.6816122001\C,-5.7531903822,-2.332255
 9187,-0.9418497812\C,-5.8716291608,-3.5379316774,-0.3062041147\C,-7.01
 70467698,-4.3822752144,-0.4528247975\C,-7.0984531967,-5.6119037672,0.2
 427160605\C,-8.2082558766,-6.4240445516,0.1236645747\C,-9.2766820724,-
 6.0212958982,-0.6995342112\C,-9.2177853837,-4.8227380606,-1.3878108257
 \C,-8.0928264036,-3.9704535486,-1.2900231883\C,-7.9779382614,-2.706101
 3305,-2.0055714071\C,-8.9868826776,-2.2502667263,-2.8864189445\C,-8.85
 88413332,-1.0680265198,-3.5906261165\C,-7.6971486773,-0.290558485,-3.4
 502360265\C,-6.6949792847,-0.7030616302,-2.593556895\C,-6.8094313263,-
 1.8972204769,-1.8404687332\C,-3.2596959175,-2.0446302789,-0.8676003594
 \C,-2.1173705814,-1.305454249,-0.5768178308\N,0.1861598347,0.208641650
 5,0.043229348\C,3.7986574082,0.9667173287,0.0346824542\C,5.0129656168,
 0.31276445,-0.1432170368\C,6.6286088307,-3.0220420602,0.203899681\C,7.
 844380411,-3.6762629179,0.0336867988\C,11.3705960067,-3.1273859491,-1.
 0294691094\H,13.510674619,-3.3235048109,-1.2619415114\H,13.4019960047,
 -5.8158867692,-1.4167906533\H,9.3027759437,-5.8078287999,-1.0382861817
 \H,9.3566286448,-1.4522491127,-2.0367465599\H,7.2149386512,-0.29722511
 53,-1.73181683\H,3.8860687093,-2.8877916704,-0.2270108878\H,1.73445887
 ,-1.7179421443,0.0949504151\H,2.0548524439,2.8037202762,1.1049896754\H
 ,1.2017188119,4.8517869702,0.0248844107\H,1.9057220889,7.1337411497,-0
 .3039858709\H,1.7291499251,9.5515465876,0.2232653028\H,0.1004099144,10
 .3167033308,1.951279144\H,-1.3113298396,8.7137321816,3.1244346888\H,-2
 .3739895095,7.3486034039,4.0916830461\H,-3.7132645876,5.6619671019,5.2
 399651275\H,-3.4758647209,3.2485156266,4.6383921571\H,-1.9167027856,2.
 5774894467,2.8611943713\H,-3.5845704013,1.5628578355,0.4866820085\H,-5
 .6187920615,0.2463881219,-0.0194874927\H,-5.0843914323,-3.8621065986,0
 .370108573\H,-6.2662466106,-5.9062072011,0.8779846184\H,-8.259394178,-
 7.3664058326,0.662096467\H,-10.1548813184,-6.6540071464,-0.7959552257\
 H,-10.0593472644,-4.542708425,-2.0118584541\H,-9.8849601876,-2.8416346
 955,-3.0262379779\H,-9.6528279223,-0.7487213953,-4.2603251827\H,-7.582
 0630958,0.6290263408,-4.0174925754\H,-5.7932566959,-0.1086733253,-2.50
 05218906\H,-3.1634002713,-3.0534025728,-1.2596166484\H,-1.1327376013,-
 1.7307225948,-0.7348486053\H,3.7917834952,2.0513733872,0.0827594062\H,
 5.9275449264,0.896393982,-0.1951116058\H,5.8778029851,-3.4596018827,0.
 8556118995\H,8.0213588666,-4.6124092331,0.5555006241\H,11.3868171319,-
 2.0452041423,-0.9315570588\\Version=ES64L-G16RevB.01\State=1-A\HF=-228
 1.2893707\RMSD=2.557e-09\RMSF=5.911e-06\Dipole=0.5797906,1.2204688,0.2
 613726\Quadrupole=12.4506173,-0.4048789,-12.0457384,22.6468169,-2.2741
 524,-3.7817954\PG=C01 [X(C55H35N3)]\\@


 "A LITTLE BIT GOES A LONG WAY"
 R.S. MULLIKEN AS QUOTED BY K. RUEDENBERG
 Job cpu time:       0 days  4 hours 42 minutes  5.7 seconds.
 Elapsed time:       0 days  0 hours 40 minutes 48.2 seconds.
 File lengths (MBytes):  RWF=    547 Int=      0 D2E=      0 Chk=     70 Scr=      1
 Normal termination of Gaussian 16 at Sat Nov  5 01:29:53 2022.
