 Entering Gaussian System, Link 0=/home/wykgroup/appl/g16/g16
 Input=./calculation/no_transfer_pubchem_sampling_9_b3lyp/135264494.com
 Output=./calculation/no_transfer_pubchem_sampling_9_b3lyp/135264494.log
 Initial command:
 /home/wykgroup/appl/g16/l1.exe "/userdata/scratch/wykgroup/khs/./calculation/no_transfer_pubchem_sampling_9_b3lyp/135264494/Gau-20091.inp" -scrdir="/userdata/scratch/wykgroup/khs/./calculation/no_transfer_pubchem_sampling_9_b3lyp/135264494/"
 Entering Link 1 = /home/wykgroup/appl/g16/l1.exe PID=     20092.
  
 Copyright (c) 1988-2017, Gaussian, Inc.  All Rights Reserved.
  
 This is part of the Gaussian(R) 16 program.  It is based on
 the Gaussian(R) 09 system (copyright 2009, Gaussian, Inc.),
 the Gaussian(R) 03 system (copyright 2003, Gaussian, Inc.),
 the Gaussian(R) 98 system (copyright 1998, Gaussian, Inc.),
 the Gaussian(R) 94 system (copyright 1995, Gaussian, Inc.),
 the Gaussian 92(TM) system (copyright 1992, Gaussian, Inc.),
 the Gaussian 90(TM) system (copyright 1990, Gaussian, Inc.),
 the Gaussian 88(TM) system (copyright 1988, Gaussian, Inc.),
 the Gaussian 86(TM) system (copyright 1986, Carnegie Mellon
 University), and the Gaussian 82(TM) system (copyright 1983,
 Carnegie Mellon University). Gaussian is a federally registered
 trademark of Gaussian, Inc.
  
 This software contains proprietary and confidential information,
 including trade secrets, belonging to Gaussian, Inc.
  
 This software is provided under written license and may be
 used, copied, transmitted, or stored only in accord with that
 written license.
  
 The following legend is applicable only to US Government
 contracts under FAR:
  
                    RESTRICTED RIGHTS LEGEND
  
 Use, reproduction and disclosure by the US Government is
 subject to restrictions as set forth in subparagraphs (a)
 and (c) of the Commercial Computer Software - Restricted
 Rights clause in FAR 52.227-19.
  
 Gaussian, Inc.
 340 Quinnipiac St., Bldg. 40, Wallingford CT 06492
  
  
 ---------------------------------------------------------------
 Warning -- This program may not be used in any manner that
 competes with the business of Gaussian, Inc. or will provide
 assistance to any competitor of Gaussian, Inc.  The licensee
 of this program is prohibited from giving any competitor of
 Gaussian, Inc. access to this program.  By using this program,
 the user acknowledges that Gaussian, Inc. is engaged in the
 business of creating and licensing software in the field of
 computational chemistry and represents and warrants to the
 licensee that it is not a competitor of Gaussian, Inc. and that
 it will not use this program in any manner prohibited above.
 ---------------------------------------------------------------
  

 Cite this work as:
 Gaussian 16, Revision B.01,
 M. J. Frisch, G. W. Trucks, H. B. Schlegel, G. E. Scuseria, 
 M. A. Robb, J. R. Cheeseman, G. Scalmani, V. Barone, 
 G. A. Petersson, H. Nakatsuji, X. Li, M. Caricato, A. V. Marenich, 
 J. Bloino, B. G. Janesko, R. Gomperts, B. Mennucci, H. P. Hratchian, 
 J. V. Ortiz, A. F. Izmaylov, J. L. Sonnenberg, D. Williams-Young, 
 F. Ding, F. Lipparini, F. Egidi, J. Goings, B. Peng, A. Petrone, 
 T. Henderson, D. Ranasinghe, V. G. Zakrzewski, J. Gao, N. Rega, 
 G. Zheng, W. Liang, M. Hada, M. Ehara, K. Toyota, R. Fukuda, 
 J. Hasegawa, M. Ishida, T. Nakajima, Y. Honda, O. Kitao, H. Nakai, 
 T. Vreven, K. Throssell, J. A. Montgomery, Jr., J. E. Peralta, 
 F. Ogliaro, M. J. Bearpark, J. J. Heyd, E. N. Brothers, K. N. Kudin, 
 V. N. Staroverov, T. A. Keith, R. Kobayashi, J. Normand, 
 K. Raghavachari, A. P. Rendell, J. C. Burant, S. S. Iyengar, 
 J. Tomasi, M. Cossi, J. M. Millam, M. Klene, C. Adamo, R. Cammi, 
 J. W. Ochterski, R. L. Martin, K. Morokuma, O. Farkas, 
 J. B. Foresman, and D. J. Fox, Gaussian, Inc., Wallingford CT, 2016.
 
 ******************************************
 Gaussian 16:  ES64L-G16RevB.01 20-Dec-2017
                 5-Nov-2022 
 ******************************************
 %chk=./calculation/no_transfer_pubchem_sampling_9_b3lyp/135264494.chk
 %nprocshared=7
 Will use up to    7 processors via shared memory.
 %mem=6GB
 -----------------------------
 #p b3lyp/6-31g(d) opt SCF=XQC
 -----------------------------
 1/18=20,19=15,26=3,38=1/1,3;
 2/9=110,12=2,17=6,18=5,40=1/2;
 3/5=1,6=6,7=1,11=2,25=1,30=1,71=1,74=-5/1,2,3;
 4//1;
 5/5=2,8=3,13=1,38=5/2,8;
 6/7=2,8=2,9=2,10=2,28=1/1;
 7//1,2,3,16;
 1/18=20,19=15,26=3/3(2);
 2/9=110/2;
 99//99;
 2/9=110/2;
 3/5=1,6=6,7=1,11=2,25=1,30=1,71=1,74=-5/1,2,3;
 4/5=5,16=3,69=1/1;
 5/5=2,8=3,13=1,38=5/2,8;
 7//1,2,3,16;
 1/18=20,19=15,26=3/3(-5);
 2/9=110/2;
 6/7=2,8=2,9=2,10=2,19=2,28=1/1;
 99/9=1/99;
 Leave Link    1 at Sat Nov  5 00:52:26 2022, MaxMem=   805306368 cpu:               0.8 elap:               0.1
 (Enter /home/wykgroup/appl/g16/l101.exe)
 ------------------------------
 Gaussian input prepared by ASE
 ------------------------------
 Symbolic Z-matrix:
 Charge =  0 Multiplicity = 1
 C                    -6.8562    3.4058   -2.1558 
 C                    -6.77618   2.0408   -2.38349 
 C                    -5.70766   1.31628  -1.89271 
 C                    -4.70334   1.95485  -1.16628 
 C                    -3.5719    1.1918   -0.64438 
 N                    -2.65369   1.84187   0.07382 
 C                    -1.63428   1.15922   0.53913 
 C                    -1.48412  -0.219     0.32069 
 N                    -0.40599  -0.93128   0.80535 
 C                    -0.51715  -2.29018   1.12416 
 C                    -1.70697  -2.78295   1.70673 
 C                    -1.82113  -4.10072   2.03618 
 C                    -0.75878  -5.00342   1.815 
 C                    -0.84944  -6.36934   2.14701 
 C                     0.20273  -7.21347   1.92322 
 C                     1.39178  -6.727     1.35771 
 C                     1.51154  -5.40667   1.02668 
 C                     0.44415  -4.50948   1.24454 
 C                     0.53584  -3.14811   0.90386 
 C                     0.82614  -0.2795    1.00222 
 C                     1.54918  -0.47289   2.1668 
 C                     2.75647   0.18653   2.38743 
 C                     3.291     1.04832   1.45344 
 C                     2.59267   1.22213   0.26338 
 C                     1.35293   0.58012   0.02553 
 C                     0.91322   1.00523  -1.25996 
 C                     1.85128   1.86759  -1.73173 
 N                     2.87586   2.00378  -0.82984 
 C                     4.01257   2.79813  -1.03067 
 C                     5.28114   2.30646  -0.7374 
 C                     6.39351   3.10069  -0.94573 
 C                     6.25451   4.38001  -1.45741 
 C                     4.99409   4.86464  -1.76479 
 C                     3.87513   4.08164  -1.55163 
 C                    -2.50557  -0.8036   -0.44206 
 N                    -3.51752  -0.11385  -0.91491 
 C                    -4.78895   3.32823  -0.94126 
 C                    -5.86086   4.0462   -1.43419 
 H                    -7.69363   3.96999  -2.54027 
 H                    -7.55246   1.5422   -2.94588 
 H                    -5.6302    0.25344  -2.06009 
 H                    -0.90479   1.71664   1.11402 
 H                    -2.51847  -2.09716   1.90262 
 H                    -2.73152  -4.47006   2.4861 
 H                    -1.76801  -6.73745   2.58173 
 H                     0.12712  -8.26003   2.17943 
 H                     2.2131   -7.40778   1.18703 
 H                     2.42533  -5.02767   0.59153 
 H                     1.45072  -2.77677   0.46472 
 H                     1.15966  -1.13863   2.92272 
 H                     3.27502   0.02425   3.32008 
 H                     4.21111   1.57635   1.64788 
 H                     0.02221   0.70055  -1.77161 
 H                     1.88734   2.38151  -2.673 
 H                     5.39068   1.29836  -0.36794 
 H                     7.37511   2.7137   -0.7159 
 H                     7.12596   4.9957   -1.62019 
 H                     4.88006   5.86032  -2.1667 
 H                     2.88994   4.46289  -1.77551 
 H                    -2.49079  -1.85994  -0.68395 
 H                    -4.00555   3.81041  -0.37785 
 H                    -5.92394   5.11028  -1.25712 
 
 ITRead=  0  0  0  0  0  0  0  0  0  0  0  0  0  0  0  0  0  0  0  0
 ITRead=  0  0  0  0  0  0  0  0  0  0  0  0  0  0  0  0  0  0  0  0
 ITRead=  0  0  0  0  0  0  0  0  0  0  0  0  0  0  0  0  0  0  0  0
 ITRead=  0  0
 MicOpt= -1 -1 -1 -1 -1 -1 -1 -1 -1 -1 -1 -1 -1 -1 -1 -1 -1 -1 -1 -1
 MicOpt= -1 -1 -1 -1 -1 -1 -1 -1 -1 -1 -1 -1 -1 -1 -1 -1 -1 -1 -1 -1
 MicOpt= -1 -1 -1 -1 -1 -1 -1 -1 -1 -1 -1 -1 -1 -1 -1 -1 -1 -1 -1 -1
 MicOpt= -1 -1
 NAtoms=     62 NQM=       62 NQMF=       0 NMMI=      0 NMMIF=      0
                NMic=       0 NMicF=      0.
                    Isotopes and Nuclear Properties:
 (Nuclear quadrupole moments (NQMom) in fm**2, nuclear magnetic moments (NMagM)
  in nuclear magnetons)

  Atom         1           2           3           4           5           6           7           8           9          10
 IAtWgt=          12          12          12          12          12          14          12          12          14          12
 AtmWgt=  12.0000000  12.0000000  12.0000000  12.0000000  12.0000000  14.0030740  12.0000000  12.0000000  14.0030740  12.0000000
 NucSpn=           0           0           0           0           0           2           0           0           2           0
 AtZEff=  -0.0000000  -0.0000000  -0.0000000  -0.0000000  -0.0000000  -0.0000000  -0.0000000  -0.0000000  -0.0000000  -0.0000000
 NQMom=    0.0000000   0.0000000   0.0000000   0.0000000   0.0000000   2.0440000   0.0000000   0.0000000   2.0440000   0.0000000
 NMagM=    0.0000000   0.0000000   0.0000000   0.0000000   0.0000000   0.4037610   0.0000000   0.0000000   0.4037610   0.0000000
 AtZNuc=   6.0000000   6.0000000   6.0000000   6.0000000   6.0000000   7.0000000   6.0000000   6.0000000   7.0000000   6.0000000

  Atom        11          12          13          14          15          16          17          18          19          20
 IAtWgt=          12          12          12          12          12          12          12          12          12          12
 AtmWgt=  12.0000000  12.0000000  12.0000000  12.0000000  12.0000000  12.0000000  12.0000000  12.0000000  12.0000000  12.0000000
 NucSpn=           0           0           0           0           0           0           0           0           0           0
 AtZEff=  -0.0000000  -0.0000000  -0.0000000  -0.0000000  -0.0000000  -0.0000000  -0.0000000  -0.0000000  -0.0000000  -0.0000000
 NQMom=    0.0000000   0.0000000   0.0000000   0.0000000   0.0000000   0.0000000   0.0000000   0.0000000   0.0000000   0.0000000
 NMagM=    0.0000000   0.0000000   0.0000000   0.0000000   0.0000000   0.0000000   0.0000000   0.0000000   0.0000000   0.0000000
 AtZNuc=   6.0000000   6.0000000   6.0000000   6.0000000   6.0000000   6.0000000   6.0000000   6.0000000   6.0000000   6.0000000

  Atom        21          22          23          24          25          26          27          28          29          30
 IAtWgt=          12          12          12          12          12          12          12          14          12          12
 AtmWgt=  12.0000000  12.0000000  12.0000000  12.0000000  12.0000000  12.0000000  12.0000000  14.0030740  12.0000000  12.0000000
 NucSpn=           0           0           0           0           0           0           0           2           0           0
 AtZEff=  -0.0000000  -0.0000000  -0.0000000  -0.0000000  -0.0000000  -0.0000000  -0.0000000  -0.0000000  -0.0000000  -0.0000000
 NQMom=    0.0000000   0.0000000   0.0000000   0.0000000   0.0000000   0.0000000   0.0000000   2.0440000   0.0000000   0.0000000
 NMagM=    0.0000000   0.0000000   0.0000000   0.0000000   0.0000000   0.0000000   0.0000000   0.4037610   0.0000000   0.0000000
 AtZNuc=   6.0000000   6.0000000   6.0000000   6.0000000   6.0000000   6.0000000   6.0000000   7.0000000   6.0000000   6.0000000

  Atom        31          32          33          34          35          36          37          38          39          40
 IAtWgt=          12          12          12          12          12          14          12          12           1           1
 AtmWgt=  12.0000000  12.0000000  12.0000000  12.0000000  12.0000000  14.0030740  12.0000000  12.0000000   1.0078250   1.0078250
 NucSpn=           0           0           0           0           0           2           0           0           1           1
 AtZEff=  -0.0000000  -0.0000000  -0.0000000  -0.0000000  -0.0000000  -0.0000000  -0.0000000  -0.0000000  -0.0000000  -0.0000000
 NQMom=    0.0000000   0.0000000   0.0000000   0.0000000   0.0000000   2.0440000   0.0000000   0.0000000   0.0000000   0.0000000
 NMagM=    0.0000000   0.0000000   0.0000000   0.0000000   0.0000000   0.4037610   0.0000000   0.0000000   2.7928460   2.7928460
 AtZNuc=   6.0000000   6.0000000   6.0000000   6.0000000   6.0000000   7.0000000   6.0000000   6.0000000   1.0000000   1.0000000

  Atom        41          42          43          44          45          46          47          48          49          50
 IAtWgt=           1           1           1           1           1           1           1           1           1           1
 AtmWgt=   1.0078250   1.0078250   1.0078250   1.0078250   1.0078250   1.0078250   1.0078250   1.0078250   1.0078250   1.0078250
 NucSpn=           1           1           1           1           1           1           1           1           1           1
 AtZEff=  -0.0000000  -0.0000000  -0.0000000  -0.0000000  -0.0000000  -0.0000000  -0.0000000  -0.0000000  -0.0000000  -0.0000000
 NQMom=    0.0000000   0.0000000   0.0000000   0.0000000   0.0000000   0.0000000   0.0000000   0.0000000   0.0000000   0.0000000
 NMagM=    2.7928460   2.7928460   2.7928460   2.7928460   2.7928460   2.7928460   2.7928460   2.7928460   2.7928460   2.7928460
 AtZNuc=   1.0000000   1.0000000   1.0000000   1.0000000   1.0000000   1.0000000   1.0000000   1.0000000   1.0000000   1.0000000

  Atom        51          52          53          54          55          56          57          58          59          60
 IAtWgt=           1           1           1           1           1           1           1           1           1           1
 AtmWgt=   1.0078250   1.0078250   1.0078250   1.0078250   1.0078250   1.0078250   1.0078250   1.0078250   1.0078250   1.0078250
 NucSpn=           1           1           1           1           1           1           1           1           1           1
 AtZEff=  -0.0000000  -0.0000000  -0.0000000  -0.0000000  -0.0000000  -0.0000000  -0.0000000  -0.0000000  -0.0000000  -0.0000000
 NQMom=    0.0000000   0.0000000   0.0000000   0.0000000   0.0000000   0.0000000   0.0000000   0.0000000   0.0000000   0.0000000
 NMagM=    2.7928460   2.7928460   2.7928460   2.7928460   2.7928460   2.7928460   2.7928460   2.7928460   2.7928460   2.7928460
 AtZNuc=   1.0000000   1.0000000   1.0000000   1.0000000   1.0000000   1.0000000   1.0000000   1.0000000   1.0000000   1.0000000

  Atom        61          62
 IAtWgt=           1           1
 AtmWgt=   1.0078250   1.0078250
 NucSpn=           1           1
 AtZEff=  -0.0000000  -0.0000000
 NQMom=    0.0000000   0.0000000
 NMagM=    2.7928460   2.7928460
 AtZNuc=   1.0000000   1.0000000
 Leave Link  101 at Sat Nov  5 00:52:26 2022, MaxMem=   805306368 cpu:               1.3 elap:               0.2
 (Enter /home/wykgroup/appl/g16/l103.exe)

 GradGradGradGradGradGradGradGradGradGradGradGradGradGradGradGradGradGrad
 Berny optimization.
 Initialization pass.
                           ----------------------------
                           !    Initial Parameters    !
                           ! (Angstroms and Degrees)  !
 --------------------------                            --------------------------
 ! Name  Definition              Value          Derivative Info.                !
 --------------------------------------------------------------------------------
 ! R1    R(1,2)                  1.3862         estimate D2E/DX2                !
 ! R2    R(1,38)                 1.3862         estimate D2E/DX2                !
 ! R3    R(1,39)                 1.0805         estimate D2E/DX2                !
 ! R4    R(2,3)                  1.3811         estimate D2E/DX2                !
 ! R5    R(2,40)                 1.0805         estimate D2E/DX2                !
 ! R6    R(3,4)                  1.3943         estimate D2E/DX2                !
 ! R7    R(3,41)                 1.0787         estimate D2E/DX2                !
 ! R8    R(4,5)                  1.4611         estimate D2E/DX2                !
 ! R9    R(4,37)                 1.3943         estimate D2E/DX2                !
 ! R10   R(5,6)                  1.3347         estimate D2E/DX2                !
 ! R11   R(5,36)                 1.3345         estimate D2E/DX2                !
 ! R12   R(6,7)                  1.3121         estimate D2E/DX2                !
 ! R13   R(7,8)                  1.4035         estimate D2E/DX2                !
 ! R14   R(7,42)                 1.0832         estimate D2E/DX2                !
 ! R15   R(8,9)                  1.3801         estimate D2E/DX2                !
 ! R16   R(8,35)                 1.4025         estimate D2E/DX2                !
 ! R17   R(9,10)                 1.4002         estimate D2E/DX2                !
 ! R18   R(9,20)                 1.4077         estimate D2E/DX2                !
 ! R19   R(10,11)                1.4135         estimate D2E/DX2                !
 ! R20   R(10,19)                1.376          estimate D2E/DX2                !
 ! R21   R(11,12)                1.3631         estimate D2E/DX2                !
 ! R22   R(11,43)                1.0804         estimate D2E/DX2                !
 ! R23   R(12,13)                1.4115         estimate D2E/DX2                !
 ! R24   R(12,44)                1.0806         estimate D2E/DX2                !
 ! R25   R(13,14)                1.4086         estimate D2E/DX2                !
 ! R26   R(13,18)                1.42           estimate D2E/DX2                !
 ! R27   R(14,15)                1.3674         estimate D2E/DX2                !
 ! R28   R(14,45)                1.0809         estimate D2E/DX2                !
 ! R29   R(15,16)                1.4037         estimate D2E/DX2                !
 ! R30   R(15,46)                1.0801         estimate D2E/DX2                !
 ! R31   R(16,17)                1.3665         estimate D2E/DX2                !
 ! R32   R(16,47)                1.0804         estimate D2E/DX2                !
 ! R33   R(17,18)                1.4113         estimate D2E/DX2                !
 ! R34   R(17,48)                1.0807         estimate D2E/DX2                !
 ! R35   R(18,19)                1.4063         estimate D2E/DX2                !
 ! R36   R(19,49)                1.0806         estimate D2E/DX2                !
 ! R37   R(20,21)                1.3844         estimate D2E/DX2                !
 ! R38   R(20,25)                1.4037         estimate D2E/DX2                !
 ! R39   R(21,22)                1.3932         estimate D2E/DX2                !
 ! R40   R(21,50)                1.08           estimate D2E/DX2                !
 ! R41   R(22,23)                1.3787         estimate D2E/DX2                !
 ! R42   R(22,51)                1.0794         estimate D2E/DX2                !
 ! R43   R(23,24)                1.3907         estimate D2E/DX2                !
 ! R44   R(23,52)                1.0785         estimate D2E/DX2                !
 ! R45   R(24,25)                1.4162         estimate D2E/DX2                !
 ! R46   R(24,28)                1.3734         estimate D2E/DX2                !
 ! R47   R(25,26)                1.4236         estimate D2E/DX2                !
 ! R48   R(26,27)                1.3587         estimate D2E/DX2                !
 ! R49   R(26,53)                1.0717         estimate D2E/DX2                !
 ! R50   R(27,28)                1.3718         estimate D2E/DX2                !
 ! R51   R(27,54)                1.073          estimate D2E/DX2                !
 ! R52   R(28,29)                1.4012         estimate D2E/DX2                !
 ! R53   R(29,30)                1.3918         estimate D2E/DX2                !
 ! R54   R(29,34)                1.392          estimate D2E/DX2                !
 ! R55   R(30,31)                1.3826         estimate D2E/DX2                !
 ! R56   R(30,55)                1.0792         estimate D2E/DX2                !
 ! R57   R(31,32)                1.3848         estimate D2E/DX2                !
 ! R58   R(31,56)                1.0799         estimate D2E/DX2                !
 ! R59   R(32,33)                1.3849         estimate D2E/DX2                !
 ! R60   R(32,57)                1.0794         estimate D2E/DX2                !
 ! R61   R(33,34)                1.3822         estimate D2E/DX2                !
 ! R62   R(33,58)                1.0798         estimate D2E/DX2                !
 ! R63   R(34,59)                1.0799         estimate D2E/DX2                !
 ! R64   R(35,36)                1.3128         estimate D2E/DX2                !
 ! R65   R(35,60)                1.0838         estimate D2E/DX2                !
 ! R66   R(37,38)                1.3811         estimate D2E/DX2                !
 ! R67   R(37,61)                1.0787         estimate D2E/DX2                !
 ! R68   R(38,62)                1.0806         estimate D2E/DX2                !
 ! A1    A(2,1,38)             119.9329         estimate D2E/DX2                !
 ! A2    A(2,1,39)             120.0325         estimate D2E/DX2                !
 ! A3    A(38,1,39)            120.0346         estimate D2E/DX2                !
 ! A4    A(1,2,3)              120.19           estimate D2E/DX2                !
 ! A5    A(1,2,40)             119.8955         estimate D2E/DX2                !
 ! A6    A(3,2,40)             119.9144         estimate D2E/DX2                !
 ! A7    A(2,3,4)              120.1415         estimate D2E/DX2                !
 ! A8    A(2,3,41)             121.1498         estimate D2E/DX2                !
 ! A9    A(4,3,41)             118.7087         estimate D2E/DX2                !
 ! A10   A(3,4,5)              120.3113         estimate D2E/DX2                !
 ! A11   A(3,4,37)             119.4035         estimate D2E/DX2                !
 ! A12   A(5,4,37)             120.2852         estimate D2E/DX2                !
 ! A13   A(4,5,6)              118.0714         estimate D2E/DX2                !
 ! A14   A(4,5,36)             118.0412         estimate D2E/DX2                !
 ! A15   A(6,5,36)             123.8874         estimate D2E/DX2                !
 ! A16   A(5,6,7)              118.1573         estimate D2E/DX2                !
 ! A17   A(6,7,8)              122.6035         estimate D2E/DX2                !
 ! A18   A(6,7,42)             116.34           estimate D2E/DX2                !
 ! A19   A(8,7,42)             121.0556         estimate D2E/DX2                !
 ! A20   A(7,8,9)              122.3953         estimate D2E/DX2                !
 ! A21   A(7,8,35)             114.5855         estimate D2E/DX2                !
 ! A22   A(9,8,35)             123.0136         estimate D2E/DX2                !
 ! A23   A(8,9,10)             121.2537         estimate D2E/DX2                !
 ! A24   A(8,9,20)             119.5982         estimate D2E/DX2                !
 ! A25   A(10,9,20)            119.1421         estimate D2E/DX2                !
 ! A26   A(9,10,11)            119.9342         estimate D2E/DX2                !
 ! A27   A(9,10,19)            120.5238         estimate D2E/DX2                !
 ! A28   A(11,10,19)           119.5245         estimate D2E/DX2                !
 ! A29   A(10,11,12)           120.4731         estimate D2E/DX2                !
 ! A30   A(10,11,43)           119.0595         estimate D2E/DX2                !
 ! A31   A(12,11,43)           120.4593         estimate D2E/DX2                !
 ! A32   A(11,12,13)           121.1548         estimate D2E/DX2                !
 ! A33   A(11,12,44)           120.1069         estimate D2E/DX2                !
 ! A34   A(13,12,44)           118.7342         estimate D2E/DX2                !
 ! A35   A(12,13,14)           122.3286         estimate D2E/DX2                !
 ! A36   A(12,13,18)           118.5593         estimate D2E/DX2                !
 ! A37   A(14,13,18)           119.111          estimate D2E/DX2                !
 ! A38   A(13,14,15)           120.6994         estimate D2E/DX2                !
 ! A39   A(13,14,45)           118.6684         estimate D2E/DX2                !
 ! A40   A(15,14,45)           120.6322         estimate D2E/DX2                !
 ! A41   A(14,15,16)           120.2529         estimate D2E/DX2                !
 ! A42   A(14,15,46)           120.3633         estimate D2E/DX2                !
 ! A43   A(16,15,46)           119.3838         estimate D2E/DX2                !
 ! A44   A(15,16,17)           120.445          estimate D2E/DX2                !
 ! A45   A(15,16,47)           119.2918         estimate D2E/DX2                !
 ! A46   A(17,16,47)           120.2631         estimate D2E/DX2                !
 ! A47   A(16,17,18)           120.7026         estimate D2E/DX2                !
 ! A48   A(16,17,48)           120.6968         estimate D2E/DX2                !
 ! A49   A(18,17,48)           118.6005         estimate D2E/DX2                !
 ! A50   A(13,18,17)           118.7889         estimate D2E/DX2                !
 ! A51   A(13,18,19)           119.2923         estimate D2E/DX2                !
 ! A52   A(17,18,19)           121.9169         estimate D2E/DX2                !
 ! A53   A(10,19,18)           120.9896         estimate D2E/DX2                !
 ! A54   A(10,19,49)           119.913          estimate D2E/DX2                !
 ! A55   A(18,19,49)           119.0973         estimate D2E/DX2                !
 ! A56   A(9,20,21)            120.671          estimate D2E/DX2                !
 ! A57   A(9,20,25)            120.9775         estimate D2E/DX2                !
 ! A58   A(21,20,25)           118.3515         estimate D2E/DX2                !
 ! A59   A(20,21,22)           121.3116         estimate D2E/DX2                !
 ! A60   A(20,21,50)           119.1146         estimate D2E/DX2                !
 ! A61   A(22,21,50)           119.5685         estimate D2E/DX2                !
 ! A62   A(21,22,23)           121.6375         estimate D2E/DX2                !
 ! A63   A(21,22,51)           118.8143         estimate D2E/DX2                !
 ! A64   A(23,22,51)           119.5435         estimate D2E/DX2                !
 ! A65   A(22,23,24)           117.5905         estimate D2E/DX2                !
 ! A66   A(22,23,52)           120.9749         estimate D2E/DX2                !
 ! A67   A(24,23,52)           121.43           estimate D2E/DX2                !
 ! A68   A(23,24,25)           121.7771         estimate D2E/DX2                !
 ! A69   A(23,24,28)           130.4451         estimate D2E/DX2                !
 ! A70   A(25,24,28)           107.747          estimate D2E/DX2                !
 ! A71   A(20,25,24)           119.2928         estimate D2E/DX2                !
 ! A72   A(20,25,26)           134.0485         estimate D2E/DX2                !
 ! A73   A(24,25,26)           106.6587         estimate D2E/DX2                !
 ! A74   A(25,26,27)           106.8472         estimate D2E/DX2                !
 ! A75   A(25,26,53)           127.0866         estimate D2E/DX2                !
 ! A76   A(27,26,53)           126.0621         estimate D2E/DX2                !
 ! A77   A(26,27,28)           110.5108         estimate D2E/DX2                !
 ! A78   A(26,27,54)           129.18           estimate D2E/DX2                !
 ! A79   A(28,27,54)           120.2701         estimate D2E/DX2                !
 ! A80   A(24,28,27)           108.2293         estimate D2E/DX2                !
 ! A81   A(24,28,29)           127.156          estimate D2E/DX2                !
 ! A82   A(27,28,29)           124.6084         estimate D2E/DX2                !
 ! A83   A(28,29,30)           120.594          estimate D2E/DX2                !
 ! A84   A(28,29,34)           119.7527         estimate D2E/DX2                !
 ! A85   A(30,29,34)           119.6423         estimate D2E/DX2                !
 ! A86   A(29,30,31)           119.9109         estimate D2E/DX2                !
 ! A87   A(29,30,55)           119.645          estimate D2E/DX2                !
 ! A88   A(31,30,55)           120.4314         estimate D2E/DX2                !
 ! A89   A(30,31,32)           120.3708         estimate D2E/DX2                !
 ! A90   A(30,31,56)           119.564          estimate D2E/DX2                !
 ! A91   A(32,31,56)           120.0624         estimate D2E/DX2                !
 ! A92   A(31,32,33)           119.7769         estimate D2E/DX2                !
 ! A93   A(31,32,57)           120.1088         estimate D2E/DX2                !
 ! A94   A(33,32,57)           120.1138         estimate D2E/DX2                !
 ! A95   A(32,33,34)           120.2845         estimate D2E/DX2                !
 ! A96   A(32,33,58)           120.0928         estimate D2E/DX2                !
 ! A97   A(34,33,58)           119.6214         estimate D2E/DX2                !
 ! A98   A(29,34,33)           120.0071         estimate D2E/DX2                !
 ! A99   A(29,34,59)           119.5516         estimate D2E/DX2                !
 ! A100  A(33,34,59)           120.4372         estimate D2E/DX2                !
 ! A101  A(8,35,36)            122.5687         estimate D2E/DX2                !
 ! A102  A(8,35,60)            121.18           estimate D2E/DX2                !
 ! A103  A(36,35,60)           116.2467         estimate D2E/DX2                !
 ! A104  A(5,36,35)            118.1937         estimate D2E/DX2                !
 ! A105  A(4,37,38)            120.1387         estimate D2E/DX2                !
 ! A106  A(4,37,61)            118.6839         estimate D2E/DX2                !
 ! A107  A(38,37,61)           121.1775         estimate D2E/DX2                !
 ! A108  A(1,38,37)            120.1934         estimate D2E/DX2                !
 ! A109  A(1,38,62)            119.89           estimate D2E/DX2                !
 ! A110  A(37,38,62)           119.9166         estimate D2E/DX2                !
 ! D1    D(38,1,2,3)             0.0367         estimate D2E/DX2                !
 ! D2    D(38,1,2,40)          179.9878         estimate D2E/DX2                !
 ! D3    D(39,1,2,3)          -179.9531         estimate D2E/DX2                !
 ! D4    D(39,1,2,40)           -0.0021         estimate D2E/DX2                !
 ! D5    D(2,1,38,37)            0.0115         estimate D2E/DX2                !
 ! D6    D(2,1,38,62)          179.9995         estimate D2E/DX2                !
 ! D7    D(39,1,38,37)        -179.9986         estimate D2E/DX2                !
 ! D8    D(39,1,38,62)          -0.0106         estimate D2E/DX2                !
 ! D9    D(1,2,3,4)             -0.0434         estimate D2E/DX2                !
 ! D10   D(1,2,3,41)           179.9542         estimate D2E/DX2                !
 ! D11   D(40,2,3,4)          -179.9945         estimate D2E/DX2                !
 ! D12   D(40,2,3,41)            0.0031         estimate D2E/DX2                !
 ! D13   D(2,3,4,5)            179.9462         estimate D2E/DX2                !
 ! D14   D(2,3,4,37)             0.0022         estimate D2E/DX2                !
 ! D15   D(41,3,4,5)            -0.0515         estimate D2E/DX2                !
 ! D16   D(41,3,4,37)         -179.9954         estimate D2E/DX2                !
 ! D17   D(3,4,5,6)           -178.319          estimate D2E/DX2                !
 ! D18   D(3,4,5,36)             1.7229         estimate D2E/DX2                !
 ! D19   D(37,4,5,6)             1.6245         estimate D2E/DX2                !
 ! D20   D(37,4,5,36)         -178.3337         estimate D2E/DX2                !
 ! D21   D(3,4,37,38)            0.0458         estimate D2E/DX2                !
 ! D22   D(3,4,37,61)         -179.9988         estimate D2E/DX2                !
 ! D23   D(5,4,37,38)         -179.8982         estimate D2E/DX2                !
 ! D24   D(5,4,37,61)            0.0572         estimate D2E/DX2                !
 ! D25   D(4,5,6,7)           -179.7498         estimate D2E/DX2                !
 ! D26   D(36,5,6,7)             0.2057         estimate D2E/DX2                !
 ! D27   D(4,5,36,35)         -179.6798         estimate D2E/DX2                !
 ! D28   D(6,5,36,35)            0.3647         estimate D2E/DX2                !
 ! D29   D(5,6,7,8)             -0.6122         estimate D2E/DX2                !
 ! D30   D(5,6,7,42)           179.7348         estimate D2E/DX2                !
 ! D31   D(6,7,8,9)            179.6029         estimate D2E/DX2                !
 ! D32   D(6,7,8,35)             0.4367         estimate D2E/DX2                !
 ! D33   D(42,7,8,9)            -0.76           estimate D2E/DX2                !
 ! D34   D(42,7,8,35)         -179.9263         estimate D2E/DX2                !
 ! D35   D(7,8,9,10)           150.9673         estimate D2E/DX2                !
 ! D36   D(7,8,9,20)           -28.1417         estimate D2E/DX2                !
 ! D37   D(35,8,9,10)          -29.9369         estimate D2E/DX2                !
 ! D38   D(35,8,9,20)          150.9541         estimate D2E/DX2                !
 ! D39   D(7,8,35,36)            0.1587         estimate D2E/DX2                !
 ! D40   D(7,8,35,60)          179.3535         estimate D2E/DX2                !
 ! D41   D(9,8,35,36)         -179.0018         estimate D2E/DX2                !
 ! D42   D(9,8,35,60)            0.193          estimate D2E/DX2                !
 ! D43   D(8,9,10,11)          -36.9782         estimate D2E/DX2                !
 ! D44   D(8,9,10,19)          144.5494         estimate D2E/DX2                !
 ! D45   D(20,9,10,11)         142.1348         estimate D2E/DX2                !
 ! D46   D(20,9,10,19)         -36.3376         estimate D2E/DX2                !
 ! D47   D(8,9,20,21)          134.4371         estimate D2E/DX2                !
 ! D48   D(8,9,20,25)          -45.6135         estimate D2E/DX2                !
 ! D49   D(10,9,20,21)         -44.6908         estimate D2E/DX2                !
 ! D50   D(10,9,20,25)         135.2586         estimate D2E/DX2                !
 ! D51   D(9,10,11,12)        -179.2134         estimate D2E/DX2                !
 ! D52   D(9,10,11,43)          -0.2396         estimate D2E/DX2                !
 ! D53   D(19,10,11,12)         -0.7257         estimate D2E/DX2                !
 ! D54   D(19,10,11,43)        178.2481         estimate D2E/DX2                !
 ! D55   D(9,10,19,18)         178.7461         estimate D2E/DX2                !
 ! D56   D(9,10,19,49)          -1.1268         estimate D2E/DX2                !
 ! D57   D(11,10,19,18)          0.2674         estimate D2E/DX2                !
 ! D58   D(11,10,19,49)       -179.6054         estimate D2E/DX2                !
 ! D59   D(10,11,12,13)          0.4269         estimate D2E/DX2                !
 ! D60   D(10,11,12,44)        179.6752         estimate D2E/DX2                !
 ! D61   D(43,11,12,13)       -178.5324         estimate D2E/DX2                !
 ! D62   D(43,11,12,44)          0.7158         estimate D2E/DX2                !
 ! D63   D(11,12,13,14)        179.9398         estimate D2E/DX2                !
 ! D64   D(11,12,13,18)          0.3172         estimate D2E/DX2                !
 ! D65   D(44,12,13,14)          0.6815         estimate D2E/DX2                !
 ! D66   D(44,12,13,18)       -178.9411         estimate D2E/DX2                !
 ! D67   D(12,13,14,15)       -179.7288         estimate D2E/DX2                !
 ! D68   D(12,13,14,45)          0.3196         estimate D2E/DX2                !
 ! D69   D(18,13,14,15)         -0.1083         estimate D2E/DX2                !
 ! D70   D(18,13,14,45)        179.9402         estimate D2E/DX2                !
 ! D71   D(12,13,18,17)        179.7273         estimate D2E/DX2                !
 ! D72   D(12,13,18,19)         -0.7609         estimate D2E/DX2                !
 ! D73   D(14,13,18,17)          0.0923         estimate D2E/DX2                !
 ! D74   D(14,13,18,19)        179.6041         estimate D2E/DX2                !
 ! D75   D(13,14,15,16)          0.0219         estimate D2E/DX2                !
 ! D76   D(13,14,15,46)       -179.9684         estimate D2E/DX2                !
 ! D77   D(45,14,15,16)        179.9725         estimate D2E/DX2                !
 ! D78   D(45,14,15,46)         -0.0178         estimate D2E/DX2                !
 ! D79   D(14,15,16,17)          0.0823         estimate D2E/DX2                !
 ! D80   D(14,15,16,47)       -179.9598         estimate D2E/DX2                !
 ! D81   D(46,15,16,17)       -179.9273         estimate D2E/DX2                !
 ! D82   D(46,15,16,47)          0.0305         estimate D2E/DX2                !
 ! D83   D(15,16,17,18)         -0.0971         estimate D2E/DX2                !
 ! D84   D(15,16,17,48)        179.9689         estimate D2E/DX2                !
 ! D85   D(47,16,17,18)        179.9455         estimate D2E/DX2                !
 ! D86   D(47,16,17,48)          0.0114         estimate D2E/DX2                !
 ! D87   D(16,17,18,13)          0.0092         estimate D2E/DX2                !
 ! D88   D(16,17,18,19)       -179.4892         estimate D2E/DX2                !
 ! D89   D(48,17,18,13)        179.9446         estimate D2E/DX2                !
 ! D90   D(48,17,18,19)          0.4462         estimate D2E/DX2                !
 ! D91   D(13,18,19,10)          0.4731         estimate D2E/DX2                !
 ! D92   D(13,18,19,49)       -179.653          estimate D2E/DX2                !
 ! D93   D(17,18,19,10)        179.969          estimate D2E/DX2                !
 ! D94   D(17,18,19,49)         -0.1571         estimate D2E/DX2                !
 ! D95   D(9,20,21,22)        -178.6628         estimate D2E/DX2                !
 ! D96   D(9,20,21,50)           0.4944         estimate D2E/DX2                !
 ! D97   D(25,20,21,22)          1.3865         estimate D2E/DX2                !
 ! D98   D(25,20,21,50)       -179.4563         estimate D2E/DX2                !
 ! D99   D(9,20,25,24)         179.7142         estimate D2E/DX2                !
 ! D100  D(9,20,25,26)          -0.337          estimate D2E/DX2                !
 ! D101  D(21,20,25,24)         -0.3353         estimate D2E/DX2                !
 ! D102  D(21,20,25,26)        179.6135         estimate D2E/DX2                !
 ! D103  D(20,21,22,23)         -0.6665         estimate D2E/DX2                !
 ! D104  D(20,21,22,51)        178.5362         estimate D2E/DX2                !
 ! D105  D(50,21,22,23)       -179.82           estimate D2E/DX2                !
 ! D106  D(50,21,22,51)         -0.6173         estimate D2E/DX2                !
 ! D107  D(21,22,23,24)         -1.1185         estimate D2E/DX2                !
 ! D108  D(21,22,23,52)        178.1131         estimate D2E/DX2                !
 ! D109  D(51,22,23,24)        179.6845         estimate D2E/DX2                !
 ! D110  D(51,22,23,52)         -1.084          estimate D2E/DX2                !
 ! D111  D(22,23,24,25)          2.1806         estimate D2E/DX2                !
 ! D112  D(22,23,24,28)        179.9002         estimate D2E/DX2                !
 ! D113  D(52,23,24,25)       -177.0473         estimate D2E/DX2                !
 ! D114  D(52,23,24,28)          0.6724         estimate D2E/DX2                !
 ! D115  D(23,24,25,20)         -1.4788         estimate D2E/DX2                !
 ! D116  D(23,24,25,26)        178.5596         estimate D2E/DX2                !
 ! D117  D(28,24,25,20)       -179.6568         estimate D2E/DX2                !
 ! D118  D(28,24,25,26)          0.3816         estimate D2E/DX2                !
 ! D119  D(23,24,28,27)       -177.8259         estimate D2E/DX2                !
 ! D120  D(23,24,28,29)          3.0635         estimate D2E/DX2                !
 ! D121  D(25,24,28,27)          0.1388         estimate D2E/DX2                !
 ! D122  D(25,24,28,29)       -178.9718         estimate D2E/DX2                !
 ! D123  D(20,25,26,27)        179.2872         estimate D2E/DX2                !
 ! D124  D(20,25,26,53)         -1.4231         estimate D2E/DX2                !
 ! D125  D(24,25,26,27)         -0.7594         estimate D2E/DX2                !
 ! D126  D(24,25,26,53)        178.5303         estimate D2E/DX2                !
 ! D127  D(25,26,27,28)          0.8722         estimate D2E/DX2                !
 ! D128  D(25,26,27,54)        178.5603         estimate D2E/DX2                !
 ! D129  D(53,26,27,28)       -178.4269         estimate D2E/DX2                !
 ! D130  D(53,26,27,54)         -0.7389         estimate D2E/DX2                !
 ! D131  D(26,27,28,24)         -0.6439         estimate D2E/DX2                !
 ! D132  D(26,27,28,29)        178.495          estimate D2E/DX2                !
 ! D133  D(54,27,28,24)       -178.5689         estimate D2E/DX2                !
 ! D134  D(54,27,28,29)          0.5699         estimate D2E/DX2                !
 ! D135  D(24,28,29,30)         44.6302         estimate D2E/DX2                !
 ! D136  D(24,28,29,34)       -136.5794         estimate D2E/DX2                !
 ! D137  D(27,28,29,30)       -134.3435         estimate D2E/DX2                !
 ! D138  D(27,28,29,34)         44.4469         estimate D2E/DX2                !
 ! D139  D(28,29,30,31)        179.7562         estimate D2E/DX2                !
 ! D140  D(28,29,30,55)          1.0478         estimate D2E/DX2                !
 ! D141  D(34,29,30,31)          0.9645         estimate D2E/DX2                !
 ! D142  D(34,29,30,55)       -177.7439         estimate D2E/DX2                !
 ! D143  D(28,29,34,33)       -179.3326         estimate D2E/DX2                !
 ! D144  D(28,29,34,59)          1.4035         estimate D2E/DX2                !
 ! D145  D(30,29,34,33)         -0.5306         estimate D2E/DX2                !
 ! D146  D(30,29,34,59)       -179.7945         estimate D2E/DX2                !
 ! D147  D(29,30,31,32)         -0.6273         estimate D2E/DX2                !
 ! D148  D(29,30,31,56)        179.9762         estimate D2E/DX2                !
 ! D149  D(55,30,31,32)        178.0708         estimate D2E/DX2                !
 ! D150  D(55,30,31,56)         -1.3257         estimate D2E/DX2                !
 ! D151  D(30,31,32,33)         -0.1492         estimate D2E/DX2                !
 ! D152  D(30,31,32,57)       -179.8794         estimate D2E/DX2                !
 ! D153  D(56,31,32,33)        179.2444         estimate D2E/DX2                !
 ! D154  D(56,31,32,57)         -0.4859         estimate D2E/DX2                !
 ! D155  D(31,32,33,34)          0.587          estimate D2E/DX2                !
 ! D156  D(31,32,33,58)       -179.8219         estimate D2E/DX2                !
 ! D157  D(57,32,33,34)       -179.6827         estimate D2E/DX2                !
 ! D158  D(57,32,33,58)         -0.0916         estimate D2E/DX2                !
 ! D159  D(32,33,34,29)         -0.2451         estimate D2E/DX2                !
 ! D160  D(32,33,34,59)        179.0123         estimate D2E/DX2                !
 ! D161  D(58,33,34,29)       -179.8381         estimate D2E/DX2                !
 ! D162  D(58,33,34,59)         -0.5808         estimate D2E/DX2                !
 ! D163  D(8,35,36,5)           -0.5367         estimate D2E/DX2                !
 ! D164  D(60,35,36,5)        -179.7686         estimate D2E/DX2                !
 ! D165  D(4,37,38,1)           -0.0528         estimate D2E/DX2                !
 ! D166  D(4,37,38,62)         179.9592         estimate D2E/DX2                !
 ! D167  D(61,37,38,1)         179.993          estimate D2E/DX2                !
 ! D168  D(61,37,38,62)          0.005          estimate D2E/DX2                !
 --------------------------------------------------------------------------------
 Trust Radius=3.00D-01 FncErr=1.00D-07 GrdErr=1.00D-06 EigMax=2.50D+02 EigMin=1.00D-04
 Number of steps in this run=    356 maximum allowed number of steps=    372.
 GradGradGradGradGradGradGradGradGradGradGradGradGradGradGradGradGradGrad

 Leave Link  103 at Sat Nov  5 00:52:26 2022, MaxMem=   805306368 cpu:               0.1 elap:               0.0
 (Enter /home/wykgroup/appl/g16/l202.exe)
 Stoichiometry    C34H24N4
 Framework group  C1[X(C34H24N4)]
 Deg. of freedom   180
 Full point group                 C1      NOp   1
 Largest Abelian subgroup         C1      NOp   1
 Largest concise Abelian subgroup C1      NOp   1
                         Standard orientation:                         
 ---------------------------------------------------------------------
 Center     Atomic      Atomic             Coordinates (Angstroms)
 Number     Number       Type             X           Y           Z
 ---------------------------------------------------------------------
      1          6           0        4.256730   -6.639983   -0.290483
      2          6           0        4.791605   -5.559562   -0.974639
      3          6           0        4.218926   -4.308560   -0.853965
      4          6           0        3.098909   -4.126465   -0.043689
      5          6           0        2.490807   -2.804438    0.087583
      6          7           0        1.441052   -2.673969    0.901526
      7          6           0        0.890518   -1.488505    1.016842
      8          6           0        1.370144   -0.361993    0.330774
      9          7           0        0.782844    0.881259    0.449050
     10          6           0        1.530178    2.055340    0.295297
     11          6           0        2.857903    2.114399    0.776478
     12          6           0        3.589954    3.256946    0.646932
     13          6           0        3.044327    4.409044    0.040870
     14          6           0        3.777834    5.602768   -0.104677
     15          6           0        3.214185    6.701207   -0.692397
     16          6           0        1.891461    6.652782   -1.159680
     17          6           0        1.153140    5.510159   -1.031225
     18          6           0        1.705476    4.359145   -0.429702
     19          6           0        0.972408    3.166688   -0.293917
     20          6           0       -0.589461    0.976359    0.748155
     21          6           0       -1.042746    1.862491    1.710306
     22          6           0       -2.394558    1.948038    2.036423
     23          6           0       -3.340849    1.166462    1.408404
     24          6           0       -2.902615    0.299042    0.413587
     25          6           0       -1.531508    0.178482    0.080085
     26          6           0       -1.445252   -0.809605   -0.941081
     27          6           0       -2.710010   -1.249694   -1.171048
     28          7           0       -3.603191   -0.585863   -0.368996
     29          6           0       -4.989810   -0.786967   -0.385568
     30          6           0       -5.862791    0.296973   -0.388039
     31          6           0       -7.228443    0.082284   -0.409569
     32          6           0       -7.734186   -1.206509   -0.441807
     33          6           0       -6.866393   -2.285745   -0.455648
     34          6           0       -5.499637   -2.081647   -0.425204
     35          6           0        2.477557   -0.608637   -0.493688
     36          7           0        3.017598   -1.799094   -0.614291
     37          6           0        2.564919   -5.217234    0.641310
     38          6           0        3.143423   -6.465140    0.516682
     39          1           0        4.707235   -7.617378   -0.386139
     40          1           0        5.659537   -5.696495   -1.603489
     41          1           0        4.622824   -3.457004   -1.378712
     42          1           0        0.038131   -1.417026    1.681447
     43          1           0        3.278686    1.246602    1.263386
     44          1           0        4.602691    3.297227    1.021625
     45          1           0        4.795970    5.633118    0.256906
     46          1           0        3.781789    7.613641   -0.801681
     47          1           0        1.461813    7.529542   -1.622120
     48          1           0        0.134218    5.468522   -1.389105
     49          1           0       -0.044312    3.130482   -0.658222
     50          1           0       -0.329539    2.488675    2.225655
     51          1           0       -2.700637    2.636110    2.809684
     52          1           0       -4.380546    1.219693    1.690214
     53          1           0       -0.560276   -1.141036   -1.446549
     54          1           0       -3.056504   -1.975933   -1.880922
     55          1           0       -5.467116    1.301047   -0.394237
     56          1           0       -7.900688    0.927388   -0.410985
     57          1           0       -8.801042   -1.369193   -0.460491
     58          1           0       -7.255141   -3.292716   -0.483676
     59          1           0       -4.821072   -2.921649   -0.419861
     60          1           0        2.927677    0.183551   -1.080567
     61          1           0        1.698295   -5.063207    1.264914
     62          1           0        2.727041   -7.307835    1.049677
 ---------------------------------------------------------------------
 Rotational constants (GHZ):           0.0828670           0.0770926           0.0420533
 Leave Link  202 at Sat Nov  5 00:52:26 2022, MaxMem=   805306368 cpu:               0.1 elap:               0.0
 (Enter /home/wykgroup/appl/g16/l301.exe)
 Standard basis: 6-31G(d) (6D, 7F)
 Ernie: Thresh=  0.10000D-02 Tol=  0.10000D-05 Strict=F.
 There are   618 symmetry adapted cartesian basis functions of A   symmetry.
 There are   618 symmetry adapted basis functions of A   symmetry.
   618 basis functions,  1160 primitive gaussians,   618 cartesian basis functions
   128 alpha electrons      128 beta electrons
       nuclear repulsion energy      3673.9269789592 Hartrees.
 IExCor=  402 DFT=T Ex+Corr=B3LYP ExCW=0 ScaHFX=  0.200000
 ScaDFX=  0.800000  0.720000  1.000000  0.810000 ScalE2=  1.000000  1.000000
 IRadAn=      5 IRanWt=     -1 IRanGd=            0 ICorTp=0 IEmpDi=  4
 NAtoms=   62 NActive=   62 NUniq=   62 SFac= 1.00D+00 NAtFMM=   60 NAOKFM=T Big=T
 Integral buffers will be    131072 words long.
 Raffenetti 2 integral format.
 Two-electron integral symmetry is turned on.
 Leave Link  301 at Sat Nov  5 00:52:27 2022, MaxMem=   805306368 cpu:               0.3 elap:               0.1
 (Enter /home/wykgroup/appl/g16/l302.exe)
 NPDir=0 NMtPBC=     1 NCelOv=     1 NCel=       1 NClECP=     1 NCelD=      1
         NCelK=      1 NCelE2=     1 NClLst=     1 CellRange=     0.0.
 One-electron integrals computed using PRISM.
 One-electron integral symmetry used in STVInt
 NBasis=   618 RedAO= T EigKep=  2.59D-04  NBF=   618
 NBsUse=   618 1.00D-06 EigRej= -1.00D+00 NBFU=   618
 Precomputing XC quadrature grid using
 IXCGrd= 4 IRadAn=           5 IRanWt=          -1 IRanGd=           0 AccXCQ= 0.00D+00.
 Generated NRdTot=       0 NPtTot=           0 NUsed=           0 NTot=          32
 NSgBfM=   595   595   595   595   595 MxSgAt=    62 MxSgA2=    62.
 Leave Link  302 at Sat Nov  5 00:52:28 2022, MaxMem=   805306368 cpu:               7.9 elap:               1.1
 (Enter /home/wykgroup/appl/g16/l303.exe)
 DipDrv:  MaxL=1.
 Leave Link  303 at Sat Nov  5 00:52:28 2022, MaxMem=   805306368 cpu:               0.4 elap:               0.1
 (Enter /home/wykgroup/appl/g16/l401.exe)
 ExpMin= 1.61D-01 ExpMax= 4.17D+03 ExpMxC= 6.27D+02 IAcc=3 IRadAn=         5 AccDes= 0.00D+00
 Harris functional with IExCor=  402 and IRadAn=       5 diagonalized for initial guess.
 HarFok:  IExCor=  402 AccDes= 0.00D+00 IRadAn=         5 IDoV= 1 UseB2=F ITyADJ=14
 ICtDFT=  3500011 ScaDFX=  1.000000  1.000000  1.000000  1.000000
 FoFCou: FMM=F IPFlag=           0 FMFlag=      100000 FMFlg1=        2001
         NFxFlg=           0 DoJE=T BraDBF=F KetDBF=T FulRan=T
         wScrn=  0.000000 ICntrl=       500 IOpCl=  0 I1Cent=   200000004 NGrid=           0
         NMat0=    1 NMatS0=      1 NMatT0=    0 NMatD0=    1 NMtDS0=    0 NMtDT0=    0
 Petite list used in FoFCou.
 Harris En= -1529.07161830735    
 JPrj=0 DoOrth=F DoCkMO=F.
 Leave Link  401 at Sat Nov  5 00:52:32 2022, MaxMem=   805306368 cpu:              32.1 elap:               4.6
 (Enter /home/wykgroup/appl/g16/l502.exe)
 Integral symmetry usage will be decided dynamically.
 Closed shell SCF:
 Using DIIS extrapolation, IDIIS=  1040.
 NGot=   805306368 LenX=   804531704 LenY=   804149162
 Requested convergence on RMS density matrix=1.00D-08 within  32 cycles.
 Requested convergence on MAX density matrix=1.00D-06.
 Requested convergence on             energy=1.00D-06.
 No special actions if energy rises.
 Fock matrices will be formed incrementally for  20 cycles.
 Integral accuracy reduced to 1.0D-05 until final iterations.

 Cycle   1  Pass 0  IDiag  1:
 FoFJK:  IHMeth= 1 ICntrl=       0 DoSepK=F KAlg= 0 I1Cent=           0 FoldK=F
 IRaf= 800000000 NMat=       1 IRICut=       1 DoRegI=T DoRafI=F ISym2E= 0 IDoP0=0 IntGTp=1.
 FoFCou: FMM=T IPFlag=           0 FMFlag=      100000 FMFlg1=        2001
         NFxFlg=           0 DoJE=F BraDBF=F KetDBF=F FulRan=T
         wScrn=  0.000000 ICntrl=         0 IOpCl=  0 I1Cent=           0 NGrid=           0
         NMat0=    1 NMatS0=      1 NMatT0=    0 NMatD0=    1 NMtDS0=    0 NMtDT0=    0
 Symmetry not used in FoFCou.
 FMM levels:  10  Number of levels for PrismC:   9
 E= -1528.31329255219    
 DIIS: error= 2.19D-02 at cycle   1 NSaved=   1.
 NSaved= 1 IEnMin= 1 EnMin= -1528.31329255219     IErMin= 1 ErrMin= 2.19D-02
 ErrMax= 2.19D-02  0.00D+00 EMaxC= 1.00D-01 BMatC= 7.27D-01 BMatP= 7.27D-01
 IDIUse=3 WtCom= 7.81D-01 WtEn= 2.19D-01
 Coeff-Com:  0.100D+01
 Coeff-En:   0.100D+01
 Coeff:      0.100D+01
 Gap=     0.196 Goal=   None    Shift=    0.000
 GapD=    0.196 DampG=1.000 DampE=0.500 DampFc=0.5000 IDamp=-1.
 Damping current iteration by 5.00D-01
 RMSDP=3.59D-03 MaxDP=1.23D-01              OVMax= 2.14D-01

 Cycle   2  Pass 0  IDiag  1:
 RMSU=  1.74D-03    CP:  9.68D-01
 E= -1528.64724288781     Delta-E=       -0.333950335620 Rises=F Damp=T
 DIIS: error= 7.30D-03 at cycle   2 NSaved=   2.
 NSaved= 2 IEnMin= 2 EnMin= -1528.64724288781     IErMin= 2 ErrMin= 7.30D-03
 ErrMax= 7.30D-03  0.00D+00 EMaxC= 1.00D-01 BMatC= 7.13D-02 BMatP= 7.27D-01
 IDIUse=3 WtCom= 9.27D-01 WtEn= 7.30D-02
 Coeff-Com:  0.593D-01 0.941D+00
 Coeff-En:   0.105D+00 0.895D+00
 Coeff:      0.626D-01 0.937D+00
 Gap=     0.184 Goal=   None    Shift=    0.000
 RMSDP=1.38D-03 MaxDP=1.09D-01 DE=-3.34D-01 OVMax= 2.45D-01

 Cycle   3  Pass 0  IDiag  1:
 RMSU=  1.33D-03    CP:  9.46D-01  8.70D-01
 E= -1528.97070827378     Delta-E=       -0.323465385969 Rises=F Damp=F
 DIIS: error= 9.40D-03 at cycle   3 NSaved=   3.
 NSaved= 3 IEnMin= 3 EnMin= -1528.97070827378     IErMin= 2 ErrMin= 7.30D-03
 ErrMax= 9.40D-03  0.00D+00 EMaxC= 1.00D-01 BMatC= 1.10D-01 BMatP= 7.13D-02
 IDIUse=3 WtCom= 9.35D-02 WtEn= 9.07D-01
 Coeff-Com: -0.409D-01 0.583D+00 0.458D+00
 Coeff-En:   0.000D+00 0.000D+00 0.100D+01
 Coeff:     -0.382D-02 0.545D-01 0.949D+00
 Gap=     0.201 Goal=   None    Shift=    0.000
 RMSDP=2.01D-03 MaxDP=1.52D-01 DE=-3.23D-01 OVMax= 2.04D-01

 Cycle   4  Pass 0  IDiag  1:
 RMSU=  1.13D-03    CP:  9.51D-01  1.33D+00 -1.01D-01
 E= -1528.55923168977     Delta-E=        0.411476584002 Rises=F Damp=F
 DIIS: error= 2.09D-02 at cycle   4 NSaved=   4.
 NSaved= 4 IEnMin= 3 EnMin= -1528.97070827378     IErMin= 2 ErrMin= 7.30D-03
 ErrMax= 2.09D-02  0.00D+00 EMaxC= 1.00D-01 BMatC= 4.95D-01 BMatP= 7.13D-02
 IDIUse=2 WtCom= 0.00D+00 WtEn= 1.00D+00
 Coeff-En:   0.000D+00 0.000D+00 0.757D+00 0.243D+00
 Coeff:      0.000D+00 0.000D+00 0.757D+00 0.243D+00
 Gap=     0.162 Goal=   None    Shift=    0.000
 RMSDP=1.05D-03 MaxDP=8.44D-02 DE= 4.11D-01 OVMax= 1.51D-01

 Cycle   5  Pass 0  IDiag  1:
 RMSU=  2.11D-04    CP:  9.50D-01  1.08D+00  4.40D-01  4.71D-01
 E= -1529.05680854724     Delta-E=       -0.497576857461 Rises=F Damp=F
 DIIS: error= 5.74D-03 at cycle   5 NSaved=   5.
 NSaved= 5 IEnMin= 5 EnMin= -1529.05680854724     IErMin= 5 ErrMin= 5.74D-03
 ErrMax= 5.74D-03  0.00D+00 EMaxC= 1.00D-01 BMatC= 3.25D-02 BMatP= 7.13D-02
 IDIUse=3 WtCom= 9.43D-01 WtEn= 5.74D-02
 Coeff-Com:  0.713D-02 0.112D-02 0.348D+00 0.297D-02 0.640D+00
 Coeff-En:   0.000D+00 0.000D+00 0.278D+00 0.000D+00 0.722D+00
 Coeff:      0.672D-02 0.106D-02 0.344D+00 0.280D-02 0.645D+00
 Gap=     0.140 Goal=   None    Shift=    0.000
 RMSDP=3.62D-04 MaxDP=2.47D-02 DE=-4.98D-01 OVMax= 4.84D-02

 Cycle   6  Pass 0  IDiag  1:
 RMSU=  1.03D-04    CP:  9.49D-01  1.00D+00  6.32D-01  3.14D-01  6.12D-01
 E= -1529.09007315921     Delta-E=       -0.033264611977 Rises=F Damp=F
 DIIS: error= 1.27D-03 at cycle   6 NSaved=   6.
 NSaved= 6 IEnMin= 6 EnMin= -1529.09007315921     IErMin= 6 ErrMin= 1.27D-03
 ErrMax= 1.27D-03  0.00D+00 EMaxC= 1.00D-01 BMatC= 1.24D-03 BMatP= 3.25D-02
 IDIUse=3 WtCom= 9.87D-01 WtEn= 1.27D-02
 Coeff-Com:  0.109D-02-0.293D-02 0.141D+00-0.541D-01 0.476D+00 0.439D+00
 Coeff-En:   0.000D+00 0.000D+00 0.000D+00 0.000D+00 0.000D+00 0.100D+01
 Coeff:      0.107D-02-0.289D-02 0.139D+00-0.534D-01 0.470D+00 0.446D+00
 Gap=     0.136 Goal=   None    Shift=    0.000
 RMSDP=7.52D-05 MaxDP=4.03D-03 DE=-3.33D-02 OVMax= 1.16D-02

 Cycle   7  Pass 0  IDiag  1:
 RMSU=  2.93D-05    CP:  9.49D-01  1.00D+00  6.35D-01  3.05D-01  7.71D-01
                    CP:  4.23D-01
 E= -1529.09132963423     Delta-E=       -0.001256475019 Rises=F Damp=F
 DIIS: error= 3.25D-04 at cycle   7 NSaved=   7.
 NSaved= 7 IEnMin= 7 EnMin= -1529.09132963423     IErMin= 7 ErrMin= 3.25D-04
 ErrMax= 3.25D-04  0.00D+00 EMaxC= 1.00D-01 BMatC= 6.64D-05 BMatP= 1.24D-03
 IDIUse=3 WtCom= 9.97D-01 WtEn= 3.25D-03
 Coeff-Com:  0.111D-03-0.492D-03 0.634D-01-0.340D-01 0.246D+00 0.278D+00
 Coeff-Com:  0.447D+00
 Coeff-En:   0.000D+00 0.000D+00 0.000D+00 0.000D+00 0.000D+00 0.000D+00
 Coeff-En:   0.100D+01
 Coeff:      0.111D-03-0.490D-03 0.632D-01-0.339D-01 0.245D+00 0.277D+00
 Coeff:      0.449D+00
 Gap=     0.136 Goal=   None    Shift=    0.000
 RMSDP=1.80D-05 MaxDP=1.09D-03 DE=-1.26D-03 OVMax= 2.59D-03

 Cycle   8  Pass 0  IDiag  1:
 RMSU=  7.86D-06    CP:  9.49D-01  9.99D-01  6.35D-01  3.06D-01  7.68D-01
                    CP:  4.92D-01  5.07D-01
 E= -1529.09139767646     Delta-E=       -0.000068042225 Rises=F Damp=F
 DIIS: error= 4.24D-05 at cycle   8 NSaved=   8.
 NSaved= 8 IEnMin= 8 EnMin= -1529.09139767646     IErMin= 8 ErrMin= 4.24D-05
 ErrMax= 4.24D-05  0.00D+00 EMaxC= 1.00D-01 BMatC= 3.81D-06 BMatP= 6.64D-05
 IDIUse=1 WtCom= 1.00D+00 WtEn= 0.00D+00
 Coeff-Com:  0.111D-04-0.920D-04 0.227D-01-0.140D-01 0.923D-01 0.111D+00
 Coeff-Com:  0.251D+00 0.537D+00
 Coeff:      0.111D-04-0.920D-04 0.227D-01-0.140D-01 0.923D-01 0.111D+00
 Coeff:      0.251D+00 0.537D+00
 Gap=     0.136 Goal=   None    Shift=    0.000
 RMSDP=4.63D-06 MaxDP=3.20D-04 DE=-6.80D-05 OVMax= 5.89D-04

 Initial convergence to 1.0D-05 achieved.  Increase integral accuracy.
 Cycle   9  Pass 1  IDiag  1:
 E= -1529.09132789114     Delta-E=        0.000069785313 Rises=F Damp=F
 DIIS: error= 1.18D-04 at cycle   1 NSaved=   1.
 NSaved= 1 IEnMin= 1 EnMin= -1529.09132789114     IErMin= 1 ErrMin= 1.18D-04
 ErrMax= 1.18D-04  0.00D+00 EMaxC= 1.00D-01 BMatC= 9.35D-06 BMatP= 9.35D-06
 IDIUse=3 WtCom= 9.99D-01 WtEn= 1.18D-03
 Coeff-Com:  0.100D+01
 Coeff-En:   0.100D+01
 Coeff:      0.100D+01
 Gap=     0.136 Goal=   None    Shift=    0.000
 RMSDP=4.63D-06 MaxDP=3.20D-04 DE= 6.98D-05 OVMax= 5.73D-04

 Cycle  10  Pass 1  IDiag  1:
 RMSU=  8.61D-05    CP:  1.00D+00
 E= -1529.09133399155     Delta-E=       -0.000006100404 Rises=F Damp=F
 DIIS: error= 7.59D-05 at cycle   2 NSaved=   2.
 NSaved= 2 IEnMin= 2 EnMin= -1529.09133399155     IErMin= 2 ErrMin= 7.59D-05
 ErrMax= 7.59D-05  0.00D+00 EMaxC= 1.00D-01 BMatC= 2.63D-06 BMatP= 9.35D-06
 IDIUse=1 WtCom= 1.00D+00 WtEn= 0.00D+00
 Coeff-Com:  0.267D+00 0.733D+00
 Coeff:      0.267D+00 0.733D+00
 Gap=     0.136 Goal=   None    Shift=    0.000
 RMSDP=6.88D-06 MaxDP=2.61D-04 DE=-6.10D-06 OVMax= 8.85D-04

 Cycle  11  Pass 1  IDiag  1:
 RMSU=  6.86D-06    CP:  1.00D+00  1.00D+00
 E= -1529.09133204374     Delta-E=        0.000001947808 Rises=F Damp=F
 DIIS: error= 1.00D-04 at cycle   3 NSaved=   3.
 NSaved= 3 IEnMin= 2 EnMin= -1529.09133399155     IErMin= 2 ErrMin= 7.59D-05
 ErrMax= 1.00D-04  0.00D+00 EMaxC= 1.00D-01 BMatC= 4.38D-06 BMatP= 2.63D-06
 IDIUse=1 WtCom= 1.00D+00 WtEn= 0.00D+00
 Coeff-Com:  0.257D-02 0.563D+00 0.434D+00
 Coeff:      0.257D-02 0.563D+00 0.434D+00
 Gap=     0.136 Goal=   None    Shift=    0.000
 RMSDP=4.09D-06 MaxDP=1.77D-04 DE= 1.95D-06 OVMax= 5.00D-04

 Cycle  12  Pass 1  IDiag  1:
 RMSU=  8.94D-07    CP:  1.00D+00  1.01D+00  4.22D-01
 E= -1529.09133673607     Delta-E=       -0.000004692331 Rises=F Damp=F
 DIIS: error= 6.99D-06 at cycle   4 NSaved=   4.
 NSaved= 4 IEnMin= 4 EnMin= -1529.09133673607     IErMin= 4 ErrMin= 6.99D-06
 ErrMax= 6.99D-06  0.00D+00 EMaxC= 1.00D-01 BMatC= 6.49D-08 BMatP= 2.63D-06
 IDIUse=1 WtCom= 1.00D+00 WtEn= 0.00D+00
 Coeff-Com: -0.347D-02 0.328D+00 0.264D+00 0.412D+00
 Coeff:     -0.347D-02 0.328D+00 0.264D+00 0.412D+00
 Gap=     0.136 Goal=   None    Shift=    0.000
 RMSDP=5.20D-07 MaxDP=2.54D-05 DE=-4.69D-06 OVMax= 6.37D-05

 Cycle  13  Pass 1  IDiag  1:
 RMSU=  1.83D-07    CP:  1.00D+00  1.01D+00  4.40D-01  4.72D-01
 E= -1529.09133680286     Delta-E=       -0.000000066787 Rises=F Damp=F
 DIIS: error= 1.29D-06 at cycle   5 NSaved=   5.
 NSaved= 5 IEnMin= 5 EnMin= -1529.09133680286     IErMin= 5 ErrMin= 1.29D-06
 ErrMax= 1.29D-06  0.00D+00 EMaxC= 1.00D-01 BMatC= 1.48D-09 BMatP= 6.49D-08
 IDIUse=1 WtCom= 1.00D+00 WtEn= 0.00D+00
 Coeff-Com: -0.227D-02 0.200D+00 0.162D+00 0.263D+00 0.377D+00
 Coeff:     -0.227D-02 0.200D+00 0.162D+00 0.263D+00 0.377D+00
 Gap=     0.136 Goal=   None    Shift=    0.000
 RMSDP=7.94D-08 MaxDP=4.64D-06 DE=-6.68D-08 OVMax= 1.06D-05

 Cycle  14  Pass 1  IDiag  1:
 RMSU=  6.49D-08    CP:  1.00D+00  1.01D+00  4.40D-01  4.75D-01  7.50D-01
 E= -1529.09133680435     Delta-E=       -0.000000001489 Rises=F Damp=F
 DIIS: error= 2.82D-07 at cycle   6 NSaved=   6.
 NSaved= 6 IEnMin= 6 EnMin= -1529.09133680435     IErMin= 6 ErrMin= 2.82D-07
 ErrMax= 2.82D-07  0.00D+00 EMaxC= 1.00D-01 BMatC= 5.78D-11 BMatP= 1.48D-09
 IDIUse=1 WtCom= 1.00D+00 WtEn= 0.00D+00
 Coeff-Com: -0.881D-03 0.756D-01 0.611D-01 0.101D+00 0.200D+00 0.563D+00
 Coeff:     -0.881D-03 0.756D-01 0.611D-01 0.101D+00 0.200D+00 0.563D+00
 Gap=     0.136 Goal=   None    Shift=    0.000
 RMSDP=2.30D-08 MaxDP=1.32D-06 DE=-1.49D-09 OVMax= 3.10D-06

 Cycle  15  Pass 1  IDiag  1:
 RMSU=  1.96D-08    CP:  1.00D+00  1.01D+00  4.40D-01  4.75D-01  7.85D-01
                    CP:  8.45D-01
 E= -1529.09133680437     Delta-E=       -0.000000000020 Rises=F Damp=F
 DIIS: error= 1.21D-07 at cycle   7 NSaved=   7.
 NSaved= 7 IEnMin= 7 EnMin= -1529.09133680437     IErMin= 7 ErrMin= 1.21D-07
 ErrMax= 1.21D-07  0.00D+00 EMaxC= 1.00D-01 BMatC= 2.06D-11 BMatP= 5.78D-11
 IDIUse=1 WtCom= 1.00D+00 WtEn= 0.00D+00
 Coeff-Com: -0.125D-03 0.964D-02 0.773D-02 0.137D-01 0.552D-01 0.393D+00
 Coeff-Com:  0.521D+00
 Coeff:     -0.125D-03 0.964D-02 0.773D-02 0.137D-01 0.552D-01 0.393D+00
 Coeff:      0.521D+00
 Gap=     0.136 Goal=   None    Shift=    0.000
 RMSDP=1.19D-08 MaxDP=1.05D-06 DE=-2.00D-11 OVMax= 2.39D-06

 Cycle  16  Pass 1  IDiag  1:
 RMSU=  6.76D-09    CP:  1.00D+00  1.01D+00  4.40D-01  4.77D-01  7.91D-01
                    CP:  8.94D-01  5.42D-01
 E= -1529.09133680439     Delta-E=       -0.000000000019 Rises=F Damp=F
 DIIS: error= 5.20D-08 at cycle   8 NSaved=   8.
 NSaved= 8 IEnMin= 8 EnMin= -1529.09133680439     IErMin= 8 ErrMin= 5.20D-08
 ErrMax= 5.20D-08  0.00D+00 EMaxC= 1.00D-01 BMatC= 3.67D-12 BMatP= 2.06D-11
 IDIUse=1 WtCom= 1.00D+00 WtEn= 0.00D+00
 Coeff-Com:  0.475D-04-0.484D-02-0.396D-02-0.580D-02 0.798D-02 0.192D+00
 Coeff-Com:  0.361D+00 0.454D+00
 Coeff:      0.475D-04-0.484D-02-0.396D-02-0.580D-02 0.798D-02 0.192D+00
 Coeff:      0.361D+00 0.454D+00
 Gap=     0.136 Goal=   None    Shift=    0.000
 RMSDP=4.22D-09 MaxDP=2.95D-07 DE=-1.91D-11 OVMax= 5.94D-07

 SCF Done:  E(RB3LYP) =  -1529.09133680     A.U. after   16 cycles
            NFock= 16  Conv=0.42D-08     -V/T= 2.0087
 KE= 1.515969387625D+03 PE=-1.089262217683D+04 EE= 4.173634473447D+03
 Leave Link  502 at Sat Nov  5 00:54:33 2022, MaxMem=   805306368 cpu:             844.6 elap:             120.8
 (Enter /home/wykgroup/appl/g16/l508.exe)
 QCSCF skips out because SCF is already converged.
 Leave Link  508 at Sat Nov  5 00:54:33 2022, MaxMem=   805306368 cpu:               0.2 elap:               0.1
 (Enter /home/wykgroup/appl/g16/l601.exe)
 Copying SCF densities to generalized density rwf, IOpCl= 0 IROHF=0.

 **********************************************************************

            Population analysis using the SCF Density.

 **********************************************************************

 Orbital symmetries:
       Occupied  (A) (A) (A) (A) (A) (A) (A) (A) (A) (A) (A) (A)
                 (A) (A) (A) (A) (A) (A) (A) (A) (A) (A) (A) (A)
                 (A) (A) (A) (A) (A) (A) (A) (A) (A) (A) (A) (A)
                 (A) (A) (A) (A) (A) (A) (A) (A) (A) (A) (A) (A)
                 (A) (A) (A) (A) (A) (A) (A) (A) (A) (A) (A) (A)
                 (A) (A) (A) (A) (A) (A) (A) (A) (A) (A) (A) (A)
                 (A) (A) (A) (A) (A) (A) (A) (A) (A) (A) (A) (A)
                 (A) (A) (A) (A) (A) (A) (A) (A) (A) (A) (A) (A)
                 (A) (A) (A) (A) (A) (A) (A) (A) (A) (A) (A) (A)
                 (A) (A) (A) (A) (A) (A) (A) (A) (A) (A) (A) (A)
                 (A) (A) (A) (A) (A) (A) (A) (A)
       Virtual   (A) (A) (A) (A) (A) (A) (A) (A) (A) (A) (A) (A)
                 (A) (A) (A) (A) (A) (A) (A) (A) (A) (A) (A) (A)
                 (A) (A) (A) (A) (A) (A) (A) (A) (A) (A) (A) (A)
                 (A) (A) (A) (A) (A) (A) (A) (A) (A) (A) (A) (A)
                 (A) (A) (A) (A) (A) (A) (A) (A) (A) (A) (A) (A)
                 (A) (A) (A) (A) (A) (A) (A) (A) (A) (A) (A) (A)
                 (A) (A) (A) (A) (A) (A) (A) (A) (A) (A) (A) (A)
                 (A) (A) (A) (A) (A) (A) (A) (A) (A) (A) (A) (A)
                 (A) (A) (A) (A) (A) (A) (A) (A) (A) (A) (A) (A)
                 (A) (A) (A) (A) (A) (A) (A) (A) (A) (A) (A) (A)
                 (A) (A) (A) (A) (A) (A) (A) (A) (A) (A) (A) (A)
                 (A) (A) (A) (A) (A) (A) (A) (A) (A) (A) (A) (A)
                 (A) (A) (A) (A) (A) (A) (A) (A) (A) (A) (A) (A)
                 (A) (A) (A) (A) (A) (A) (A) (A) (A) (A) (A) (A)
                 (A) (A) (A) (A) (A) (A) (A) (A) (A) (A) (A) (A)
                 (A) (A) (A) (A) (A) (A) (A) (A) (A) (A) (A) (A)
                 (A) (A) (A) (A) (A) (A) (A) (A) (A) (A) (A) (A)
                 (A) (A) (A) (A) (A) (A) (A) (A) (A) (A) (A) (A)
                 (A) (A) (A) (A) (A) (A) (A) (A) (A) (A) (A) (A)
                 (A) (A) (A) (A) (A) (A) (A) (A) (A) (A) (A) (A)
                 (A) (A) (A) (A) (A) (A) (A) (A) (A) (A) (A) (A)
                 (A) (A) (A) (A) (A) (A) (A) (A) (A) (A) (A) (A)
                 (A) (A) (A) (A) (A) (A) (A) (A) (A) (A) (A) (A)
                 (A) (A) (A) (A) (A) (A) (A) (A) (A) (A) (A) (A)
                 (A) (A) (A) (A) (A) (A) (A) (A) (A) (A) (A) (A)
                 (A) (A) (A) (A) (A) (A) (A) (A) (A) (A) (A) (A)
                 (A) (A) (A) (A) (A) (A) (A) (A) (A) (A) (A) (A)
                 (A) (A) (A) (A) (A) (A) (A) (A) (A) (A) (A) (A)
                 (A) (A) (A) (A) (A) (A) (A) (A) (A) (A) (A) (A)
                 (A) (A) (A) (A) (A) (A) (A) (A) (A) (A) (A) (A)
                 (A) (A) (A) (A) (A) (A) (A) (A) (A) (A) (A) (A)
                 (A) (A) (A) (A) (A) (A) (A) (A) (A) (A) (A) (A)
                 (A) (A) (A) (A) (A) (A) (A) (A) (A) (A) (A) (A)
                 (A) (A) (A) (A) (A) (A) (A) (A) (A) (A) (A) (A)
                 (A) (A) (A) (A) (A) (A) (A) (A) (A) (A) (A) (A)
                 (A) (A) (A) (A) (A) (A) (A) (A) (A) (A) (A) (A)
                 (A) (A) (A) (A) (A) (A) (A) (A) (A) (A) (A) (A)
                 (A) (A) (A) (A) (A) (A) (A) (A) (A) (A) (A) (A)
                 (A) (A) (A) (A) (A) (A) (A) (A) (A) (A) (A) (A)
                 (A) (A) (A) (A) (A) (A) (A) (A) (A) (A) (A) (A)
                 (A) (A) (A) (A) (A) (A) (A) (A) (A) (A)
 The electronic state is 1-A.
 Alpha  occ. eigenvalues --  -14.39355 -14.37674 -14.32617 -14.32565 -10.24270
 Alpha  occ. eigenvalues --  -10.24232 -10.23560 -10.23141 -10.22732 -10.22641
 Alpha  occ. eigenvalues --  -10.22532 -10.22255 -10.22026 -10.20174 -10.20154
 Alpha  occ. eigenvalues --  -10.20112 -10.20084 -10.19759 -10.19515 -10.19250
 Alpha  occ. eigenvalues --  -10.19195 -10.19107 -10.18862 -10.18830 -10.18726
 Alpha  occ. eigenvalues --  -10.18706 -10.18647 -10.18576 -10.18546 -10.18528
 Alpha  occ. eigenvalues --  -10.18201 -10.17960 -10.17798 -10.17752 -10.17521
 Alpha  occ. eigenvalues --  -10.17512 -10.17191 -10.17189  -1.01035  -0.99667
 Alpha  occ. eigenvalues --   -0.97529  -0.88559  -0.87952  -0.87617  -0.85061
 Alpha  occ. eigenvalues --   -0.84745  -0.82482  -0.80797  -0.79435  -0.77513
 Alpha  occ. eigenvalues --   -0.76700  -0.76118  -0.74674  -0.73713  -0.73541
 Alpha  occ. eigenvalues --   -0.73395  -0.72318  -0.70672  -0.66472  -0.65568
 Alpha  occ. eigenvalues --   -0.64540  -0.63313  -0.63118  -0.61839  -0.60604
 Alpha  occ. eigenvalues --   -0.60101  -0.59359  -0.59088  -0.58550  -0.57558
 Alpha  occ. eigenvalues --   -0.55756  -0.54427  -0.52659  -0.51813  -0.51613
 Alpha  occ. eigenvalues --   -0.51187  -0.50524  -0.49646  -0.48453  -0.48006
 Alpha  occ. eigenvalues --   -0.47788  -0.47324  -0.46288  -0.45397  -0.44845
 Alpha  occ. eigenvalues --   -0.44597  -0.43997  -0.43874  -0.43354  -0.43212
 Alpha  occ. eigenvalues --   -0.42861  -0.42542  -0.42232  -0.41561  -0.41431
 Alpha  occ. eigenvalues --   -0.41167  -0.40572  -0.40461  -0.40013  -0.39468
 Alpha  occ. eigenvalues --   -0.38275  -0.37987  -0.37541  -0.37299  -0.36382
 Alpha  occ. eigenvalues --   -0.35988  -0.35569  -0.34992  -0.34578  -0.34165
 Alpha  occ. eigenvalues --   -0.33764  -0.33236  -0.32987  -0.31854  -0.31279
 Alpha  occ. eigenvalues --   -0.30064  -0.29325  -0.28701  -0.27401  -0.26687
 Alpha  occ. eigenvalues --   -0.25770  -0.24074  -0.24002  -0.23375  -0.22815
 Alpha  occ. eigenvalues --   -0.21878  -0.21294  -0.17954
 Alpha virt. eigenvalues --   -0.04312  -0.03648  -0.03121  -0.01782  -0.01427
 Alpha virt. eigenvalues --   -0.01296   0.00304   0.01730   0.02415   0.03725
 Alpha virt. eigenvalues --    0.05027   0.06691   0.08619   0.09777   0.10246
 Alpha virt. eigenvalues --    0.10999   0.11168   0.11694   0.12018   0.12442
 Alpha virt. eigenvalues --    0.13616   0.13824   0.14407   0.14539   0.14834
 Alpha virt. eigenvalues --    0.15659   0.16045   0.16325   0.17023   0.17088
 Alpha virt. eigenvalues --    0.17417   0.17654   0.17749   0.17816   0.18416
 Alpha virt. eigenvalues --    0.18921   0.19396   0.19596   0.20246   0.20346
 Alpha virt. eigenvalues --    0.20422   0.21135   0.21490   0.21587   0.23597
 Alpha virt. eigenvalues --    0.24574   0.25042   0.25512   0.26522   0.27686
 Alpha virt. eigenvalues --    0.28320   0.28549   0.28826   0.29518   0.29818
 Alpha virt. eigenvalues --    0.30142   0.30808   0.31247   0.31932   0.32203
 Alpha virt. eigenvalues --    0.32629   0.33141   0.33892   0.34337   0.35150
 Alpha virt. eigenvalues --    0.35744   0.36407   0.37370   0.38130   0.38899
 Alpha virt. eigenvalues --    0.39412   0.40608   0.41771   0.43293   0.44091
 Alpha virt. eigenvalues --    0.45227   0.46770   0.47413   0.48742   0.49524
 Alpha virt. eigenvalues --    0.50096   0.50384   0.51204   0.51565   0.52102
 Alpha virt. eigenvalues --    0.52215   0.52567   0.52822   0.53198   0.53604
 Alpha virt. eigenvalues --    0.54194   0.54326   0.54942   0.55148   0.55464
 Alpha virt. eigenvalues --    0.55496   0.56045   0.56262   0.56630   0.56912
 Alpha virt. eigenvalues --    0.57130   0.57890   0.58042   0.58271   0.58301
 Alpha virt. eigenvalues --    0.58550   0.58821   0.59080   0.59375   0.59628
 Alpha virt. eigenvalues --    0.59842   0.60031   0.60191   0.60437   0.60551
 Alpha virt. eigenvalues --    0.60668   0.60861   0.61358   0.61537   0.61661
 Alpha virt. eigenvalues --    0.61916   0.62042   0.62559   0.62609   0.62742
 Alpha virt. eigenvalues --    0.63176   0.63327   0.63490   0.63527   0.64211
 Alpha virt. eigenvalues --    0.64338   0.65028   0.65443   0.65535   0.66165
 Alpha virt. eigenvalues --    0.66388   0.67105   0.67183   0.68147   0.68600
 Alpha virt. eigenvalues --    0.69335   0.70291   0.70695   0.70830   0.71147
 Alpha virt. eigenvalues --    0.72954   0.74695   0.75910   0.76847   0.78161
 Alpha virt. eigenvalues --    0.78788   0.79757   0.80156   0.80592   0.81462
 Alpha virt. eigenvalues --    0.82137   0.82820   0.82909   0.83213   0.83234
 Alpha virt. eigenvalues --    0.83500   0.83598   0.84123   0.84224   0.84637
 Alpha virt. eigenvalues --    0.84725   0.85065   0.85162   0.85564   0.85942
 Alpha virt. eigenvalues --    0.86197   0.86686   0.86855   0.87191   0.87626
 Alpha virt. eigenvalues --    0.88372   0.88709   0.89199   0.90046   0.90226
 Alpha virt. eigenvalues --    0.90682   0.91278   0.92047   0.93040   0.93271
 Alpha virt. eigenvalues --    0.93479   0.94457   0.94491   0.95076   0.95738
 Alpha virt. eigenvalues --    0.96006   0.96141   0.97103   0.97734   0.98406
 Alpha virt. eigenvalues --    0.98650   0.99335   0.99938   1.00623   1.01852
 Alpha virt. eigenvalues --    1.02551   1.03104   1.03410   1.04302   1.04979
 Alpha virt. eigenvalues --    1.05374   1.07062   1.07344   1.07941   1.08640
 Alpha virt. eigenvalues --    1.09150   1.10119   1.11508   1.12410   1.13527
 Alpha virt. eigenvalues --    1.14151   1.14633   1.14908   1.16266   1.16870
 Alpha virt. eigenvalues --    1.17611   1.18178   1.18802   1.19576   1.19959
 Alpha virt. eigenvalues --    1.21167   1.21821   1.22383   1.22882   1.23745
 Alpha virt. eigenvalues --    1.24050   1.24286   1.25220   1.25357   1.26130
 Alpha virt. eigenvalues --    1.27371   1.28308   1.30085   1.30810   1.30883
 Alpha virt. eigenvalues --    1.32409   1.33593   1.34563   1.35908   1.37307
 Alpha virt. eigenvalues --    1.38666   1.38893   1.39472   1.40193   1.41307
 Alpha virt. eigenvalues --    1.41494   1.42428   1.43410   1.44170   1.44297
 Alpha virt. eigenvalues --    1.44634   1.45382   1.46033   1.46288   1.47123
 Alpha virt. eigenvalues --    1.47288   1.47432   1.47837   1.48066   1.48576
 Alpha virt. eigenvalues --    1.49080   1.49307   1.49685   1.49817   1.50184
 Alpha virt. eigenvalues --    1.50358   1.50618   1.50688   1.51596   1.52057
 Alpha virt. eigenvalues --    1.52436   1.52992   1.53254   1.54212   1.56295
 Alpha virt. eigenvalues --    1.58196   1.59154   1.63333   1.66138   1.69046
 Alpha virt. eigenvalues --    1.70350   1.70924   1.72026   1.73127   1.74675
 Alpha virt. eigenvalues --    1.75592   1.76680   1.77206   1.78372   1.80065
 Alpha virt. eigenvalues --    1.80983   1.81382   1.82109   1.82575   1.83346
 Alpha virt. eigenvalues --    1.83779   1.84795   1.85293   1.85700   1.87193
 Alpha virt. eigenvalues --    1.87732   1.88658   1.88858   1.89199   1.89321
 Alpha virt. eigenvalues --    1.91090   1.91415   1.92315   1.92442   1.92586
 Alpha virt. eigenvalues --    1.93307   1.93933   1.94473   1.95156   1.95808
 Alpha virt. eigenvalues --    1.96046   1.96215   1.96826   1.97623   1.98519
 Alpha virt. eigenvalues --    1.98762   2.00624   2.01085   2.02453   2.03414
 Alpha virt. eigenvalues --    2.05461   2.05938   2.07161   2.07907   2.08968
 Alpha virt. eigenvalues --    2.09120   2.09690   2.09875   2.11129   2.13022
 Alpha virt. eigenvalues --    2.13381   2.14086   2.14667   2.15546   2.16286
 Alpha virt. eigenvalues --    2.16408   2.16682   2.16984   2.17666   2.18830
 Alpha virt. eigenvalues --    2.19904   2.20137   2.20558   2.21120   2.21464
 Alpha virt. eigenvalues --    2.21840   2.22638   2.23443   2.24887   2.25164
 Alpha virt. eigenvalues --    2.26221   2.26734   2.27590   2.27803   2.28097
 Alpha virt. eigenvalues --    2.28842   2.29841   2.30861   2.30875   2.30966
 Alpha virt. eigenvalues --    2.32301   2.32994   2.33337   2.34021   2.34467
 Alpha virt. eigenvalues --    2.35003   2.35232   2.35871   2.36674   2.37863
 Alpha virt. eigenvalues --    2.38963   2.39534   2.42062   2.43172   2.44275
 Alpha virt. eigenvalues --    2.46541   2.47767   2.51423   2.52238   2.53427
 Alpha virt. eigenvalues --    2.54555   2.56711   2.58190   2.58727   2.59809
 Alpha virt. eigenvalues --    2.60246   2.61015   2.61882   2.63033   2.63632
 Alpha virt. eigenvalues --    2.64415   2.64529   2.65429   2.65954   2.66789
 Alpha virt. eigenvalues --    2.67078   2.67257   2.68756   2.69443   2.70092
 Alpha virt. eigenvalues --    2.72468   2.73686   2.73764   2.74516   2.74632
 Alpha virt. eigenvalues --    2.75336   2.76154   2.77208   2.77457   2.77914
 Alpha virt. eigenvalues --    2.78868   2.80261   2.81765   2.81909   2.83875
 Alpha virt. eigenvalues --    2.84978   2.85823   2.86859   2.88950   2.90646
 Alpha virt. eigenvalues --    2.91307   2.91839   2.92544   2.95037   2.95569
 Alpha virt. eigenvalues --    2.97876   2.98995   3.02080   3.05306   3.06758
 Alpha virt. eigenvalues --    3.10896   3.17536   3.22745   3.24031   3.33070
 Alpha virt. eigenvalues --    3.36207   3.40650   3.40905   3.45520   3.49733
 Alpha virt. eigenvalues --    3.51937   3.53120   4.08889   4.09834   4.10705
 Alpha virt. eigenvalues --    4.11030   4.11213   4.11448   4.11852   4.12416
 Alpha virt. eigenvalues --    4.12661   4.13085   4.14475   4.15095   4.16424
 Alpha virt. eigenvalues --    4.17925   4.19163   4.20512   4.20989   4.22508
 Alpha virt. eigenvalues --    4.27759   4.28692   4.29906   4.32626   4.32929
 Alpha virt. eigenvalues --    4.37241   4.38182   4.39059   4.40958   4.42420
 Alpha virt. eigenvalues --    4.43571   4.46225   4.51270   4.51596   4.56816
 Alpha virt. eigenvalues --    4.63779   4.73179   4.75854   4.83548   4.85714
          Condensed to atoms (all electrons):
 Mulliken charges:
               1
     1  C   -0.120217
     2  C   -0.136577
     3  C   -0.166236
     4  C    0.100861
     5  C    0.402072
     6  N   -0.462241
     7  C    0.030631
     8  C    0.259483
     9  N   -0.672269
    10  C    0.292932
    11  C   -0.175158
    12  C   -0.206131
    13  C    0.148432
    14  C   -0.194802
    15  C   -0.135250
    16  C   -0.134991
    17  C   -0.192044
    18  C    0.146275
    19  C   -0.260040
    20  C    0.184422
    21  C   -0.163372
    22  C   -0.163212
    23  C   -0.154955
    24  C    0.306493
    25  C    0.068750
    26  C   -0.234449
    27  C    0.033448
    28  N   -0.612948
    29  C    0.295544
    30  C   -0.159716
    31  C   -0.140708
    32  C   -0.121502
    33  C   -0.137615
    34  C   -0.157419
    35  C    0.020326
    36  N   -0.463039
    37  C   -0.166232
    38  C   -0.136650
    39  H    0.123355
    40  H    0.124846
    41  H    0.152404
    42  H    0.163025
    43  H    0.150271
    44  H    0.134493
    45  H    0.128291
    46  H    0.127701
    47  H    0.128498
    48  H    0.128662
    49  H    0.147094
[...]
                 (A) (A) (A) (A) (A) (A) (A) (A) (A) (A) (A) (A)
                 (A) (A) (A) (A) (A) (A) (A) (A) (A) (A) (A) (A)
                 (A) (A) (A) (A) (A) (A) (A) (A) (A) (A) (A) (A)
                 (A) (A) (A) (A) (A) (A) (A) (A) (A) (A) (A) (A)
                 (A) (A) (A) (A) (A) (A) (A) (A) (A) (A) (A) (A)
                 (A) (A) (A) (A) (A) (A) (A) (A) (A) (A) (A) (A)
                 (A) (A) (A) (A) (A) (A) (A) (A) (A) (A) (A) (A)
                 (A) (A) (A) (A) (A) (A) (A) (A) (A) (A) (A) (A)
                 (A) (A) (A) (A) (A) (A) (A) (A) (A) (A) (A) (A)
                 (A) (A) (A) (A) (A) (A) (A) (A) (A) (A) (A) (A)
                 (A) (A) (A) (A) (A) (A) (A) (A) (A) (A) (A) (A)
                 (A) (A) (A) (A) (A) (A) (A) (A) (A) (A) (A) (A)
                 (A) (A) (A) (A) (A) (A) (A) (A) (A) (A) (A) (A)
                 (A) (A) (A) (A) (A) (A) (A) (A) (A) (A) (A) (A)
                 (A) (A) (A) (A) (A) (A) (A) (A) (A) (A) (A) (A)
                 (A) (A) (A) (A) (A) (A) (A) (A) (A) (A) (A) (A)
                 (A) (A) (A) (A) (A) (A) (A) (A) (A) (A) (A) (A)
                 (A) (A) (A) (A) (A) (A) (A) (A) (A) (A) (A) (A)
                 (A) (A) (A) (A) (A) (A) (A) (A) (A) (A) (A) (A)
                 (A) (A) (A) (A) (A) (A) (A) (A) (A) (A) (A) (A)
                 (A) (A) (A) (A) (A) (A) (A) (A) (A) (A) (A) (A)
                 (A) (A) (A) (A) (A) (A) (A) (A) (A) (A) (A) (A)
                 (A) (A) (A) (A) (A) (A) (A) (A) (A) (A) (A) (A)
                 (A) (A) (A) (A) (A) (A) (A) (A) (A) (A) (A) (A)
                 (A) (A) (A) (A) (A) (A) (A) (A) (A) (A) (A) (A)
                 (A) (A) (A) (A) (A) (A) (A) (A) (A) (A) (A) (A)
                 (A) (A) (A) (A) (A) (A) (A) (A) (A) (A) (A) (A)
                 (A) (A) (A) (A) (A) (A) (A) (A) (A) (A) (A) (A)
                 (A) (A) (A) (A) (A) (A) (A) (A) (A) (A) (A) (A)
                 (A) (A) (A) (A) (A) (A) (A) (A) (A) (A) (A) (A)
                 (A) (A) (A) (A) (A) (A) (A) (A) (A) (A)
 The electronic state is 1-A.
 Alpha  occ. eigenvalues --  -14.39404 -14.37408 -14.32999 -14.32948 -10.24782
 Alpha  occ. eigenvalues --  -10.24643 -10.23837 -10.23434 -10.23031 -10.22959
 Alpha  occ. eigenvalues --  -10.22861 -10.22670 -10.22414 -10.20604 -10.20599
 Alpha  occ. eigenvalues --  -10.20543 -10.20537 -10.20266 -10.19931 -10.19671
 Alpha  occ. eigenvalues --  -10.19493 -10.19405 -10.19357 -10.19338 -10.19104
 Alpha  occ. eigenvalues --  -10.19101 -10.19076 -10.18961 -10.18949 -10.18886
 Alpha  occ. eigenvalues --  -10.18687 -10.18532 -10.18244 -10.18174 -10.17925
 Alpha  occ. eigenvalues --  -10.17919 -10.17614 -10.17610  -0.99808  -0.98506
 Alpha  occ. eigenvalues --   -0.96251  -0.87952  -0.87394  -0.87031  -0.84528
 Alpha  occ. eigenvalues --   -0.84206  -0.81921  -0.80249  -0.78923  -0.77153
 Alpha  occ. eigenvalues --   -0.76303  -0.75714  -0.74203  -0.73349  -0.73232
 Alpha  occ. eigenvalues --   -0.73099  -0.72064  -0.70396  -0.66029  -0.65033
 Alpha  occ. eigenvalues --   -0.64165  -0.62897  -0.62764  -0.61596  -0.60316
 Alpha  occ. eigenvalues --   -0.59720  -0.59170  -0.58893  -0.58266  -0.57244
 Alpha  occ. eigenvalues --   -0.55198  -0.53866  -0.52260  -0.51526  -0.51381
 Alpha  occ. eigenvalues --   -0.50902  -0.50183  -0.49366  -0.48224  -0.47788
 Alpha  occ. eigenvalues --   -0.47517  -0.47069  -0.46044  -0.45174  -0.44578
 Alpha  occ. eigenvalues --   -0.44314  -0.43909  -0.43726  -0.43073  -0.42930
 Alpha  occ. eigenvalues --   -0.42397  -0.42226  -0.41920  -0.41398  -0.41188
 Alpha  occ. eigenvalues --   -0.40997  -0.40425  -0.40292  -0.39927  -0.39065
 Alpha  occ. eigenvalues --   -0.37952  -0.37885  -0.37485  -0.37061  -0.36295
 Alpha  occ. eigenvalues --   -0.35755  -0.35502  -0.34652  -0.34282  -0.34040
 Alpha  occ. eigenvalues --   -0.33685  -0.33148  -0.32991  -0.31504  -0.30895
 Alpha  occ. eigenvalues --   -0.30202  -0.29109  -0.28516  -0.27134  -0.26597
 Alpha  occ. eigenvalues --   -0.25754  -0.24060  -0.23862  -0.23477  -0.22796
 Alpha  occ. eigenvalues --   -0.21848  -0.21314  -0.18313
 Alpha virt. eigenvalues --   -0.04445  -0.03754  -0.03116  -0.02222  -0.01757
 Alpha virt. eigenvalues --   -0.01674  -0.00090   0.01434   0.02137   0.03313
 Alpha virt. eigenvalues --    0.04540   0.06250   0.08340   0.09608   0.09776
 Alpha virt. eigenvalues --    0.10678   0.10975   0.11579   0.11902   0.12315
 Alpha virt. eigenvalues --    0.13466   0.13469   0.13894   0.14164   0.14327
 Alpha virt. eigenvalues --    0.15495   0.15705   0.15930   0.16680   0.16818
 Alpha virt. eigenvalues --    0.17041   0.17087   0.17146   0.17457   0.18044
 Alpha virt. eigenvalues --    0.18285   0.18520   0.18745   0.19632   0.19844
 Alpha virt. eigenvalues --    0.19925   0.20474   0.20585   0.20709   0.22720
 Alpha virt. eigenvalues --    0.23800   0.24382   0.24887   0.25613   0.27199
 Alpha virt. eigenvalues --    0.27424   0.27773   0.28010   0.28751   0.29103
 Alpha virt. eigenvalues --    0.29341   0.30010   0.30586   0.31258   0.31624
 Alpha virt. eigenvalues --    0.32014   0.32569   0.33146   0.33664   0.34223
 Alpha virt. eigenvalues --    0.35253   0.35853   0.36571   0.37273   0.38080
 Alpha virt. eigenvalues --    0.38411   0.39701   0.41055   0.42896   0.43225
 Alpha virt. eigenvalues --    0.44100   0.45649   0.46640   0.47974   0.48499
 Alpha virt. eigenvalues --    0.49533   0.50253   0.50297   0.51370   0.51404
 Alpha virt. eigenvalues --    0.51719   0.52032   0.52447   0.52985   0.53154
 Alpha virt. eigenvalues --    0.53256   0.54220   0.54487   0.54635   0.54914
 Alpha virt. eigenvalues --    0.55151   0.55434   0.55937   0.56152   0.56481
 Alpha virt. eigenvalues --    0.56666   0.57175   0.57526   0.57751   0.57901
 Alpha virt. eigenvalues --    0.58097   0.58203   0.58608   0.58951   0.58994
 Alpha virt. eigenvalues --    0.59476   0.59716   0.59805   0.60063   0.60333
 Alpha virt. eigenvalues --    0.60540   0.60659   0.60887   0.61092   0.61168
 Alpha virt. eigenvalues --    0.61551   0.61902   0.61979   0.62110   0.62213
 Alpha virt. eigenvalues --    0.62732   0.62897   0.63007   0.63052   0.63485
 Alpha virt. eigenvalues --    0.63779   0.64510   0.64900   0.64983   0.65779
 Alpha virt. eigenvalues --    0.66213   0.66774   0.67035   0.67785   0.68114
 Alpha virt. eigenvalues --    0.68494   0.68964   0.69301   0.70032   0.70459
 Alpha virt. eigenvalues --    0.72605   0.73139   0.74806   0.76472   0.77463
 Alpha virt. eigenvalues --    0.78639   0.78799   0.79969   0.80432   0.80751
 Alpha virt. eigenvalues --    0.81189   0.82303   0.82523   0.82625   0.82756
 Alpha virt. eigenvalues --    0.82937   0.83186   0.83542   0.83759   0.83889
 Alpha virt. eigenvalues --    0.84165   0.84394   0.84574   0.85089   0.85359
 Alpha virt. eigenvalues --    0.85573   0.86220   0.86541   0.86932   0.87569
 Alpha virt. eigenvalues --    0.87934   0.88089   0.88589   0.89613   0.89892
 Alpha virt. eigenvalues --    0.90306   0.90602   0.91711   0.92175   0.92830
 Alpha virt. eigenvalues --    0.92947   0.93263   0.93647   0.94449   0.94896
 Alpha virt. eigenvalues --    0.95363   0.95704   0.95918   0.96301   0.97305
 Alpha virt. eigenvalues --    0.98142   0.98729   0.99272   0.99864   1.00509
 Alpha virt. eigenvalues --    1.01979   1.02317   1.02811   1.03157   1.03839
 Alpha virt. eigenvalues --    1.04437   1.06147   1.06586   1.06789   1.08031
 Alpha virt. eigenvalues --    1.08377   1.09140   1.10192   1.10970   1.12195
 Alpha virt. eigenvalues --    1.12992   1.13209   1.13842   1.14855   1.15967
 Alpha virt. eigenvalues --    1.16304   1.17250   1.17662   1.18247   1.19153
 Alpha virt. eigenvalues --    1.20149   1.20387   1.21504   1.22076   1.22302
 Alpha virt. eigenvalues --    1.22656   1.23449   1.24078   1.25110   1.25544
 Alpha virt. eigenvalues --    1.26573   1.27275   1.28724   1.29417   1.30568
 Alpha virt. eigenvalues --    1.30956   1.32831   1.33716   1.35179   1.36019
 Alpha virt. eigenvalues --    1.37852   1.37986   1.38749   1.39242   1.40808
 Alpha virt. eigenvalues --    1.41414   1.41568   1.42663   1.42856   1.44031
 Alpha virt. eigenvalues --    1.44351   1.44560   1.45492   1.45646   1.46194
 Alpha virt. eigenvalues --    1.46837   1.47185   1.47277   1.47528   1.47843
 Alpha virt. eigenvalues --    1.48329   1.48477   1.49287   1.49307   1.49682
 Alpha virt. eigenvalues --    1.49822   1.50105   1.50300   1.50372   1.51421
 Alpha virt. eigenvalues --    1.52255   1.52327   1.52871   1.53101   1.54674
 Alpha virt. eigenvalues --    1.56297   1.57403   1.61778   1.64378   1.67257
 Alpha virt. eigenvalues --    1.68985   1.69918   1.70808   1.71736   1.73024
 Alpha virt. eigenvalues --    1.73817   1.75394   1.76218   1.77102   1.78607
 Alpha virt. eigenvalues --    1.79436   1.80026   1.80572   1.81519   1.82235
 Alpha virt. eigenvalues --    1.82817   1.83062   1.84291   1.84783   1.85552
 Alpha virt. eigenvalues --    1.86497   1.86675   1.87025   1.87733   1.87899
 Alpha virt. eigenvalues --    1.89735   1.90123   1.90497   1.90797   1.90925
 Alpha virt. eigenvalues --    1.92224   1.92502   1.93130   1.93641   1.94114
 Alpha virt. eigenvalues --    1.94607   1.94964   1.95243   1.96079   1.96333
 Alpha virt. eigenvalues --    1.97218   1.99184   1.99545   2.01117   2.01994
 Alpha virt. eigenvalues --    2.03804   2.04361   2.04850   2.05389   2.06950
 Alpha virt. eigenvalues --    2.07594   2.07875   2.08188   2.09375   2.11797
 Alpha virt. eigenvalues --    2.11967   2.12605   2.13408   2.14231   2.14775
 Alpha virt. eigenvalues --    2.14964   2.15214   2.15492   2.16039   2.17070
 Alpha virt. eigenvalues --    2.18080   2.18349   2.19266   2.19557   2.20018
 Alpha virt. eigenvalues --    2.20293   2.21274   2.22210   2.23027   2.24116
 Alpha virt. eigenvalues --    2.24786   2.25413   2.26084   2.26742   2.26886
 Alpha virt. eigenvalues --    2.27398   2.28397   2.29267   2.29403   2.29687
 Alpha virt. eigenvalues --    2.31031   2.31976   2.32206   2.32430   2.33172
 Alpha virt. eigenvalues --    2.33660   2.34324   2.34493   2.35304   2.36463
 Alpha virt. eigenvalues --    2.37156   2.37911   2.40101   2.41096   2.42380
 Alpha virt. eigenvalues --    2.44217   2.46429   2.49666   2.50704   2.51254
 Alpha virt. eigenvalues --    2.51972   2.54792   2.56359   2.57283   2.57963
 Alpha virt. eigenvalues --    2.59162   2.59301   2.60350   2.61166   2.61697
 Alpha virt. eigenvalues --    2.62439   2.63125   2.63637   2.64733   2.64915
 Alpha virt. eigenvalues --    2.65112   2.65450   2.66623   2.67507   2.67718
 Alpha virt. eigenvalues --    2.70151   2.72025   2.72322   2.72396   2.72902
 Alpha virt. eigenvalues --    2.73462   2.74390   2.74681   2.75812   2.76282
 Alpha virt. eigenvalues --    2.77168   2.77857   2.79544   2.80364   2.82154
 Alpha virt. eigenvalues --    2.83348   2.83447   2.85180   2.86867   2.88635
 Alpha virt. eigenvalues --    2.89056   2.89972   2.90433   2.93148   2.93864
 Alpha virt. eigenvalues --    2.96071   2.97288   3.00135   3.01885   3.04748
 Alpha virt. eigenvalues --    3.09344   3.13770   3.18083   3.19300   3.29051
 Alpha virt. eigenvalues --    3.31797   3.36467   3.36676   3.41389   3.45518
 Alpha virt. eigenvalues --    3.47650   3.48570   4.07363   4.08170   4.09396
 Alpha virt. eigenvalues --    4.09808   4.09921   4.10458   4.10937   4.11232
 Alpha virt. eigenvalues --    4.11752   4.12229   4.13228   4.14231   4.15400
 Alpha virt. eigenvalues --    4.16246   4.16864   4.18149   4.19497   4.20739
 Alpha virt. eigenvalues --    4.25334   4.27375   4.28101   4.30592   4.32233
 Alpha virt. eigenvalues --    4.32352   4.36007   4.37236   4.38576   4.40906
 Alpha virt. eigenvalues --    4.42047   4.45205   4.47782   4.50372   4.55740
 Alpha virt. eigenvalues --    4.61693   4.71327   4.73834   4.81619   4.82690
          Condensed to atoms (all electrons):
 Mulliken charges:
               1
     1  C   -0.122632
     2  C   -0.137083
     3  C   -0.169804
     4  C    0.101543
     5  C    0.402629
     6  N   -0.465819
     7  C    0.028278
     8  C    0.274903
     9  N   -0.671893
    10  C    0.284715
    11  C   -0.168387
    12  C   -0.205280
    13  C    0.143311
    14  C   -0.193309
    15  C   -0.136607
    16  C   -0.136209
    17  C   -0.190951
    18  C    0.135985
    19  C   -0.250198
    20  C    0.159352
    21  C   -0.158059
    22  C   -0.166172
    23  C   -0.154195
    24  C    0.301082
    25  C    0.087016
    26  C   -0.235676
    27  C    0.036708
    28  N   -0.614570
    29  C    0.283088
    30  C   -0.156721
    31  C   -0.142298
    32  C   -0.121878
    33  C   -0.139826
    34  C   -0.154290
    35  C    0.023060
    36  N   -0.465384
    37  C   -0.169570
    38  C   -0.137121
    39  H    0.125838
    40  H    0.126740
    41  H    0.154228
    42  H    0.162469
    43  H    0.146842
    44  H    0.135601
    45  H    0.130201
    46  H    0.129828
    47  H    0.130186
    48  H    0.130761
    49  H    0.145208
    50  H    0.137571
    51  H    0.131600
    52  H    0.140967
    53  H    0.148023
    54  H    0.163105
    55  H    0.153302
    56  H    0.139944
    57  H    0.137019
    58  H    0.140643
    59  H    0.149226
    60  H    0.161970
    61  H    0.154498
    62  H    0.126491
 Sum of Mulliken charges =  -0.00000
 Mulliken charges with hydrogens summed into heavy atoms:
               1
     1  C    0.003207
     2  C   -0.010342
     3  C   -0.015576
     4  C    0.101543
     5  C    0.402629
     6  N   -0.465819
     7  C    0.190748
     8  C    0.274903
     9  N   -0.671893
    10  C    0.284715
    11  C   -0.021545
    12  C   -0.069679
    13  C    0.143311
    14  C   -0.063108
    15  C   -0.006779
    16  C   -0.006023
    17  C   -0.060190
    18  C    0.135985
    19  C   -0.104990
    20  C    0.159352
    21  C   -0.020489
    22  C   -0.034572
    23  C   -0.013229
    24  C    0.301082
    25  C    0.087016
    26  C   -0.087653
    27  C    0.199813
    28  N   -0.614570
    29  C    0.283088
    30  C   -0.003418
    31  C   -0.002353
    32  C    0.015141
    33  C    0.000817
    34  C   -0.005064
    35  C    0.185030
    36  N   -0.465384
    37  C   -0.015072
    38  C   -0.010630
 Electronic spatial extent (au):  <R**2>=          24682.5347
 Charge=             -0.0000 electrons
 Dipole moment (field-independent basis, Debye):
    X=             -4.3951    Y=              0.5996    Z=             -0.2983  Tot=              4.4458
 Quadrupole moment (field-independent basis, Debye-Ang):
   XX=           -191.9624   YY=           -197.3797   ZZ=           -215.7122
   XY=             12.5353   XZ=              1.9397   YZ=              3.0849
 Traceless Quadrupole moment (field-independent basis, Debye-Ang):
   XX=              9.7223   YY=              4.3051   ZZ=            -14.0274
   XY=             12.5353   XZ=              1.9397   YZ=              3.0849
 Octapole moment (field-independent basis, Debye-Ang**2):
  XXX=           -171.4337  YYY=             14.7739  ZZZ=              8.1300  XYY=             -5.0097
  XXY=            -57.1365  XXZ=            -12.0795  XZZ=             -0.7884  YZZ=              1.5919
  YYZ=            -23.3589  XYZ=              6.2067
 Hexadecapole moment (field-independent basis, Debye-Ang**3):
 XXXX=         -15900.9828 YYYY=         -14070.7073 ZZZZ=          -1341.5484 XXXY=            284.3747
 XXXZ=           -173.5715 YYYX=            198.0595 YYYZ=           -221.4685 ZZZX=            -37.7604
 ZZZY=             38.1734 XXYY=          -4838.1761 XXZZ=          -3242.0075 YYZZ=          -2855.8710
 XXYZ=            164.4252 YYXZ=            183.2754 ZZXY=            -52.9914
 N-N= 3.629887921013D+03 E-N=-1.080341439032D+04  KE= 1.514373150960D+03
 No NMR shielding tensors so no spin-rotation constants.
 Leave Link  601 at Sat Nov  5 01:17:41 2022, MaxMem=   805306368 cpu:               1.6 elap:               0.3
 (Enter /home/wykgroup/appl/g16/l9999.exe)
 1\1\GINC-NODE49\FOpt\RB3LYP\6-31G(d)\C34H24N4\WYKGROUP\05-Nov-2022\0\\
 #p b3lyp/6-31g(d) opt SCF=XQC\\Gaussian input prepared by ASE\\0,1\C,-
 7.0930795872,3.3808501672,-2.1019573338\C,-6.9320867462,2.0283871891,-
 2.4128475277\C,-5.8319374643,1.32296683,-1.9306939067\C,-4.8727097569,
 1.962794757,-1.1290165367\C,-3.7006758613,1.2144067955,-0.6150005846\N
 ,-2.8198566785,1.8756530526,0.1587520633\C,-1.7741391596,1.1999382759,
 0.622512211\C,-1.5571315241,-0.1598667589,0.3356768308\N,-0.4433763441
 ,-0.8616331656,0.8201931138\C,-0.5263107392,-2.2498933404,1.1213333473
 \C,-1.680565481,-2.7683749536,1.77691873\C,-1.7641419614,-4.1032823018
 ,2.0890076072\C,-0.7042528599,-5.000929683,1.7882822562\C,-0.760348661
 9,-6.3830950747,2.1050047458\C,0.289507925,-7.2202356575,1.7979770525\
 C,1.4446690355,-6.7069654375,1.1584350347\C,1.5307154356,-5.3700862825
 ,0.8405693393\C,0.4649718439,-4.4790512784,1.1444951462\C,0.5195826173
 ,-3.1014236141,0.8142906435\C,0.7843063306,-0.1654676171,1.0574464857\
 C,1.3858340577,-0.2029651495,2.31400121\C,2.5901762803,0.477082294,2.5
 639156878\C,3.2271920945,1.2167432099,1.5738289984\C,2.6319348342,1.24
 30636654,0.307540044\C,1.4118755977,0.5665530152,0.0243882816\C,1.0935
 417037,0.8261232577,-1.3508263971\C,2.0848948732,1.6268283775,-1.84445
 76366\N,3.0319305249,1.8874500501,-0.861066839\C,4.1890460914,2.690448
 8419,-1.0478359874\C,5.4466727279,2.2318320545,-0.635882424\C,6.574368
 0227,3.0271746484,-0.8367436614\C,6.4617305688,4.2688964214,-1.4651181
 929\C,5.2087342813,4.7173359747,-1.8869404276\C,4.0723390792,3.9384266
 119,-1.6722389034\C,-2.5307445799,-0.7499580049,-0.4902632648\N,-3.582
 8324101,-0.0831275081,-0.9537018105\C,-5.0409189288,3.3226547352,-0.82
 13385615\C,-6.1433443778,4.0239153661,-1.3043132611\H,-7.9525739168,3.
 9296419934,-2.4783678796\H,-7.667050085,1.5209618353,-3.0324988718\H,-
 5.6993631782,0.2725863889,-2.1653421454\H,-1.0689057018,1.7489594792,1
 .2429638277\H,-2.4901303399,-2.094185899,2.0377691084\H,-2.6486889243,
 -4.485594936,2.5929956526\H,-1.6499984937,-6.7714192032,2.5956625066\H
 ,0.2355762611,-8.2769791402,2.0448013967\H,2.2673149571,-7.3757630031,
 0.9196319031\H,2.4178882255,-4.9762113824,0.3503487943\H,1.4021586366,
 -2.7115443461,0.3158460779\H,0.907142916,-0.7657910948,3.1092024062\H,
 3.0225256701,0.434858688,3.5594391021\H,4.1451203321,1.7558071991,1.78
 04540048\H,0.242761648,0.4584260257,-1.9050853136\H,2.2294420554,2.020
 7722544,-2.8403595628\H,5.5373190334,1.2507979481,-0.181224789\H,7.546
 8344674,2.6652362643,-0.5145133704\H,7.3438951034,4.8819292105,-1.6256
 562095\H,5.1099251601,5.6841865205,-2.3725877665\H,3.0918261813,4.2975
 548096,-1.9700019487\H,-2.4491972067,-1.7967969483,-0.7765390228\H,-4.
 2976869239,3.8133388444,-0.202673182\H,-6.2617056805,5.0760597274,-1.0
 581002904\\Version=ES64L-G16RevB.01\State=1-A\HF=-1529.1008184\RMSD=2.
 735e-09\RMSF=5.891e-06\Dipole=1.7472343,0.0800968,-0.0145222\Quadrupol
 e=3.8553125,3.6143176,-7.4696301,9.063696,-3.1289073,-6.7840717\PG=C01
  [X(C34H24N4)]\\@


 10 WHATSOEVER THY HAND FINDETH TO DO, DO IT WITH THY  
 MIGHT. FOR THERE IS NO WORK, NOR DEVICE, NOR KNOWLEDGE, NOR  
 WISDOM, IN THE GRAVE, WHITHER THOU GOEST.                    
 11 I RETURNED AND SAW UNDER THE SUN, THAT THE RACE IS NOT TO 
 THE SWIFT, NOR THE BATTLE TO THE STRONG, NEITHER YET BREAD TO
 THE WISE, NOR YET RICHES TO MEN OF UNDERSTANDING, NOR YET    
 FAVOR TO MEN OF SKILL. BUT TIME AND CHANCE HAPPEN TO THEM ALL.
 12 FOR MAN ALSO KNOWETH NOT HIS TIME. AS THE FISHES   
 THAT ARE TAKEN IN AN EVIL NET, AND AS THE BIRDS THAT ARE     
 CAUGHT IN THE SNARE. SO ARE THE SONS OF MEN SNARED IN AN EVIL
 TIME, WHEN IT FALLETH SUDDENLY UPON THEM.
                                         ECCLESIASTES 9
 Job cpu time:       0 days  2 hours 54 minutes 22.8 seconds.
 Elapsed time:       0 days  0 hours 25 minutes 13.5 seconds.
 File lengths (MBytes):  RWF=    241 Int=      0 D2E=      0 Chk=     31 Scr=      1
 Normal termination of Gaussian 16 at Sat Nov  5 01:17:41 2022.
