 Entering Gaussian System, Link 0=/home/wykgroup/appl/g16/g16
 Input=./calculation/no_transfer_pubchem_sampling_9_b3lyp/140947194.com
 Output=./calculation/no_transfer_pubchem_sampling_9_b3lyp/140947194.log
 Initial command:
 /home/wykgroup/appl/g16/l1.exe "/userdata/scratch/wykgroup/khs/./calculation/no_transfer_pubchem_sampling_9_b3lyp/140947194/Gau-21183.inp" -scrdir="/userdata/scratch/wykgroup/khs/./calculation/no_transfer_pubchem_sampling_9_b3lyp/140947194/"
 Entering Link 1 = /home/wykgroup/appl/g16/l1.exe PID=     21184.
  
 Copyright (c) 1988-2017, Gaussian, Inc.  All Rights Reserved.
  
 This is part of the Gaussian(R) 16 program.  It is based on
 the Gaussian(R) 09 system (copyright 2009, Gaussian, Inc.),
 the Gaussian(R) 03 system (copyright 2003, Gaussian, Inc.),
 the Gaussian(R) 98 system (copyright 1998, Gaussian, Inc.),
 the Gaussian(R) 94 system (copyright 1995, Gaussian, Inc.),
 the Gaussian 92(TM) system (copyright 1992, Gaussian, Inc.),
 the Gaussian 90(TM) system (copyright 1990, Gaussian, Inc.),
 the Gaussian 88(TM) system (copyright 1988, Gaussian, Inc.),
 the Gaussian 86(TM) system (copyright 1986, Carnegie Mellon
 University), and the Gaussian 82(TM) system (copyright 1983,
 Carnegie Mellon University). Gaussian is a federally registered
 trademark of Gaussian, Inc.
  
 This software contains proprietary and confidential information,
 including trade secrets, belonging to Gaussian, Inc.
  
 This software is provided under written license and may be
 used, copied, transmitted, or stored only in accord with that
 written license.
  
 The following legend is applicable only to US Government
 contracts under FAR:
  
                    RESTRICTED RIGHTS LEGEND
  
 Use, reproduction and disclosure by the US Government is
 subject to restrictions as set forth in subparagraphs (a)
 and (c) of the Commercial Computer Software - Restricted
 Rights clause in FAR 52.227-19.
  
 Gaussian, Inc.
 340 Quinnipiac St., Bldg. 40, Wallingford CT 06492
  
  
 ---------------------------------------------------------------
 Warning -- This program may not be used in any manner that
 competes with the business of Gaussian, Inc. or will provide
 assistance to any competitor of Gaussian, Inc.  The licensee
 of this program is prohibited from giving any competitor of
 Gaussian, Inc. access to this program.  By using this program,
 the user acknowledges that Gaussian, Inc. is engaged in the
 business of creating and licensing software in the field of
 computational chemistry and represents and warrants to the
 licensee that it is not a competitor of Gaussian, Inc. and that
 it will not use this program in any manner prohibited above.
 ---------------------------------------------------------------
  

 Cite this work as:
 Gaussian 16, Revision B.01,
 M. J. Frisch, G. W. Trucks, H. B. Schlegel, G. E. Scuseria, 
 M. A. Robb, J. R. Cheeseman, G. Scalmani, V. Barone, 
 G. A. Petersson, H. Nakatsuji, X. Li, M. Caricato, A. V. Marenich, 
 J. Bloino, B. G. Janesko, R. Gomperts, B. Mennucci, H. P. Hratchian, 
 J. V. Ortiz, A. F. Izmaylov, J. L. Sonnenberg, D. Williams-Young, 
 F. Ding, F. Lipparini, F. Egidi, J. Goings, B. Peng, A. Petrone, 
 T. Henderson, D. Ranasinghe, V. G. Zakrzewski, J. Gao, N. Rega, 
 G. Zheng, W. Liang, M. Hada, M. Ehara, K. Toyota, R. Fukuda, 
 J. Hasegawa, M. Ishida, T. Nakajima, Y. Honda, O. Kitao, H. Nakai, 
 T. Vreven, K. Throssell, J. A. Montgomery, Jr., J. E. Peralta, 
 F. Ogliaro, M. J. Bearpark, J. J. Heyd, E. N. Brothers, K. N. Kudin, 
 V. N. Staroverov, T. A. Keith, R. Kobayashi, J. Normand, 
 K. Raghavachari, A. P. Rendell, J. C. Burant, S. S. Iyengar, 
 J. Tomasi, M. Cossi, J. M. Millam, M. Klene, C. Adamo, R. Cammi, 
 J. W. Ochterski, R. L. Martin, K. Morokuma, O. Farkas, 
 J. B. Foresman, and D. J. Fox, Gaussian, Inc., Wallingford CT, 2016.
 
 ******************************************
 Gaussian 16:  ES64L-G16RevB.01 20-Dec-2017
                 5-Nov-2022 
 ******************************************
 %chk=./calculation/no_transfer_pubchem_sampling_9_b3lyp/140947194.chk
 %nprocshared=7
 Will use up to    7 processors via shared memory.
 %mem=6GB
 -----------------------------
 #p b3lyp/6-31g(d) opt SCF=XQC
 -----------------------------
 1/18=20,19=15,26=3,38=1/1,3;
 2/9=110,12=2,17=6,18=5,40=1/2;
 3/5=1,6=6,7=1,11=2,25=1,30=1,71=1,74=-5/1,2,3;
 4//1;
 5/5=2,8=3,13=1,38=5/2,8;
 6/7=2,8=2,9=2,10=2,28=1/1;
 7//1,2,3,16;
 1/18=20,19=15,26=3/3(2);
 2/9=110/2;
 99//99;
 2/9=110/2;
 3/5=1,6=6,7=1,11=2,25=1,30=1,71=1,74=-5/1,2,3;
 4/5=5,16=3,69=1/1;
 5/5=2,8=3,13=1,38=5/2,8;
 7//1,2,3,16;
 1/18=20,19=15,26=3/3(-5);
 2/9=110/2;
 6/7=2,8=2,9=2,10=2,19=2,28=1/1;
 99/9=1/99;
 Leave Link    1 at Sat Nov  5 01:02:33 2022, MaxMem=   805306368 cpu:               0.9 elap:               0.2
 (Enter /home/wykgroup/appl/g16/l101.exe)
 ------------------------------
 Gaussian input prepared by ASE
 ------------------------------
 Symbolic Z-matrix:
 Charge =  0 Multiplicity = 1
 C                     9.20395   0.40534  -1.23416 
 C                     8.50467   1.26897  -0.17987 
 C                     8.98319   0.89111   1.2253 
 C                     8.71426   2.7414   -0.45206 
 C                     9.89243   3.45556  -0.48701 
 C                     9.84316   4.81607  -0.76056 
 C                     8.63284   5.45042  -0.99521 
 C                     7.44378   4.74089  -0.96211 
 C                     7.48928   3.38312  -0.68946 
 C                     6.42625   2.3983   -0.59046 
 C                     5.05286   2.52562  -0.7395 
 C                     4.26174   1.40351  -0.58915 
 C                     4.82843   0.16287  -0.29224 
 C                     3.97371  -1.0107   -0.1367 
 N                     4.55199  -2.16645   0.18427 
 C                     3.73732  -3.20813   0.31814 
 C                     4.32796  -4.50048   0.67111 
 C                     3.5217   -5.63048   0.7891 
 C                     4.08186  -6.84845   1.12183 
 C                     5.44711  -6.9498    1.3396 
 C                     6.25377  -5.8284    1.22374 
 C                     5.69945  -4.60787   0.89092 
 N                     2.4196   -3.15027   0.15138 
 C                     1.92527  -1.95707  -0.17033 
 C                     0.48232  -1.84274  -0.36815 
 C                    -0.34538  -2.94728  -0.17419 
 C                    -1.70621  -2.83581  -0.36304 
 C                    -2.27537  -1.62077  -0.74417 
 C                    -3.72856  -1.52698  -0.95445 
 C                    -4.39061  -2.49257  -1.70184 
 C                    -5.75491  -2.41515  -1.91478 
 C                    -6.4757   -1.37022  -1.37047 
 C                    -5.84628  -0.39522  -0.60779 
 C                    -4.47302  -0.47211  -0.40219 
 O                    -3.78285   0.4291    0.35444 
 C                    -4.45159   1.46365   0.93801 
 C                    -3.68156   2.33987   1.69907 
 C                    -4.27548   3.41887   2.32042 
 C                    -5.63891   3.63181   2.18711 
 C                    -6.39989   2.7606    1.43188 
 C                    -5.81938   1.66898   0.79945 
 C                    -6.66828   0.72876  -0.02122 
 C                    -7.40756   1.48121  -1.11048 
 C                    -6.87836   2.18871  -2.16667 
 C                    -7.75105   2.80768  -3.05178 
 C                    -9.12323   2.71576  -2.87605 
 C                    -9.65924   2.00437  -1.81433 
 C                    -8.79408   1.38448  -0.92827 
 C                    -9.04976   0.58113   0.25802 
 C                    -10.23553   0.19376   0.85954 
 C                    -10.17447  -0.58788   2.00232 
 C                    -8.95506  -0.9763    2.53569 
 C                    -7.76261  -0.59093   1.93757 
 C                    -7.81974   0.18576   0.80192 
 C                    -1.44306  -0.51974  -0.94028 
 C                    -0.08142  -0.62819  -0.75547 
 N                     2.66498  -0.86291  -0.32387 
 C                     6.21271   0.03708  -0.14205 
 C                     7.00105   1.15189  -0.2919 
 H                     8.86422   0.67972  -2.23069 
 H                     8.98011  -0.6457   -1.06846 
 H                     10.28128   0.54527  -1.1837 
 H                     8.48685   1.50922   1.97051 
 H                     10.05729   1.03837   1.31141 
 H                     8.75595  -0.15181   1.43241 
 H                     10.84177   2.97261  -0.3059 
 H                     10.75935   5.38767  -0.791 
 H                     8.61875   6.5099   -1.20604 
 H                     6.50189   5.23635  -1.14506 
 H                     4.6098    3.48342  -0.96861 
 H                     3.1902    1.46362  -0.69674 
 H                     2.46173  -5.53225   0.61531 
 H                     3.45522  -7.72374   1.21253 
 H                     5.88291  -7.90348   1.59991 
 H                     7.31748  -5.90981   1.39429 
 H                     6.31082  -3.7242    0.797 
 H                     0.09863  -3.88282   0.12795 
 H                    -2.34588  -3.69084  -0.19766 
 H                    -3.81833  -3.29888  -2.13559 
 H                    -6.25493  -3.16732  -2.50538 
 H                    -7.54152  -1.30053  -1.53019 
 H                    -2.62335   2.14851   1.78536 
 H                    -3.67456   4.09506   2.90935 
 H                    -6.10704   4.47513   2.67121 
 H                    -7.4629    2.92028   1.32401 
 H                    -5.80907   2.26105  -2.30422 
 H                    -7.35609   3.36732  -3.88679 
 H                    -9.78308   3.20577  -3.57715 
 H                    -10.72882   1.93569  -1.68193 
 H                    -11.18788   0.49366   0.44802 
 H                    -11.08939  -0.89938   2.48499 
 H                    -8.93212  -1.58566   3.42708 
 H                    -6.81248  -0.89349   2.35381 
 H                    -1.86936   0.42128  -1.25249 
 H                     0.56822   0.21896  -0.91011 
 H                     6.62587  -0.93268   0.08653 
 
 ITRead=  0  0  0  0  0  0  0  0  0  0  0  0  0  0  0  0  0  0  0  0
 ITRead=  0  0  0  0  0  0  0  0  0  0  0  0  0  0  0  0  0  0  0  0
 ITRead=  0  0  0  0  0  0  0  0  0  0  0  0  0  0  0  0  0  0  0  0
 ITRead=  0  0  0  0  0  0  0  0  0  0  0  0  0  0  0  0  0  0  0  0
 ITRead=  0  0  0  0  0  0  0  0  0  0  0  0  0  0  0  0
 MicOpt= -1 -1 -1 -1 -1 -1 -1 -1 -1 -1 -1 -1 -1 -1 -1 -1 -1 -1 -1 -1
 MicOpt= -1 -1 -1 -1 -1 -1 -1 -1 -1 -1 -1 -1 -1 -1 -1 -1 -1 -1 -1 -1
 MicOpt= -1 -1 -1 -1 -1 -1 -1 -1 -1 -1 -1 -1 -1 -1 -1 -1 -1 -1 -1 -1
 MicOpt= -1 -1 -1 -1 -1 -1 -1 -1 -1 -1 -1 -1 -1 -1 -1 -1 -1 -1 -1 -1
 MicOpt= -1 -1 -1 -1 -1 -1 -1 -1 -1 -1 -1 -1 -1 -1 -1 -1
 NAtoms=     96 NQM=       96 NQMF=       0 NMMI=      0 NMMIF=      0
                NMic=       0 NMicF=      0.
                    Isotopes and Nuclear Properties:
 (Nuclear quadrupole moments (NQMom) in fm**2, nuclear magnetic moments (NMagM)
  in nuclear magnetons)

  Atom         1           2           3           4           5           6           7           8           9          10
 IAtWgt=          12          12          12          12          12          12          12          12          12          12
 AtmWgt=  12.0000000  12.0000000  12.0000000  12.0000000  12.0000000  12.0000000  12.0000000  12.0000000  12.0000000  12.0000000
 NucSpn=           0           0           0           0           0           0           0           0           0           0
 AtZEff=  -0.0000000  -0.0000000  -0.0000000  -0.0000000  -0.0000000  -0.0000000  -0.0000000  -0.0000000  -0.0000000  -0.0000000
 NQMom=    0.0000000   0.0000000   0.0000000   0.0000000   0.0000000   0.0000000   0.0000000   0.0000000   0.0000000   0.0000000
 NMagM=    0.0000000   0.0000000   0.0000000   0.0000000   0.0000000   0.0000000   0.0000000   0.0000000   0.0000000   0.0000000
 AtZNuc=   6.0000000   6.0000000   6.0000000   6.0000000   6.0000000   6.0000000   6.0000000   6.0000000   6.0000000   6.0000000

  Atom        11          12          13          14          15          16          17          18          19          20
 IAtWgt=          12          12          12          12          14          12          12          12          12          12
 AtmWgt=  12.0000000  12.0000000  12.0000000  12.0000000  14.0030740  12.0000000  12.0000000  12.0000000  12.0000000  12.0000000
 NucSpn=           0           0           0           0           2           0           0           0           0           0
 AtZEff=  -0.0000000  -0.0000000  -0.0000000  -0.0000000  -0.0000000  -0.0000000  -0.0000000  -0.0000000  -0.0000000  -0.0000000
 NQMom=    0.0000000   0.0000000   0.0000000   0.0000000   2.0440000   0.0000000   0.0000000   0.0000000   0.0000000   0.0000000
 NMagM=    0.0000000   0.0000000   0.0000000   0.0000000   0.4037610   0.0000000   0.0000000   0.0000000   0.0000000   0.0000000
 AtZNuc=   6.0000000   6.0000000   6.0000000   6.0000000   7.0000000   6.0000000   6.0000000   6.0000000   6.0000000   6.0000000

  Atom        21          22          23          24          25          26          27          28          29          30
 IAtWgt=          12          12          14          12          12          12          12          12          12          12
 AtmWgt=  12.0000000  12.0000000  14.0030740  12.0000000  12.0000000  12.0000000  12.0000000  12.0000000  12.0000000  12.0000000
 NucSpn=           0           0           2           0           0           0           0           0           0           0
 AtZEff=  -0.0000000  -0.0000000  -0.0000000  -0.0000000  -0.0000000  -0.0000000  -0.0000000  -0.0000000  -0.0000000  -0.0000000
 NQMom=    0.0000000   0.0000000   2.0440000   0.0000000   0.0000000   0.0000000   0.0000000   0.0000000   0.0000000   0.0000000
 NMagM=    0.0000000   0.0000000   0.4037610   0.0000000   0.0000000   0.0000000   0.0000000   0.0000000   0.0000000   0.0000000
 AtZNuc=   6.0000000   6.0000000   7.0000000   6.0000000   6.0000000   6.0000000   6.0000000   6.0000000   6.0000000   6.0000000

  Atom        31          32          33          34          35          36          37          38          39          40
 IAtWgt=          12          12          12          12          16          12          12          12          12          12
 AtmWgt=  12.0000000  12.0000000  12.0000000  12.0000000  15.9949146  12.0000000  12.0000000  12.0000000  12.0000000  12.0000000
 NucSpn=           0           0           0           0           0           0           0           0           0           0
 AtZEff=  -0.0000000  -0.0000000  -0.0000000  -0.0000000  -0.0000000  -0.0000000  -0.0000000  -0.0000000  -0.0000000  -0.0000000
 NQMom=    0.0000000   0.0000000   0.0000000   0.0000000   0.0000000   0.0000000   0.0000000   0.0000000   0.0000000   0.0000000
 NMagM=    0.0000000   0.0000000   0.0000000   0.0000000   0.0000000   0.0000000   0.0000000   0.0000000   0.0000000   0.0000000
 AtZNuc=   6.0000000   6.0000000   6.0000000   6.0000000   8.0000000   6.0000000   6.0000000   6.0000000   6.0000000   6.0000000

  Atom        41          42          43          44          45          46          47          48          49          50
 IAtWgt=          12          12          12          12          12          12          12          12          12          12
 AtmWgt=  12.0000000  12.0000000  12.0000000  12.0000000  12.0000000  12.0000000  12.0000000  12.0000000  12.0000000  12.0000000
 NucSpn=           0           0           0           0           0           0           0           0           0           0
 AtZEff=  -0.0000000  -0.0000000  -0.0000000  -0.0000000  -0.0000000  -0.0000000  -0.0000000  -0.0000000  -0.0000000  -0.0000000
 NQMom=    0.0000000   0.0000000   0.0000000   0.0000000   0.0000000   0.0000000   0.0000000   0.0000000   0.0000000   0.0000000
 NMagM=    0.0000000   0.0000000   0.0000000   0.0000000   0.0000000   0.0000000   0.0000000   0.0000000   0.0000000   0.0000000
 AtZNuc=   6.0000000   6.0000000   6.0000000   6.0000000   6.0000000   6.0000000   6.0000000   6.0000000   6.0000000   6.0000000

  Atom        51          52          53          54          55          56          57          58          59          60
 IAtWgt=          12          12          12          12          12          12          14          12          12           1
 AtmWgt=  12.0000000  12.0000000  12.0000000  12.0000000  12.0000000  12.0000000  14.0030740  12.0000000  12.0000000   1.0078250
 NucSpn=           0           0           0           0           0           0           2           0           0           1
 AtZEff=  -0.0000000  -0.0000000  -0.0000000  -0.0000000  -0.0000000  -0.0000000  -0.0000000  -0.0000000  -0.0000000  -0.0000000
 NQMom=    0.0000000   0.0000000   0.0000000   0.0000000   0.0000000   0.0000000   2.0440000   0.0000000   0.0000000   0.0000000
 NMagM=    0.0000000   0.0000000   0.0000000   0.0000000   0.0000000   0.0000000   0.4037610   0.0000000   0.0000000   2.7928460
 AtZNuc=   6.0000000   6.0000000   6.0000000   6.0000000   6.0000000   6.0000000   7.0000000   6.0000000   6.0000000   1.0000000

  Atom        61          62          63          64          65          66          67          68          69          70
 IAtWgt=           1           1           1           1           1           1           1           1           1           1
 AtmWgt=   1.0078250   1.0078250   1.0078250   1.0078250   1.0078250   1.0078250   1.0078250   1.0078250   1.0078250   1.0078250
 NucSpn=           1           1           1           1           1           1           1           1           1           1
 AtZEff=  -0.0000000  -0.0000000  -0.0000000  -0.0000000  -0.0000000  -0.0000000  -0.0000000  -0.0000000  -0.0000000  -0.0000000
 NQMom=    0.0000000   0.0000000   0.0000000   0.0000000   0.0000000   0.0000000   0.0000000   0.0000000   0.0000000   0.0000000
 NMagM=    2.7928460   2.7928460   2.7928460   2.7928460   2.7928460   2.7928460   2.7928460   2.7928460   2.7928460   2.7928460
 AtZNuc=   1.0000000   1.0000000   1.0000000   1.0000000   1.0000000   1.0000000   1.0000000   1.0000000   1.0000000   1.0000000

  Atom        71          72          73          74          75          76          77          78          79          80
 IAtWgt=           1           1           1           1           1           1           1           1           1           1
 AtmWgt=   1.0078250   1.0078250   1.0078250   1.0078250   1.0078250   1.0078250   1.0078250   1.0078250   1.0078250   1.0078250
 NucSpn=           1           1           1           1           1           1           1           1           1           1
 AtZEff=  -0.0000000  -0.0000000  -0.0000000  -0.0000000  -0.0000000  -0.0000000  -0.0000000  -0.0000000  -0.0000000  -0.0000000
 NQMom=    0.0000000   0.0000000   0.0000000   0.0000000   0.0000000   0.0000000   0.0000000   0.0000000   0.0000000   0.0000000
 NMagM=    2.7928460   2.7928460   2.7928460   2.7928460   2.7928460   2.7928460   2.7928460   2.7928460   2.7928460   2.7928460
 AtZNuc=   1.0000000   1.0000000   1.0000000   1.0000000   1.0000000   1.0000000   1.0000000   1.0000000   1.0000000   1.0000000

  Atom        81          82          83          84          85          86          87          88          89          90
 IAtWgt=           1           1           1           1           1           1           1           1           1           1
 AtmWgt=   1.0078250   1.0078250   1.0078250   1.0078250   1.0078250   1.0078250   1.0078250   1.0078250   1.0078250   1.0078250
 NucSpn=           1           1           1           1           1           1           1           1           1           1
 AtZEff=  -0.0000000  -0.0000000  -0.0000000  -0.0000000  -0.0000000  -0.0000000  -0.0000000  -0.0000000  -0.0000000  -0.0000000
 NQMom=    0.0000000   0.0000000   0.0000000   0.0000000   0.0000000   0.0000000   0.0000000   0.0000000   0.0000000   0.0000000
 NMagM=    2.7928460   2.7928460   2.7928460   2.7928460   2.7928460   2.7928460   2.7928460   2.7928460   2.7928460   2.7928460
 AtZNuc=   1.0000000   1.0000000   1.0000000   1.0000000   1.0000000   1.0000000   1.0000000   1.0000000   1.0000000   1.0000000

  Atom        91          92          93          94          95          96
 IAtWgt=           1           1           1           1           1           1
 AtmWgt=   1.0078250   1.0078250   1.0078250   1.0078250   1.0078250   1.0078250
 NucSpn=           1           1           1           1           1           1
 AtZEff=  -0.0000000  -0.0000000  -0.0000000  -0.0000000  -0.0000000  -0.0000000
 NQMom=    0.0000000   0.0000000   0.0000000   0.0000000   0.0000000   0.0000000
 NMagM=    2.7928460   2.7928460   2.7928460   2.7928460   2.7928460   2.7928460
 AtZNuc=   1.0000000   1.0000000   1.0000000   1.0000000   1.0000000   1.0000000
 Leave Link  101 at Sat Nov  5 01:02:34 2022, MaxMem=   805306368 cpu:               2.6 elap:               0.4
 (Enter /home/wykgroup/appl/g16/l103.exe)

 GradGradGradGradGradGradGradGradGradGradGradGradGradGradGradGradGradGrad
 Berny optimization.
 Initialization pass.
                           ----------------------------
                           !    Initial Parameters    !
                           ! (Angstroms and Degrees)  !
 --------------------------                            --------------------------
 ! Name  Definition              Value          Derivative Info.                !
 --------------------------------------------------------------------------------
 ! R1    R(1,2)                  1.5318         estimate D2E/DX2                !
 ! R2    R(1,60)                 1.088          estimate D2E/DX2                !
 ! R3    R(1,61)                 1.0873         estimate D2E/DX2                !
 ! R4    R(1,62)                 1.0876         estimate D2E/DX2                !
 ! R5    R(2,3)                  1.5317         estimate D2E/DX2                !
 ! R6    R(2,4)                  1.512          estimate D2E/DX2                !
 ! R7    R(2,59)                 1.5123         estimate D2E/DX2                !
 ! R8    R(3,63)                 1.088          estimate D2E/DX2                !
 ! R9    R(3,64)                 1.0876         estimate D2E/DX2                !
 ! R10   R(3,65)                 1.0873         estimate D2E/DX2                !
 ! R11   R(4,5)                  1.3782         estimate D2E/DX2                !
 ! R12   R(4,9)                  1.4031         estimate D2E/DX2                !
 ! R13   R(5,6)                  1.3886         estimate D2E/DX2                !
 ! R14   R(5,66)                 1.0804         estimate D2E/DX2                !
 ! R15   R(6,7)                  1.3865         estimate D2E/DX2                !
 ! R16   R(6,67)                 1.0803         estimate D2E/DX2                !
 ! R17   R(7,8)                  1.3851         estimate D2E/DX2                !
 ! R18   R(7,68)                 1.0803         estimate D2E/DX2                !
 ! R19   R(8,9)                  1.3856         estimate D2E/DX2                !
 ! R20   R(8,69)                 1.0799         estimate D2E/DX2                !
 ! R21   R(9,10)                 1.4525         estimate D2E/DX2                !
 ! R22   R(10,11)                1.3873         estimate D2E/DX2                !
 ! R23   R(10,59)                1.4047         estimate D2E/DX2                !
 ! R24   R(11,12)                1.3812         estimate D2E/DX2                !
 ! R25   R(11,70)                1.0799         estimate D2E/DX2                !
 ! R26   R(12,13)                1.3959         estimate D2E/DX2                !
 ! R27   R(12,71)                1.0786         estimate D2E/DX2                !
 ! R28   R(13,14)                1.4601         estimate D2E/DX2                !
 ! R29   R(13,58)                1.3981         estimate D2E/DX2                !
 ! R30   R(14,15)                1.3316         estimate D2E/DX2                !
 ! R31   R(14,57)                1.3303         estimate D2E/DX2                !
 ! R32   R(15,16)                1.3292         estimate D2E/DX2                !
 ! R33   R(16,17)                1.4641         estimate D2E/DX2                !
 ! R34   R(16,23)                1.3295         estimate D2E/DX2                !
 ! R35   R(17,18)                1.3932         estimate D2E/DX2                !
 ! R36   R(17,22)                1.3931         estimate D2E/DX2                !
 ! R37   R(18,19)                1.3813         estimate D2E/DX2                !
 ! R38   R(18,72)                1.0786         estimate D2E/DX2                !
 ! R39   R(19,20)                1.3862         estimate D2E/DX2                !
 ! R40   R(19,73)                1.0803         estimate D2E/DX2                !
 ! R41   R(20,21)                1.3862         estimate D2E/DX2                !
 ! R42   R(20,74)                1.0804         estimate D2E/DX2                !
 ! R43   R(21,22)                1.3812         estimate D2E/DX2                !
 ! R44   R(21,75)                1.0804         estimate D2E/DX2                !
 ! R45   R(22,76)                1.0786         estimate D2E/DX2                !
 ! R46   R(23,24)                1.331          estimate D2E/DX2                !
 ! R47   R(24,25)                1.4609         estimate D2E/DX2                !
 ! R48   R(24,57)                1.3296         estimate D2E/DX2                !
 ! R49   R(25,26)                1.3938         estimate D2E/DX2                !
 ! R50   R(25,56)                1.3939         estimate D2E/DX2                !
 ! R51   R(26,27)                1.3784         estimate D2E/DX2                !
 ! R52   R(26,77)                1.0787         estimate D2E/DX2                !
 ! R53   R(27,28)                1.3948         estimate D2E/DX2                !
 ! R54   R(27,78)                1.0806         estimate D2E/DX2                !
 ! R55   R(28,29)                1.4713         estimate D2E/DX2                !
 ! R56   R(28,55)                1.3941         estimate D2E/DX2                !
 ! R57   R(29,30)                1.389          estimate D2E/DX2                !
 ! R58   R(29,34)                1.4043         estimate D2E/DX2                !
 ! R59   R(30,31)                1.383          estimate D2E/DX2                !
 ! R60   R(30,79)                1.0797         estimate D2E/DX2                !
 ! R61   R(31,32)                1.3812         estimate D2E/DX2                !
 ! R62   R(31,80)                1.0792         estimate D2E/DX2                !
 ! R63   R(32,33)                1.3887         estimate D2E/DX2                !
 ! R64   R(32,81)                1.08           estimate D2E/DX2                !
 ! R65   R(33,34)                1.3907         estimate D2E/DX2                !
 ! R66   R(33,42)                1.511          estimate D2E/DX2                !
 ! R67   R(34,35)                1.3642         estimate D2E/DX2                !
 ! R68   R(35,36)                1.3631         estimate D2E/DX2                !
 ! R69   R(36,37)                1.3928         estimate D2E/DX2                !
 ! R70   R(36,41)                1.39           estimate D2E/DX2                !
 ! R71   R(37,38)                1.3795         estimate D2E/DX2                !
 ! R72   R(37,82)                1.0788         estimate D2E/DX2                !
 ! R73   R(38,39)                1.3864         estimate D2E/DX2                !
 ! R74   R(38,83)                1.0794         estimate D2E/DX2                !
 ! R75   R(39,40)                1.3815         estimate D2E/DX2                !
 ! R76   R(39,84)                1.0792         estimate D2E/DX2                !
 ! R77   R(40,41)                1.3887         estimate D2E/DX2                !
 ! R78   R(40,85)                1.0803         estimate D2E/DX2                !
 ! R79   R(41,42)                1.5094         estimate D2E/DX2                !
 ! R80   R(42,43)                1.5163         estimate D2E/DX2                !
 ! R81   R(42,54)                1.516          estimate D2E/DX2                !
 ! R82   R(43,44)                1.377          estimate D2E/DX2                !
 ! R83   R(43,48)                1.4018         estimate D2E/DX2                !
 ! R84   R(44,45)                1.3886         estimate D2E/DX2                !
 ! R85   R(44,86)                1.0805         estimate D2E/DX2                !
 ! R86   R(45,46)                1.3864         estimate D2E/DX2                !
 ! R87   R(45,87)                1.08           estimate D2E/DX2                !
 ! R88   R(46,47)                1.3859         estimate D2E/DX2                !
 ! R89   R(46,88)                1.0803         estimate D2E/DX2                !
 ! R90   R(47,48)                1.3849         estimate D2E/DX2                !
 ! R91   R(47,89)                1.0799         estimate D2E/DX2                !
 ! R92   R(48,49)                1.4553         estimate D2E/DX2                !
 ! R93   R(49,50)                1.3849         estimate D2E/DX2                !
 ! R94   R(49,54)                1.4018         estimate D2E/DX2                !
 ! R95   R(50,51)                1.3859         estimate D2E/DX2                !
 ! R96   R(50,90)                1.0799         estimate D2E/DX2                !
 ! R97   R(51,52)                1.3865         estimate D2E/DX2                !
 ! R98   R(51,91)                1.0803         estimate D2E/DX2                !
 ! R99   R(52,53)                1.3886         estimate D2E/DX2                !
 ! R100  R(52,92)                1.08           estimate D2E/DX2                !
 ! R101  R(53,54)                1.377          estimate D2E/DX2                !
 ! R102  R(53,93)                1.0805         estimate D2E/DX2                !
 ! R103  R(55,56)                1.3784         estimate D2E/DX2                !
 ! R104  R(55,94)                1.0792         estimate D2E/DX2                !
 ! R105  R(56,95)                1.0787         estimate D2E/DX2                !
 ! R106  R(58,59)                1.3736         estimate D2E/DX2                !
 ! R107  R(58,96)                1.0786         estimate D2E/DX2                !
 ! A1    A(2,1,60)             110.2233         estimate D2E/DX2                !
 ! A2    A(2,1,61)             110.251          estimate D2E/DX2                !
 ! A3    A(2,1,62)             110.3494         estimate D2E/DX2                !
 ! A4    A(60,1,61)            108.6067         estimate D2E/DX2                !
 ! A5    A(60,1,62)            108.624          estimate D2E/DX2                !
 ! A6    A(61,1,62)            108.7374         estimate D2E/DX2                !
 ! A7    A(1,2,3)              110.4689         estimate D2E/DX2                !
 ! A8    A(1,2,4)              111.2153         estimate D2E/DX2                !
 ! A9    A(1,2,59)             111.0538         estimate D2E/DX2                !
 ! A10   A(3,2,4)              111.2277         estimate D2E/DX2                !
 ! A11   A(3,2,59)             111.0672         estimate D2E/DX2                !
 ! A12   A(4,2,59)             101.5299         estimate D2E/DX2                !
 ! A13   A(2,3,63)             110.2225         estimate D2E/DX2                !
 ! A14   A(2,3,64)             110.3507         estimate D2E/DX2                !
 ! A15   A(2,3,65)             110.2471         estimate D2E/DX2                !
 ! A16   A(63,3,64)            108.6265         estimate D2E/DX2                !
 ! A17   A(63,3,65)            108.6092         estimate D2E/DX2                !
 ! A18   A(64,3,65)            108.7359         estimate D2E/DX2                !
 ! A19   A(2,4,5)              128.8819         estimate D2E/DX2                !
 ! A20   A(2,4,9)              110.783          estimate D2E/DX2                !
 ! A21   A(5,4,9)              120.3351         estimate D2E/DX2                !
 ! A22   A(4,5,6)              118.8404         estimate D2E/DX2                !
 ! A23   A(4,5,66)             121.0162         estimate D2E/DX2                !
 ! A24   A(6,5,66)             120.1434         estimate D2E/DX2                !
 ! A25   A(5,6,7)              120.8361         estimate D2E/DX2                !
 ! A26   A(5,6,67)             119.5942         estimate D2E/DX2                !
 ! A27   A(7,6,67)             119.5697         estimate D2E/DX2                !
 ! A28   A(6,7,8)              120.7296         estimate D2E/DX2                !
 ! A29   A(6,7,68)             119.5447         estimate D2E/DX2                !
 ! A30   A(8,7,68)             119.7257         estimate D2E/DX2                !
 ! A31   A(7,8,9)              118.5866         estimate D2E/DX2                !
 ! A32   A(7,8,69)             120.6444         estimate D2E/DX2                !
 ! A33   A(9,8,69)             120.7691         estimate D2E/DX2                !
 ! A34   A(4,9,8)              120.6722         estimate D2E/DX2                !
 ! A35   A(4,9,10)             108.5011         estimate D2E/DX2                !
 ! A36   A(8,9,10)             130.8267         estimate D2E/DX2                !
 ! A37   A(9,10,11)            130.918          estimate D2E/DX2                !
 ! A38   A(9,10,59)            108.4597         estimate D2E/DX2                !
 ! A39   A(11,10,59)           120.6223         estimate D2E/DX2                !
 ! A40   A(10,11,12)           118.7367         estimate D2E/DX2                !
 ! A41   A(10,11,70)           120.6876         estimate D2E/DX2                !
 ! A42   A(12,11,70)           120.5758         estimate D2E/DX2                !
 ! A43   A(11,12,13)           120.8441         estimate D2E/DX2                !
 ! A44   A(11,12,71)           120.8575         estimate D2E/DX2                !
 ! A45   A(13,12,71)           118.2983         estimate D2E/DX2                !
 ! A46   A(12,13,14)           119.9582         estimate D2E/DX2                !
 ! A47   A(12,13,58)           120.3169         estimate D2E/DX2                !
 ! A48   A(14,13,58)           119.7249         estimate D2E/DX2                !
 ! A49   A(13,14,15)           117.9734         estimate D2E/DX2                !
 ! A50   A(13,14,57)           118.1387         estimate D2E/DX2                !
 ! A51   A(15,14,57)           123.8879         estimate D2E/DX2                !
 ! A52   A(14,15,16)           115.9958         estimate D2E/DX2                !
 ! A53   A(15,16,17)           117.9555         estimate D2E/DX2                !
 ! A54   A(15,16,23)           124.1079         estimate D2E/DX2                !
 ! A55   A(17,16,23)           117.9366         estimate D2E/DX2                !
 ! A56   A(16,17,18)           120.1927         estimate D2E/DX2                !
 ! A57   A(16,17,22)           120.2138         estimate D2E/DX2                !
 ! A58   A(18,17,22)           119.5935         estimate D2E/DX2                !
 ! A59   A(17,18,19)           120.0607         estimate D2E/DX2                !
 ! A60   A(17,18,72)           118.7645         estimate D2E/DX2                !
 ! A61   A(19,18,72)           121.1748         estimate D2E/DX2                !
 ! A62   A(18,19,20)           120.1133         estimate D2E/DX2                !
 ! A63   A(18,19,73)           119.9619         estimate D2E/DX2                !
 ! A64   A(20,19,73)           119.9248         estimate D2E/DX2                !
 ! A65   A(19,20,21)           120.0553         estimate D2E/DX2                !
 ! A66   A(19,20,74)           119.978          estimate D2E/DX2                !
 ! A67   A(21,20,74)           119.9668         estimate D2E/DX2                !
 ! A68   A(20,21,22)           120.0955         estimate D2E/DX2                !
 ! A69   A(20,21,75)           119.9198         estimate D2E/DX2                !
 ! A70   A(22,21,75)           119.9848         estimate D2E/DX2                !
 ! A71   A(17,22,21)           120.0818         estimate D2E/DX2                !
 ! A72   A(17,22,76)           118.7568         estimate D2E/DX2                !
 ! A73   A(21,22,76)           121.1614         estimate D2E/DX2                !
 ! A74   A(16,23,24)           115.9406         estimate D2E/DX2                !
 ! A75   A(23,24,25)           118.0157         estimate D2E/DX2                !
 ! A76   A(23,24,57)           123.9862         estimate D2E/DX2                !
 ! A77   A(25,24,57)           117.9981         estimate D2E/DX2                !
 ! A78   A(24,25,26)           120.3756         estimate D2E/DX2                !
 ! A79   A(24,25,56)           120.3495         estimate D2E/DX2                !
 ! A80   A(26,25,56)           119.2748         estimate D2E/DX2                !
 ! A81   A(25,26,27)           120.2064         estimate D2E/DX2                !
 ! A82   A(25,26,77)           118.8042         estimate D2E/DX2                !
 ! A83   A(27,26,77)           120.9891         estimate D2E/DX2                !
 ! A84   A(26,27,28)           120.7132         estimate D2E/DX2                !
 ! A85   A(26,27,78)           119.9654         estimate D2E/DX2                !
 ! A86   A(28,27,78)           119.3116         estimate D2E/DX2                !
 ! A87   A(27,28,29)           119.842          estimate D2E/DX2                !
 ! A88   A(27,28,55)           118.8692         estimate D2E/DX2                !
 ! A89   A(29,28,55)           121.28           estimate D2E/DX2                !
 ! A90   A(28,29,30)           120.2221         estimate D2E/DX2                !
 ! A91   A(28,29,34)           121.0172         estimate D2E/DX2                !
 ! A92   A(30,29,34)           118.7596         estimate D2E/DX2                !
 ! A93   A(29,30,31)           120.9397         estimate D2E/DX2                !
 ! A94   A(29,30,79)           118.8607         estimate D2E/DX2                !
 ! A95   A(31,30,79)           120.1864         estimate D2E/DX2                !
 ! A96   A(30,31,32)           119.7675         estimate D2E/DX2                !
 ! A97   A(30,31,80)           120.1543         estimate D2E/DX2                !
 ! A98   A(32,31,80)           120.0781         estimate D2E/DX2                !
 ! A99   A(31,32,33)           120.735          estimate D2E/DX2                !
 ! A100  A(31,32,81)           120.3683         estimate D2E/DX2                !
 ! A101  A(33,32,81)           118.8965         estimate D2E/DX2                !
 ! A102  A(32,33,34)           119.337          estimate D2E/DX2                !
 ! A103  A(32,33,42)           119.2681         estimate D2E/DX2                !
 ! A104  A(34,33,42)           121.3948         estimate D2E/DX2                !
 ! A105  A(29,34,33)           120.4569         estimate D2E/DX2                !
 ! A106  A(29,34,35)           116.4975         estimate D2E/DX2                !
 ! A107  A(33,34,35)           123.0285         estimate D2E/DX2                !
 ! A108  A(34,35,36)           119.3821         estimate D2E/DX2                !
 ! A109  A(35,36,37)           116.1143         estimate D2E/DX2                !
 ! A110  A(35,36,41)           123.5168         estimate D2E/DX2                !
 ! A111  A(37,36,41)           120.3681         estimate D2E/DX2                !
 ! A112  A(36,37,38)           120.0096         estimate D2E/DX2                !
 ! A113  A(36,37,82)           118.3212         estimate D2E/DX2                !
 ! A114  A(38,37,82)           121.6692         estimate D2E/DX2                !
 ! A115  A(37,38,39)           120.0153         estimate D2E/DX2                !
 ! A116  A(37,38,83)           119.7376         estimate D2E/DX2                !
 ! A117  A(39,38,83)           120.2471         estimate D2E/DX2                !
 ! A118  A(38,39,40)           119.8302         estimate D2E/DX2                !
 ! A119  A(38,39,84)           120.2311         estimate D2E/DX2                !
 ! A120  A(40,39,84)           119.9387         estimate D2E/DX2                !
 ! A121  A(39,40,41)           120.9581         estimate D2E/DX2                !
 ! A122  A(39,40,85)           120.2245         estimate D2E/DX2                !
 ! A123  A(41,40,85)           118.8175         estimate D2E/DX2                !
 ! A124  A(36,41,40)           118.8187         estimate D2E/DX2                !
 ! A125  A(36,41,42)           121.038          estimate D2E/DX2                !
 ! A126  A(40,41,42)           120.1433         estimate D2E/DX2                !
 ! A127  A(33,42,41)           111.6222         estimate D2E/DX2                !
 ! A128  A(33,42,43)           110.8242         estimate D2E/DX2                !
 ! A129  A(33,42,54)           110.9493         estimate D2E/DX2                !
 ! A130  A(41,42,43)           110.8348         estimate D2E/DX2                !
 ! A131  A(41,42,54)           110.7984         estimate D2E/DX2                !
 ! A132  A(43,42,54)           101.3899         estimate D2E/DX2                !
 ! A133  A(42,43,44)           128.2137         estimate D2E/DX2                !
 ! A134  A(42,43,48)           110.7701         estimate D2E/DX2                !
 ! A135  A(44,43,48)           121.0162         estimate D2E/DX2                !
 ! A136  A(43,44,45)           118.4521         estimate D2E/DX2                !
 ! A137  A(43,44,86)           120.8208         estimate D2E/DX2                !
 ! A138  A(45,44,86)           120.7271         estimate D2E/DX2                !
 ! A139  A(44,45,46)           120.7747         estimate D2E/DX2                !
 ! A140  A(44,45,87)           119.6026         estimate D2E/DX2                !
 ! A141  A(46,45,87)           119.6227         estimate D2E/DX2                !
 ! A142  A(45,46,47)           120.9262         estimate D2E/DX2                !
 ! A143  A(45,46,88)           119.4846         estimate D2E/DX2                !
 ! A144  A(47,46,88)           119.5893         estimate D2E/DX2                !
 ! A145  A(46,47,48)           118.5748         estimate D2E/DX2                !
 ! A146  A(46,47,89)           120.6401         estimate D2E/DX2                !
 ! A147  A(48,47,89)           120.7851         estimate D2E/DX2                !
 ! A148  A(43,48,47)           120.2561         estimate D2E/DX2                !
 ! A149  A(43,48,49)           108.5308         estimate D2E/DX2                !
 ! A150  A(47,48,49)           131.2131         estimate D2E/DX2                !
 ! A151  A(48,49,50)           131.2133         estimate D2E/DX2                !
 ! A152  A(48,49,54)           108.5301         estimate D2E/DX2                !
 ! A153  A(50,49,54)           120.2565         estimate D2E/DX2                !
 ! A154  A(49,50,51)           118.5672         estimate D2E/DX2                !
 ! A155  A(49,50,90)           120.7888         estimate D2E/DX2                !
 ! A156  A(51,50,90)           120.644          estimate D2E/DX2                !
 ! A157  A(50,51,52)           120.9287         estimate D2E/DX2                !
 ! A158  A(50,51,91)           119.5859         estimate D2E/DX2                !
 ! A159  A(52,51,91)           119.4854         estimate D2E/DX2                !
 ! A160  A(51,52,53)           120.785          estimate D2E/DX2                !
 ! A161  A(51,52,92)           119.6205         estimate D2E/DX2                !
 ! A162  A(53,52,92)           119.5945         estimate D2E/DX2                !
 ! A163  A(52,53,54)           118.4335         estimate D2E/DX2                !
 ! A164  A(52,53,93)           120.7614         estimate D2E/DX2                !
 ! A165  A(54,53,93)           120.8051         estimate D2E/DX2                !
 ! A166  A(42,54,49)           110.7785         estimate D2E/DX2                !
 ! A167  A(42,54,53)           128.1923         estimate D2E/DX2                !
 ! A168  A(49,54,53)           121.0291         estimate D2E/DX2                !
 ! A169  A(28,55,56)           120.5819         estimate D2E/DX2                !
 ! A170  A(28,55,94)           119.5717         estimate D2E/DX2                !
 ! A171  A(56,55,94)           119.8413         estimate D2E/DX2                !
 ! A172  A(25,56,55)           120.3533         estimate D2E/DX2                !
 ! A173  A(25,56,95)           118.7223         estimate D2E/DX2                !
 ! A174  A(55,56,95)           120.924          estimate D2E/DX2                !
 ! A175  A(14,57,24)           116.0815         estimate D2E/DX2                !
 ! A176  A(13,58,59)           118.9159         estimate D2E/DX2                !
 ! A177  A(13,58,96)           118.8766         estimate D2E/DX2                !
 ! A178  A(59,58,96)           122.2074         estimate D2E/DX2                !
 ! A179  A(2,59,10)            110.7262         estimate D2E/DX2                !
 ! A180  A(2,59,58)            128.7097         estimate D2E/DX2                !
 ! A181  A(10,59,58)           120.564          estimate D2E/DX2                !
 ! D1    D(60,1,2,3)          -179.7718         estimate D2E/DX2                !
 ! D2    D(60,1,2,4)           -55.7527         estimate D2E/DX2                !
 ! D3    D(60,1,2,59)           56.5299         estimate D2E/DX2                !
 ! D4    D(61,1,2,3)            60.3374         estimate D2E/DX2                !
 ! D5    D(61,1,2,4)          -175.6435         estimate D2E/DX2                !
 ! D6    D(61,1,2,59)          -63.3609         estimate D2E/DX2                !
 ! D7    D(62,1,2,3)           -59.7966         estimate D2E/DX2                !
 ! D8    D(62,1,2,4)            64.2224         estimate D2E/DX2                !
 ! D9    D(62,1,2,59)          176.505          estimate D2E/DX2                !
 ! D10   D(1,2,3,63)           179.7945         estimate D2E/DX2                !
 ! D11   D(1,2,3,64)            59.8158         estimate D2E/DX2                !
 ! D12   D(1,2,3,65)           -60.3146         estimate D2E/DX2                !
 ! D13   D(4,2,3,63)            55.7826         estimate D2E/DX2                !
 ! D14   D(4,2,3,64)           -64.1961         estimate D2E/DX2                !
 ! D15   D(4,2,3,65)           175.6735         estimate D2E/DX2                !
 ! D16   D(59,2,3,63)          -56.515          estimate D2E/DX2                !
 ! D17   D(59,2,3,64)         -176.4936         estimate D2E/DX2                !
 ! D18   D(59,2,3,65)           63.376          estimate D2E/DX2                !
 ! D19   D(1,2,4,5)            -61.8192         estimate D2E/DX2                !
 ! D20   D(1,2,4,9)            118.1773         estimate D2E/DX2                !
 ! D21   D(3,2,4,5)             61.7683         estimate D2E/DX2                !
 ! D22   D(3,2,4,9)           -118.2353         estimate D2E/DX2                !
 ! D23   D(59,2,4,5)           179.9851         estimate D2E/DX2                !
 ! D24   D(59,2,4,9)            -0.0185         estimate D2E/DX2                !
 ! D25   D(1,2,59,10)         -118.2895         estimate D2E/DX2                !
 ! D26   D(1,2,59,58)           61.7078         estimate D2E/DX2                !
 ! D27   D(3,2,59,10)          118.3546         estimate D2E/DX2                !
 ! D28   D(3,2,59,58)          -61.648          estimate D2E/DX2                !
 ! D29   D(4,2,59,10)            0.0224         estimate D2E/DX2                !
 ! D30   D(4,2,59,58)         -179.9803         estimate D2E/DX2                !
 ! D31   D(2,4,5,6)            179.9935         estimate D2E/DX2                !
 ! D32   D(2,4,5,66)            -0.0026         estimate D2E/DX2                !
 ! D33   D(9,4,5,6)             -0.0026         estimate D2E/DX2                !
 ! D34   D(9,4,5,66)          -179.9987         estimate D2E/DX2                !
 ! D35   D(2,4,9,8)           -179.9947         estimate D2E/DX2                !
 ! D36   D(2,4,9,10)             0.0086         estimate D2E/DX2                !
 ! D37   D(5,4,9,8)              0.0021         estimate D2E/DX2                !
 ! D38   D(5,4,9,10)          -179.9946         estimate D2E/DX2                !
 ! D39   D(4,5,6,7)              0.0014         estimate D2E/DX2                !
 ! D40   D(4,5,6,67)          -179.9973         estimate D2E/DX2                !
 ! D41   D(66,5,6,7)           179.9975         estimate D2E/DX2                !
 ! D42   D(66,5,6,67)           -0.0012         estimate D2E/DX2                !
 ! D43   D(5,6,7,8)              0.0004         estimate D2E/DX2                !
 ! D44   D(5,6,7,68)          -179.9999         estimate D2E/DX2                !
 ! D45   D(67,6,7,8)           179.9992         estimate D2E/DX2                !
 ! D46   D(67,6,7,68)           -0.0012         estimate D2E/DX2                !
 ! D47   D(6,7,8,9)             -0.0011         estimate D2E/DX2                !
 ! D48   D(6,7,8,69)           179.9994         estimate D2E/DX2                !
 ! D49   D(68,7,8,9)           179.9993         estimate D2E/DX2                !
 ! D50   D(68,7,8,69)           -0.0003         estimate D2E/DX2                !
 ! D51   D(7,8,9,4)             -0.0002         estimate D2E/DX2                !
 ! D52   D(7,8,9,10)           179.9957         estimate D2E/DX2                !
 ! D53   D(69,8,9,4)           179.9994         estimate D2E/DX2                !
 ! D54   D(69,8,9,10)           -0.0047         estimate D2E/DX2                !
 ! D55   D(4,9,10,11)         -179.9984         estimate D2E/DX2                !
 ! D56   D(4,9,10,59)            0.0062         estimate D2E/DX2                !
 ! D57   D(8,9,10,11)            0.0053         estimate D2E/DX2                !
 ! D58   D(8,9,10,59)         -179.99           estimate D2E/DX2                !
 ! D59   D(9,10,11,12)         179.9845         estimate D2E/DX2                !
 ! D60   D(9,10,11,70)          -0.0212         estimate D2E/DX2                !
 ! D61   D(59,10,11,12)         -0.0207         estimate D2E/DX2                !
 ! D62   D(59,10,11,70)        179.9736         estimate D2E/DX2                !
 ! D63   D(9,10,59,2)           -0.0187         estimate D2E/DX2                !
 ! D64   D(9,10,59,58)         179.9838         estimate D2E/DX2                !
 ! D65   D(11,10,59,2)         179.9854         estimate D2E/DX2                !
 ! D66   D(11,10,59,58)         -0.0121         estimate D2E/DX2                !
 ! D67   D(10,11,12,13)          0.0312         estimate D2E/DX2                !
 ! D68   D(10,11,12,71)        179.9427         estimate D2E/DX2                !
 ! D69   D(70,11,12,13)       -179.9631         estimate D2E/DX2                !
 ! D70   D(70,11,12,71)         -0.0516         estimate D2E/DX2                !
 ! D71   D(11,12,13,14)        179.9655         estimate D2E/DX2                !
 ! D72   D(11,12,13,58)         -0.0095         estimate D2E/DX2                !
 ! D73   D(71,12,13,14)          0.0517         estimate D2E/DX2                !
 ! D74   D(71,12,13,58)       -179.9232         estimate D2E/DX2                !
 ! D75   D(12,13,14,15)       -178.103          estimate D2E/DX2                !
 ! D76   D(12,13,14,57)          1.9077         estimate D2E/DX2                !
 ! D77   D(58,13,14,15)          1.8721         estimate D2E/DX2                !
 ! D78   D(58,13,14,57)       -178.1172         estimate D2E/DX2                !
 ! D79   D(12,13,58,59)         -0.0234         estimate D2E/DX2                !
 ! D80   D(12,13,58,96)       -179.9522         estimate D2E/DX2                !
 ! D81   D(14,13,58,59)       -179.9984         estimate D2E/DX2                !
 ! D82   D(14,13,58,96)          0.0728         estimate D2E/DX2                !
 ! D83   D(13,14,15,16)        179.8874         estimate D2E/DX2                !
 ! D84   D(57,14,15,16)         -0.124          estimate D2E/DX2                !
 ! D85   D(13,14,57,24)       -179.9182         estimate D2E/DX2                !
 ! D86   D(15,14,57,24)          0.0932         estimate D2E/DX2                !
 ! D87   D(14,15,16,17)       -179.9752         estimate D2E/DX2                !
 ! D88   D(14,15,16,23)          0.0375         estimate D2E/DX2                !
 ! D89   D(15,16,17,18)       -178.3251         estimate D2E/DX2                !
 ! D90   D(15,16,17,22)          1.6693         estimate D2E/DX2                !
 ! D91   D(23,16,17,18)          1.6629         estimate D2E/DX2                !
 ! D92   D(23,16,17,22)       -178.3426         estimate D2E/DX2                !
 ! D93   D(15,16,23,24)          0.0699         estimate D2E/DX2                !
 ! D94   D(17,16,23,24)       -179.9174         estimate D2E/DX2                !
 ! D95   D(16,17,18,19)        179.9797         estimate D2E/DX2                !
 ! D96   D(16,17,18,72)          0.0385         estimate D2E/DX2                !
 ! D97   D(22,17,18,19)         -0.0148         estimate D2E/DX2                !
 ! D98   D(22,17,18,72)       -179.956          estimate D2E/DX2                !
 ! D99   D(16,17,22,21)       -179.9986         estimate D2E/DX2                !
 ! D100  D(16,17,22,76)          0.0703         estimate D2E/DX2                !
 ! D101  D(18,17,22,21)         -0.0041         estimate D2E/DX2                !
 ! D102  D(18,17,22,76)       -179.9352         estimate D2E/DX2                !
 ! D103  D(17,18,19,20)          0.0201         estimate D2E/DX2                !
 ! D104  D(17,18,19,73)       -179.9773         estimate D2E/DX2                !
 ! D105  D(72,18,19,20)        179.9598         estimate D2E/DX2                !
 ! D106  D(72,18,19,73)         -0.0376         estimate D2E/DX2                !
 ! D107  D(18,19,20,21)         -0.0065         estimate D2E/DX2                !
 ! D108  D(18,19,20,74)        179.9892         estimate D2E/DX2                !
 ! D109  D(73,19,20,21)        179.9909         estimate D2E/DX2                !
 ! D110  D(73,19,20,74)         -0.0134         estimate D2E/DX2                !
 ! D111  D(19,20,21,22)         -0.0124         estimate D2E/DX2                !
 ! D112  D(19,20,21,75)        179.9781         estimate D2E/DX2                !
 ! D113  D(74,20,21,22)        179.9919         estimate D2E/DX2                !
 ! D114  D(74,20,21,75)         -0.0176         estimate D2E/DX2                !
 ! D115  D(20,21,22,17)          0.0176         estimate D2E/DX2                !
 ! D116  D(20,21,22,76)        179.9471         estimate D2E/DX2                !
 ! D117  D(75,21,22,17)       -179.9729         estimate D2E/DX2                !
 ! D118  D(75,21,22,76)         -0.0434         estimate D2E/DX2                !
 ! D119  D(16,23,24,25)        179.8306         estimate D2E/DX2                !
 ! D120  D(16,23,24,57)         -0.1045         estimate D2E/DX2                !
 ! D121  D(23,24,25,26)          2.3093         estimate D2E/DX2                !
 ! D122  D(23,24,25,56)       -177.5681         estimate D2E/DX2                !
 ! D123  D(57,24,25,26)       -177.7516         estimate D2E/DX2                !
 ! D124  D(57,24,25,56)          2.371          estimate D2E/DX2                !
 ! D125  D(23,24,57,14)          0.0279         estimate D2E/DX2                !
 ! D126  D(25,24,57,14)       -179.9073         estimate D2E/DX2                !
 ! D127  D(24,25,26,27)       -179.9379         estimate D2E/DX2                !
 ! D128  D(24,25,26,77)          0.2744         estimate D2E/DX2                !
 ! D129  D(56,25,26,27)         -0.0591         estimate D2E/DX2                !
 ! D130  D(56,25,26,77)       -179.8468         estimate D2E/DX2                !
 ! D131  D(24,25,56,55)       -179.9071         estimate D2E/DX2                !
 ! D132  D(24,25,56,95)          0.3225         estimate D2E/DX2                !
 ! D133  D(26,25,56,55)          0.2141         estimate D2E/DX2                !
 ! D134  D(26,25,56,95)       -179.5563         estimate D2E/DX2                !
 ! D135  D(25,26,27,28)         -0.2601         estimate D2E/DX2                !
 ! D136  D(25,26,27,78)       -179.1108         estimate D2E/DX2                !
 ! D137  D(77,26,27,28)        179.5229         estimate D2E/DX2                !
 ! D138  D(77,26,27,78)          0.6722         estimate D2E/DX2                !
 ! D139  D(26,27,28,29)        179.3466         estimate D2E/DX2                !
 ! D140  D(26,27,28,55)          0.4195         estimate D2E/DX2                !
 ! D141  D(78,27,28,29)         -1.7953         estimate D2E/DX2                !
 ! D142  D(78,27,28,55)        179.2776         estimate D2E/DX2                !
 ! D143  D(27,28,29,30)        -46.6467         estimate D2E/DX2                !
 ! D144  D(27,28,29,34)        132.9835         estimate D2E/DX2                !
 ! D145  D(55,28,29,30)        132.254          estimate D2E/DX2                !
 ! D146  D(55,28,29,34)        -48.1159         estimate D2E/DX2                !
 ! D147  D(27,28,55,56)         -0.2634         estimate D2E/DX2                !
 ! D148  D(27,28,55,94)        178.9053         estimate D2E/DX2                !
 ! D149  D(29,28,55,56)       -179.1745         estimate D2E/DX2                !
 ! D150  D(29,28,55,94)         -0.0058         estimate D2E/DX2                !
 ! D151  D(28,29,30,31)       -179.6534         estimate D2E/DX2                !
 ! D152  D(28,29,30,79)         -0.9743         estimate D2E/DX2                !
 ! D153  D(34,29,30,31)          0.7081         estimate D2E/DX2                !
 ! D154  D(34,29,30,79)        179.3872         estimate D2E/DX2                !
 ! D155  D(28,29,34,33)       -179.9676         estimate D2E/DX2                !
 ! D156  D(28,29,34,35)         -1.4275         estimate D2E/DX2                !
 ! D157  D(30,29,34,33)         -0.3322         estimate D2E/DX2                !
 ! D158  D(30,29,34,35)        178.208          estimate D2E/DX2                !
 ! D159  D(29,30,31,32)         -0.4842         estimate D2E/DX2                !
 ! D160  D(29,30,31,80)        179.4173         estimate D2E/DX2                !
 ! D161  D(79,30,31,32)       -179.1459         estimate D2E/DX2                !
 ! D162  D(79,30,31,80)          0.7556         estimate D2E/DX2                !
 ! D163  D(30,31,32,33)         -0.1289         estimate D2E/DX2                !
 ! D164  D(30,31,32,81)       -179.9689         estimate D2E/DX2                !
 ! D165  D(80,31,32,33)        179.9696         estimate D2E/DX2                !
 ! D166  D(80,31,32,81)          0.1295         estimate D2E/DX2                !
 ! D167  D(31,32,33,34)          0.496          estimate D2E/DX2                !
 ! D168  D(31,32,33,42)       -179.6335         estimate D2E/DX2                !
 ! D169  D(81,32,33,34)       -179.6616         estimate D2E/DX2                !
 ! D170  D(81,32,33,42)          0.2089         estimate D2E/DX2                !
 ! D171  D(32,33,34,29)         -0.2607         estimate D2E/DX2                !
 ! D172  D(32,33,34,35)       -178.7023         estimate D2E/DX2                !
 ! D173  D(42,33,34,29)        179.8716         estimate D2E/DX2                !
 ! D174  D(42,33,34,35)          1.43           estimate D2E/DX2                !
 ! D175  D(32,33,42,41)        178.6721         estimate D2E/DX2                !
 ! D176  D(32,33,42,43)        -57.2654         estimate D2E/DX2                !
 ! D177  D(32,33,42,54)         54.5648         estimate D2E/DX2                !
 ! D178  D(34,33,42,41)         -1.4601         estimate D2E/DX2                !
 ! D179  D(34,33,42,43)        122.6024         estimate D2E/DX2                !
 ! D180  D(34,33,42,54)       -125.5674         estimate D2E/DX2                !
 ! D181  D(29,34,35,36)       -178.8674         estimate D2E/DX2                !
 ! D182  D(33,34,35,36)         -0.3684         estimate D2E/DX2                !
 ! D183  D(34,35,36,37)        179.7731         estimate D2E/DX2                !
 ! D184  D(34,35,36,41)         -0.5405         estimate D2E/DX2                !
 ! D185  D(35,36,37,38)        179.6902         estimate D2E/DX2                !
 ! D186  D(35,36,37,82)         -0.3751         estimate D2E/DX2                !
 ! D187  D(41,36,37,38)         -0.0068         estimate D2E/DX2                !
 ! D188  D(41,36,37,82)        179.928          estimate D2E/DX2                !
 ! D189  D(35,36,41,40)       -179.6535         estimate D2E/DX2                !
 ! D190  D(35,36,41,42)          0.3485         estimate D2E/DX2                !
 ! D191  D(37,36,41,40)          0.0201         estimate D2E/DX2                !
 ! D192  D(37,36,41,42)       -179.978          estimate D2E/DX2                !
 ! D193  D(36,37,38,39)         -0.0272         estimate D2E/DX2                !
 ! D194  D(36,37,38,83)        179.9882         estimate D2E/DX2                !
 ! D195  D(82,37,38,39)       -179.9598         estimate D2E/DX2                !
 ! D196  D(82,37,38,83)          0.0556         estimate D2E/DX2                !
 ! D197  D(37,38,39,40)          0.0475         estimate D2E/DX2                !
 ! D198  D(37,38,39,84)       -179.9634         estimate D2E/DX2                !
 ! D199  D(83,38,39,40)       -179.968          estimate D2E/DX2                !
 ! D200  D(83,38,39,84)          0.0211         estimate D2E/DX2                !
 ! D201  D(38,39,40,41)         -0.0341         estimate D2E/DX2                !
 ! D202  D(38,39,40,85)        179.9791         estimate D2E/DX2                !
 ! D203  D(84,39,40,41)        179.9768         estimate D2E/DX2                !
 ! D204  D(84,39,40,85)         -0.0101         estimate D2E/DX2                !
 ! D205  D(39,40,41,36)          0.0003         estimate D2E/DX2                !
 ! D206  D(39,40,41,42)        179.9984         estimate D2E/DX2                !
 ! D207  D(85,40,41,36)        179.9874         estimate D2E/DX2                !
 ! D208  D(85,40,41,42)         -0.0146         estimate D2E/DX2                !
 ! D209  D(36,41,42,33)          0.6187         estimate D2E/DX2                !
 ! D210  D(36,41,42,43)       -123.4378         estimate D2E/DX2                !
 ! D211  D(36,41,42,54)        124.8109         estimate D2E/DX2                !
 ! D212  D(40,41,42,33)       -179.3793         estimate D2E/DX2                !
 ! D213  D(40,41,42,43)         56.5642         estimate D2E/DX2                !
 ! D214  D(40,41,42,54)        -55.1872         estimate D2E/DX2                !
 ! D215  D(33,42,43,44)        -62.0198         estimate D2E/DX2                !
 ! D216  D(33,42,43,48)        118.0646         estimate D2E/DX2                !
 ! D217  D(41,42,43,44)         62.4913         estimate D2E/DX2                !
 ! D218  D(41,42,43,48)       -117.4244         estimate D2E/DX2                !
 ! D219  D(54,42,43,44)       -179.8489         estimate D2E/DX2                !
 ! D220  D(54,42,43,48)          0.2354         estimate D2E/DX2                !
 ! D221  D(33,42,54,49)       -117.9826         estimate D2E/DX2                !
 ! D222  D(33,42,54,53)         62.1356         estimate D2E/DX2                !
 ! D223  D(41,42,54,49)        117.4422         estimate D2E/DX2                !
 ! D224  D(41,42,54,53)        -62.4396         estimate D2E/DX2                !
 ! D225  D(43,42,54,49)         -0.244          estimate D2E/DX2                !
 ! D226  D(43,42,54,53)        179.8742         estimate D2E/DX2                !
 ! D227  D(42,43,44,45)       -179.8946         estimate D2E/DX2                !
 ! D228  D(42,43,44,86)          0.1039         estimate D2E/DX2                !
 ! D229  D(48,43,44,45)          0.0133         estimate D2E/DX2                !
 ! D230  D(48,43,44,86)       -179.9881         estimate D2E/DX2                !
 ! D231  D(42,43,48,47)        179.8926         estimate D2E/DX2                !
 ! D232  D(42,43,48,49)         -0.1491         estimate D2E/DX2                !
 ! D233  D(44,43,48,47)         -0.0301         estimate D2E/DX2                !
 ! D234  D(44,43,48,49)        179.9282         estimate D2E/DX2                !
 ! D235  D(43,44,45,46)          0.0142         estimate D2E/DX2                !
 ! D236  D(43,44,45,87)       -179.9924         estimate D2E/DX2                !
 ! D237  D(86,44,45,46)       -179.9844         estimate D2E/DX2                !
 ! D238  D(86,44,45,87)          0.009          estimate D2E/DX2                !
 ! D239  D(44,45,46,47)         -0.0255         estimate D2E/DX2                !
 ! D240  D(44,45,46,88)        179.9821         estimate D2E/DX2                !
 ! D241  D(87,45,46,47)        179.981          estimate D2E/DX2                !
 ! D242  D(87,45,46,88)         -0.0113         estimate D2E/DX2                !
 ! D243  D(45,46,47,48)          0.0087         estimate D2E/DX2                !
 ! D244  D(45,46,47,89)       -179.9926         estimate D2E/DX2                !
 ! D245  D(88,46,47,48)       -179.999          estimate D2E/DX2                !
 ! D246  D(88,46,47,89)         -0.0003         estimate D2E/DX2                !
 ! D247  D(46,47,48,43)          0.0186         estimate D2E/DX2                !
 ! D248  D(46,47,48,49)       -179.9288         estimate D2E/DX2                !
 ! D249  D(89,47,48,43)       -179.9801         estimate D2E/DX2                !
 ! D250  D(89,47,48,49)          0.0725         estimate D2E/DX2                !
 ! D251  D(43,48,49,50)       -179.9582         estimate D2E/DX2                !
 ! D252  D(43,48,49,54)         -0.0137         estimate D2E/DX2                !
 ! D253  D(47,48,49,50)         -0.006          estimate D2E/DX2                !
 ! D254  D(47,48,49,54)        179.9385         estimate D2E/DX2                !
 ! D255  D(48,49,50,51)        179.9246         estimate D2E/DX2                !
 ! D256  D(48,49,50,90)         -0.0778         estimate D2E/DX2                !
 ! D257  D(54,49,50,51)         -0.0145         estimate D2E/DX2                !
 ! D258  D(54,49,50,90)        179.9832         estimate D2E/DX2                !
 ! D259  D(48,49,54,42)          0.1712         estimate D2E/DX2                !
 ! D260  D(48,49,54,53)       -179.9372         estimate D2E/DX2                !
 ! D261  D(50,49,54,42)       -179.8771         estimate D2E/DX2                !
 ! D262  D(50,49,54,53)          0.0144         estimate D2E/DX2                !
 ! D263  D(49,50,51,52)         -0.0033         estimate D2E/DX2                !
 ! D264  D(49,50,51,91)        179.9973         estimate D2E/DX2                !
 ! D265  D(90,50,51,52)        179.9991         estimate D2E/DX2                !
 ! D266  D(90,50,51,91)         -0.0003         estimate D2E/DX2                !
 ! D267  D(50,51,52,53)          0.0217         estimate D2E/DX2                !
 ! D268  D(50,51,52,92)       -179.9923         estimate D2E/DX2                !
 ! D269  D(91,51,52,53)       -179.9789         estimate D2E/DX2                !
 ! D270  D(91,51,52,92)          0.0071         estimate D2E/DX2                !
 ! D271  D(51,52,53,54)         -0.0215         estimate D2E/DX2                !
 ! D272  D(51,52,53,93)        179.9732         estimate D2E/DX2                !
 ! D273  D(92,52,53,54)        179.9925         estimate D2E/DX2                !
 ! D274  D(92,52,53,93)         -0.0128         estimate D2E/DX2                !
 ! D275  D(52,53,54,42)        179.8747         estimate D2E/DX2                !
 ! D276  D(52,53,54,49)          0.0037         estimate D2E/DX2                !
 ! D277  D(93,53,54,42)         -0.12           estimate D2E/DX2                !
 ! D278  D(93,53,54,49)       -179.991          estimate D2E/DX2                !
 ! D279  D(28,55,56,25)         -0.051          estimate D2E/DX2                !
 ! D280  D(28,55,56,95)        179.7143         estimate D2E/DX2                !
 ! D281  D(94,55,56,25)       -179.2175         estimate D2E/DX2                !
 ! D282  D(94,55,56,95)          0.5478         estimate D2E/DX2                !
 ! D283  D(13,58,59,2)        -179.9632         estimate D2E/DX2                !
 ! D284  D(13,58,59,10)          0.0339         estimate D2E/DX2                !
 ! D285  D(96,58,59,2)          -0.0369         estimate D2E/DX2                !
 ! D286  D(96,58,59,10)        179.9603         estimate D2E/DX2                !
 --------------------------------------------------------------------------------
 Trust Radius=3.00D-01 FncErr=1.00D-07 GrdErr=1.00D-06 EigMax=2.50D+02 EigMin=1.00D-04
 Number of steps in this run=    576 maximum allowed number of steps=    576.
 GradGradGradGradGradGradGradGradGradGradGradGradGradGradGradGradGradGrad

 Leave Link  103 at Sat Nov  5 01:02:34 2022, MaxMem=   805306368 cpu:               0.3 elap:               0.1
 (Enter /home/wykgroup/appl/g16/l202.exe)
 Stoichiometry    C55H37N3O
 Framework group  C1[X(C55H37N3O)]
 Deg. of freedom   282
 Full point group                 C1      NOp   1
 Largest Abelian subgroup         C1      NOp   1
 Largest concise Abelian subgroup C1      NOp   1
                         Standard orientation:                         
 ---------------------------------------------------------------------
 Center     Atomic      Atomic             Coordinates (Angstroms)
 Number     Number       Type             X           Y           Z
 ---------------------------------------------------------------------
      1          6           0       -9.428575   -0.853620   -1.031009
      2          6           0       -8.703567   -1.557719    0.120072
      3          6           0       -9.189055   -1.017938    1.468847
      4          6           0       -8.873445   -3.057850    0.037564
      5          6           0      -10.031728   -3.802042    0.099972
      6          6           0       -9.945898   -5.184425    0.000480
      7          6           0       -8.719231   -5.810679   -0.158921
      8          6           0       -7.549934   -5.071018   -0.222649
      9          6           0       -7.631921   -3.691370   -0.123721
     10          6           0       -6.595987   -2.673773   -0.156190
     11          6           0       -5.219964   -2.782052   -0.295758
     12          6           0       -4.459479   -1.629114   -0.293111
     13          6           0       -5.059197   -0.376519   -0.152327
     14          6           0       -4.236534    0.829801   -0.151398
     15          7           0       -4.845462    2.000959    0.024062
     16          6           0       -4.059266    3.072682    0.020402
     17          6           0       -4.684211    4.383009    0.210391
     18          6           0       -3.908877    5.540083    0.179857
     19          6           0       -4.501367    6.774909    0.359001
     20          6           0       -5.868382    6.866351    0.569991
     21          6           0       -6.644353    5.718077    0.601555
     22          6           0       -6.057629    4.480541    0.422674
     23          7           0       -2.740842    3.029548   -0.145216
     24          6           0       -2.214807    1.818913   -0.316188
     25          6           0       -0.769719    1.719204   -0.506180
     26          6           0        0.027914    2.861228   -0.458254
     27          6           0        1.390852    2.763289   -0.639256
     28          6           0        1.992147    1.525479   -0.866826
     29          6           0        3.446878    1.444833   -1.071839
     30          6           0        4.080588    2.325424   -1.939163
     31          6           0        5.446013    2.258296   -2.148381
     32          6           0        6.196331    1.310419   -1.480356
     33          6           0        5.595523    0.423316   -0.596869
     34          6           0        4.221149    0.488745   -0.394817
     35          8           0        3.557587   -0.327581    0.473679
     36          6           0        4.255678   -1.261590    1.179631
     37          6           0        3.511608   -2.054726    2.049820
     38          6           0        4.136212   -3.030030    2.799295
     39          6           0        5.504643   -3.221478    2.686224
     40          6           0        6.239818   -2.432813    1.822498
     41          6           0        5.628253   -1.446043    1.060358
     42          6           0        6.449273   -0.594877    0.122496
     43          6           0        7.206368   -1.459100   -0.867008
     44          6           0        6.694322   -2.308586   -1.822159
     45          6           0        7.581593   -3.011021   -2.626813
     46          6           0        8.951143   -2.860807   -2.471956
     47          6           0        9.469915   -2.006575   -1.511856
     48          6           0        8.590139   -1.302909   -0.706417
     49          6           0        8.826446   -0.349232    0.367219
     50          6           0       10.002549    0.142861    0.908115
     51          6           0        9.922733    1.060999    1.943145
     52          6           0        8.694365    1.480979    2.430034
     53          6           0        7.511543    0.991110    1.892294
     54          6           0        7.587316    0.078687    0.863736
     55          6           0        1.189801    0.386544   -0.917308
     56          6           0       -0.173871    0.480957   -0.739937
     57          7           0       -2.924676    0.694672   -0.325834
     58          6           0       -6.446060   -0.269913   -0.011355
     59          6           0       -7.203965   -1.415468   -0.014454
     60          1           0       -9.083736   -1.242766   -1.986736
     61          1           0       -9.233176    0.215565   -1.000905
     62          1           0      -10.501567   -1.014887   -0.957105
     63          1           0       -8.674311   -1.523162    2.283426
     64          1           0      -10.258523   -1.181871    1.579023
     65          1           0       -8.989938    0.048530    1.541042
     66          1           0      -10.993494   -3.325692    0.223942
     67          1           0      -10.846186   -5.779645    0.047834
     68          1           0       -8.676662   -6.887562   -0.234089
     69          1           0       -6.595268   -5.560210   -0.346813
     70          1           0       -4.751407   -3.748923   -0.404370
     71          1           0       -3.386944   -1.673593   -0.398339
     72          1           0       -2.847022    5.449107    0.013848
     73          1           0       -3.898686    7.671130    0.334657
     74          1           0       -6.329497    7.833283    0.710025
     75          1           0       -7.709493    5.791859    0.766501
     76          1           0       -6.644821    3.576010    0.444802
     77          1           0       -0.440817    3.815236   -0.274387
     78          1           0        2.007282    3.649228   -0.587030
     79          1           0        3.485504    3.054673   -2.468168
     80          1           0        5.923945    2.942760   -2.832242
     81          1           0        7.263284    1.249689   -1.636055
     82          1           0        2.448763   -1.882444    2.117240
     83          1           0        3.555331   -3.642080    3.472463
     84          1           0        5.996751   -3.983842    3.270444
     85          1           0        7.306546   -2.576289    1.729631
     86          1           0        5.627099   -2.426433   -1.943345
     87          1           0        7.200196   -3.682291   -3.382031
     88          1           0        9.622555   -3.417776   -3.109178
     89          1           0       10.537512   -1.893006   -1.395309
     90          1           0       10.961804   -0.181076    0.532415
     91          1           0       10.829887    1.455545    2.377292
     92          1           0        8.656796    2.197469    3.237275
     93          1           0        6.554449    1.318350    2.272323
     94          1           0        1.640961   -0.574658   -1.110374
     95          1           0       -0.800454   -0.396080   -0.782440
     96          1           0       -6.885050    0.709547    0.095045
 ---------------------------------------------------------------------
 Rotational constants (GHZ):           0.0693055           0.0157780           0.0135999
 Leave Link  202 at Sat Nov  5 01:02:34 2022, MaxMem=   805306368 cpu:               0.4 elap:               0.1
 (Enter /home/wykgroup/appl/g16/l301.exe)
 Standard basis: 6-31G(d) (6D, 7F)
 Ernie: Thresh=  0.10000D-02 Tol=  0.10000D-05 Strict=F.
 There are   959 symmetry adapted cartesian basis functions of A   symmetry.
 There are   959 symmetry adapted basis functions of A   symmetry.
   959 basis functions,  1800 primitive gaussians,   959 cartesian basis functions
   198 alpha electrons      198 beta electrons
       nuclear repulsion energy      7001.5146467451 Hartrees.
 IExCor=  402 DFT=T Ex+Corr=B3LYP ExCW=0 ScaHFX=  0.200000
 ScaDFX=  0.800000  0.720000  1.000000  0.810000 ScalE2=  1.000000  1.000000
 IRadAn=      5 IRanWt=     -1 IRanGd=            0 ICorTp=0 IEmpDi=  4
 NAtoms=   96 NActive=   96 NUniq=   96 SFac= 1.00D+00 NAtFMM=   60 NAOKFM=T Big=T
 Integral buffers will be    131072 words long.
 Raffenetti 2 integral format.
 Two-electron integral symmetry is turned on.
 Leave Link  301 at Sat Nov  5 01:02:34 2022, MaxMem=   805306368 cpu:               0.5 elap:               0.1
 (Enter /home/wykgroup/appl/g16/l302.exe)
 NPDir=0 NMtPBC=     1 NCelOv=     1 NCel=       1 NClECP=     1 NCelD=      1
         NCelK=      1 NCelE2=     1 NClLst=     1 CellRange=     0.0.
 One-electron integrals computed using PRISM.
 One-electron integral symmetry used in STVInt
 NBasis=   959 RedAO= T EigKep=  2.72D-04  NBF=   959
 NBsUse=   959 1.00D-06 EigRej= -1.00D+00 NBFU=   959
 Precomputing XC quadrature grid using
 IXCGrd= 4 IRadAn=           5 IRanWt=          -1 IRanGd=           0 AccXCQ= 0.00D+00.
 Generated NRdTot=       0 NPtTot=           0 NUsed=           0 NTot=          32
 NSgBfM=   879   879   879   879   879 MxSgAt=    96 MxSgA2=    96.
 Leave Link  302 at Sat Nov  5 01:02:36 2022, MaxMem=   805306368 cpu:              16.4 elap:               2.4
 (Enter /home/wykgroup/appl/g16/l303.exe)
 DipDrv:  MaxL=1.
 Leave Link  303 at Sat Nov  5 01:02:37 2022, MaxMem=   805306368 cpu:               1.4 elap:               0.3
 (Enter /home/wykgroup/appl/g16/l401.exe)
 ExpMin= 1.61D-01 ExpMax= 5.48D+03 ExpMxC= 8.25D+02 IAcc=3 IRadAn=         5 AccDes= 0.00D+00
 Harris functional with IExCor=  402 and IRadAn=       5 diagonalized for initial guess.
 HarFok:  IExCor=  402 AccDes= 0.00D+00 IRadAn=         5 IDoV= 1 UseB2=F ITyADJ=14
 ICtDFT=  3500011 ScaDFX=  1.000000  1.000000  1.000000  1.000000
 FoFCou: FMM=F IPFlag=           0 FMFlag=      100000 FMFlg1=        2001
         NFxFlg=           0 DoJE=T BraDBF=F KetDBF=T FulRan=T
         wScrn=  0.000000 ICntrl=       500 IOpCl=  0 I1Cent=   200000004 NGrid=           0
         NMat0=    1 NMatS0=      1 NMatT0=    0 NMatD0=    1 NMtDS0=    0 NMtDT0=    0
 Petite list used in FoFCou.
 Harris En= -2357.70657618548    
 JPrj=0 DoOrth=F DoCkMO=F.
 Leave Link  401 at Sat Nov  5 01:02:45 2022, MaxMem=   805306368 cpu:              58.9 elap:               8.4
 (Enter /home/wykgroup/appl/g16/l502.exe)
 Integral symmetry usage will be decided dynamically.
 Closed shell SCF:
 Using DIIS extrapolation, IDIIS=  1040.
 NGot=   805306368 LenX=   803450128 LenY=   802529488
 Requested convergence on RMS density matrix=1.00D-08 within  32 cycles.
 Requested convergence on MAX density matrix=1.00D-06.
 Requested convergence on             energy=1.00D-06.
[...]
 Alpha virt. eigenvalues --    0.56262   0.56363   0.56397   0.56542   0.56710
 Alpha virt. eigenvalues --    0.57122   0.57351   0.57442   0.57576   0.57653
 Alpha virt. eigenvalues --    0.57884   0.57994   0.58101   0.58460   0.58518
 Alpha virt. eigenvalues --    0.58841   0.59055   0.59305   0.59377   0.59444
 Alpha virt. eigenvalues --    0.59528   0.59669   0.59726   0.60078   0.60151
 Alpha virt. eigenvalues --    0.60336   0.60420   0.60456   0.60501   0.60728
 Alpha virt. eigenvalues --    0.60852   0.60938   0.61074   0.61177   0.61248
 Alpha virt. eigenvalues --    0.61341   0.61477   0.61619   0.61858   0.62250
 Alpha virt. eigenvalues --    0.62458   0.62572   0.62611   0.62794   0.62886
 Alpha virt. eigenvalues --    0.63041   0.63313   0.63725   0.64131   0.64149
 Alpha virt. eigenvalues --    0.64923   0.65197   0.65220   0.65473   0.65508
 Alpha virt. eigenvalues --    0.65849   0.65964   0.66281   0.66503   0.66895
 Alpha virt. eigenvalues --    0.67226   0.67384   0.67590   0.68067   0.68280
 Alpha virt. eigenvalues --    0.68872   0.69322   0.69382   0.69524   0.70536
 Alpha virt. eigenvalues --    0.71396   0.72164   0.72936   0.73962   0.74565
 Alpha virt. eigenvalues --    0.75225   0.76143   0.76838   0.76899   0.77165
 Alpha virt. eigenvalues --    0.77621   0.78355   0.78533   0.79170   0.79212
 Alpha virt. eigenvalues --    0.79498   0.79703   0.79846   0.80484   0.80565
 Alpha virt. eigenvalues --    0.80679   0.80920   0.81380   0.81597   0.81909
 Alpha virt. eigenvalues --    0.82377   0.82498   0.82859   0.83119   0.83446
 Alpha virt. eigenvalues --    0.83626   0.83741   0.83953   0.84229   0.84310
 Alpha virt. eigenvalues --    0.84452   0.84638   0.84743   0.85002   0.85269
 Alpha virt. eigenvalues --    0.85904   0.86236   0.86810   0.87235   0.87503
 Alpha virt. eigenvalues --    0.87804   0.88099   0.88289   0.88581   0.89095
 Alpha virt. eigenvalues --    0.89203   0.89669   0.89953   0.90165   0.90409
 Alpha virt. eigenvalues --    0.90474   0.90682   0.90958   0.91245   0.91476
 Alpha virt. eigenvalues --    0.91559   0.91726   0.92094   0.92448   0.92571
 Alpha virt. eigenvalues --    0.92869   0.93344   0.93987   0.94556   0.95215
 Alpha virt. eigenvalues --    0.95390   0.95814   0.96247   0.96509   0.96807
 Alpha virt. eigenvalues --    0.96895   0.97154   0.97317   0.97531   0.97630
 Alpha virt. eigenvalues --    0.97978   0.99004   0.99024   0.99375   0.99464
 Alpha virt. eigenvalues --    0.99958   1.00444   1.00769   1.01391   1.01740
 Alpha virt. eigenvalues --    1.02221   1.02525   1.03749   1.04484   1.05098
 Alpha virt. eigenvalues --    1.05631   1.05753   1.06399   1.06790   1.06853
 Alpha virt. eigenvalues --    1.06962   1.07197   1.08784   1.09260   1.09881
 Alpha virt. eigenvalues --    1.10342   1.10524   1.10994   1.11577   1.11953
 Alpha virt. eigenvalues --    1.12886   1.13302   1.14001   1.14430   1.15105
 Alpha virt. eigenvalues --    1.15243   1.15326   1.15605   1.16266   1.16575
 Alpha virt. eigenvalues --    1.16639   1.17680   1.17999   1.18684   1.18799
 Alpha virt. eigenvalues --    1.19232   1.19667   1.20597   1.21167   1.21617
 Alpha virt. eigenvalues --    1.21910   1.22772   1.23451   1.23832   1.24065
 Alpha virt. eigenvalues --    1.24254   1.24771   1.24924   1.25419   1.26292
 Alpha virt. eigenvalues --    1.26664   1.26786   1.27489   1.27715   1.27914
 Alpha virt. eigenvalues --    1.28401   1.29005   1.29495   1.30846   1.31693
 Alpha virt. eigenvalues --    1.32129   1.32868   1.33288   1.33793   1.34047
 Alpha virt. eigenvalues --    1.34174   1.34242   1.35444   1.35543   1.36071
 Alpha virt. eigenvalues --    1.36673   1.38534   1.39264   1.39582   1.41080
 Alpha virt. eigenvalues --    1.41126   1.41861   1.42308   1.43134   1.43185
 Alpha virt. eigenvalues --    1.43481   1.43665   1.43808   1.44670   1.45173
 Alpha virt. eigenvalues --    1.45311   1.45376   1.45862   1.46071   1.46239
 Alpha virt. eigenvalues --    1.46305   1.46455   1.46793   1.46834   1.47355
 Alpha virt. eigenvalues --    1.47533   1.47886   1.48062   1.48608   1.48826
 Alpha virt. eigenvalues --    1.49032   1.49109   1.49370   1.49855   1.49882
 Alpha virt. eigenvalues --    1.49938   1.50479   1.50709   1.50833   1.50935
 Alpha virt. eigenvalues --    1.51121   1.51362   1.51985   1.52298   1.52802
 Alpha virt. eigenvalues --    1.53153   1.53436   1.54454   1.56219   1.56533
 Alpha virt. eigenvalues --    1.56678   1.57115   1.57360   1.59805   1.61845
 Alpha virt. eigenvalues --    1.63454   1.64810   1.67101   1.67303   1.67851
 Alpha virt. eigenvalues --    1.68281   1.69212   1.69605   1.70663   1.72392
 Alpha virt. eigenvalues --    1.73507   1.74053   1.74723   1.75367   1.76384
 Alpha virt. eigenvalues --    1.77316   1.78119   1.78373   1.78678   1.79059
 Alpha virt. eigenvalues --    1.79301   1.79451   1.79741   1.79891   1.80256
 Alpha virt. eigenvalues --    1.80591   1.81133   1.81309   1.81452   1.81734
 Alpha virt. eigenvalues --    1.82665   1.83011   1.83354   1.83885   1.84373
 Alpha virt. eigenvalues --    1.84684   1.85312   1.86367   1.86461   1.87014
 Alpha virt. eigenvalues --    1.87974   1.88485   1.89438   1.89945   1.90191
 Alpha virt. eigenvalues --    1.90368   1.90473   1.90791   1.90934   1.91090
 Alpha virt. eigenvalues --    1.91433   1.91557   1.91845   1.92048   1.92906
 Alpha virt. eigenvalues --    1.93355   1.93610   1.93630   1.94466   1.94573
 Alpha virt. eigenvalues --    1.94868   1.95470   1.95998   1.96370   1.96661
 Alpha virt. eigenvalues --    1.97367   1.97798   1.98276   1.98716   1.99762
 Alpha virt. eigenvalues --    2.00791   2.01492   2.01800   2.02563   2.03425
 Alpha virt. eigenvalues --    2.03813   2.03839   2.04600   2.04885   2.04940
 Alpha virt. eigenvalues --    2.05655   2.06153   2.06523   2.07259   2.07717
 Alpha virt. eigenvalues --    2.08750   2.09020   2.09376   2.09835   2.10618
 Alpha virt. eigenvalues --    2.11562   2.11646   2.11946   2.12247   2.12422
 Alpha virt. eigenvalues --    2.12905   2.13561   2.13933   2.14323   2.14504
 Alpha virt. eigenvalues --    2.14656   2.14899   2.15340   2.16283   2.17024
 Alpha virt. eigenvalues --    2.17692   2.18350   2.18628   2.19213   2.19443
 Alpha virt. eigenvalues --    2.19502   2.20310   2.20381   2.21013   2.21389
 Alpha virt. eigenvalues --    2.21673   2.22343   2.22913   2.23218   2.23305
 Alpha virt. eigenvalues --    2.23562   2.23845   2.23987   2.24821   2.25102
 Alpha virt. eigenvalues --    2.25608   2.25828   2.26140   2.26907   2.27076
 Alpha virt. eigenvalues --    2.27478   2.27905   2.28183   2.28722   2.28946
 Alpha virt. eigenvalues --    2.29334   2.29797   2.30086   2.30280   2.30928
 Alpha virt. eigenvalues --    2.31085   2.31344   2.31706   2.31965   2.32568
 Alpha virt. eigenvalues --    2.33237   2.34934   2.35658   2.35909   2.36041
 Alpha virt. eigenvalues --    2.36617   2.37720   2.38210   2.38318   2.38476
 Alpha virt. eigenvalues --    2.39022   2.39878   2.41454   2.41551   2.42642
 Alpha virt. eigenvalues --    2.42684   2.43124   2.43890   2.43996   2.44400
 Alpha virt. eigenvalues --    2.45520   2.47231   2.47640   2.49594   2.50211
 Alpha virt. eigenvalues --    2.50689   2.51366   2.54021   2.55335   2.56753
 Alpha virt. eigenvalues --    2.57265   2.57600   2.58671   2.59270   2.59464
 Alpha virt. eigenvalues --    2.59992   2.60763   2.61261   2.61564   2.62052
 Alpha virt. eigenvalues --    2.62541   2.62631   2.62895   2.63521   2.64429
 Alpha virt. eigenvalues --    2.64888   2.65421   2.65720   2.66350   2.67015
 Alpha virt. eigenvalues --    2.67287   2.67509   2.68231   2.68522   2.69443
 Alpha virt. eigenvalues --    2.69715   2.69779   2.69888   2.70902   2.71508
 Alpha virt. eigenvalues --    2.72247   2.72851   2.73206   2.73321   2.73570
 Alpha virt. eigenvalues --    2.74168   2.74543   2.75132   2.75280   2.75306
 Alpha virt. eigenvalues --    2.75849   2.76160   2.77085   2.78004   2.78482
 Alpha virt. eigenvalues --    2.78849   2.79620   2.80414   2.81456   2.82293
 Alpha virt. eigenvalues --    2.83146   2.83542   2.84287   2.85005   2.85943
 Alpha virt. eigenvalues --    2.86358   2.88949   2.89538   2.90666   2.92851
 Alpha virt. eigenvalues --    2.93015   2.93789   2.93907   2.94845   2.95087
 Alpha virt. eigenvalues --    2.96161   2.96612   2.97402   2.98633   3.00327
 Alpha virt. eigenvalues --    3.00789   3.01793   3.04427   3.06877   3.08343
 Alpha virt. eigenvalues --    3.12185   3.16163   3.21550   3.24233   3.28038
 Alpha virt. eigenvalues --    3.29848   3.31529   3.34595   3.36623   3.37417
 Alpha virt. eigenvalues --    3.38498   3.41895   3.43603   3.48459   3.50371
 Alpha virt. eigenvalues --    3.51371   3.54086   4.08175   4.08392   4.08582
 Alpha virt. eigenvalues --    4.08841   4.09264   4.09297   4.09369   4.09633
 Alpha virt. eigenvalues --    4.10112   4.10383   4.11027   4.11772   4.12104
 Alpha virt. eigenvalues --    4.13128   4.13602   4.14528   4.14579   4.15282
 Alpha virt. eigenvalues --    4.15682   4.17883   4.18055   4.18435   4.19671
 Alpha virt. eigenvalues --    4.20516   4.21884   4.22773   4.24269   4.25157
 Alpha virt. eigenvalues --    4.29128   4.29969   4.30974   4.32966   4.33542
 Alpha virt. eigenvalues --    4.34132   4.35173   4.35187   4.36306   4.38396
 Alpha virt. eigenvalues --    4.39021   4.42527   4.42650   4.43556   4.43720
 Alpha virt. eigenvalues --    4.45599   4.49297   4.52454   4.52909   4.54912
 Alpha virt. eigenvalues --    4.56592   4.64148   4.70199   4.73921   4.76829
 Alpha virt. eigenvalues --    4.78151   4.81397   4.82136   4.84371   4.89269
 Alpha virt. eigenvalues --    4.97975
          Condensed to atoms (all electrons):
 Mulliken charges:
               1
     1  C   -0.437657
     2  C   -0.061580
     3  C   -0.437664
     4  C    0.103796
     5  C   -0.203020
     6  C   -0.129919
     7  C   -0.136751
     8  C   -0.189791
     9  C    0.077853
    10  C    0.096198
    11  C   -0.202854
    12  C   -0.176566
    13  C    0.081944
    14  C    0.452259
    15  N   -0.544533
    16  C    0.449607
    17  C    0.076797
    18  C   -0.156860
    19  C   -0.140107
    20  C   -0.116294
    21  C   -0.140204
    22  C   -0.156573
    23  N   -0.542936
    24  C    0.449466
    25  C    0.084435
    26  C   -0.166658
    27  C   -0.182994
    28  C    0.112065
    29  C    0.022013
    30  C   -0.187362
    31  C   -0.133856
    32  C   -0.192894
    33  C    0.154371
    34  C    0.233675
    35  O   -0.575051
    36  C    0.286973
    37  C   -0.186594
    38  C   -0.134677
    39  C   -0.133982
    40  C   -0.194399
    41  C    0.149306
    42  C   -0.232740
    43  C    0.117396
    44  C   -0.183576
    45  C   -0.135137
    46  C   -0.134439
    47  C   -0.191085
    48  C    0.070924
    49  C    0.070551
    50  C   -0.191566
    51  C   -0.134329
    52  C   -0.135582
    53  C   -0.183606
    54  C    0.111607
    55  C   -0.160286
    56  C   -0.170989
    57  N   -0.546457
    58  C   -0.245861
    59  C    0.098511
    60  H    0.158067
    61  H    0.148035
    62  H    0.143811
    63  H    0.157996
    64  H    0.143810
    65  H    0.148063
    66  H    0.126238
    67  H    0.129021
    68  H    0.129615
    69  H    0.131241
    70  H    0.131786
    71  H    0.160306
    72  H    0.161230
    73  H    0.133074
    74  H    0.132869
    75  H    0.132241
    76  H    0.159122
    77  H    0.159747
    78  H    0.135003
    79  H    0.137917
    80  H    0.132226
    81  H    0.145307
    82  H    0.147571
    83  H    0.133671
    84  H    0.130499
    85  H    0.144253
    86  H    0.135991
    87  H    0.131250
    88  H    0.130393
    89  H    0.130411
    90  H    0.130424
    91  H    0.130387
    92  H    0.131518
    93  H    0.138442
    94  H    0.139807
    95  H    0.159517
    96  H    0.156819
 Sum of Mulliken charges =  -0.00000
 Mulliken charges with hydrogens summed into heavy atoms:
               1
     1  C    0.012256
     2  C   -0.061580
     3  C    0.012205
     4  C    0.103796
     5  C   -0.076782
     6  C   -0.000898
     7  C   -0.007136
     8  C   -0.058550
     9  C    0.077853
    10  C    0.096198
    11  C   -0.071068
    12  C   -0.016260
    13  C    0.081944
    14  C    0.452259
    15  N   -0.544533
    16  C    0.449607
    17  C    0.076797
    18  C    0.004370
    19  C   -0.007033
    20  C    0.016575
    21  C   -0.007963
    22  C    0.002549
    23  N   -0.542936
    24  C    0.449466
    25  C    0.084435
    26  C   -0.006911
    27  C   -0.047991
    28  C    0.112065
    29  C    0.022013
    30  C   -0.049445
    31  C   -0.001630
    32  C   -0.047587
    33  C    0.154371
    34  C    0.233675
    35  O   -0.575051
    36  C    0.286973
    37  C   -0.039023
    38  C   -0.001006
    39  C   -0.003483
    40  C   -0.050145
    41  C    0.149306
    42  C   -0.232740
    43  C    0.117396
    44  C   -0.047586
    45  C   -0.003886
    46  C   -0.004046
    47  C   -0.060674
    48  C    0.070924
    49  C    0.070551
    50  C   -0.061143
    51  C   -0.003942
    52  C   -0.004065
    53  C   -0.045165
    54  C    0.111607
    55  C   -0.020480
    56  C   -0.011472
    57  N   -0.546457
    58  C   -0.089042
    59  C    0.098511
 Electronic spatial extent (au):  <R**2>=          75824.1360
 Charge=              0.0000 electrons
 Dipole moment (field-independent basis, Debye):
    X=              0.6750    Y=             -0.5038    Z=              0.1022  Tot=              0.8484
 Quadrupole moment (field-independent basis, Debye-Ang):
   XX=           -275.0860   YY=           -304.5058   ZZ=           -333.9777
   XY=              0.3635   XZ=             -5.1478   YZ=              2.3315
 Traceless Quadrupole moment (field-independent basis, Debye-Ang):
   XX=             29.4372   YY=              0.0174   ZZ=            -29.4546
   XY=              0.3635   XZ=             -5.1478   YZ=              2.3315
 Octapole moment (field-independent basis, Debye-Ang**2):
  XXX=            -35.2802  YYY=             61.0663  ZZZ=              8.0513  XYY=            -94.8079
  XXY=            -25.9252  XXZ=             21.9131  XZZ=             71.1919  YZZ=            -13.9591
  YYZ=              2.2484  XYZ=              9.1800
 Hexadecapole moment (field-independent basis, Debye-Ang**3):
 XXXX=         -76310.7043 YYYY=         -15491.1948 ZZZZ=          -3366.1373 XXXY=            160.2363
 XXXZ=           -461.4238 YYYX=           -141.3176 YYYZ=            128.5355 ZZZX=              7.9556
 ZZZY=            -24.1959 XXYY=         -15885.7360 XXZZ=         -14963.9266 YYZZ=          -3404.4887
 XXYZ=            408.7385 YYXZ=           -100.4218 ZZXY=           -107.8155
 N-N= 6.920697691664D+03 E-N=-1.930668931575D+04  KE= 2.335136178308D+03
 No NMR shielding tensors so no spin-rotation constants.
 Leave Link  601 at Sat Nov  5 02:09:28 2022, MaxMem=   805306368 cpu:               3.3 elap:               0.5
 (Enter /home/wykgroup/appl/g16/l9999.exe)
 1\1\GINC-NODE50\FOpt\RB3LYP\6-31G(d)\C55H37N3O1\WYKGROUP\05-Nov-2022\0
 \\#p b3lyp/6-31g(d) opt SCF=XQC\\Gaussian input prepared by ASE\\0,1\C
 ,9.3701162878,0.3687179992,-1.1886128645\C,8.6432681529,1.272454326,-0
 .1672708419\C,9.1016053675,0.9218904252,1.2663304004\C,8.8638088975,2.
 7528592713,-0.4768007994\C,10.0547625213,3.4699835448,-0.5080198267\C,
 10.021734186,4.8344229962,-0.8191615563\C,8.8077359486,5.4729505389,-1
 .0960309462\C,7.608250063,4.7594028186,-1.0665490812\C,7.6415534542,3.
 39773117,-0.7559812124\C,6.5621568565,2.4112974978,-0.6516499586\C,5.1
 818213192,2.537341785,-0.8308747037\C,4.3728062224,1.4167353963,-0.666
 3351138\C,4.9254378071,0.1688559381,-0.3244772926\C,4.0492814943,-1.01
 2100042,-0.1531400461\N,4.625580855,-2.1814099361,0.1719265972\C,3.793
 0313343,-3.2232269356,0.3168824199\C,4.381584178,-4.5374572652,0.67602
 68946\C,3.5586950276,-5.6622897683,0.8430751678\C,4.1122078083,-6.8949
 702774,1.1803190487\C,5.4925965487,-7.0205857,1.3548472064\C,6.3178841
 857,-5.9054222099,1.1901688071\C,5.7675669621,-4.6713188702,0.85303248
 06\N,2.4626165478,-3.1547977355,0.1583415881\C,1.9745925232,-1.9462116
 907,-0.1655101388\C,0.5109984098,-1.8170729339,-0.3512347747\C,-0.3320
 473301,-2.9258954595,-0.1861841502\C,-1.7055170001,-2.7997272365,-0.36
 06415962\C,-2.2869217741,-1.5661798031,-0.7032002207\C,-3.7537409101,-
 1.4800566226,-0.9324605251\C,-4.3943383988,-2.4566440662,-1.7024681795
 \C,-5.7692946695,-2.4111425548,-1.935014954\C,-6.5239888269,-1.3808738
 558,-1.3899028184\C,-5.9314288331,-0.3824913545,-0.6037944638\C,-4.551
 3940716,-0.4459901025,-0.3869696239\O,-3.886035154,0.4710757325,0.3878
 198131\C,-4.5755789031,1.4947114064,0.9909676583\C,-3.7971796432,2.355
 3139091,1.7742262958\C,-4.3985832732,3.4255351211,2.422817746\C,-5.776
 1747318,3.6361503314,2.2900840177\C,-6.5332459762,2.7696833092,1.50990
 03246\C,-5.9508561477,1.6802215291,0.8436186804\C,-6.7973163771,0.7356
 683168,-0.0107566643\C,-7.547907476,1.5017971067,-1.1145443688\C,-7.01
 75118848,2.2405552556,-2.1649010219\C,-7.8913285794,2.8634287786,-3.06
 25145745\C,-9.2768203247,2.7445593173,-2.9048477256\C,-9.8121043422,2.
 0026822589,-1.8496741235\C,-8.9406879479,1.3801913848,-0.9529543589\C,
 -9.2062974447,0.5497793809,0.230875118\C,-10.4087636152,0.1374559581,0
 .8099348212\C,-10.3665209869,-0.6627547728,1.9536473424\C,-9.141451679
 2,-1.0457998381,2.5115498876\C,-7.9364671286,-0.6334015174,1.932657084
 2\C,-7.9763068507,0.1623732018,0.7943696909\C,-1.4352561611,-0.4587566
 978,-0.8648939957\C,-0.0619152955,-0.5821875732,-0.6947295712\N,2.7284
 441726,-0.8487275095,-0.3313911723\C,6.3174130211,0.0503085863,-0.1458
 679734\C,7.1249477994,1.1641802996,-0.308914392\H,9.0597793252,0.60116
 58797,-2.2122937887\H,9.1493205169,-0.6873478986,-0.9956593945\H,10.45
 5890657,0.5036824169,-1.1208636014\H,8.5985513929,1.5520367081,2.00668
 45547\H,10.1831859895,1.0652828869,1.3727549736\H,8.8762285869,-0.1252
 481899,1.4986502357\H,11.004295462,2.9845615114,-0.2946195153\H,10.947
 4718165,5.403082601,-0.845947714\H,8.7989377013,6.5328314005,-1.335893
 3389\H,6.6670727949,5.2588002729,-1.2821520431\H,4.7385825499,3.493952
 1697,-1.095117611\H,3.2996113915,1.4883105496,-0.7995600344\H,2.489139
 449,-5.5527875088,0.7051454938\H,3.4662648253,-7.7595595875,1.30744736
 32\H,5.9232982349,-7.9831966349,1.6180276418\H,7.3922152326,-5.9983963
 027,1.3248854254\H,6.3979121698,-3.7991671762,0.7226893136\H,0.1027122
 46,-3.8808628169,0.0860299459\H,-2.3453253057,-3.6648034769,-0.2105271
 082\H,-3.7946396455,-3.2477974886,-2.1427938783\H,-6.2451446868,-3.173
 0457778,-2.5452537835\H,-7.5942859474,-1.337928579,-1.5688999622\H,-2.
 7327995116,2.1592215627,1.8564020417\H,-3.79607979,4.0940898534,3.0313
 20226\H,-6.2551269587,4.4707192682,2.7936665387\H,-7.6026497547,2.9308
 929109,1.407347985\H,-5.9417339183,2.3343249322,-2.2890927178\H,-7.490
 6343956,3.4442446787,-3.8888510983\H,-9.9427449542,3.2342676759,-3.610
 3587463\H,-10.889136786,1.9138607748,-1.7320729323\H,-11.3632306237,0.
 4321757227,0.3811672538\H,-11.2940985113,-0.9910370889,2.4150186188\H,
 -9.1257300789,-1.6684663167,3.4019239117\H,-6.9858974611,-0.9311612905
 ,2.36762532\H,-1.8553840586,0.5031668826,-1.1364690727\H,0.5865155563,
 0.2758667361,-0.8305797863\H,6.7281392751,-0.9185578235,0.1176068234\\
 Version=ES64L-G16RevB.01\State=1-A\HF=-2357.7119497\RMSD=5.185e-09\RMS
 F=1.502e-06\Dipole=-0.2600389,0.2087722,0.0146154\Quadrupole=21.941998
 ,-0.8565568,-21.0854412,0.1520386,3.4469975,-4.6586357\PG=C01 [X(C55H3
 7N3O1)]\\@


 IN-LAWS ARE LIKE SEEDS. YOU DON'T NEED THEM
 BUT THEY COME WITH THE TOMATO.
 Job cpu time:       0 days  7 hours 43 minutes 20.9 seconds.
 Elapsed time:       0 days  1 hours  6 minutes 50.9 seconds.
 File lengths (MBytes):  RWF=    570 Int=      0 D2E=      0 Chk=     73 Scr=      1
 Normal termination of Gaussian 16 at Sat Nov  5 02:09:28 2022.
