 Entering Gaussian System, Link 0=/home/wykgroup/appl/g16/g16
 Input=./calculation/no_transfer_pubchem_sampling_9_b3lyp/145085269.com
 Output=./calculation/no_transfer_pubchem_sampling_9_b3lyp/145085269.log
 Initial command:
 /home/wykgroup/appl/g16/l1.exe "/userdata/scratch/wykgroup/khs/./calculation/no_transfer_pubchem_sampling_9_b3lyp/145085269/Gau-1744.inp" -scrdir="/userdata/scratch/wykgroup/khs/./calculation/no_transfer_pubchem_sampling_9_b3lyp/145085269/"
 Entering Link 1 = /home/wykgroup/appl/g16/l1.exe PID=      1745.
  
 Copyright (c) 1988-2017, Gaussian, Inc.  All Rights Reserved.
  
 This is part of the Gaussian(R) 16 program.  It is based on
 the Gaussian(R) 09 system (copyright 2009, Gaussian, Inc.),
 the Gaussian(R) 03 system (copyright 2003, Gaussian, Inc.),
 the Gaussian(R) 98 system (copyright 1998, Gaussian, Inc.),
 the Gaussian(R) 94 system (copyright 1995, Gaussian, Inc.),
 the Gaussian 92(TM) system (copyright 1992, Gaussian, Inc.),
 the Gaussian 90(TM) system (copyright 1990, Gaussian, Inc.),
 the Gaussian 88(TM) system (copyright 1988, Gaussian, Inc.),
 the Gaussian 86(TM) system (copyright 1986, Carnegie Mellon
 University), and the Gaussian 82(TM) system (copyright 1983,
 Carnegie Mellon University). Gaussian is a federally registered
 trademark of Gaussian, Inc.
  
 This software contains proprietary and confidential information,
 including trade secrets, belonging to Gaussian, Inc.
  
 This software is provided under written license and may be
 used, copied, transmitted, or stored only in accord with that
 written license.
  
 The following legend is applicable only to US Government
 contracts under FAR:
  
                    RESTRICTED RIGHTS LEGEND
  
 Use, reproduction and disclosure by the US Government is
 subject to restrictions as set forth in subparagraphs (a)
 and (c) of the Commercial Computer Software - Restricted
 Rights clause in FAR 52.227-19.
  
 Gaussian, Inc.
 340 Quinnipiac St., Bldg. 40, Wallingford CT 06492
  
  
 ---------------------------------------------------------------
 Warning -- This program may not be used in any manner that
 competes with the business of Gaussian, Inc. or will provide
 assistance to any competitor of Gaussian, Inc.  The licensee
 of this program is prohibited from giving any competitor of
 Gaussian, Inc. access to this program.  By using this program,
 the user acknowledges that Gaussian, Inc. is engaged in the
 business of creating and licensing software in the field of
 computational chemistry and represents and warrants to the
 licensee that it is not a competitor of Gaussian, Inc. and that
 it will not use this program in any manner prohibited above.
 ---------------------------------------------------------------
  

 Cite this work as:
 Gaussian 16, Revision B.01,
 M. J. Frisch, G. W. Trucks, H. B. Schlegel, G. E. Scuseria, 
 M. A. Robb, J. R. Cheeseman, G. Scalmani, V. Barone, 
 G. A. Petersson, H. Nakatsuji, X. Li, M. Caricato, A. V. Marenich, 
 J. Bloino, B. G. Janesko, R. Gomperts, B. Mennucci, H. P. Hratchian, 
 J. V. Ortiz, A. F. Izmaylov, J. L. Sonnenberg, D. Williams-Young, 
 F. Ding, F. Lipparini, F. Egidi, J. Goings, B. Peng, A. Petrone, 
 T. Henderson, D. Ranasinghe, V. G. Zakrzewski, J. Gao, N. Rega, 
 G. Zheng, W. Liang, M. Hada, M. Ehara, K. Toyota, R. Fukuda, 
 J. Hasegawa, M. Ishida, T. Nakajima, Y. Honda, O. Kitao, H. Nakai, 
 T. Vreven, K. Throssell, J. A. Montgomery, Jr., J. E. Peralta, 
 F. Ogliaro, M. J. Bearpark, J. J. Heyd, E. N. Brothers, K. N. Kudin, 
 V. N. Staroverov, T. A. Keith, R. Kobayashi, J. Normand, 
 K. Raghavachari, A. P. Rendell, J. C. Burant, S. S. Iyengar, 
 J. Tomasi, M. Cossi, J. M. Millam, M. Klene, C. Adamo, R. Cammi, 
 J. W. Ochterski, R. L. Martin, K. Morokuma, O. Farkas, 
 J. B. Foresman, and D. J. Fox, Gaussian, Inc., Wallingford CT, 2016.
 
 ******************************************
 Gaussian 16:  ES64L-G16RevB.01 20-Dec-2017
                 5-Nov-2022 
 ******************************************
 %chk=./calculation/no_transfer_pubchem_sampling_9_b3lyp/145085269.chk
 %nprocshared=7
 Will use up to    7 processors via shared memory.
 %mem=6GB
 -----------------------------
 #p b3lyp/6-31g(d) opt SCF=XQC
 -----------------------------
 1/18=20,19=15,26=3,38=1/1,3;
 2/9=110,12=2,17=6,18=5,40=1/2;
 3/5=1,6=6,7=1,11=2,25=1,30=1,71=1,74=-5/1,2,3;
 4//1;
 5/5=2,8=3,13=1,38=5/2,8;
 6/7=2,8=2,9=2,10=2,28=1/1;
 7//1,2,3,16;
 1/18=20,19=15,26=3/3(2);
 2/9=110/2;
 99//99;
 2/9=110/2;
 3/5=1,6=6,7=1,11=2,25=1,30=1,71=1,74=-5/1,2,3;
 4/5=5,16=3,69=1/1;
 5/5=2,8=3,13=1,38=5/2,8;
 7//1,2,3,16;
 1/18=20,19=15,26=3/3(-5);
 2/9=110/2;
 6/7=2,8=2,9=2,10=2,19=2,28=1/1;
 99/9=1/99;
 Leave Link    1 at Sat Nov  5 00:36:48 2022, MaxMem=   805306368 cpu:               0.9 elap:               0.2
 (Enter /home/wykgroup/appl/g16/l101.exe)
 ------------------------------
 Gaussian input prepared by ASE
 ------------------------------
 Symbolic Z-matrix:
 Charge =  0 Multiplicity = 1
 C                    -4.66744   1.96007  -0.79211 
 C                    -3.2916    2.32513  -0.22309 
 C                    -3.44591   3.24416   0.99134 
 C                    -2.42228   2.95222  -1.29058 
 C                    -2.58112   4.15668  -1.94081 
 C                    -1.63219   4.54195  -2.87836 
 C                    -0.54689   3.72924  -3.16615 
 C                    -0.38313   2.51387  -2.52372 
 C                    -1.32441   2.13161  -1.58225 
 C                    -1.36822   0.96981  -0.71177 
 C                    -0.46688  -0.07033  -0.58879 
 C                    -0.7108   -0.97253   0.43534 
 C                    -1.83846  -0.87446   1.28318 
 C                    -2.75879   0.15884   1.10968 
 C                    -2.50263   1.07996   0.12233 
 C                    -1.71425  -1.93307   2.2442 
 C                    -2.50012  -2.34983   3.31097 
 C                    -2.06726  -3.41165   4.07936 
 C                    -0.86371  -4.05544   3.80036 
 C                    -0.06486  -3.6657    2.74271 
 C                    -0.4985   -2.60415   1.96239 
 N                     0.06941  -2.03428   0.8416 
 N                     1.30441  -2.25615   0.28832 
 C                     2.01421  -3.47764   0.30811 
 C                     1.51019  -4.78995  -0.02267 
 C                     2.30285  -5.91747   0.19809 
 C                     1.82062  -7.1761   -0.10049 
 C                     0.54435  -7.32797  -0.6201 
 C                    -0.24683  -6.21339  -0.84546 
 C                     0.22884  -4.95048  -0.55036 
 C                     3.19478  -2.91884   0.65894 
 C                     2.53748  -1.57147   0.81653 
 C                     2.92684  -0.42443  -0.06086 
 C                     3.5733   -0.65482  -1.26904 
 C                     3.80986   0.39636  -2.13678 
 C                     3.38193   1.67203  -1.82071 
 C                     2.72666   1.92348  -0.61597 
 C                     2.21604   3.27036  -0.31934 
 C                     2.93111   4.40394  -0.6993 
 C                     2.41989   5.66839  -0.47567 
 C                     1.1823    5.82229   0.12536 
 C                     0.46921   4.70327   0.51921 
 C                     0.98273   3.43824   0.30678 
 C                     2.52137   0.86358   0.2624 
 H                    -5.20185   2.85788  -1.09443 
 H                    -5.25834   1.43652  -0.04392 
 H                    -4.55466   1.31384  -1.66005 
 H                    -4.05424   2.7641    1.7544 
 H                    -3.92414   4.17752   0.70329 
 H                    -2.47082   3.46846   1.41831 
 H                    -3.42242   4.7999   -1.72548 
 H                    -1.73986   5.48846  -3.38806 
 H                     0.18097   4.05135  -3.8967 
 H                     0.46577   1.883    -2.74221 
 H                     0.39546  -0.16413  -1.22881 
 H                    -3.62204   0.23741   1.75338 
 H                    -3.43089  -1.84883   3.5313 
 H                    -2.66515  -3.75018   4.91256 
 H                    -0.54676  -4.87818   4.42411 
 H                     0.86603  -4.17291   2.53898 
 H                     3.29304  -5.7932    0.61071 
 H                     2.43884  -8.04451   0.07469 
 H                     0.16807  -8.31407  -0.84887 
 H                    -1.24056  -6.32984  -1.25248 
 H                    -0.38641  -4.08264  -0.73449 
 H                     4.21863  -3.22489   0.67525 
 H                     2.39908  -1.25897   1.85569 
 H                     3.87407  -1.65823  -1.52984 
 H                     4.31086   0.21477  -3.07659 
 H                     3.52837   2.47682  -2.52587 
 H                     3.90317   4.29384  -1.15802 
 H                     2.98793   6.53768  -0.77437 
 H                     0.7769    6.80989   0.28867 
 H                    -0.49677   4.81883   0.98825 
 H                     0.41024   2.57187   0.60192 
 H                     2.02535   1.04313   1.20583 
 
 ITRead=  0  0  0  0  0  0  0  0  0  0  0  0  0  0  0  0  0  0  0  0
 ITRead=  0  0  0  0  0  0  0  0  0  0  0  0  0  0  0  0  0  0  0  0
 ITRead=  0  0  0  0  0  0  0  0  0  0  0  0  0  0  0  0  0  0  0  0
 ITRead=  0  0  0  0  0  0  0  0  0  0  0  0  0  0  0  0
 MicOpt= -1 -1 -1 -1 -1 -1 -1 -1 -1 -1 -1 -1 -1 -1 -1 -1 -1 -1 -1 -1
 MicOpt= -1 -1 -1 -1 -1 -1 -1 -1 -1 -1 -1 -1 -1 -1 -1 -1 -1 -1 -1 -1
 MicOpt= -1 -1 -1 -1 -1 -1 -1 -1 -1 -1 -1 -1 -1 -1 -1 -1 -1 -1 -1 -1
 MicOpt= -1 -1 -1 -1 -1 -1 -1 -1 -1 -1 -1 -1 -1 -1 -1 -1
 NAtoms=     76 NQM=       76 NQMF=       0 NMMI=      0 NMMIF=      0
                NMic=       0 NMicF=      0.
                    Isotopes and Nuclear Properties:
 (Nuclear quadrupole moments (NQMom) in fm**2, nuclear magnetic moments (NMagM)
  in nuclear magnetons)

  Atom         1           2           3           4           5           6           7           8           9          10
 IAtWgt=          12          12          12          12          12          12          12          12          12          12
 AtmWgt=  12.0000000  12.0000000  12.0000000  12.0000000  12.0000000  12.0000000  12.0000000  12.0000000  12.0000000  12.0000000
 NucSpn=           0           0           0           0           0           0           0           0           0           0
 AtZEff=  -0.0000000  -0.0000000  -0.0000000  -0.0000000  -0.0000000  -0.0000000  -0.0000000  -0.0000000  -0.0000000  -0.0000000
 NQMom=    0.0000000   0.0000000   0.0000000   0.0000000   0.0000000   0.0000000   0.0000000   0.0000000   0.0000000   0.0000000
 NMagM=    0.0000000   0.0000000   0.0000000   0.0000000   0.0000000   0.0000000   0.0000000   0.0000000   0.0000000   0.0000000
 AtZNuc=   6.0000000   6.0000000   6.0000000   6.0000000   6.0000000   6.0000000   6.0000000   6.0000000   6.0000000   6.0000000

  Atom        11          12          13          14          15          16          17          18          19          20
 IAtWgt=          12          12          12          12          12          12          12          12          12          12
 AtmWgt=  12.0000000  12.0000000  12.0000000  12.0000000  12.0000000  12.0000000  12.0000000  12.0000000  12.0000000  12.0000000
 NucSpn=           0           0           0           0           0           0           0           0           0           0
 AtZEff=  -0.0000000  -0.0000000  -0.0000000  -0.0000000  -0.0000000  -0.0000000  -0.0000000  -0.0000000  -0.0000000  -0.0000000
 NQMom=    0.0000000   0.0000000   0.0000000   0.0000000   0.0000000   0.0000000   0.0000000   0.0000000   0.0000000   0.0000000
 NMagM=    0.0000000   0.0000000   0.0000000   0.0000000   0.0000000   0.0000000   0.0000000   0.0000000   0.0000000   0.0000000
 AtZNuc=   6.0000000   6.0000000   6.0000000   6.0000000   6.0000000   6.0000000   6.0000000   6.0000000   6.0000000   6.0000000

  Atom        21          22          23          24          25          26          27          28          29          30
 IAtWgt=          12          14          14          12          12          12          12          12          12          12
 AtmWgt=  12.0000000  14.0030740  14.0030740  12.0000000  12.0000000  12.0000000  12.0000000  12.0000000  12.0000000  12.0000000
 NucSpn=           0           2           2           0           0           0           0           0           0           0
 AtZEff=  -0.0000000  -0.0000000  -0.0000000  -0.0000000  -0.0000000  -0.0000000  -0.0000000  -0.0000000  -0.0000000  -0.0000000
 NQMom=    0.0000000   2.0440000   2.0440000   0.0000000   0.0000000   0.0000000   0.0000000   0.0000000   0.0000000   0.0000000
 NMagM=    0.0000000   0.4037610   0.4037610   0.0000000   0.0000000   0.0000000   0.0000000   0.0000000   0.0000000   0.0000000
 AtZNuc=   6.0000000   7.0000000   7.0000000   6.0000000   6.0000000   6.0000000   6.0000000   6.0000000   6.0000000   6.0000000

  Atom        31          32          33          34          35          36          37          38          39          40
 IAtWgt=          12          12          12          12          12          12          12          12          12          12
 AtmWgt=  12.0000000  12.0000000  12.0000000  12.0000000  12.0000000  12.0000000  12.0000000  12.0000000  12.0000000  12.0000000
 NucSpn=           0           0           0           0           0           0           0           0           0           0
 AtZEff=  -0.0000000  -0.0000000  -0.0000000  -0.0000000  -0.0000000  -0.0000000  -0.0000000  -0.0000000  -0.0000000  -0.0000000
 NQMom=    0.0000000   0.0000000   0.0000000   0.0000000   0.0000000   0.0000000   0.0000000   0.0000000   0.0000000   0.0000000
 NMagM=    0.0000000   0.0000000   0.0000000   0.0000000   0.0000000   0.0000000   0.0000000   0.0000000   0.0000000   0.0000000
 AtZNuc=   6.0000000   6.0000000   6.0000000   6.0000000   6.0000000   6.0000000   6.0000000   6.0000000   6.0000000   6.0000000

  Atom        41          42          43          44          45          46          47          48          49          50
 IAtWgt=          12          12          12          12           1           1           1           1           1           1
 AtmWgt=  12.0000000  12.0000000  12.0000000  12.0000000   1.0078250   1.0078250   1.0078250   1.0078250   1.0078250   1.0078250
 NucSpn=           0           0           0           0           1           1           1           1           1           1
 AtZEff=  -0.0000000  -0.0000000  -0.0000000  -0.0000000  -0.0000000  -0.0000000  -0.0000000  -0.0000000  -0.0000000  -0.0000000
 NQMom=    0.0000000   0.0000000   0.0000000   0.0000000   0.0000000   0.0000000   0.0000000   0.0000000   0.0000000   0.0000000
 NMagM=    0.0000000   0.0000000   0.0000000   0.0000000   2.7928460   2.7928460   2.7928460   2.7928460   2.7928460   2.7928460
 AtZNuc=   6.0000000   6.0000000   6.0000000   6.0000000   1.0000000   1.0000000   1.0000000   1.0000000   1.0000000   1.0000000

  Atom        51          52          53          54          55          56          57          58          59          60
 IAtWgt=           1           1           1           1           1           1           1           1           1           1
 AtmWgt=   1.0078250   1.0078250   1.0078250   1.0078250   1.0078250   1.0078250   1.0078250   1.0078250   1.0078250   1.0078250
 NucSpn=           1           1           1           1           1           1           1           1           1           1
 AtZEff=  -0.0000000  -0.0000000  -0.0000000  -0.0000000  -0.0000000  -0.0000000  -0.0000000  -0.0000000  -0.0000000  -0.0000000
 NQMom=    0.0000000   0.0000000   0.0000000   0.0000000   0.0000000   0.0000000   0.0000000   0.0000000   0.0000000   0.0000000
 NMagM=    2.7928460   2.7928460   2.7928460   2.7928460   2.7928460   2.7928460   2.7928460   2.7928460   2.7928460   2.7928460
 AtZNuc=   1.0000000   1.0000000   1.0000000   1.0000000   1.0000000   1.0000000   1.0000000   1.0000000   1.0000000   1.0000000

  Atom        61          62          63          64          65          66          67          68          69          70
 IAtWgt=           1           1           1           1           1           1           1           1           1           1
 AtmWgt=   1.0078250   1.0078250   1.0078250   1.0078250   1.0078250   1.0078250   1.0078250   1.0078250   1.0078250   1.0078250
 NucSpn=           1           1           1           1           1           1           1           1           1           1
 AtZEff=  -0.0000000  -0.0000000  -0.0000000  -0.0000000  -0.0000000  -0.0000000  -0.0000000  -0.0000000  -0.0000000  -0.0000000
 NQMom=    0.0000000   0.0000000   0.0000000   0.0000000   0.0000000   0.0000000   0.0000000   0.0000000   0.0000000   0.0000000
 NMagM=    2.7928460   2.7928460   2.7928460   2.7928460   2.7928460   2.7928460   2.7928460   2.7928460   2.7928460   2.7928460
 AtZNuc=   1.0000000   1.0000000   1.0000000   1.0000000   1.0000000   1.0000000   1.0000000   1.0000000   1.0000000   1.0000000

  Atom        71          72          73          74          75          76
 IAtWgt=           1           1           1           1           1           1
 AtmWgt=   1.0078250   1.0078250   1.0078250   1.0078250   1.0078250   1.0078250
 NucSpn=           1           1           1           1           1           1
 AtZEff=  -0.0000000  -0.0000000  -0.0000000  -0.0000000  -0.0000000  -0.0000000
 NQMom=    0.0000000   0.0000000   0.0000000   0.0000000   0.0000000   0.0000000
 NMagM=    2.7928460   2.7928460   2.7928460   2.7928460   2.7928460   2.7928460
 AtZNuc=   1.0000000   1.0000000   1.0000000   1.0000000   1.0000000   1.0000000
 Leave Link  101 at Sat Nov  5 00:36:48 2022, MaxMem=   805306368 cpu:               1.5 elap:               0.3
 (Enter /home/wykgroup/appl/g16/l103.exe)

 GradGradGradGradGradGradGradGradGradGradGradGradGradGradGradGradGradGrad
 Berny optimization.
 Initialization pass.
                           ----------------------------
                           !    Initial Parameters    !
                           ! (Angstroms and Degrees)  !
 --------------------------                            --------------------------
 ! Name  Definition              Value          Derivative Info.                !
 --------------------------------------------------------------------------------
 ! R1    R(1,2)                  1.533          estimate D2E/DX2                !
 ! R2    R(1,45)                 1.0877         estimate D2E/DX2                !
 ! R3    R(1,46)                 1.0877         estimate D2E/DX2                !
 ! R4    R(1,47)                 1.088          estimate D2E/DX2                !
 ! R5    R(2,3)                  1.5308         estimate D2E/DX2                !
 ! R6    R(2,4)                  1.5128         estimate D2E/DX2                !
 ! R7    R(2,15)                 1.514          estimate D2E/DX2                !
 ! R8    R(3,48)                 1.0876         estimate D2E/DX2                !
 ! R9    R(3,49)                 1.0876         estimate D2E/DX2                !
 ! R10   R(3,50)                 1.0879         estimate D2E/DX2                !
 ! R11   R(4,5)                  1.378          estimate D2E/DX2                !
 ! R12   R(4,9)                  1.4014         estimate D2E/DX2                !
 ! R13   R(5,6)                  1.3885         estimate D2E/DX2                !
 ! R14   R(5,51)                 1.0807         estimate D2E/DX2                !
 ! R15   R(6,7)                  1.3861         estimate D2E/DX2                !
 ! R16   R(6,52)                 1.0804         estimate D2E/DX2                !
 ! R17   R(7,8)                  1.3844         estimate D2E/DX2                !
 ! R18   R(7,53)                 1.0804         estimate D2E/DX2                !
 ! R19   R(8,9)                  1.3851         estimate D2E/DX2                !
 ! R20   R(8,54)                 1.08           estimate D2E/DX2                !
 ! R21   R(9,10)                 1.4524         estimate D2E/DX2                !
 ! R22   R(10,11)                1.3818         estimate D2E/DX2                !
 ! R23   R(10,15)                1.4124         estimate D2E/DX2                !
 ! R24   R(11,12)                1.3865         estimate D2E/DX2                !
 ! R25   R(11,55)                1.078          estimate D2E/DX2                !
 ! R26   R(12,13)                1.4142         estimate D2E/DX2                !
 ! R27   R(12,22)                1.3788         estimate D2E/DX2                !
 ! R28   R(13,14)                1.3946         estimate D2E/DX2                !
 ! R29   R(13,16)                1.4351         estimate D2E/DX2                !
 ! R30   R(14,15)                1.3744         estimate D2E/DX2                !
 ! R31   R(14,56)                1.0797         estimate D2E/DX2                !
 ! R32   R(16,17)                1.389          estimate D2E/DX2                !
 ! R33   R(16,21)                1.417          estimate D2E/DX2                !
 ! R34   R(17,18)                1.3803         estimate D2E/DX2                !
 ! R35   R(17,57)                1.0798         estimate D2E/DX2                !
 ! R36   R(18,19)                1.3931         estimate D2E/DX2                !
 ! R37   R(18,58)                1.0799         estimate D2E/DX2                !
 ! R38   R(19,20)                1.3815         estimate D2E/DX2                !
 ! R39   R(19,59)                1.08           estimate D2E/DX2                !
 ! R40   R(20,21)                1.387          estimate D2E/DX2                !
 ! R41   R(20,60)                1.0795         estimate D2E/DX2                !
 ! R42   R(21,22)                1.3797         estimate D2E/DX2                !
 ! R43   R(22,23)                1.3713         estimate D2E/DX2                !
 ! R44   R(23,24)                1.4129         estimate D2E/DX2                !
 ! R45   R(23,32)                1.5061         estimate D2E/DX2                !
 ! R46   R(24,25)                1.4442         estimate D2E/DX2                !
 ! R47   R(24,31)                1.3524         estimate D2E/DX2                !
 ! R48   R(25,26)                1.3958         estimate D2E/DX2                !
 ! R49   R(25,30)                1.395          estimate D2E/DX2                !
 ! R50   R(26,27)                1.3805         estimate D2E/DX2                !
 ! R51   R(26,61)                1.0799         estimate D2E/DX2                !
 ! R52   R(27,28)                1.3863         estimate D2E/DX2                !
 ! R53   R(27,62)                1.0803         estimate D2E/DX2                !
 ! R54   R(28,29)                1.3853         estimate D2E/DX2                !
 ! R55   R(28,63)                1.08           estimate D2E/DX2                !
 ! R56   R(29,30)                1.3814         estimate D2E/DX2                !
 ! R57   R(29,64)                1.0802         estimate D2E/DX2                !
 ! R58   R(30,65)                1.0796         estimate D2E/DX2                !
 ! R59   R(31,32)                1.5074         estimate D2E/DX2                !
 ! R60   R(31,66)                1.0687         estimate D2E/DX2                !
 ! R61   R(32,33)                1.4957         estimate D2E/DX2                !
 ! R62   R(32,67)                1.0939         estimate D2E/DX2                !
 ! R63   R(33,34)                1.3895         estimate D2E/DX2                !
 ! R64   R(33,44)                1.3885         estimate D2E/DX2                !
 ! R65   R(34,35)                1.3834         estimate D2E/DX2                !
 ! R66   R(34,68)                1.0795         estimate D2E/DX2                !
 ! R67   R(35,36)                1.3822         estimate D2E/DX2                !
 ! R68   R(35,69)                1.0804         estimate D2E/DX2                !
 ! R69   R(36,37)                1.3943         estimate D2E/DX2                !
 ! R70   R(36,70)                1.08           estimate D2E/DX2                !
 ! R71   R(37,38)                1.4706         estimate D2E/DX2                !
 ! R72   R(37,44)                1.3918         estimate D2E/DX2                !
 ! R73   R(38,39)                1.3931         estimate D2E/DX2                !
 ! R74   R(38,43)                1.3933         estimate D2E/DX2                !
 ! R75   R(39,40)                1.3821         estimate D2E/DX2                !
 ! R76   R(39,71)                1.0805         estimate D2E/DX2                !
 ! R77   R(40,41)                1.3844         estimate D2E/DX2                !
 ! R78   R(40,72)                1.0805         estimate D2E/DX2                !
 ! R79   R(41,42)                1.3841         estimate D2E/DX2                !
 ! R80   R(41,73)                1.08           estimate D2E/DX2                !
 ! R81   R(42,43)                1.3817         estimate D2E/DX2                !
 ! R82   R(42,74)                1.08           estimate D2E/DX2                !
 ! R83   R(43,75)                1.0796         estimate D2E/DX2                !
 ! R84   R(44,76)                1.0809         estimate D2E/DX2                !
 ! A1    A(2,1,45)             110.339          estimate D2E/DX2                !
 ! A2    A(2,1,46)             110.2967         estimate D2E/DX2                !
 ! A3    A(2,1,47)             110.1534         estimate D2E/DX2                !
 ! A4    A(45,1,46)            108.759          estimate D2E/DX2                !
 ! A5    A(45,1,47)            108.6319         estimate D2E/DX2                !
 ! A6    A(46,1,47)            108.6128         estimate D2E/DX2                !
 ! A7    A(1,2,3)              110.3024         estimate D2E/DX2                !
 ! A8    A(1,2,4)              110.6425         estimate D2E/DX2                !
 ! A9    A(1,2,15)             110.8873         estimate D2E/DX2                !
 ! A10   A(3,2,4)              111.6466         estimate D2E/DX2                !
 ! A11   A(3,2,15)             111.4258         estimate D2E/DX2                !
 ! A12   A(4,2,15)             101.6808         estimate D2E/DX2                !
 ! A13   A(2,3,48)             110.3653         estimate D2E/DX2                !
 ! A14   A(2,3,49)             110.4534         estimate D2E/DX2                !
 ! A15   A(2,3,50)             110.1698         estimate D2E/DX2                !
 ! A16   A(48,3,49)            108.5839         estimate D2E/DX2                !
 ! A17   A(48,3,50)            108.4818         estimate D2E/DX2                !
 ! A18   A(49,3,50)            108.7323         estimate D2E/DX2                !
 ! A19   A(2,4,5)              128.9824         estimate D2E/DX2                !
 ! A20   A(2,4,9)              110.7523         estimate D2E/DX2                !
 ! A21   A(5,4,9)              120.2615         estimate D2E/DX2                !
 ! A22   A(4,5,6)              118.8416         estimate D2E/DX2                !
 ! A23   A(4,5,51)             121.0621         estimate D2E/DX2                !
 ! A24   A(6,5,51)             120.0947         estimate D2E/DX2                !
 ! A25   A(5,6,7)              120.8391         estimate D2E/DX2                !
 ! A26   A(5,6,52)             119.573          estimate D2E/DX2                !
 ! A27   A(7,6,52)             119.5877         estimate D2E/DX2                !
 ! A28   A(6,7,8)              120.7311         estimate D2E/DX2                !
 ! A29   A(6,7,53)             119.5446         estimate D2E/DX2                !
 ! A30   A(8,7,53)             119.7237         estimate D2E/DX2                !
 ! A31   A(7,8,9)              118.5096         estimate D2E/DX2                !
 ! A32   A(7,8,54)             120.7913         estimate D2E/DX2                !
 ! A33   A(9,8,54)             120.6948         estimate D2E/DX2                !
 ! A34   A(4,9,8)              120.8149         estimate D2E/DX2                !
 ! A35   A(4,9,10)             108.6658         estimate D2E/DX2                !
 ! A36   A(8,9,10)             130.4394         estimate D2E/DX2                !
 ! A37   A(9,10,11)            129.4788         estimate D2E/DX2                !
 ! A38   A(9,10,15)            108.4091         estimate D2E/DX2                !
 ! A39   A(11,10,15)           122.0097         estimate D2E/DX2                !
 ! A40   A(10,11,12)           116.1545         estimate D2E/DX2                !
 ! A41   A(10,11,55)           122.3072         estimate D2E/DX2                !
 ! A42   A(12,11,55)           121.5116         estimate D2E/DX2                !
 ! A43   A(11,12,13)           122.5468         estimate D2E/DX2                !
 ! A44   A(11,12,22)           128.256          estimate D2E/DX2                !
 ! A45   A(13,12,22)           109.1445         estimate D2E/DX2                !
 ! A46   A(12,13,14)           120.199          estimate D2E/DX2                !
 ! A47   A(12,13,16)           106.3368         estimate D2E/DX2                !
 ! A48   A(14,13,16)           133.3912         estimate D2E/DX2                !
 ! A49   A(13,14,15)           117.5782         estimate D2E/DX2                !
 ! A50   A(13,14,56)           120.4902         estimate D2E/DX2                !
 ! A51   A(15,14,56)           121.9076         estimate D2E/DX2                !
 ! A52   A(2,15,10)            110.3626         estimate D2E/DX2                !
 ! A53   A(2,15,14)            128.1678         estimate D2E/DX2                !
 ! A54   A(10,15,14)           121.4466         estimate D2E/DX2                !
 ! A55   A(13,16,17)           133.3653         estimate D2E/DX2                !
 ! A56   A(13,16,21)           106.8836         estimate D2E/DX2                !
 ! A57   A(17,16,21)           119.741          estimate D2E/DX2                !
 ! A58   A(16,17,18)           118.7463         estimate D2E/DX2                !
 ! A59   A(16,17,57)           120.3453         estimate D2E/DX2                !
 ! A60   A(18,17,57)           120.9084         estimate D2E/DX2                !
 ! A61   A(17,18,19)           120.9919         estimate D2E/DX2                !
 ! A62   A(17,18,58)           119.8027         estimate D2E/DX2                !
 ! A63   A(19,18,58)           119.205          estimate D2E/DX2                !
 ! A64   A(18,19,20)           121.4995         estimate D2E/DX2                !
 ! A65   A(18,19,59)           119.3336         estimate D2E/DX2                !
 ! A66   A(20,19,59)           119.1669         estimate D2E/DX2                !
 ! A67   A(19,20,21)           117.763          estimate D2E/DX2                !
 ! A68   A(19,20,60)           120.7011         estimate D2E/DX2                !
 ! A69   A(21,20,60)           121.5355         estimate D2E/DX2                !
 ! A70   A(16,21,20)           121.2536         estimate D2E/DX2                !
 ! A71   A(16,21,22)           108.6099         estimate D2E/DX2                !
 ! A72   A(20,21,22)           130.125          estimate D2E/DX2                !
 ! A73   A(12,22,21)           108.9356         estimate D2E/DX2                !
 ! A74   A(12,22,23)           121.0179         estimate D2E/DX2                !
 ! A75   A(21,22,23)           129.1718         estimate D2E/DX2                !
 ! A76   A(22,23,24)           125.9192         estimate D2E/DX2                !
 ! A77   A(22,23,32)           121.4852         estimate D2E/DX2                !
 ! A78   A(24,23,32)            88.6708         estimate D2E/DX2                !
 ! A79   A(23,24,25)           127.3774         estimate D2E/DX2                !
 ! A80   A(23,24,31)            94.8736         estimate D2E/DX2                !
 ! A81   A(25,24,31)           137.6911         estimate D2E/DX2                !
 ! A82   A(24,25,26)           119.9739         estimate D2E/DX2                !
 ! A83   A(24,25,30)           120.7819         estimate D2E/DX2                !
 ! A84   A(26,25,30)           119.2408         estimate D2E/DX2                !
 ! A85   A(25,26,27)           120.2569         estimate D2E/DX2                !
 ! A86   A(25,26,61)           119.221          estimate D2E/DX2                !
 ! A87   A(27,26,61)           120.5208         estimate D2E/DX2                !
 ! A88   A(26,27,28)           120.1668         estimate D2E/DX2                !
 ! A89   A(26,27,62)           119.8622         estimate D2E/DX2                !
 ! A90   A(28,27,62)           119.9707         estimate D2E/DX2                !
 ! A91   A(27,28,29)           119.9084         estimate D2E/DX2                !
 ! A92   A(27,28,63)           120.0119         estimate D2E/DX2                !
 ! A93   A(29,28,63)           120.0797         estimate D2E/DX2                !
 ! A94   A(28,29,30)           120.2752         estimate D2E/DX2                !
 ! A95   A(28,29,64)           119.9993         estimate D2E/DX2                !
 ! A96   A(30,29,64)           119.7254         estimate D2E/DX2                !
 ! A97   A(25,30,29)           120.1512         estimate D2E/DX2                !
 ! A98   A(25,30,65)           119.7            estimate D2E/DX2                !
 ! A99   A(29,30,65)           120.147          estimate D2E/DX2                !
 ! A100  A(24,31,32)            90.9051         estimate D2E/DX2                !
 ! A101  A(24,31,66)           136.211          estimate D2E/DX2                !
 ! A102  A(32,31,66)           132.2297         estimate D2E/DX2                !
 ! A103  A(23,32,31)            85.0663         estimate D2E/DX2                !
 ! A104  A(23,32,33)           110.8567         estimate D2E/DX2                !
 ! A105  A(23,32,67)           111.0664         estimate D2E/DX2                !
 ! A106  A(31,32,33)           120.7058         estimate D2E/DX2                !
 ! A107  A(31,32,67)           114.1935         estimate D2E/DX2                !
 ! A108  A(33,32,67)           111.7837         estimate D2E/DX2                !
 ! A109  A(32,33,34)           120.2662         estimate D2E/DX2                !
 ! A110  A(32,33,44)           119.921          estimate D2E/DX2                !
 ! A111  A(34,33,44)           119.4798         estimate D2E/DX2                !
 ! A112  A(33,34,35)           119.9305         estimate D2E/DX2                !
 ! A113  A(33,34,68)           119.5923         estimate D2E/DX2                !
 ! A114  A(35,34,68)           120.4707         estimate D2E/DX2                !
 ! A115  A(34,35,36)           120.3257         estimate D2E/DX2                !
 ! A116  A(34,35,69)           119.8152         estimate D2E/DX2                !
 ! A117  A(36,35,69)           119.8432         estimate D2E/DX2                !
 ! A118  A(35,36,37)           120.6342         estimate D2E/DX2                !
 ! A119  A(35,36,70)           119.7673         estimate D2E/DX2                !
 ! A120  A(37,36,70)           119.5711         estimate D2E/DX2                !
 ! A121  A(36,37,38)           120.1741         estimate D2E/DX2                !
 ! A122  A(36,37,44)           118.5091         estimate D2E/DX2                !
 ! A123  A(38,37,44)           121.2611         estimate D2E/DX2                !
 ! A124  A(37,38,39)           120.7972         estimate D2E/DX2                !
 ! A125  A(37,38,43)           120.5528         estimate D2E/DX2                !
 ! A126  A(39,38,43)           118.6122         estimate D2E/DX2                !
 ! A127  A(38,39,40)           120.6943         estimate D2E/DX2                !
 ! A128  A(38,39,71)           119.6477         estimate D2E/DX2                !
 ! A129  A(40,39,71)           119.6494         estimate D2E/DX2                !
 ! A130  A(39,40,41)           120.1731         estimate D2E/DX2                !
 ! A131  A(39,40,72)           119.7913         estimate D2E/DX2                !
 ! A132  A(41,40,72)           120.0353         estimate D2E/DX2                !
 ! A133  A(40,41,42)           119.6184         estimate D2E/DX2                !
 ! A134  A(40,41,73)           120.1904         estimate D2E/DX2                !
 ! A135  A(42,41,73)           120.191          estimate D2E/DX2                !
 ! A136  A(41,42,43)           120.3291         estimate D2E/DX2                !
 ! A137  A(41,42,74)           119.8583         estimate D2E/DX2                !
 ! A138  A(43,42,74)           119.8111         estimate D2E/DX2                !
 ! A139  A(38,43,42)           120.5566         estimate D2E/DX2                !
 ! A140  A(38,43,75)           119.7068         estimate D2E/DX2                !
 ! A141  A(42,43,75)           119.7115         estimate D2E/DX2                !
 ! A142  A(33,44,37)           121.0928         estimate D2E/DX2                !
 ! A143  A(33,44,76)           119.4266         estimate D2E/DX2                !
 ! A144  A(37,44,76)           119.4746         estimate D2E/DX2                !
 ! D1    D(45,1,2,3)            59.5866         estimate D2E/DX2                !
 ! D2    D(45,1,2,4)           -64.4465         estimate D2E/DX2                !
 ! D3    D(45,1,2,15)         -176.491          estimate D2E/DX2                !
 ! D4    D(46,1,2,3)           -60.597          estimate D2E/DX2                !
 ! D5    D(46,1,2,4)           175.3699         estimate D2E/DX2                !
 ! D6    D(46,1,2,15)           63.3254         estimate D2E/DX2                !
 ! D7    D(47,1,2,3)           179.5201         estimate D2E/DX2                !
 ! D8    D(47,1,2,4)            55.4871         estimate D2E/DX2                !
 ! D9    D(47,1,2,15)          -56.5575         estimate D2E/DX2                !
 ! D10   D(1,2,3,48)            57.8834         estimate D2E/DX2                !
 ! D11   D(1,2,3,49)           -62.1999         estimate D2E/DX2                !
 ! D12   D(1,2,3,50)           177.6579         estimate D2E/DX2                !
 ! D13   D(4,2,3,48)          -178.6649         estimate D2E/DX2                !
 ! D14   D(4,2,3,49)            61.2517         estimate D2E/DX2                !
 ! D15   D(4,2,3,50)           -58.8904         estimate D2E/DX2                !
 ! D16   D(15,2,3,48)          -65.7273         estimate D2E/DX2                !
 ! D17   D(15,2,3,49)          174.1893         estimate D2E/DX2                !
 ! D18   D(15,2,3,50)           54.0471         estimate D2E/DX2                !
 ! D19   D(1,2,4,5)             66.3135         estimate D2E/DX2                !
 ! D20   D(1,2,4,9)           -114.4008         estimate D2E/DX2                !
 ! D21   D(3,2,4,5)            -56.9453         estimate D2E/DX2                !
 ! D22   D(3,2,4,9)            122.3404         estimate D2E/DX2                !
 ! D23   D(15,2,4,5)          -175.8511         estimate D2E/DX2                !
 ! D24   D(15,2,4,9)             3.4345         estimate D2E/DX2                !
 ! D25   D(1,2,15,10)          114.1985         estimate D2E/DX2                !
 ! D26   D(1,2,15,14)          -67.5462         estimate D2E/DX2                !
 ! D27   D(3,2,15,10)         -122.5236         estimate D2E/DX2                !
 ! D28   D(3,2,15,14)           55.7317         estimate D2E/DX2                !
 ! D29   D(4,2,15,10)           -3.4604         estimate D2E/DX2                !
 ! D30   D(4,2,15,14)          174.7949         estimate D2E/DX2                !
 ! D31   D(2,4,5,6)            178.802          estimate D2E/DX2                !
 ! D32   D(2,4,5,51)            -0.7292         estimate D2E/DX2                !
 ! D33   D(9,4,5,6)             -0.4246         estimate D2E/DX2                !
 ! D34   D(9,4,5,51)          -179.9558         estimate D2E/DX2                !
 ! D35   D(2,4,9,8)           -179.3193         estimate D2E/DX2                !
 ! D36   D(2,4,9,10)            -2.2453         estimate D2E/DX2                !
 ! D37   D(5,4,9,8)              0.0378         estimate D2E/DX2                !
 ! D38   D(5,4,9,10)           177.1118         estimate D2E/DX2                !
 ! D39   D(4,5,6,7)              0.4411         estimate D2E/DX2                !
 ! D40   D(4,5,6,52)          -179.3957         estimate D2E/DX2                !
 ! D41   D(51,5,6,7)           179.977          estimate D2E/DX2                !
 ! D42   D(51,5,6,52)            0.1402         estimate D2E/DX2                !
 ! D43   D(5,6,7,8)             -0.0658         estimate D2E/DX2                !
 ! D44   D(5,6,7,53)          -179.7708         estimate D2E/DX2                !
 ! D45   D(52,6,7,8)           179.771          estimate D2E/DX2                !
 ! D46   D(52,6,7,53)            0.066          estimate D2E/DX2                !
 ! D47   D(6,7,8,9)             -0.3224         estimate D2E/DX2                !
 ! D48   D(6,7,8,54)          -179.5721         estimate D2E/DX2                !
 ! D49   D(53,7,8,9)           179.3821         estimate D2E/DX2                !
 ! D50   D(53,7,8,54)            0.1324         estimate D2E/DX2                !
 ! D51   D(7,8,9,4)              0.3367         estimate D2E/DX2                !
 ! D52   D(7,8,9,10)          -176.0203         estimate D2E/DX2                !
 ! D53   D(54,8,9,4)           179.5871         estimate D2E/DX2                !
 ! D54   D(54,8,9,10)            3.2302         estimate D2E/DX2                !
 ! D55   D(4,9,10,11)         -176.3809         estimate D2E/DX2                !
 ! D56   D(4,9,10,15)           -0.0666         estimate D2E/DX2                !
 ! D57   D(8,9,10,11)            0.317          estimate D2E/DX2                !
 ! D58   D(8,9,10,15)          176.6313         estimate D2E/DX2                !
 ! D59   D(9,10,11,12)         173.4356         estimate D2E/DX2                !
 ! D60   D(9,10,11,55)          -4.7107         estimate D2E/DX2                !
 ! D61   D(15,10,11,12)         -2.4395         estimate D2E/DX2                !
 ! D62   D(15,10,11,55)        179.4142         estimate D2E/DX2                !
 ! D63   D(9,10,15,2)            2.3452         estimate D2E/DX2                !
 ! D64   D(9,10,15,14)        -176.047          estimate D2E/DX2                !
 ! D65   D(11,10,15,2)         178.9907         estimate D2E/DX2                !
 ! D66   D(11,10,15,14)          0.5984         estimate D2E/DX2                !
 ! D67   D(10,11,12,13)          2.1826         estimate D2E/DX2                !
 ! D68   D(10,11,12,22)       -174.8835         estimate D2E/DX2                !
 ! D69   D(55,11,12,13)       -179.6551         estimate D2E/DX2                !
 ! D70   D(55,11,12,22)          3.2788         estimate D2E/DX2                !
 ! D71   D(11,12,13,14)         -0.0735         estimate D2E/DX2                !
 ! D72   D(11,12,13,16)       -177.3673         estimate D2E/DX2                !
 ! D73   D(22,12,13,14)        177.4881         estimate D2E/DX2                !
 ! D74   D(22,12,13,16)          0.1943         estimate D2E/DX2                !
 ! D75   D(11,12,22,21)        175.3736         estimate D2E/DX2                !
 ! D76   D(11,12,22,23)          5.1454         estimate D2E/DX2                !
 ! D77   D(13,12,22,21)         -2.0088         estimate D2E/DX2                !
 ! D78   D(13,12,22,23)       -172.2369         estimate D2E/DX2                !
 ! D79   D(12,13,14,15)         -1.8318         estimate D2E/DX2                !
 ! D80   D(12,13,14,56)        179.9156         estimate D2E/DX2                !
 ! D81   D(16,13,14,15)        174.5935         estimate D2E/DX2                !
 ! D82   D(16,13,14,56)         -3.6591         estimate D2E/DX2                !
 ! D83   D(12,13,16,17)       -179.5782         estimate D2E/DX2                !
 ! D84   D(12,13,16,21)          1.6246         estimate D2E/DX2                !
 ! D85   D(14,13,16,17)          3.641          estimate D2E/DX2                !
 ! D86   D(14,13,16,21)       -175.1563         estimate D2E/DX2                !
 ! D87   D(13,14,15,2)        -176.4926         estimate D2E/DX2                !
 ! D88   D(13,14,15,10)          1.59           estimate D2E/DX2                !
 ! D89   D(56,14,15,2)           1.7337         estimate D2E/DX2                !
 ! D90   D(56,14,15,10)        179.8163         estimate D2E/DX2                !
 ! D91   D(13,16,17,18)       -178.3054         estimate D2E/DX2                !
 ! D92   D(13,16,17,57)          1.6491         estimate D2E/DX2                !
 ! D93   D(21,16,17,18)          0.3691         estimate D2E/DX2                !
 ! D94   D(21,16,17,57)       -179.6764         estimate D2E/DX2                !
 ! D95   D(13,16,21,20)        178.2411         estimate D2E/DX2                !
 ! D96   D(13,16,21,22)         -2.8749         estimate D2E/DX2                !
 ! D97   D(17,16,21,20)         -0.7519         estimate D2E/DX2                !
 ! D98   D(17,16,21,22)        178.1321         estimate D2E/DX2                !
 ! D99   D(16,17,18,19)          0.248          estimate D2E/DX2                !
 ! D100  D(16,17,18,58)       -179.9657         estimate D2E/DX2                !
 ! D101  D(57,17,18,19)       -179.7063         estimate D2E/DX2                !
 ! D102  D(57,17,18,58)          0.08           estimate D2E/DX2                !
 ! D103  D(17,18,19,20)         -0.5181         estimate D2E/DX2                !
 ! D104  D(17,18,19,59)        179.4919         estimate D2E/DX2                !
 ! D105  D(58,18,19,20)        179.6943         estimate D2E/DX2                !
 ! D106  D(58,18,19,59)         -0.2957         estimate D2E/DX2                !
 ! D107  D(18,19,20,21)          0.1404         estimate D2E/DX2                !
 ! D108  D(18,19,20,60)        179.9197         estimate D2E/DX2                !
 ! D109  D(59,19,20,21)       -179.8696         estimate D2E/DX2                !
 ! D110  D(59,19,20,60)         -0.0902         estimate D2E/DX2                !
 ! D111  D(19,20,21,16)          0.4869         estimate D2E/DX2                !
 ! D112  D(19,20,21,22)       -178.1298         estimate D2E/DX2                !
 ! D113  D(60,20,21,16)       -179.2905         estimate D2E/DX2                !
 ! D114  D(60,20,21,22)          2.0928         estimate D2E/DX2                !
 ! D115  D(16,21,22,12)          3.0462         estimate D2E/DX2                !
 ! D116  D(16,21,22,23)        172.2321         estimate D2E/DX2                !
 ! D117  D(20,21,22,12)       -178.2016         estimate D2E/DX2                !
 ! D118  D(20,21,22,23)         -9.0156         estimate D2E/DX2                !
 ! D119  D(12,22,23,24)       -159.9169         estimate D2E/DX2                !
 ! D120  D(12,22,23,32)         85.8745         estimate D2E/DX2                !
 ! D121  D(21,22,23,24)         32.0344         estimate D2E/DX2                !
 ! D122  D(21,22,23,32)        -82.1742         estimate D2E/DX2                !
 ! D123  D(22,23,24,25)         47.9533         estimate D2E/DX2                !
 ! D124  D(22,23,24,31)       -134.4216         estimate D2E/DX2                !
 ! D125  D(32,23,24,25)        176.8763         estimate D2E/DX2                !
 ! D126  D(32,23,24,31)         -5.4986         estimate D2E/DX2                !
 ! D127  D(22,23,32,31)        137.3008         estimate D2E/DX2                !
 ! D128  D(22,23,32,33)       -101.663          estimate D2E/DX2                !
 ! D129  D(22,23,32,67)         23.2496         estimate D2E/DX2                !
 ! D130  D(24,23,32,31)          4.9323         estimate D2E/DX2                !
 ! D131  D(24,23,32,33)        125.9684         estimate D2E/DX2                !
 ! D132  D(24,23,32,67)       -109.119          estimate D2E/DX2                !
 ! D133  D(23,24,25,26)       -172.5514         estimate D2E/DX2                !
 ! D134  D(23,24,25,30)          6.7759         estimate D2E/DX2                !
 ! D135  D(31,24,25,26)         10.9653         estimate D2E/DX2                !
 ! D136  D(31,24,25,30)       -169.7075         estimate D2E/DX2                !
 ! D137  D(23,24,31,32)          5.4929         estimate D2E/DX2                !
 ! D138  D(23,24,31,66)       -165.5645         estimate D2E/DX2                !
 ! D139  D(25,24,31,32)       -177.3111         estimate D2E/DX2                !
 ! D140  D(25,24,31,66)         11.6314         estimate D2E/DX2                !
 ! D141  D(24,25,26,27)        179.1947         estimate D2E/DX2                !
 ! D142  D(24,25,26,61)         -0.3914         estimate D2E/DX2                !
 ! D143  D(30,25,26,27)         -0.1429         estimate D2E/DX2                !
 ! D144  D(30,25,26,61)       -179.729          estimate D2E/DX2                !
 ! D145  D(24,25,30,29)       -179.1355         estimate D2E/DX2                !
 ! D146  D(24,25,30,65)          1.3547         estimate D2E/DX2                !
 ! D147  D(26,25,30,29)          0.1966         estimate D2E/DX2                !
 ! D148  D(26,25,30,65)       -179.3131         estimate D2E/DX2                !
 ! D149  D(25,26,27,28)         -0.09           estimate D2E/DX2                !
 ! D150  D(25,26,27,62)       -179.8826         estimate D2E/DX2                !
 ! D151  D(61,26,27,28)        179.4906         estimate D2E/DX2                !
 ! D152  D(61,26,27,62)         -0.302          estimate D2E/DX2                !
 ! D153  D(26,27,28,29)          0.2707         estimate D2E/DX2                !
 ! D154  D(26,27,28,63)       -179.7418         estimate D2E/DX2                !
 ! D155  D(62,27,28,29)       -179.9369         estimate D2E/DX2                !
 ! D156  D(62,27,28,63)          0.0505         estimate D2E/DX2                !
 ! D157  D(27,28,29,30)         -0.217          estimate D2E/DX2                !
 ! D158  D(27,28,29,64)        179.8534         estimate D2E/DX2                !
 ! D159  D(63,28,29,30)        179.7956         estimate D2E/DX2                !
 ! D160  D(63,28,29,64)         -0.134          estimate D2E/DX2                !
 ! D161  D(28,29,30,25)         -0.0176         estimate D2E/DX2                !
 ! D162  D(28,29,30,65)        179.49           estimate D2E/DX2                !
 ! D163  D(64,29,30,25)        179.9122         estimate D2E/DX2                !
 ! D164  D(64,29,30,65)         -0.5803         estimate D2E/DX2                !
 ! D165  D(24,31,32,23)         -5.1526         estimate D2E/DX2                !
 ! D166  D(24,31,32,33)       -116.5207         estimate D2E/DX2                !
 ! D167  D(24,31,32,67)        105.7478         estimate D2E/DX2                !
 ! D168  D(66,31,32,23)        166.4944         estimate D2E/DX2                !
 ! D169  D(66,31,32,33)         55.1262         estimate D2E/DX2                !
 ! D170  D(66,31,32,67)        -82.6053         estimate D2E/DX2                !
 ! D171  D(23,32,33,34)        -77.1957         estimate D2E/DX2                !
 ! D172  D(23,32,33,44)         96.1444         estimate D2E/DX2                !
 ! D173  D(31,32,33,34)         19.652          estimate D2E/DX2                !
 ! D174  D(31,32,33,44)       -167.0079         estimate D2E/DX2                !
 ! D175  D(67,32,33,34)        158.298          estimate D2E/DX2                !
 ! D176  D(67,32,33,44)        -28.3619         estimate D2E/DX2                !
 ! D177  D(32,33,34,35)        173.4925         estimate D2E/DX2                !
 ! D178  D(32,33,34,68)         -5.5762         estimate D2E/DX2                !
 ! D179  D(44,33,34,35)          0.1231         estimate D2E/DX2                !
 ! D180  D(44,33,34,68)       -178.9456         estimate D2E/DX2                !
 ! D181  D(32,33,44,37)       -172.0355         estimate D2E/DX2                !
 ! D182  D(32,33,44,76)          7.0756         estimate D2E/DX2                !
 ! D183  D(34,33,44,37)          1.3572         estimate D2E/DX2                !
 ! D184  D(34,33,44,76)       -179.5318         estimate D2E/DX2                !
 ! D185  D(33,34,35,36)         -1.3266         estimate D2E/DX2                !
 ! D186  D(33,34,35,69)       -179.8756         estimate D2E/DX2                !
 ! D187  D(68,34,35,36)        177.7339         estimate D2E/DX2                !
 ! D188  D(68,34,35,69)         -0.8151         estimate D2E/DX2                !
 ! D189  D(34,35,36,37)          1.0706         estimate D2E/DX2                !
 ! D190  D(34,35,36,70)       -177.0147         estimate D2E/DX2                !
 ! D191  D(69,35,36,37)        179.6192         estimate D2E/DX2                !
 ! D192  D(69,35,36,70)          1.534          estimate D2E/DX2                !
 ! D193  D(35,36,37,38)       -176.9353         estimate D2E/DX2                !
 ! D194  D(35,36,37,44)          0.3849         estimate D2E/DX2                !
 ! D195  D(70,36,37,38)          1.1536         estimate D2E/DX2                !
 ! D196  D(70,36,37,44)        178.4739         estimate D2E/DX2                !
 ! D197  D(36,37,38,39)        -37.7074         estimate D2E/DX2                !
 ! D198  D(36,37,38,43)        140.0272         estimate D2E/DX2                !
 ! D199  D(44,37,38,39)        145.0474         estimate D2E/DX2                !
 ! D200  D(44,37,38,43)        -37.218          estimate D2E/DX2                !
 ! D201  D(36,37,44,33)         -1.6019         estimate D2E/DX2                !
 ! D202  D(36,37,44,76)        179.2875         estimate D2E/DX2                !
 ! D203  D(38,37,44,33)        175.688          estimate D2E/DX2                !
 ! D204  D(38,37,44,76)         -3.4226         estimate D2E/DX2                !
 ! D205  D(37,38,39,40)        176.942          estimate D2E/DX2                !
 ! D206  D(37,38,39,71)         -4.1295         estimate D2E/DX2                !
 ! D207  D(43,38,39,40)         -0.8358         estimate D2E/DX2                !
 ! D208  D(43,38,39,71)        178.0927         estimate D2E/DX2                !
 ! D209  D(37,38,43,42)       -176.4179         estimate D2E/DX2                !
 ! D210  D(37,38,43,75)          1.7544         estimate D2E/DX2                !
 ! D211  D(39,38,43,42)          1.3655         estimate D2E/DX2                !
 ! D212  D(39,38,43,75)        179.5377         estimate D2E/DX2                !
 ! D213  D(38,39,40,41)         -0.3269         estimate D2E/DX2                !
 ! D214  D(38,39,40,72)        179.8678         estimate D2E/DX2                !
 ! D215  D(71,39,40,41)       -179.2554         estimate D2E/DX2                !
 ! D216  D(71,39,40,72)          0.9394         estimate D2E/DX2                !
 ! D217  D(39,40,41,42)          0.9737         estimate D2E/DX2                !
 ! D218  D(39,40,41,73)       -179.2091         estimate D2E/DX2                !
 ! D219  D(72,40,41,42)       -179.2215         estimate D2E/DX2                !
 ! D220  D(72,40,41,73)          0.5956         estimate D2E/DX2                !
 ! D221  D(40,41,42,43)         -0.4449         estimate D2E/DX2                !
 ! D222  D(40,41,42,74)       -179.9857         estimate D2E/DX2                !
 ! D223  D(73,41,42,43)        179.7379         estimate D2E/DX2                !
 ! D224  D(73,41,42,74)          0.1971         estimate D2E/DX2                !
 ! D225  D(41,42,43,38)         -0.7372         estimate D2E/DX2                !
 ! D226  D(41,42,43,75)       -178.9093         estimate D2E/DX2                !
 ! D227  D(74,42,43,38)        178.8038         estimate D2E/DX2                !
 ! D228  D(74,42,43,75)          0.6317         estimate D2E/DX2                !
 --------------------------------------------------------------------------------
 Trust Radius=3.00D-01 FncErr=1.00D-07 GrdErr=1.00D-06 EigMax=2.50D+02 EigMin=1.00D-04
 Number of steps in this run=    456 maximum allowed number of steps=    456.
 GradGradGradGradGradGradGradGradGradGradGradGradGradGradGradGradGradGrad

 Leave Link  103 at Sat Nov  5 00:36:48 2022, MaxMem=   805306368 cpu:               0.3 elap:               0.1
 (Enter /home/wykgroup/appl/g16/l202.exe)
 Stoichiometry    C42H32N2
 Framework group  C1[X(C42H32N2)]
 Deg. of freedom   222
 Full point group                 C1      NOp   1
 Largest Abelian subgroup         C1      NOp   1
 Largest concise Abelian subgroup C1      NOp   1
                         Standard orientation:                         
 ---------------------------------------------------------------------
 Center     Atomic      Atomic             Coordinates (Angstroms)
 Number     Number       Type             X           Y           Z
 ---------------------------------------------------------------------
      1          6           0       -2.750453    4.214946    1.633642
      2          6           0       -2.832327    3.060961    0.627852
      3          6           0       -3.488723    3.534424   -0.671472
      4          6           0       -3.567331    1.882345    1.227120
      5          6           0       -4.891096    1.783148    1.596669
      6          6           0       -5.355115    0.578827    2.108722
      7          6           0       -4.504278   -0.505335    2.256559
      8          6           0       -3.170989   -0.412703    1.895400
      9          6           0       -2.708219    0.785389    1.376826
     10          6           0       -1.402553    1.142267    0.850224
     11          6           0       -0.265523    0.367676    0.721375
     12          6           0        0.797647    0.950008    0.048429
     13          6           0        0.753359    2.275813   -0.441824
     14          6           0       -0.389708    3.053499   -0.258996
     15          6           0       -1.462202    2.469801    0.371857
     16          6           0        1.996487    2.495522   -1.124471
     17          6           0        2.536338    3.585104   -1.795783
     18          6           0        3.776862    3.452814   -2.386413
     19          6           0        4.478655    2.251196   -2.319729
     20          6           0        3.968416    1.153223   -1.654309
     21          6           0        2.725569    1.282663   -1.052304
     22          7           0        2.001311    0.377424   -0.304347
     23          7           0        2.239412   -0.955924   -0.089755
     24          6           0        3.509650   -1.571297   -0.025915
     25          6           0        4.659089   -1.133063    0.730628
     26          6           0        5.889283   -1.770701    0.562119
     27          6           0        6.995733   -1.345855    1.270013
     28          6           0        6.891953   -0.281221    2.151889
     29          6           0        5.673531    0.354193    2.327257
     30          6           0        4.561462   -0.065644    1.623473
     31          6           0        3.172123   -2.614029   -0.818304
     32          6           0        1.822530   -2.000564   -1.091349
     33          6           0        0.568415   -2.687871   -0.653250
     34          6           0        0.612150   -3.658680    0.339875
     35          6           0       -0.563916   -4.193313    0.834805
     36          6           0       -1.785078   -3.747086    0.365778
     37          6           0       -1.850978   -2.769868   -0.626545
     38          6           0       -3.154639   -2.253965   -1.070529
     39          6           0       -4.255322   -3.100246   -1.184599
     40          6           0       -5.494218   -2.602189   -1.541341
     41          6           0       -5.656606   -1.248893   -1.783774
     42          6           0       -4.566949   -0.400938   -1.686571
     43          6           0       -3.324893   -0.897774   -1.340766
     44          6           0       -0.660728   -2.261396   -1.138233
     45          1           0       -3.745629    4.592262    1.857945
     46          1           0       -2.151607    5.027259    1.227950
     47          1           0       -2.291345    3.873720    2.559080
     48          1           0       -2.930963    4.365884   -1.096157
     49          1           0       -4.509167    3.860987   -0.484712
     50          1           0       -3.508350    2.725270   -1.398316
     51          1           0       -5.565118    2.620636    1.486202
     52          1           0       -6.393189    0.484933    2.393055
     53          1           0       -4.888412   -1.433728    2.653750
     54          1           0       -2.508777   -1.258925    2.003763
     55          1           0       -0.211643   -0.642823    1.092898
     56          1           0       -0.428123    4.066658   -0.630137
     57          1           0        1.991515    4.515618   -1.852321
     58          1           0        4.212938    4.289255   -2.912238
     59          1           0        5.443730    2.174845   -2.798512
     60          1           0        4.522746    0.227888   -1.611795
     61          1           0        5.965520   -2.594117   -0.132395
     62          1           0        7.945156   -1.842748    1.133243
     63          1           0        7.760076    0.051731    2.701270
     64          1           0        5.590467    1.182325    3.015756
     65          1           0        3.611052    0.425735    1.767857
     66          1           0        3.587399   -3.570240   -1.053701
     67          1           0        1.720553   -1.568268   -2.091037
     68          1           0        1.566132   -3.979251    0.730332
     69          1           0       -0.527802   -4.946607    1.608419
     70          1           0       -2.697885   -4.135740    0.792527
     71          1           0       -4.135453   -4.159623   -1.009114
     72          1           0       -6.337606   -3.272115   -1.627609
     73          1           0       -6.627298   -0.857505   -2.050105
     74          1           0       -4.689284    0.655526   -1.874660
     75          1           0       -2.485573   -0.224813   -1.250600
     76          1           0       -0.693546   -1.511668   -1.916156
 ---------------------------------------------------------------------
 Rotational constants (GHZ):           0.1278613           0.0591443           0.0483672
 Leave Link  202 at Sat Nov  5 00:36:48 2022, MaxMem=   805306368 cpu:               0.6 elap:               0.1
 (Enter /home/wykgroup/appl/g16/l301.exe)
 Standard basis: 6-31G(d) (6D, 7F)
 Ernie: Thresh=  0.10000D-02 Tol=  0.10000D-05 Strict=F.
 There are   724 symmetry adapted cartesian basis functions of A   symmetry.
 There are   724 symmetry adapted basis functions of A   symmetry.
   724 basis functions,  1360 primitive gaussians,   724 cartesian basis functions
   149 alpha electrons      149 beta electrons
       nuclear repulsion energy      5069.1949395908 Hartrees.
 IExCor=  402 DFT=T Ex+Corr=B3LYP ExCW=0 ScaHFX=  0.200000
 ScaDFX=  0.800000  0.720000  1.000000  0.810000 ScalE2=  1.000000  1.000000
 IRadAn=      5 IRanWt=     -1 IRanGd=            0 ICorTp=0 IEmpDi=  4
 NAtoms=   76 NActive=   76 NUniq=   76 SFac= 1.00D+00 NAtFMM=   60 NAOKFM=T Big=T
 Integral buffers will be    131072 words long.
 Raffenetti 2 integral format.
 Two-electron integral symmetry is turned on.
 Leave Link  301 at Sat Nov  5 00:36:48 2022, MaxMem=   805306368 cpu:               0.5 elap:               0.1
 (Enter /home/wykgroup/appl/g16/l302.exe)
 NPDir=0 NMtPBC=     1 NCelOv=     1 NCel=       1 NClECP=     1 NCelD=      1
         NCelK=      1 NCelE2=     1 NClLst=     1 CellRange=     0.0.
 One-electron integrals computed using PRISM.
 One-electron integral symmetry used in STVInt
 NBasis=   724 RedAO= T EigKep=  2.32D-04  NBF=   724
 NBsUse=   724 1.00D-06 EigRej= -1.00D+00 NBFU=   724
 Precomputing XC quadrature grid using
 IXCGrd= 4 IRadAn=           5 IRanWt=          -1 IRanGd=           0 AccXCQ= 0.00D+00.
 Generated NRdTot=       0 NPtTot=           0 NUsed=           0 NTot=          32
 NSgBfM=   711   711   711   711   711 MxSgAt=    76 MxSgA2=    76.
 Leave Link  302 at Sat Nov  5 00:36:51 2022, MaxMem=   805306368 cpu:              15.7 elap:               2.4
 (Enter /home/wykgroup/appl/g16/l303.exe)
 DipDrv:  MaxL=1.
 Leave Link  303 at Sat Nov  5 00:36:51 2022, MaxMem=   805306368 cpu:               1.2 elap:               0.2
 (Enter /home/wykgroup/appl/g16/l401.exe)
 ExpMin= 1.61D-01 ExpMax= 4.17D+03 ExpMxC= 6.27D+02 IAcc=3 IRadAn=         5 AccDes= 0.00D+00
 Harris functional with IExCor=  402 and IRadAn=       5 diagonalized for initial guess.
 HarFok:  IExCor=  402 AccDes= 0.00D+00 IRadAn=         5 IDoV= 1 UseB2=F ITyADJ=14
 ICtDFT=  3500011 ScaDFX=  1.000000  1.000000  1.000000  1.000000
 FoFCou: FMM=F IPFlag=           0 FMFlag=      100000 FMFlg1=        2001
         NFxFlg=           0 DoJE=T BraDBF=F KetDBF=T FulRan=T
         wScrn=  0.000000 ICntrl=       500 IOpCl=  0 I1Cent=   200000004 NGrid=           0
         NMat0=    1 NMatS0=      1 NMatT0=    0 NMatD0=    1 NMtDS0=    0 NMtDT0=    0
 Petite list used in FoFCou.
 Harris En= -1729.25057064652    
 JPrj=0 DoOrth=F DoCkMO=F.
 Leave Link  401 at Sat Nov  5 00:37:00 2022, MaxMem=   805306368 cpu:              64.5 elap:               9.2
 (Enter /home/wykgroup/appl/g16/l502.exe)
 Integral symmetry usage will be decided dynamically.
 Closed shell SCF:
 Using DIIS extrapolation, IDIIS=  1040.
 NGot=   805306368 LenX=   804245118 LenY=   803720218
 Requested convergence on RMS density matrix=1.00D-08 within  32 cycles.
 Requested convergence on MAX density matrix=1.00D-06.
 Requested convergence on             energy=1.00D-06.
 No special actions if energy rises.
 Fock matrices will be formed incrementally for  20 cycles.
 Integral accuracy reduced to 1.0D-05 until final iterations.

 Cycle   1  Pass 0  IDiag  1:
 FoFJK:  IHMeth= 1 ICntrl=       0 DoSepK=F KAlg= 0 I1Cent=           0 FoldK=F
 IRaf= 910000000 NMat=       1 IRICut=       1 DoRegI=T DoRafI=F ISym2E= 0 IDoP0=0 IntGTp=1.
 FoFCou: FMM=T IPFlag=           0 FMFlag=      100000 FMFlg1=        2001
         NFxFlg=           0 DoJE=F BraDBF=F KetDBF=F FulRan=T
         wScrn=  0.000000 ICntrl=         0 IOpCl=  0 I1Cent=           0 NGrid=           0
         NMat0=    1 NMatS0=      1 NMatT0=    0 NMatD0=    1 NMtDS0=    0 NMtDT0=    0
 Symmetry not used in FoFCou.
 FMM levels:  10  Number of levels for PrismC:   9
 E= -1728.20542804792    
 DIIS: error= 2.99D-02 at cycle   1 NSaved=   1.
 NSaved= 1 IEnMin= 1 EnMin= -1728.20542804792     IErMin= 1 ErrMin= 2.99D-02
 ErrMax= 2.99D-02  0.00D+00 EMaxC= 1.00D-01 BMatC= 9.15D-01 BMatP= 9.15D-01
 IDIUse=3 WtCom= 7.01D-01 WtEn= 2.99D-01
 Coeff-Com:  0.100D+01
 Coeff-En:   0.100D+01
 Coeff:      0.100D+01
 Gap=     0.257 Goal=   None    Shift=    0.000
 GapD=    0.257 DampG=1.000 DampE=0.500 DampFc=0.5000 IDamp=-1.
 Damping current iteration by 5.00D-01
 RMSDP=3.56D-03 MaxDP=1.36D-01              OVMax= 2.37D-01

 Cycle   2  Pass 0  IDiag  1:
 RMSU=  1.72D-03    CP:  9.66D-01
 E= -1728.63312496944     Delta-E=       -0.427696921525 Rises=F Damp=T
 DIIS: error= 8.67D-03 at cycle   2 NSaved=   2.
 NSaved= 2 IEnMin= 2 EnMin= -1728.63312496944     IErMin= 2 ErrMin= 8.67D-03
 ErrMax= 8.67D-03  0.00D+00 EMaxC= 1.00D-01 BMatC= 8.74D-02 BMatP= 9.15D-01
 IDIUse=3 WtCom= 9.13D-01 WtEn= 8.67D-02
 Coeff-Com:  0.658D-01 0.934D+00
 Coeff-En:   0.108D+00 0.892D+00
 Coeff:      0.695D-01 0.931D+00
 Gap=     0.173 Goal=   None    Shift=    0.000
 RMSDP=1.48D-03 MaxDP=1.42D-01 DE=-4.28D-01 OVMax= 3.50D-01

 Cycle   3  Pass 0  IDiag  1:
 RMSU=  1.41D-03    CP:  9.40D-01  8.33D-01
 E= -1729.01936858367     Delta-E=       -0.386243614225 Rises=F Damp=F
 DIIS: error= 1.37D-02 at cycle   3 NSaved=   3.
 NSaved= 3 IEnMin= 3 EnMin= -1729.01936858367     IErMin= 2 ErrMin= 8.67D-03
 ErrMax= 1.37D-02  0.00D+00 EMaxC= 1.00D-01 BMatC= 1.71D-01 BMatP= 8.74D-02
 IDIUse=2 WtCom= 0.00D+00 WtEn= 1.00D+00
 Coeff-En:   0.000D+00 0.000D+00 0.100D+01
 Coeff:      0.000D+00 0.000D+00 0.100D+01
 Gap=     0.273 Goal=   None    Shift=    0.000
 RMSDP=2.48D-03 MaxDP=2.47D-01 DE=-3.86D-01 OVMax= 2.92D-01

 Cycle   4  Pass 0  IDiag  1:
 RMSU=  1.36D-03    CP:  9.46D-01  1.37D+00 -3.08D-01
 E= -1728.10204111037     Delta-E=        0.917327473299 Rises=F Damp=F
 DIIS: error= 3.97D-02 at cycle   4 NSaved=   4.
 NSaved= 4 IEnMin= 3 EnMin= -1729.01936858367     IErMin= 2 ErrMin= 8.67D-03
 ErrMax= 3.97D-02  0.00D+00 EMaxC= 1.00D-01 BMatC= 1.06D+00 BMatP= 8.74D-02
 IDIUse=2 WtCom= 0.00D+00 WtEn= 1.00D+00
 Coeff-En:   0.000D+00 0.000D+00 0.798D+00 0.202D+00
 Coeff:      0.000D+00 0.000D+00 0.798D+00 0.202D+00
 Gap=     0.188 Goal=   None    Shift=    0.000
 RMSDP=1.30D-03 MaxDP=1.39D-01 DE= 9.17D-01 OVMax= 2.38D-01

 Cycle   5  Pass 0  IDiag  1:
 RMSU=  3.13D-04    CP:  9.43D-01  1.09D+00  3.36D-01  4.70D-01
 E= -1729.10689297886     Delta-E=       -1.004851868486 Rises=F Damp=F
 DIIS: error= 1.18D-02 at cycle   5 NSaved=   5.
 NSaved= 5 IEnMin= 5 EnMin= -1729.10689297886     IErMin= 2 ErrMin= 8.67D-03
 ErrMax= 1.18D-02  0.00D+00 EMaxC= 1.00D-01 BMatC= 9.09D-02 BMatP= 8.74D-02
 IDIUse=3 WtCom= 8.82D-01 WtEn= 1.18D-01
 Coeff-Com:  0.383D-02 0.925D-02 0.329D+00-0.918D-01 0.750D+00
 Coeff-En:   0.000D+00 0.000D+00 0.384D+00 0.000D+00 0.616D+00
 Coeff:      0.338D-02 0.816D-02 0.335D+00-0.809D-01 0.734D+00
 Gap=     0.153 Goal=   None    Shift=    0.000
 RMSDP=5.34D-04 MaxDP=5.31D-02 DE=-1.00D+00 OVMax= 1.00D-01

 Cycle   6  Pass 0  IDiag  1:
 RMSU=  9.68D-05    CP:  9.42D-01  9.74D-01  6.13D-01  2.62D-01  7.98D-01
 E= -1729.19985304165     Delta-E=       -0.092960062793 Rises=F Damp=F
 DIIS: error= 7.35D-04 at cycle   6 NSaved=   6.
 NSaved= 6 IEnMin= 6 EnMin= -1729.19985304165     IErMin= 6 ErrMin= 7.35D-04
 ErrMax= 7.35D-04  0.00D+00 EMaxC= 1.00D-01 BMatC= 9.40D-04 BMatP= 8.74D-02
 IDIUse=3 WtCom= 9.93D-01 WtEn= 7.35D-03
 Coeff-Com:  0.316D-03 0.446D-02 0.152D+00-0.692D-01 0.430D+00 0.482D+00
 Coeff-En:   0.000D+00 0.000D+00 0.000D+00 0.000D+00 0.000D+00 0.100D+01
 Coeff:      0.313D-03 0.443D-02 0.151D+00-0.687D-01 0.427D+00 0.485D+00
 Gap=     0.148 Goal=   None    Shift=    0.000
 RMSDP=5.92D-05 MaxDP=4.69D-03 DE=-9.30D-02 OVMax= 9.11D-03

 Cycle   7  Pass 0  IDiag  1:
 RMSU=  2.80D-05    CP:  9.42D-01  9.75D-01  6.13D-01  2.61D-01  8.42D-01
                    CP:  4.81D-01
 E= -1729.20072773871     Delta-E=       -0.000874697059 Rises=F Damp=F
 DIIS: error= 2.61D-04 at cycle   7 NSaved=   7.
 NSaved= 7 IEnMin= 7 EnMin= -1729.20072773871     IErMin= 7 ErrMin= 2.61D-04
 ErrMax= 2.61D-04  0.00D+00 EMaxC= 1.00D-01 BMatC= 8.59D-05 BMatP= 9.40D-04
 IDIUse=3 WtCom= 9.97D-01 WtEn= 2.61D-03
 Coeff-Com:  0.373D-03 0.167D-04 0.392D-01-0.189D-01 0.104D+00 0.241D+00
 Coeff-Com:  0.634D+00
 Coeff-En:   0.000D+00 0.000D+00 0.000D+00 0.000D+00 0.000D+00 0.806D-02
 Coeff-En:   0.992D+00
 Coeff:      0.372D-03 0.167D-04 0.390D-01-0.189D-01 0.104D+00 0.241D+00
 Coeff:      0.635D+00
 Gap=     0.148 Goal=   None    Shift=    0.000
 RMSDP=1.93D-05 MaxDP=1.66D-03 DE=-8.75D-04 OVMax= 3.39D-03

 Cycle   8  Pass 0  IDiag  1:
 RMSU=  1.25D-05    CP:  9.42D-01  9.74D-01  6.16D-01  2.59D-01  8.37D-01
                    CP:  5.76D-01  6.41D-01
 E= -1729.20078960890     Delta-E=       -0.000061870188 Rises=F Damp=F
 DIIS: error= 9.62D-05 at cycle   8 NSaved=   8.
 NSaved= 8 IEnMin= 8 EnMin= -1729.20078960890     IErMin= 8 ErrMin= 9.62D-05
 ErrMax= 9.62D-05  0.00D+00 EMaxC= 1.00D-01 BMatC= 2.10D-05 BMatP= 8.59D-05
 IDIUse=1 WtCom= 1.00D+00 WtEn= 0.00D+00
 Coeff-Com:  0.357D-03-0.126D-02 0.352D-02-0.979D-03-0.571D-03 0.914D-01
 Coeff-Com:  0.431D+00 0.476D+00
 Coeff:      0.357D-03-0.126D-02 0.352D-02-0.979D-03-0.571D-03 0.914D-01
 Coeff:      0.431D+00 0.476D+00
 Gap=     0.148 Goal=   None    Shift=    0.000
 RMSDP=8.55D-06 MaxDP=6.53D-04 DE=-6.19D-05 OVMax= 1.31D-03

 Initial convergence to 1.0D-05 achieved.  Increase integral accuracy.
 Cycle   9  Pass 1  IDiag  1:
 E= -1729.20079293242     Delta-E=       -0.000003323526 Rises=F Damp=F
 DIIS: error= 2.50D-04 at cycle   1 NSaved=   1.
 NSaved= 1 IEnMin= 1 EnMin= -1729.20079293242     IErMin= 1 ErrMin= 2.50D-04
 ErrMax= 2.50D-04  0.00D+00 EMaxC= 1.00D-01 BMatC= 3.42D-05 BMatP= 3.42D-05
 IDIUse=3 WtCom= 9.97D-01 WtEn= 2.50D-03
 Coeff-Com:  0.100D+01
 Coeff-En:   0.100D+01
 Coeff:      0.100D+01
 Gap=     0.148 Goal=   None    Shift=    0.000
 RMSDP=8.55D-06 MaxDP=6.53D-04 DE=-3.32D-06 OVMax= 7.42D-04

 Cycle  10  Pass 1  IDiag  1:
 RMSU=  1.80D-04    CP:  1.00D+00
 E= -1729.20082029240     Delta-E=       -0.000027359978 Rises=F Damp=F
 DIIS: error= 5.55D-05 at cycle   2 NSaved=   2.
 NSaved= 2 IEnMin= 2 EnMin= -1729.20082029240     IErMin= 2 ErrMin= 5.55D-05
 ErrMax= 5.55D-05  0.00D+00 EMaxC= 1.00D-01 BMatC= 3.54D-06 BMatP= 3.42D-05
 IDIUse=1 WtCom= 1.00D+00 WtEn= 0.00D+00
 Coeff-Com:  0.122D+00 0.878D+00
 Coeff:      0.122D+00 0.878D+00
 Gap=     0.148 Goal=   None    Shift=    0.000
 RMSDP=9.19D-06 MaxDP=4.49D-04 DE=-2.74D-05 OVMax= 1.19D-03

 Cycle  11  Pass 1  IDiag  1:
 RMSU=  9.01D-06    CP:  1.00D+00  1.01D+00
 E= -1729.20081149838     Delta-E=        0.000008794022 Rises=F Damp=F
 DIIS: error= 9.98D-05 at cycle   3 NSaved=   3.
 NSaved= 3 IEnMin= 2 EnMin= -1729.20082029240     IErMin= 2 ErrMin= 5.55D-05
 ErrMax= 9.98D-05  0.00D+00 EMaxC= 1.00D-01 BMatC= 1.15D-05 BMatP= 3.54D-06
 IDIUse=1 WtCom= 1.00D+00 WtEn= 0.00D+00
 Coeff-Com: -0.271D-02 0.646D+00 0.357D+00
 Coeff:     -0.271D-02 0.646D+00 0.357D+00
 Gap=     0.148 Goal=   None    Shift=    0.000
 RMSDP=5.94D-06 MaxDP=2.87D-04 DE= 8.79D-06 OVMax= 8.37D-04

 Cycle  12  Pass 1  IDiag  1:
 RMSU=  9.58D-07    CP:  1.00D+00  1.01D+00  3.50D-01
 E= -1729.20082405800     Delta-E=       -0.000012559623 Rises=F Damp=F
 DIIS: error= 6.34D-06 at cycle   4 NSaved=   4.
 NSaved= 4 IEnMin= 4 EnMin= -1729.20082405800     IErMin= 4 ErrMin= 6.34D-06
 ErrMax= 6.34D-06  0.00D+00 EMaxC= 1.00D-01 BMatC= 1.10D-07 BMatP= 3.54D-06
 IDIUse=1 WtCom= 1.00D+00 WtEn= 0.00D+00
 Coeff-Com: -0.352D-02 0.390D+00 0.222D+00 0.392D+00
 Coeff:     -0.352D-02 0.390D+00 0.222D+00 0.392D+00
 Gap=     0.148 Goal=   None    Shift=    0.000
 RMSDP=5.84D-07 MaxDP=4.53D-05 DE=-1.26D-05 OVMax= 8.76D-05

 Cycle  13  Pass 1  IDiag  1:
 RMSU=  2.92D-07    CP:  1.00D+00  1.01D+00  3.65D-01  4.92D-01
 E= -1729.20082416394     Delta-E=       -0.000000105936 Rises=F Damp=F
 DIIS: error= 1.80D-06 at cycle   5 NSaved=   5.
 NSaved= 5 IEnMin= 5 EnMin= -1729.20082416394     IErMin= 5 ErrMin= 1.80D-06
 ErrMax= 1.80D-06  0.00D+00 EMaxC= 1.00D-01 BMatC= 3.54D-09 BMatP= 1.10D-07
 IDIUse=1 WtCom= 1.00D+00 WtEn= 0.00D+00
 Coeff-Com: -0.211D-02 0.221D+00 0.127D+00 0.246D+00 0.408D+00
 Coeff:     -0.211D-02 0.221D+00 0.127D+00 0.246D+00 0.408D+00
 Gap=     0.148 Goal=   None    Shift=    0.000
 RMSDP=1.19D-07 MaxDP=9.39D-06 DE=-1.06D-07 OVMax= 1.76D-05

 Cycle  14  Pass 1  IDiag  1:
 RMSU=  9.33D-08    CP:  1.00D+00  1.01D+00  3.64D-01  5.18D-01  7.63D-01
 E= -1729.20082416746     Delta-E=       -0.000000003518 Rises=F Damp=F
 DIIS: error= 3.66D-07 at cycle   6 NSaved=   6.
 NSaved= 6 IEnMin= 6 EnMin= -1729.20082416746     IErMin= 6 ErrMin= 3.66D-07
 ErrMax= 3.66D-07  0.00D+00 EMaxC= 1.00D-01 BMatC= 1.95D-10 BMatP= 3.54D-09
 IDIUse=1 WtCom= 1.00D+00 WtEn= 0.00D+00
 Coeff-Com: -0.795D-03 0.812D-01 0.463D-01 0.957D-01 0.227D+00 0.551D+00
 Coeff:     -0.795D-03 0.812D-01 0.463D-01 0.957D-01 0.227D+00 0.551D+00
 Gap=     0.148 Goal=   None    Shift=    0.000
 RMSDP=3.60D-08 MaxDP=1.43D-06 DE=-3.52D-09 OVMax= 5.62D-06

 Cycle  15  Pass 1  IDiag  1:
 RMSU=  2.83D-08    CP:  1.00D+00  1.01D+00  3.64D-01  5.19D-01  7.90D-01
                    CP:  7.79D-01
 E= -1729.20082416758     Delta-E=       -0.000000000124 Rises=F Damp=F
 DIIS: error= 1.80D-07 at cycle   7 NSaved=   7.
 NSaved= 7 IEnMin= 7 EnMin= -1729.20082416758     IErMin= 7 ErrMin= 1.80D-07
 ErrMax= 1.80D-07  0.00D+00 EMaxC= 1.00D-01 BMatC= 4.51D-11 BMatP= 1.95D-10
 IDIUse=1 WtCom= 1.00D+00 WtEn= 0.00D+00
 Coeff-Com: -0.193D-03 0.188D-01 0.107D-01 0.249D-01 0.819D-01 0.360D+00
 Coeff-Com:  0.504D+00
 Coeff:     -0.193D-03 0.188D-01 0.107D-01 0.249D-01 0.819D-01 0.360D+00
 Coeff:      0.504D+00
 Gap=     0.148 Goal=   None    Shift=    0.000
 RMSDP=1.34D-08 MaxDP=8.10D-07 DE=-1.24D-10 OVMax= 2.30D-06

 Cycle  16  Pass 1  IDiag  1:
 RMSU=  8.45D-09    CP:  1.00D+00  1.01D+00  3.64D-01  5.20D-01  7.92D-01
                    CP:  8.28D-01  6.76D-01
 E= -1729.20082416761     Delta-E=       -0.000000000032 Rises=F Damp=F
 DIIS: error= 5.84D-08 at cycle   8 NSaved=   8.
 NSaved= 8 IEnMin= 8 EnMin= -1729.20082416761     IErMin= 8 ErrMin= 5.84D-08
 ErrMax= 5.84D-08  0.00D+00 EMaxC= 1.00D-01 BMatC= 3.60D-12 BMatP= 4.51D-11
 IDIUse=1 WtCom= 1.00D+00 WtEn= 0.00D+00
 Coeff-Com: -0.235D-05-0.236D-03-0.192D-03 0.119D-02 0.137D-01 0.129D+00
 Coeff-Com:  0.282D+00 0.574D+00
 Coeff:     -0.235D-05-0.236D-03-0.192D-03 0.119D-02 0.137D-01 0.129D+00
 Coeff:      0.282D+00 0.574D+00
 Gap=     0.148 Goal=   None    Shift=    0.000
 RMSDP=4.21D-09 MaxDP=1.97D-07 DE=-3.18D-11 OVMax= 5.52D-07

 SCF Done:  E(RB3LYP) =  -1729.20082417     A.U. after   16 cycles
            NFock= 16  Conv=0.42D-08     -V/T= 2.0086
 KE= 1.714374821866D+03 PE=-1.414529151821D+04 EE= 5.632520932590D+03
 Leave Link  502 at Sat Nov  5 00:41:26 2022, MaxMem=   805306368 cpu:            1857.3 elap:             265.8
 (Enter /home/wykgroup/appl/g16/l508.exe)
 QCSCF skips out because SCF is already converged.
 Leave Link  508 at Sat Nov  5 00:41:26 2022, MaxMem=   805306368 cpu:               0.2 elap:               0.1
 (Enter /home/wykgroup/appl/g16/l601.exe)
 Copying SCF densities to generalized density rwf, IOpCl= 0 IROHF=0.

 **********************************************************************

            Population analysis using the SCF Density.

 **********************************************************************

 Orbital symmetries:
       Occupied  (A) (A) (A) (A) (A) (A) (A) (A) (A) (A) (A) (A)
                 (A) (A) (A) (A) (A) (A) (A) (A) (A) (A) (A) (A)
                 (A) (A) (A) (A) (A) (A) (A) (A) (A) (A) (A) (A)
                 (A) (A) (A) (A) (A) (A) (A) (A) (A) (A) (A) (A)
                 (A) (A) (A) (A) (A) (A) (A) (A) (A) (A) (A) (A)
                 (A) (A) (A) (A) (A) (A) (A) (A) (A) (A) (A) (A)
                 (A) (A) (A) (A) (A) (A) (A) (A) (A) (A) (A) (A)
                 (A) (A) (A) (A) (A) (A) (A) (A) (A) (A) (A) (A)
                 (A) (A) (A) (A) (A) (A) (A) (A) (A) (A) (A) (A)
                 (A) (A) (A) (A) (A) (A) (A) (A) (A) (A) (A) (A)
                 (A) (A) (A) (A) (A) (A) (A) (A) (A) (A) (A) (A)
                 (A) (A) (A) (A) (A) (A) (A) (A) (A) (A) (A) (A)
                 (A) (A) (A) (A) (A)
       Virtual   (A) (A) (A) (A) (A) (A) (A) (A) (A) (A) (A) (A)
                 (A) (A) (A) (A) (A) (A) (A) (A) (A) (A) (A) (A)
                 (A) (A) (A) (A) (A) (A) (A) (A) (A) (A) (A) (A)
                 (A) (A) (A) (A) (A) (A) (A) (A) (A) (A) (A) (A)
                 (A) (A) (A) (A) (A) (A) (A) (A) (A) (A) (A) (A)
                 (A) (A) (A) (A) (A) (A) (A) (A) (A) (A) (A) (A)
                 (A) (A) (A) (A) (A) (A) (A) (A) (A) (A) (A) (A)
                 (A) (A) (A) (A) (A) (A) (A) (A) (A) (A) (A) (A)
                 (A) (A) (A) (A) (A) (A) (A) (A) (A) (A) (A) (A)
                 (A) (A) (A) (A) (A) (A) (A) (A) (A) (A) (A) (A)
                 (A) (A) (A) (A) (A) (A) (A) (A) (A) (A) (A) (A)
                 (A) (A) (A) (A) (A) (A) (A) (A) (A) (A) (A) (A)
                 (A) (A) (A) (A) (A) (A) (A) (A) (A) (A) (A) (A)
                 (A) (A) (A) (A) (A) (A) (A) (A) (A) (A) (A) (A)
                 (A) (A) (A) (A) (A) (A) (A) (A) (A) (A) (A) (A)
                 (A) (A) (A) (A) (A) (A) (A) (A) (A) (A) (A) (A)
                 (A) (A) (A) (A) (A) (A) (A) (A) (A) (A) (A) (A)
                 (A) (A) (A) (A) (A) (A) (A) (A) (A) (A) (A) (A)
                 (A) (A) (A) (A) (A) (A) (A) (A) (A) (A) (A) (A)
                 (A) (A) (A) (A) (A) (A) (A) (A) (A) (A) (A) (A)
[...]
 Alpha  occ. eigenvalues --  -10.19787 -10.19760 -10.19626 -10.19559 -10.19512
 Alpha  occ. eigenvalues --  -10.19412 -10.19134 -10.19073 -10.19028 -10.18952
 Alpha  occ. eigenvalues --  -10.18916 -10.18906 -10.18870 -10.18853 -10.18836
 Alpha  occ. eigenvalues --  -10.18788 -10.18585 -10.18570 -10.18558 -10.18515
 Alpha  occ. eigenvalues --  -10.18480 -10.18452 -10.18424 -10.18408 -10.18311
 Alpha  occ. eigenvalues --  -10.18273 -10.18242 -10.18218 -10.18181 -10.18128
 Alpha  occ. eigenvalues --  -10.17881 -10.17796 -10.17391 -10.17365  -1.03113
 Alpha  occ. eigenvalues --   -0.93329  -0.87771  -0.86677  -0.85991  -0.84642
 Alpha  occ. eigenvalues --   -0.84006  -0.83270  -0.80551  -0.78314  -0.77987
 Alpha  occ. eigenvalues --   -0.76819  -0.75929  -0.75042  -0.74879  -0.74234
 Alpha  occ. eigenvalues --   -0.74181  -0.73748  -0.72602  -0.71863  -0.69764
 Alpha  occ. eigenvalues --   -0.68638  -0.68062  -0.67452  -0.64160  -0.62617
 Alpha  occ. eigenvalues --   -0.62328  -0.61960  -0.61132  -0.60398  -0.60023
 Alpha  occ. eigenvalues --   -0.58828  -0.58523  -0.57643  -0.56736  -0.56384
 Alpha  occ. eigenvalues --   -0.54781  -0.54182  -0.53862  -0.52120  -0.51676
 Alpha  occ. eigenvalues --   -0.49754  -0.49522  -0.49074  -0.47909  -0.47830
 Alpha  occ. eigenvalues --   -0.47316  -0.46417  -0.46296  -0.45428  -0.45226
 Alpha  occ. eigenvalues --   -0.44754  -0.44582  -0.44089  -0.43666  -0.43205
 Alpha  occ. eigenvalues --   -0.43136  -0.42961  -0.42438  -0.42382  -0.42301
 Alpha  occ. eigenvalues --   -0.42166  -0.41922  -0.41648  -0.41203  -0.40795
 Alpha  occ. eigenvalues --   -0.40351  -0.40201  -0.39541  -0.38489  -0.38179
 Alpha  occ. eigenvalues --   -0.37819  -0.37635  -0.37082  -0.36442  -0.36346
 Alpha  occ. eigenvalues --   -0.36117  -0.35474  -0.35386  -0.34927  -0.34542
 Alpha  occ. eigenvalues --   -0.34501  -0.34108  -0.33877  -0.33701  -0.33531
 Alpha  occ. eigenvalues --   -0.33190  -0.33105  -0.31551  -0.31154  -0.31151
 Alpha  occ. eigenvalues --   -0.30842  -0.28373  -0.27233  -0.25755  -0.25491
 Alpha  occ. eigenvalues --   -0.25007  -0.24881  -0.24526  -0.24331  -0.23725
 Alpha  occ. eigenvalues --   -0.22518  -0.21587  -0.19598  -0.19224
 Alpha virt. eigenvalues --   -0.03909  -0.03619  -0.02810  -0.00832  -0.00439
 Alpha virt. eigenvalues --    0.00054   0.00189   0.01060   0.01597   0.02574
 Alpha virt. eigenvalues --    0.03409   0.05504   0.06621   0.08844   0.09194
 Alpha virt. eigenvalues --    0.09729   0.10002   0.10613   0.11042   0.11542
 Alpha virt. eigenvalues --    0.11912   0.12406   0.12829   0.13165   0.13771
 Alpha virt. eigenvalues --    0.14107   0.14367   0.14893   0.15039   0.15336
 Alpha virt. eigenvalues --    0.15733   0.15746   0.16221   0.16555   0.16620
 Alpha virt. eigenvalues --    0.16775   0.16917   0.17021   0.17204   0.17838
 Alpha virt. eigenvalues --    0.18132   0.18382   0.18477   0.19100   0.19258
 Alpha virt. eigenvalues --    0.19585   0.19736   0.19886   0.20405   0.20515
 Alpha virt. eigenvalues --    0.21080   0.21606   0.21782   0.21949   0.23017
 Alpha virt. eigenvalues --    0.23709   0.24761   0.25613   0.25853   0.26315
 Alpha virt. eigenvalues --    0.26526   0.27086   0.27517   0.27668   0.28103
 Alpha virt. eigenvalues --    0.28253   0.28514   0.28957   0.30076   0.30130
 Alpha virt. eigenvalues --    0.30586   0.30647   0.31562   0.32104   0.32777
 Alpha virt. eigenvalues --    0.32992   0.33252   0.34249   0.34627   0.35476
 Alpha virt. eigenvalues --    0.35923   0.36408   0.37187   0.38177   0.38997
 Alpha virt. eigenvalues --    0.39554   0.40374   0.41895   0.43326   0.44212
 Alpha virt. eigenvalues --    0.44815   0.45026   0.46469   0.48096   0.48793
 Alpha virt. eigenvalues --    0.49175   0.49895   0.50442   0.50876   0.51468
 Alpha virt. eigenvalues --    0.51639   0.51866   0.52179   0.52546   0.52980
 Alpha virt. eigenvalues --    0.53225   0.53271   0.53762   0.54008   0.54216
 Alpha virt. eigenvalues --    0.54299   0.55042   0.55186   0.55482   0.55844
 Alpha virt. eigenvalues --    0.55871   0.56109   0.56250   0.56392   0.56450
 Alpha virt. eigenvalues --    0.56784   0.56913   0.57530   0.57654   0.57966
 Alpha virt. eigenvalues --    0.58214   0.58439   0.58560   0.58727   0.58879
 Alpha virt. eigenvalues --    0.59150   0.59246   0.59403   0.59614   0.59874
 Alpha virt. eigenvalues --    0.60396   0.60812   0.61019   0.61164   0.61207
 Alpha virt. eigenvalues --    0.61281   0.61402   0.61604   0.61710   0.61974
 Alpha virt. eigenvalues --    0.62130   0.62234   0.62569   0.62742   0.63089
 Alpha virt. eigenvalues --    0.63457   0.63673   0.64027   0.64111   0.64486
 Alpha virt. eigenvalues --    0.65072   0.65425   0.65486   0.65777   0.66220
 Alpha virt. eigenvalues --    0.66377   0.66862   0.66985   0.67473   0.68116
 Alpha virt. eigenvalues --    0.68469   0.69161   0.69698   0.70286   0.71335
 Alpha virt. eigenvalues --    0.72154   0.73392   0.73798   0.74184   0.75266
 Alpha virt. eigenvalues --    0.76081   0.77483   0.77645   0.78289   0.78535
 Alpha virt. eigenvalues --    0.78864   0.79620   0.80252   0.80530   0.81493
 Alpha virt. eigenvalues --    0.81644   0.82055   0.82113   0.82534   0.82794
 Alpha virt. eigenvalues --    0.82931   0.83364   0.83440   0.83810   0.84019
 Alpha virt. eigenvalues --    0.84175   0.84572   0.84803   0.84944   0.85088
 Alpha virt. eigenvalues --    0.85261   0.85397   0.86451   0.86756   0.87460
 Alpha virt. eigenvalues --    0.87739   0.88256   0.88885   0.89383   0.89805
 Alpha virt. eigenvalues --    0.90346   0.90481   0.91320   0.91374   0.91441
 Alpha virt. eigenvalues --    0.91658   0.91792   0.92187   0.92855   0.93297
 Alpha virt. eigenvalues --    0.93893   0.94327   0.94388   0.94620   0.95095
 Alpha virt. eigenvalues --    0.95253   0.95764   0.96510   0.96900   0.97075
 Alpha virt. eigenvalues --    0.97642   0.98122   0.98557   0.99060   0.99339
 Alpha virt. eigenvalues --    0.99680   0.99853   1.00392   1.00775   1.01153
 Alpha virt. eigenvalues --    1.01424   1.03150   1.03829   1.04205   1.04343
 Alpha virt. eigenvalues --    1.04746   1.05503   1.06168   1.06628   1.07166
 Alpha virt. eigenvalues --    1.09022   1.09318   1.10812   1.11404   1.11684
 Alpha virt. eigenvalues --    1.12407   1.12676   1.13357   1.14042   1.15036
 Alpha virt. eigenvalues --    1.15226   1.15921   1.16066   1.17081   1.17934
 Alpha virt. eigenvalues --    1.18239   1.18591   1.19370   1.19575   1.20247
 Alpha virt. eigenvalues --    1.21268   1.21738   1.22633   1.23906   1.24298
 Alpha virt. eigenvalues --    1.25116   1.25465   1.26332   1.27082   1.27684
 Alpha virt. eigenvalues --    1.28075   1.28808   1.29277   1.29682   1.30953
 Alpha virt. eigenvalues --    1.32615   1.32995   1.33261   1.34575   1.34867
 Alpha virt. eigenvalues --    1.35907   1.39493   1.39951   1.41233   1.41420
 Alpha virt. eigenvalues --    1.41558   1.42525   1.42761   1.43135   1.43437
 Alpha virt. eigenvalues --    1.43812   1.44385   1.45088   1.45535   1.45724
 Alpha virt. eigenvalues --    1.46123   1.46566   1.46987   1.47210   1.47796
 Alpha virt. eigenvalues --    1.48530   1.48590   1.48739   1.49258   1.49671
 Alpha virt. eigenvalues --    1.49743   1.49750   1.50357   1.50686   1.50723
 Alpha virt. eigenvalues --    1.50820   1.51317   1.52040   1.52895   1.53381
 Alpha virt. eigenvalues --    1.54283   1.55493   1.56417   1.57141   1.59270
 Alpha virt. eigenvalues --    1.59994   1.60960   1.62895   1.65034   1.65547
 Alpha virt. eigenvalues --    1.67087   1.68366   1.69184   1.70696   1.72553
 Alpha virt. eigenvalues --    1.73751   1.74698   1.75270   1.77315   1.77602
 Alpha virt. eigenvalues --    1.78179   1.78749   1.79283   1.79711   1.80175
 Alpha virt. eigenvalues --    1.80269   1.81435   1.81652   1.82028   1.82230
 Alpha virt. eigenvalues --    1.82914   1.83169   1.84053   1.85089   1.85946
 Alpha virt. eigenvalues --    1.86729   1.86843   1.88157   1.88865   1.88994
 Alpha virt. eigenvalues --    1.89646   1.90250   1.90954   1.91329   1.91983
 Alpha virt. eigenvalues --    1.92382   1.92398   1.92717   1.93419   1.93789
 Alpha virt. eigenvalues --    1.94732   1.95246   1.96153   1.96864   1.97005
 Alpha virt. eigenvalues --    1.98215   1.98804   1.99401   2.00383   2.01218
 Alpha virt. eigenvalues --    2.02412   2.02830   2.03278   2.04438   2.05132
 Alpha virt. eigenvalues --    2.05608   2.05856   2.06255   2.06391   2.07104
 Alpha virt. eigenvalues --    2.07258   2.07370   2.07667   2.08701   2.10840
 Alpha virt. eigenvalues --    2.11495   2.11943   2.12656   2.13168   2.13445
 Alpha virt. eigenvalues --    2.13856   2.14083   2.14358   2.14782   2.15471
 Alpha virt. eigenvalues --    2.15912   2.16160   2.16370   2.16954   2.18412
 Alpha virt. eigenvalues --    2.19324   2.19775   2.20507   2.20700   2.21070
 Alpha virt. eigenvalues --    2.21659   2.22801   2.23764   2.24124   2.24682
 Alpha virt. eigenvalues --    2.25448   2.25882   2.26181   2.26770   2.26879
 Alpha virt. eigenvalues --    2.27219   2.27967   2.28051   2.28861   2.29545
 Alpha virt. eigenvalues --    2.29761   2.29934   2.30510   2.30752   2.31125
 Alpha virt. eigenvalues --    2.31291   2.31627   2.32146   2.33159   2.34184
 Alpha virt. eigenvalues --    2.35396   2.35671   2.36618   2.37335   2.39150
 Alpha virt. eigenvalues --    2.39460   2.40773   2.42070   2.44094   2.44345
 Alpha virt. eigenvalues --    2.44948   2.46806   2.47125   2.50877   2.51997
 Alpha virt. eigenvalues --    2.52380   2.53682   2.54913   2.56830   2.57436
 Alpha virt. eigenvalues --    2.58338   2.58634   2.59085   2.60206   2.61069
 Alpha virt. eigenvalues --    2.62073   2.62258   2.63189   2.63807   2.64451
 Alpha virt. eigenvalues --    2.65348   2.65837   2.66349   2.67185   2.67315
 Alpha virt. eigenvalues --    2.67983   2.68467   2.68663   2.69539   2.69873
 Alpha virt. eigenvalues --    2.70551   2.71393   2.72105   2.73733   2.74187
 Alpha virt. eigenvalues --    2.74969   2.75057   2.75256   2.75476   2.76086
 Alpha virt. eigenvalues --    2.76424   2.76569   2.77939   2.78982   2.79743
 Alpha virt. eigenvalues --    2.81205   2.82259   2.82814   2.84752   2.86098
 Alpha virt. eigenvalues --    2.86815   2.88387   2.89566   2.91316   2.93924
 Alpha virt. eigenvalues --    2.94508   2.96014   2.97414   2.99096   3.00096
 Alpha virt. eigenvalues --    3.00598   3.02827   3.05971   3.09331   3.17116
 Alpha virt. eigenvalues --    3.20623   3.22608   3.25008   3.29199   3.35855
 Alpha virt. eigenvalues --    3.36574   3.37191   3.42727   3.45433   3.46367
 Alpha virt. eigenvalues --    3.56198   4.06336   4.08486   4.09013   4.09299
 Alpha virt. eigenvalues --    4.09587   4.09946   4.10625   4.11296   4.11695
 Alpha virt. eigenvalues --    4.11887   4.11917   4.12085   4.14754   4.15647
 Alpha virt. eigenvalues --    4.15776   4.16986   4.18604   4.20158   4.23468
 Alpha virt. eigenvalues --    4.25087   4.26621   4.29393   4.29736   4.30691
 Alpha virt. eigenvalues --    4.32315   4.32869   4.33541   4.35169   4.37777
 Alpha virt. eigenvalues --    4.38314   4.42191   4.43246   4.47370   4.49751
 Alpha virt. eigenvalues --    4.52921   4.55183   4.63163   4.67747   4.69074
 Alpha virt. eigenvalues --    4.76182   4.78777   4.80175   4.83179   4.90510
          Condensed to atoms (all electrons):
 Mulliken charges:
               1
     1  C   -0.435709
     2  C   -0.060603
     3  C   -0.435942
     4  C    0.101808
     5  C   -0.203537
     6  C   -0.132517
     7  C   -0.136726
     8  C   -0.191196
     9  C    0.073822
    10  C    0.083925
    11  C   -0.261826
    12  C    0.344934
    13  C    0.072161
    14  C   -0.280826
    15  C    0.086654
    16  C    0.033894
    17  C   -0.198935
    18  C   -0.144481
    19  C   -0.144383
    20  C   -0.175483
    21  C    0.345299
    22  N   -0.564620
    23  N   -0.397123
    24  C    0.307414
    25  C    0.124330
    26  C   -0.167986
    27  C   -0.135730
    28  C   -0.122539
    29  C   -0.133815
    30  C   -0.174249
    31  C   -0.291830
    32  C   -0.077227
    33  C    0.219500
    34  C   -0.183129
    35  C   -0.135988
    36  C   -0.172542
    37  C    0.090436
    38  C    0.087839
    39  C   -0.174176
    40  C   -0.133635
    41  C   -0.126427
    42  C   -0.134307
    43  C   -0.172924
    44  C   -0.248876
    45  H    0.141046
    46  H    0.142019
    47  H    0.155352
    48  H    0.141715
    49  H    0.140984
    50  H    0.156882
    51  H    0.122221
    52  H    0.124371
    53  H    0.125095
    54  H    0.128881
    55  H    0.148346
    56  H    0.124727
    57  H    0.127848
    58  H    0.122815
    59  H    0.125496
    60  H    0.144405
    61  H    0.134972
    62  H    0.134276
    63  H    0.134447
    64  H    0.138339
    65  H    0.159381
    66  H    0.141715
    67  H    0.162833
    68  H    0.139374
    69  H    0.131822
    70  H    0.133971
    71  H    0.131432
    72  H    0.130208
    73  H    0.129752
    74  H    0.131864
    75  H    0.137170
    76  H    0.133509
 Sum of Mulliken charges =  -0.00000
 Mulliken charges with hydrogens summed into heavy atoms:
               1
     1  C    0.002708
     2  C   -0.060603
     3  C    0.003638
     4  C    0.101808
     5  C   -0.081315
     6  C   -0.008147
     7  C   -0.011630
     8  C   -0.062316
     9  C    0.073822
    10  C    0.083925
    11  C   -0.113480
    12  C    0.344934
    13  C    0.072161
    14  C   -0.156098
    15  C    0.086654
    16  C    0.033894
    17  C   -0.071087
    18  C   -0.021666
    19  C   -0.018887
    20  C   -0.031078
    21  C    0.345299
    22  N   -0.564620
    23  N   -0.397123
    24  C    0.307414
    25  C    0.124330
    26  C   -0.033015
    27  C   -0.001454
    28  C    0.011908
    29  C    0.004524
    30  C   -0.014868
    31  C   -0.150115
    32  C    0.085606
    33  C    0.219500
    34  C   -0.043755
    35  C   -0.004166
    36  C   -0.038570
    37  C    0.090436
    38  C    0.087839
    39  C   -0.042744
    40  C   -0.003428
    41  C    0.003324
    42  C   -0.002443
    43  C   -0.035754
    44  C   -0.115366
 Electronic spatial extent (au):  <R**2>=          26963.3290
 Charge=             -0.0000 electrons
 Dipole moment (field-independent basis, Debye):
    X=             -0.3411    Y=             -1.2057    Z=              0.5399  Tot=              1.3644
 Quadrupole moment (field-independent basis, Debye-Ang):
   XX=           -237.5116   YY=           -233.6928   ZZ=           -238.8661
   XY=             -1.2708   XZ=             -1.4902   YZ=             -5.1407
 Traceless Quadrupole moment (field-independent basis, Debye-Ang):
   XX=             -0.8214   YY=              2.9974   ZZ=             -2.1759
   XY=             -1.2708   XZ=             -1.4902   YZ=             -5.1407
 Octapole moment (field-independent basis, Debye-Ang**2):
  XXX=            -74.4210  YYY=            -63.5921  ZZZ=             -9.6336  XYY=             62.8629
  XXY=             23.6262  XXZ=             10.5326  XZZ=             -9.1709  YZZ=             19.4959
  YYZ=             16.9608  XYZ=            -16.9454
 Hexadecapole moment (field-independent basis, Debye-Ang**3):
 XXXX=         -16372.5764 YYYY=         -13172.9093 ZZZZ=          -5645.5174 XXXY=           -478.2055
 XXXZ=             92.4814 YYYX=             91.5261 YYYZ=            -52.5006 ZZZX=           -153.6690
 ZZZY=            141.2005 XXYY=          -5162.5063 XXZZ=          -3715.4603 YYZZ=          -3207.8790
 XXYZ=           -269.8054 YYXZ=            127.2674 ZZXY=            -78.8271
 N-N= 4.753359422390D+03 E-N=-1.351191938074D+04  KE= 1.712495020756D+03
 No NMR shielding tensors so no spin-rotation constants.
 Leave Link  601 at Sat Nov  5 02:02:48 2022, MaxMem=   805306368 cpu:               2.5 elap:               0.4
 (Enter /home/wykgroup/appl/g16/l9999.exe)
 1\1\GINC-NODE104\FOpt\RB3LYP\6-31G(d)\C42H32N2\WYKGROUP\05-Nov-2022\0\
 \#p b3lyp/6-31g(d) opt SCF=XQC\\Gaussian input prepared by ASE\\0,1\C,
 -5.8024063626,0.5388569673,-1.0401152095\C,-4.5218493081,1.3944242546,
 -0.9127308356\C,-4.8142376576,2.6530611461,-0.0651396401\C,-3.96545348
 06,1.7682745382,-2.2862179609\C,-4.5647910423,2.5136910338,-3.29541920
 02\C,-3.8651516888,2.7385409989,-4.4871425429\C,-2.5775636088,2.220498
 7562,-4.6625660824\C,-1.9700322459,1.4708523356,-3.6531687185\C,-2.668
 6269561,1.2461420923,-2.4644116519\C,-2.2875116531,0.5077649871,-1.255
 2420317\C,-1.1103858321,-0.179146207,-0.9617093383\C,-1.0451985223,-0.
 7900387251,0.2907047625\C,-2.1032729227,-0.7230983744,1.2345403314\C,-
 3.2778700928,-0.024782273,0.9118738702\C,-3.362509099,0.5838918697,-0.
 330553562\C,-1.6674242988,-1.4581760996,2.4044094275\C,-2.2589157165,-
 1.736723723,3.6421335018\C,-1.5536911938,-2.4862832484,4.5798733464\C,
 -0.2643779136,-2.9632941011,4.2907949247\C,0.3497463152,-2.7053844938,
 3.0657301173\C,-0.3624726275,-1.9493732109,2.1306367906\N,-0.007782804
 4,-1.5443280524,0.8388472922\N,1.1941899966,-1.725020168,0.1592144024\
 C,1.820703989,-3.0253059462,0.1011687476\C,1.2116204734,-4.267575302,-
 0.3575674296\C,1.8445754039,-5.4968029544,-0.1035599594\C,1.2836339865
 ,-6.6859158479,-0.5595352945\C,0.0773887218,-6.6666236082,-1.265945187
 8\C,-0.5615771189,-5.4507178333,-1.515889884\C,-0.0006591771,-4.256165
 2221,-1.0673828694\C,3.0379211763,-2.5883155054,0.4976455991\C,2.50409
 60671,-1.1931471431,0.7668022762\C,3.1056009207,0.0011550919,0.0751081
 92\C,3.4264151267,-0.0481203765,-1.2886025845\C,3.9896417355,1.0628734
 163,-1.9109554228\C,4.241890687,2.2277128745,-1.184600499\C,3.93152259
 17,2.3023281249,0.1817705226\C,4.1961428842,3.5381174377,0.9629078031\
 C,5.3548291971,4.3003518167,0.7371379498\C,5.6037894078,5.460414077,1.
 4690956234\C,4.6995696937,5.883835962,2.4448576464\C,3.5440304273,5.13
 68140966,2.6807131857\C,3.2949769825,3.9775120644,1.9475157027\C,3.360
 5808487,1.172212172,0.7918958646\H,-6.6070894388,1.1106250017,-1.51743
 52731\H,-6.1561392091,0.2223287633,-0.0518224863\H,-5.6181210481,-0.35
 82553635,-1.6397874102\H,-5.1510487761,2.3729936607,0.9399435648\H,-5.
 6029893912,3.258891535,-0.5267477044\H,-3.919573875,3.2756563175,0.035
 9306035\H,-5.5652684489,2.9211805853,-3.1681547444\H,-4.325627495,3.32
 02663768,-5.281373631\H,-2.0452448641,2.4034363161,-5.5923901406\H,-0.
 9687319958,1.0714350294,-3.7935930668\H,-0.2746645831,-0.2344980197,-1
 .651241095\H,-4.0963804339,0.0334154858,1.6259154334\H,-3.2571873992,-
 1.3703429835,3.8677545963\H,-2.0037114755,-2.7067482479,5.5437111405\H
 ,0.2685299887,-3.5493214268,5.0347343794\H,1.3393412091,-3.0899048099,
 2.8462349977\H,2.7717656562,-5.5117603514,0.4631143034\H,1.7819558479,
 -7.630152499,-0.3573158387\H,-0.3632670163,-7.596166914,-1.6159598766\
 H,-1.4995064882,-5.430694046,-2.0640049705\H,-0.4933658165,-3.31151232
 1,-1.2740267464\H,4.0417794637,-2.9867777592,0.4461984076\H,2.34357490
 65,-0.9823363163,1.8295604948\H,3.2304211385,-0.9560242697,-1.85223896
 08\H,4.2291926897,1.0271902088,-2.9705336968\H,4.6590390477,3.09602985
 52,-1.6867693246\H,6.0782177673,3.9653320362,-0.0011770636\H,6.5107576
 915,6.0296505257,1.2824797799\H,4.8934689761,6.7877879534,3.0159004102
 \H,2.8283979928,5.4617802319,3.4314360623\H,2.3787420573,3.4196160589,
 2.1198584023\H,3.133625013,1.2018926887,1.8548954785\\Version=ES64L-G1
 6RevB.01\State=1-A\HF=-1729.2242297\RMSD=4.857e-09\RMSF=1.426e-06\Dipo
 le=0.4245994,-0.3276312,-0.0225518\Quadrupole=1.2015121,2.7409879,-3.9
 424999,-2.0564204,-1.7364271,1.1007888\PG=C01 [X(C42H32N2)]\\@


 THE PROMISED LAND ALWAYS LIES ON THE OTHER SIDE OF A WILDERNESS.

                         -- HAVELOCK ELLIS
 Job cpu time:       0 days  9 hours 53 minutes 44.2 seconds.
 Elapsed time:       0 days  1 hours 25 minutes 57.2 seconds.
 File lengths (MBytes):  RWF=    328 Int=      0 D2E=      0 Chk=     42 Scr=      1
 Normal termination of Gaussian 16 at Sat Nov  5 02:02:48 2022.
