 Entering Gaussian System, Link 0=/home/wykgroup/appl/g16/g16
 Input=calculation/no_transfer_pubchem_sampling_9_b3lyp/155397950_rwf.com
 Output=calculation/no_transfer_pubchem_sampling_9_b3lyp/155397950_rwf.log
 Initial command:
 /home/wykgroup/appl/g16/l1.exe "/userdata/scratch/wykgroup/khs/calculation/no_transfer_pubchem_sampling_9_b3lyp/155397950_rwf/Gau-22532.inp" -scrdir="/userdata/scratch/wykgroup/khs/calculation/no_transfer_pubchem_sampling_9_b3lyp/155397950_rwf/"
 Entering Link 1 = /home/wykgroup/appl/g16/l1.exe PID=     22533.
  
 Copyright (c) 1988-2017, Gaussian, Inc.  All Rights Reserved.
  
 This is part of the Gaussian(R) 16 program.  It is based on
 the Gaussian(R) 09 system (copyright 2009, Gaussian, Inc.),
 the Gaussian(R) 03 system (copyright 2003, Gaussian, Inc.),
 the Gaussian(R) 98 system (copyright 1998, Gaussian, Inc.),
 the Gaussian(R) 94 system (copyright 1995, Gaussian, Inc.),
 the Gaussian 92(TM) system (copyright 1992, Gaussian, Inc.),
 the Gaussian 90(TM) system (copyright 1990, Gaussian, Inc.),
 the Gaussian 88(TM) system (copyright 1988, Gaussian, Inc.),
 the Gaussian 86(TM) system (copyright 1986, Carnegie Mellon
 University), and the Gaussian 82(TM) system (copyright 1983,
 Carnegie Mellon University). Gaussian is a federally registered
 trademark of Gaussian, Inc.
  
 This software contains proprietary and confidential information,
 including trade secrets, belonging to Gaussian, Inc.
  
 This software is provided under written license and may be
 used, copied, transmitted, or stored only in accord with that
 written license.
  
 The following legend is applicable only to US Government
 contracts under FAR:
  
                    RESTRICTED RIGHTS LEGEND
  
 Use, reproduction and disclosure by the US Government is
 subject to restrictions as set forth in subparagraphs (a)
 and (c) of the Commercial Computer Software - Restricted
 Rights clause in FAR 52.227-19.
  
 Gaussian, Inc.
 340 Quinnipiac St., Bldg. 40, Wallingford CT 06492
  
  
 ---------------------------------------------------------------
 Warning -- This program may not be used in any manner that
 competes with the business of Gaussian, Inc. or will provide
 assistance to any competitor of Gaussian, Inc.  The licensee
 of this program is prohibited from giving any competitor of
 Gaussian, Inc. access to this program.  By using this program,
 the user acknowledges that Gaussian, Inc. is engaged in the
 business of creating and licensing software in the field of
 computational chemistry and represents and warrants to the
 licensee that it is not a competitor of Gaussian, Inc. and that
 it will not use this program in any manner prohibited above.
 ---------------------------------------------------------------
  

 Cite this work as:
 Gaussian 16, Revision B.01,
 M. J. Frisch, G. W. Trucks, H. B. Schlegel, G. E. Scuseria, 
 M. A. Robb, J. R. Cheeseman, G. Scalmani, V. Barone, 
 G. A. Petersson, H. Nakatsuji, X. Li, M. Caricato, A. V. Marenich, 
 J. Bloino, B. G. Janesko, R. Gomperts, B. Mennucci, H. P. Hratchian, 
 J. V. Ortiz, A. F. Izmaylov, J. L. Sonnenberg, D. Williams-Young, 
 F. Ding, F. Lipparini, F. Egidi, J. Goings, B. Peng, A. Petrone, 
 T. Henderson, D. Ranasinghe, V. G. Zakrzewski, J. Gao, N. Rega, 
 G. Zheng, W. Liang, M. Hada, M. Ehara, K. Toyota, R. Fukuda, 
 J. Hasegawa, M. Ishida, T. Nakajima, Y. Honda, O. Kitao, H. Nakai, 
 T. Vreven, K. Throssell, J. A. Montgomery, Jr., J. E. Peralta, 
 F. Ogliaro, M. J. Bearpark, J. J. Heyd, E. N. Brothers, K. N. Kudin, 
 V. N. Staroverov, T. A. Keith, R. Kobayashi, J. Normand, 
 K. Raghavachari, A. P. Rendell, J. C. Burant, S. S. Iyengar, 
 J. Tomasi, M. Cossi, J. M. Millam, M. Klene, C. Adamo, R. Cammi, 
 J. W. Ochterski, R. L. Martin, K. Morokuma, O. Farkas, 
 J. B. Foresman, and D. J. Fox, Gaussian, Inc., Wallingford CT, 2016.
 
 ******************************************
 Gaussian 16:  ES64L-G16RevB.01 20-Dec-2017
                 5-Nov-2022 
 ******************************************
 %chk=calculation/no_transfer_pubchem_sampling_9_b3lyp/155397950_rwf.chk
 %rwf=calculation/no_transfer_pubchem_sampling_9_b3lyp/155397950_rwf.rwf
 %nprocshared=14
 Will use up to   14 processors via shared memory.
 %mem=3GB
 -------------------------------------------------------------------
 #p b3lyp/6-31g(d) 6D 10F nosymm GFInput td=(50-50,nstate=2) SCF=XQC
 -------------------------------------------------------------------
 1/38=1,172=1/1;
 2/12=2,15=1,17=6,18=5,40=1/2;
 3/5=1,6=6,7=1,8=22,11=9,24=10,25=1,30=1,74=-5/1,2,3,8;
 4//1;
 5/5=2,8=3,13=1,38=5/2,8;
 8/6=1,10=2,108=2/1;
 9/41=2,42=1,48=2,70=2/14;
 6/7=2,8=2,9=2,10=2/1;
 99/5=1,9=1/99;
 Leave Link    1 at Sat Nov  5 10:54:36 2022, MaxMem=   402653184 cpu:               2.2 elap:               0.3
 (Enter /home/wykgroup/appl/g16/l101.exe)
 ------------------------------
 Gaussian input prepared by ASE
 ------------------------------
 Symbolic Z-matrix:
 Charge =  0 Multiplicity = 1
 N                     2.48729   2.59067  -2.04606 
 C                     1.85845   1.83817  -1.42167 
 C                     1.09073   0.92126  -0.62803 
 C                    -0.17743   0.47544  -1.07109 
 C                    -0.69709   0.91157  -2.39854 
 C                    -1.88583   1.65057  -2.49828 
 C                    -2.34924   2.07252  -3.74287 
 C                    -1.63777   1.7579   -4.90213 
 C                    -0.45494   1.02361  -4.81185 
 C                     0.01591   0.60674  -3.568 
 C                    -0.92914  -0.35913  -0.21567 
 N                    -2.20776  -0.8152   -0.6437 
 C                    -2.44376  -1.80619  -1.60414 
 C                    -1.52714  -2.56746  -2.33182 
 C                    -2.03511  -3.51342  -3.22063 
 C                    -3.41886  -3.69935  -3.37961 
 C                    -4.32622  -2.94065  -2.64552 
 C                    -3.84227  -1.98446  -1.74544 
 C                    -4.47734  -1.05593  -0.83235 
 C                    -5.80999  -0.7493   -0.54461 
 C                    -6.09111   0.23077   0.40949 
 N                    -7.44173   0.54513   0.72933 
 C                    -8.04892   1.79551   0.5771 
 C                    -7.51417   2.98497   0.07464 
 C                    -8.34993   4.09829   0.01777 
 C                    -9.68743   4.03294   0.44553 
 C                    -10.21688   2.84265   0.93584 
 C                    -9.39921   1.7084    1.00377 
 C                    -9.61522   0.34234   1.43316 
 C                    -10.71694  -0.34524   1.95602 
 C                    -10.58186  -1.68969   2.28994 
 C                    -9.35445  -2.3513    2.11088 
 C                    -8.24243  -1.69165   1.59179 
 C                    -8.38753  -0.34449   1.24943 
 C                    -5.0454    0.91316   1.06252 
 C                    -3.71184   0.63825   0.77284 
 C                    -3.4387   -0.35555  -0.169 
 C                    -0.44912  -0.75501   1.05171 
 C                    -1.23464  -1.65671   1.9419 
 C                    -1.59061  -2.94823   1.52403 
 C                    -2.30526  -3.78994   2.37421 
 C                    -2.67915  -3.35286   3.64635 
 C                    -2.32935  -2.0702    4.0694 
 C                    -1.60714  -1.22849   3.22523 
 C                     0.82552  -0.29461   1.46004 
 C                     1.39548  -0.73572   2.70122 
 N                     1.87558  -1.09588   3.69686 
 C                     1.5957    0.54049   0.6294 
 N                     2.86412   0.99297   1.05423 
 C                     3.10074   1.96686   2.04017 
 C                     2.18536   2.69479   2.7993 
 C                     2.6951    3.62224   3.70595 
 C                     4.07838   3.82213   3.84755 
 C                     4.98365   3.09637   3.07883 
 C                     4.49742   2.15785   2.16188 
 C                     5.13228   1.26168   1.21567 
 C                     6.46527   0.98337   0.90269 
 C                     6.74744   0.03093  -0.07824 
 N                     8.09832  -0.25521  -0.42354 
 C                     8.73288  -1.49301  -0.28468 
 C                     8.23118  -2.69254   0.2278 
 C                     9.08967  -3.78917   0.26686 
 C                     10.41673  -3.69759  -0.18809 
 C                     10.91311  -2.49702  -0.68797 
 C                     10.07242  -1.37874  -0.73841 
 C                     10.25248  -0.00818  -1.17025 
 C                     11.3293   0.70258  -1.71378 
 C                     11.15981   2.04433  -2.04282 
 C                     9.92277   2.68054  -1.83858 
 C                     8.835     1.99785  -1.29854 
 C                     9.01508   0.65367  -0.96129 
 C                     5.70431  -0.65269  -0.73307 
 C                     4.37118  -0.40566  -0.41893 
 C                     4.09892   0.56133   0.54812 
 H                    -2.44225   1.90493  -1.60184 
 H                    -3.26722   2.64991  -3.80529 
 H                    -2.00255   2.08642  -5.87125 
 H                     0.10576   0.77611  -5.70851 
 H                     0.93853   0.03693  -3.50529 
 H                    -0.45708  -2.42658  -2.21646 
 H                    -1.34411  -4.11739  -3.80199 
 H                    -3.78193  -4.44456  -4.08117 
 H                    -5.39569  -3.09047  -2.76679 
 H                    -6.62513  -1.25297  -1.05505 
 H                    -6.48428   3.0395   -0.26314 
 H                    -7.95734   5.03532  -0.36807 
 H                    -10.3124   4.91965   0.38938 
 H                    -11.25343   2.79258   1.25921 
 H                    -11.66475   0.16644   2.10224 
 H                    -11.43031  -2.23358   2.69534 
 H                    -9.26744  -3.3995    2.38429 
 H                    -7.29538  -2.20555   1.46249 
 H                    -5.29447   1.66007   1.80942 
 H                    -2.9151    1.1707    1.28224 
 H                    -1.29995  -3.29852   0.53878 
 H                    -2.56771  -4.78999   2.04102 
 H                    -3.23808  -4.01046   4.30619 
 H                    -2.61493  -1.72276   5.058 
 H                    -1.33614  -0.23206   3.56226 
 H                     1.11502   2.54901   2.69178 
 H                     2.00575   4.20172   4.31346 
 H                     4.44313   4.55279   4.56335 
 H                     6.05279   3.25766   3.18602 
 H                     7.27948   1.48712   1.41433 
 H                     7.21023  -2.76633   0.58841 
 H                     8.72363  -4.73334   0.66134 
 H                     11.0601  -4.57187  -0.14472 
 H                     11.94192  -2.42659  -1.03185 
 H                     12.28443   0.21069  -1.87946 
 H                     11.98863   2.60605  -2.46436 
 H                     9.80836   3.72676  -2.10927 
 H                     7.88008   2.49179  -1.15062 
 H                     5.95506  -1.37947  -1.49893 
 H                     3.57616  -0.94452  -0.92457 
 
 ITRead=  0  0  0  0  0  0  0  0  0  0  0  0  0  0  0  0  0  0  0  0
 ITRead=  0  0  0  0  0  0  0  0  0  0  0  0  0  0  0  0  0  0  0  0
 ITRead=  0  0  0  0  0  0  0  0  0  0  0  0  0  0  0  0  0  0  0  0
 ITRead=  0  0  0  0  0  0  0  0  0  0  0  0  0  0  0  0  0  0  0  0
 ITRead=  0  0  0  0  0  0  0  0  0  0  0  0  0  0  0  0  0  0  0  0
 ITRead=  0  0  0  0  0  0  0  0  0  0  0  0  0  0
 MicOpt= -1 -1 -1 -1 -1 -1 -1 -1 -1 -1 -1 -1 -1 -1 -1 -1 -1 -1 -1 -1
 MicOpt= -1 -1 -1 -1 -1 -1 -1 -1 -1 -1 -1 -1 -1 -1 -1 -1 -1 -1 -1 -1
 MicOpt= -1 -1 -1 -1 -1 -1 -1 -1 -1 -1 -1 -1 -1 -1 -1 -1 -1 -1 -1 -1
 MicOpt= -1 -1 -1 -1 -1 -1 -1 -1 -1 -1 -1 -1 -1 -1 -1 -1 -1 -1 -1 -1
 MicOpt= -1 -1 -1 -1 -1 -1 -1 -1 -1 -1 -1 -1 -1 -1 -1 -1 -1 -1 -1 -1
 MicOpt= -1 -1 -1 -1 -1 -1 -1 -1 -1 -1 -1 -1 -1 -1
 NAtoms=    114 NQM=      114 NQMF=       0 NMMI=      0 NMMIF=      0
                NMic=       0 NMicF=      0.
                    Isotopes and Nuclear Properties:
 (Nuclear quadrupole moments (NQMom) in fm**2, nuclear magnetic moments (NMagM)
  in nuclear magnetons)

  Atom         1           2           3           4           5           6           7           8           9          10
 IAtWgt=          14          12          12          12          12          12          12          12          12          12
 AtmWgt=  14.0030740  12.0000000  12.0000000  12.0000000  12.0000000  12.0000000  12.0000000  12.0000000  12.0000000  12.0000000
 NucSpn=           2           0           0           0           0           0           0           0           0           0
 AtZEff=  -0.0000000  -0.0000000  -0.0000000  -0.0000000  -0.0000000  -0.0000000  -0.0000000  -0.0000000  -0.0000000  -0.0000000
 NQMom=    2.0440000   0.0000000   0.0000000   0.0000000   0.0000000   0.0000000   0.0000000   0.0000000   0.0000000   0.0000000
 NMagM=    0.4037610   0.0000000   0.0000000   0.0000000   0.0000000   0.0000000   0.0000000   0.0000000   0.0000000   0.0000000
 AtZNuc=   7.0000000   6.0000000   6.0000000   6.0000000   6.0000000   6.0000000   6.0000000   6.0000000   6.0000000   6.0000000

  Atom        11          12          13          14          15          16          17          18          19          20
 IAtWgt=          12          14          12          12          12          12          12          12          12          12
 AtmWgt=  12.0000000  14.0030740  12.0000000  12.0000000  12.0000000  12.0000000  12.0000000  12.0000000  12.0000000  12.0000000
 NucSpn=           0           2           0           0           0           0           0           0           0           0
 AtZEff=  -0.0000000  -0.0000000  -0.0000000  -0.0000000  -0.0000000  -0.0000000  -0.0000000  -0.0000000  -0.0000000  -0.0000000
 NQMom=    0.0000000   2.0440000   0.0000000   0.0000000   0.0000000   0.0000000   0.0000000   0.0000000   0.0000000   0.0000000
 NMagM=    0.0000000   0.4037610   0.0000000   0.0000000   0.0000000   0.0000000   0.0000000   0.0000000   0.0000000   0.0000000
 AtZNuc=   6.0000000   7.0000000   6.0000000   6.0000000   6.0000000   6.0000000   6.0000000   6.0000000   6.0000000   6.0000000

  Atom        21          22          23          24          25          26          27          28          29          30
 IAtWgt=          12          14          12          12          12          12          12          12          12          12
 AtmWgt=  12.0000000  14.0030740  12.0000000  12.0000000  12.0000000  12.0000000  12.0000000  12.0000000  12.0000000  12.0000000
 NucSpn=           0           2           0           0           0           0           0           0           0           0
 AtZEff=  -0.0000000  -0.0000000  -0.0000000  -0.0000000  -0.0000000  -0.0000000  -0.0000000  -0.0000000  -0.0000000  -0.0000000
 NQMom=    0.0000000   2.0440000   0.0000000   0.0000000   0.0000000   0.0000000   0.0000000   0.0000000   0.0000000   0.0000000
 NMagM=    0.0000000   0.4037610   0.0000000   0.0000000   0.0000000   0.0000000   0.0000000   0.0000000   0.0000000   0.0000000
 AtZNuc=   6.0000000   7.0000000   6.0000000   6.0000000   6.0000000   6.0000000   6.0000000   6.0000000   6.0000000   6.0000000

  Atom        31          32          33          34          35          36          37          38          39          40
 IAtWgt=          12          12          12          12          12          12          12          12          12          12
 AtmWgt=  12.0000000  12.0000000  12.0000000  12.0000000  12.0000000  12.0000000  12.0000000  12.0000000  12.0000000  12.0000000
 NucSpn=           0           0           0           0           0           0           0           0           0           0
 AtZEff=  -0.0000000  -0.0000000  -0.0000000  -0.0000000  -0.0000000  -0.0000000  -0.0000000  -0.0000000  -0.0000000  -0.0000000
 NQMom=    0.0000000   0.0000000   0.0000000   0.0000000   0.0000000   0.0000000   0.0000000   0.0000000   0.0000000   0.0000000
 NMagM=    0.0000000   0.0000000   0.0000000   0.0000000   0.0000000   0.0000000   0.0000000   0.0000000   0.0000000   0.0000000
 AtZNuc=   6.0000000   6.0000000   6.0000000   6.0000000   6.0000000   6.0000000   6.0000000   6.0000000   6.0000000   6.0000000

  Atom        41          42          43          44          45          46          47          48          49          50
 IAtWgt=          12          12          12          12          12          12          14          12          14          12
 AtmWgt=  12.0000000  12.0000000  12.0000000  12.0000000  12.0000000  12.0000000  14.0030740  12.0000000  14.0030740  12.0000000
 NucSpn=           0           0           0           0           0           0           2           0           2           0
 AtZEff=  -0.0000000  -0.0000000  -0.0000000  -0.0000000  -0.0000000  -0.0000000  -0.0000000  -0.0000000  -0.0000000  -0.0000000
 NQMom=    0.0000000   0.0000000   0.0000000   0.0000000   0.0000000   0.0000000   2.0440000   0.0000000   2.0440000   0.0000000
 NMagM=    0.0000000   0.0000000   0.0000000   0.0000000   0.0000000   0.0000000   0.4037610   0.0000000   0.4037610   0.0000000
 AtZNuc=   6.0000000   6.0000000   6.0000000   6.0000000   6.0000000   6.0000000   7.0000000   6.0000000   7.0000000   6.0000000

  Atom        51          52          53          54          55          56          57          58          59          60
 IAtWgt=          12          12          12          12          12          12          12          12          14          12
 AtmWgt=  12.0000000  12.0000000  12.0000000  12.0000000  12.0000000  12.0000000  12.0000000  12.0000000  14.0030740  12.0000000
 NucSpn=           0           0           0           0           0           0           0           0           2           0
 AtZEff=  -0.0000000  -0.0000000  -0.0000000  -0.0000000  -0.0000000  -0.0000000  -0.0000000  -0.0000000  -0.0000000  -0.0000000
 NQMom=    0.0000000   0.0000000   0.0000000   0.0000000   0.0000000   0.0000000   0.0000000   0.0000000   2.0440000   0.0000000
 NMagM=    0.0000000   0.0000000   0.0000000   0.0000000   0.0000000   0.0000000   0.0000000   0.0000000   0.4037610   0.0000000
 AtZNuc=   6.0000000   6.0000000   6.0000000   6.0000000   6.0000000   6.0000000   6.0000000   6.0000000   7.0000000   6.0000000

  Atom        61          62          63          64          65          66          67          68          69          70
 IAtWgt=          12          12          12          12          12          12          12          12          12          12
 AtmWgt=  12.0000000  12.0000000  12.0000000  12.0000000  12.0000000  12.0000000  12.0000000  12.0000000  12.0000000  12.0000000
 NucSpn=           0           0           0           0           0           0           0           0           0           0
 AtZEff=  -0.0000000  -0.0000000  -0.0000000  -0.0000000  -0.0000000  -0.0000000  -0.0000000  -0.0000000  -0.0000000  -0.0000000
 NQMom=    0.0000000   0.0000000   0.0000000   0.0000000   0.0000000   0.0000000   0.0000000   0.0000000   0.0000000   0.0000000
 NMagM=    0.0000000   0.0000000   0.0000000   0.0000000   0.0000000   0.0000000   0.0000000   0.0000000   0.0000000   0.0000000
 AtZNuc=   6.0000000   6.0000000   6.0000000   6.0000000   6.0000000   6.0000000   6.0000000   6.0000000   6.0000000   6.0000000

  Atom        71          72          73          74          75          76          77          78          79          80
 IAtWgt=          12          12          12          12           1           1           1           1           1           1
 AtmWgt=  12.0000000  12.0000000  12.0000000  12.0000000   1.0078250   1.0078250   1.0078250   1.0078250   1.0078250   1.0078250
 NucSpn=           0           0           0           0           1           1           1           1           1           1
 AtZEff=  -0.0000000  -0.0000000  -0.0000000  -0.0000000  -0.0000000  -0.0000000  -0.0000000  -0.0000000  -0.0000000  -0.0000000
 NQMom=    0.0000000   0.0000000   0.0000000   0.0000000   0.0000000   0.0000000   0.0000000   0.0000000   0.0000000   0.0000000
 NMagM=    0.0000000   0.0000000   0.0000000   0.0000000   2.7928460   2.7928460   2.7928460   2.7928460   2.7928460   2.7928460
 AtZNuc=   6.0000000   6.0000000   6.0000000   6.0000000   1.0000000   1.0000000   1.0000000   1.0000000   1.0000000   1.0000000

  Atom        81          82          83          84          85          86          87          88          89          90
 IAtWgt=           1           1           1           1           1           1           1           1           1           1
 AtmWgt=   1.0078250   1.0078250   1.0078250   1.0078250   1.0078250   1.0078250   1.0078250   1.0078250   1.0078250   1.0078250
 NucSpn=           1           1           1           1           1           1           1           1           1           1
 AtZEff=  -0.0000000  -0.0000000  -0.0000000  -0.0000000  -0.0000000  -0.0000000  -0.0000000  -0.0000000  -0.0000000  -0.0000000
 NQMom=    0.0000000   0.0000000   0.0000000   0.0000000   0.0000000   0.0000000   0.0000000   0.0000000   0.0000000   0.0000000
 NMagM=    2.7928460   2.7928460   2.7928460   2.7928460   2.7928460   2.7928460   2.7928460   2.7928460   2.7928460   2.7928460
 AtZNuc=   1.0000000   1.0000000   1.0000000   1.0000000   1.0000000   1.0000000   1.0000000   1.0000000   1.0000000   1.0000000

  Atom        91          92          93          94          95          96          97          98          99         100
 IAtWgt=           1           1           1           1           1           1           1           1           1           1
 AtmWgt=   1.0078250   1.0078250   1.0078250   1.0078250   1.0078250   1.0078250   1.0078250   1.0078250   1.0078250   1.0078250
 NucSpn=           1           1           1           1           1           1           1           1           1           1
 AtZEff=  -0.0000000  -0.0000000  -0.0000000  -0.0000000  -0.0000000  -0.0000000  -0.0000000  -0.0000000  -0.0000000  -0.0000000
 NQMom=    0.0000000   0.0000000   0.0000000   0.0000000   0.0000000   0.0000000   0.0000000   0.0000000   0.0000000   0.0000000
 NMagM=    2.7928460   2.7928460   2.7928460   2.7928460   2.7928460   2.7928460   2.7928460   2.7928460   2.7928460   2.7928460
 AtZNuc=   1.0000000   1.0000000   1.0000000   1.0000000   1.0000000   1.0000000   1.0000000   1.0000000   1.0000000   1.0000000

  Atom       101         102         103         104         105         106         107         108         109         110
 IAtWgt=           1           1           1           1           1           1           1           1           1           1
 AtmWgt=   1.0078250   1.0078250   1.0078250   1.0078250   1.0078250   1.0078250   1.0078250   1.0078250   1.0078250   1.0078250
 NucSpn=           1           1           1           1           1           1           1           1           1           1
 AtZEff=  -0.0000000  -0.0000000  -0.0000000  -0.0000000  -0.0000000  -0.0000000  -0.0000000  -0.0000000  -0.0000000  -0.0000000
 NQMom=    0.0000000   0.0000000   0.0000000   0.0000000   0.0000000   0.0000000   0.0000000   0.0000000   0.0000000   0.0000000
 NMagM=    2.7928460   2.7928460   2.7928460   2.7928460   2.7928460   2.7928460   2.7928460   2.7928460   2.7928460   2.7928460
 AtZNuc=   1.0000000   1.0000000   1.0000000   1.0000000   1.0000000   1.0000000   1.0000000   1.0000000   1.0000000   1.0000000

  Atom       111         112         113         114
 IAtWgt=           1           1           1           1
 AtmWgt=   1.0078250   1.0078250   1.0078250   1.0078250
 NucSpn=           1           1           1           1
 AtZEff=  -0.0000000  -0.0000000  -0.0000000  -0.0000000
 NQMom=    0.0000000   0.0000000   0.0000000   0.0000000
 NMagM=    2.7928460   2.7928460   2.7928460   2.7928460
 AtZNuc=   1.0000000   1.0000000   1.0000000   1.0000000
 Leave Link  101 at Sat Nov  5 10:54:36 2022, MaxMem=   402653184 cpu:               2.2 elap:               0.4
 (Enter /home/wykgroup/appl/g16/l202.exe)
 Symmetry turned off by external request.
 Stoichiometry    C68H40N6
 Framework group  C1[X(C68H40N6)]
 Deg. of freedom   336
 Full point group                 C1      NOp   1
                          Input orientation:                          
 ---------------------------------------------------------------------
 Center     Atomic      Atomic             Coordinates (Angstroms)
 Number     Number       Type             X           Y           Z
 ---------------------------------------------------------------------
      1          7           0        2.487286    2.590675   -2.046065
      2          6           0        1.858449    1.838171   -1.421673
      3          6           0        1.090734    0.921263   -0.628029
      4          6           0       -0.177426    0.475445   -1.071095
      5          6           0       -0.697086    0.911566   -2.398543
      6          6           0       -1.885830    1.650571   -2.498281
      7          6           0       -2.349240    2.072523   -3.742872
      8          6           0       -1.637772    1.757902   -4.902129
      9          6           0       -0.454943    1.023607   -4.811847
     10          6           0        0.015915    0.606742   -3.567999
     11          6           0       -0.929142   -0.359134   -0.215669
     12          7           0       -2.207762   -0.815195   -0.643699
     13          6           0       -2.443765   -1.806188   -1.604140
     14          6           0       -1.527140   -2.567458   -2.331822
     15          6           0       -2.035113   -3.513421   -3.220635
     16          6           0       -3.418864   -3.699350   -3.379609
     17          6           0       -4.326221   -2.940648   -2.645520
     18          6           0       -3.842273   -1.984462   -1.745438
     19          6           0       -4.477338   -1.055935   -0.832346
     20          6           0       -5.809989   -0.749299   -0.544608
     21          6           0       -6.091110    0.230768    0.409489
     22          7           0       -7.441730    0.545128    0.729325
     23          6           0       -8.048925    1.795511    0.577100
     24          6           0       -7.514171    2.984974    0.074644
     25          6           0       -8.349934    4.098292    0.017774
     26          6           0       -9.687431    4.032943    0.445526
     27          6           0      -10.216877    2.842655    0.935835
     28          6           0       -9.399214    1.708398    1.003775
     29          6           0       -9.615222    0.342338    1.433155
     30          6           0      -10.716944   -0.345243    1.956016
     31          6           0      -10.581864   -1.689687    2.289944
     32          6           0       -9.354446   -2.351299    2.110879
     33          6           0       -8.242431   -1.691652    1.591786
     34          6           0       -8.387533   -0.344492    1.249435
     35          6           0       -5.045401    0.913164    1.062522
     36          6           0       -3.711843    0.638249    0.772841
     37          6           0       -3.438701   -0.355554   -0.168997
     38          6           0       -0.449117   -0.755005    1.051708
     39          6           0       -1.234639   -1.656714    1.941896
     40          6           0       -1.590609   -2.948234    1.524026
     41          6           0       -2.305262   -3.789937    2.374214
     42          6           0       -2.679151   -3.352858    3.646352
     43          6           0       -2.329355   -2.070196    4.069398
     44          6           0       -1.607143   -1.228494    3.225234
     45          6           0        0.825524   -0.294614    1.460042
     46          6           0        1.395483   -0.735722    2.701216
     47          7           0        1.875576   -1.095885    3.696865
     48          6           0        1.595699    0.540487    0.629397
     49          7           0        2.864125    0.992967    1.054234
     50          6           0        3.100735    1.966855    2.040172
     51          6           0        2.185360    2.694790    2.799298
     52          6           0        2.695096    3.622243    3.705954
     53          6           0        4.078376    3.822129    3.847552
     54          6           0        4.983650    3.096369    3.078834
     55          6           0        4.497421    2.157853    2.161876
     56          6           0        5.132278    1.261680    1.215671
     57          6           0        6.465275    0.983374    0.902693
     58          6           0        6.747439    0.030933   -0.078239
     59          7           0        8.098315   -0.255211   -0.423543
     60          6           0        8.732878   -1.493013   -0.284684
     61          6           0        8.231179   -2.692543    0.227799
     62          6           0        9.089666   -3.789171    0.266864
     63          6           0       10.416729   -3.697588   -0.188093
     64          6           0       10.913108   -2.497017   -0.687972
     65          6           0       10.072418   -1.378739   -0.738415
     66          6           0       10.252480   -0.008185   -1.170254
     67          6           0       11.329301    0.702580   -1.713777
     68          6           0       11.159809    2.044330   -2.042823
     69          6           0        9.922771    2.680536   -1.838576
     70          6           0        8.835003    1.997848   -1.298535
     71          6           0        9.015077    0.653673   -0.961293
     72          6           0        5.704308   -0.652693   -0.733067
     73          6           0        4.371182   -0.405659   -0.418934
     74          6           0        4.098921    0.561330    0.548125
     75          1           0       -2.442251    1.904926   -1.601840
     76          1           0       -3.267220    2.649910   -3.805292
     77          1           0       -2.002545    2.086420   -5.871252
     78          1           0        0.105762    0.776105   -5.708508
     79          1           0        0.938526    0.036926   -3.505288
     80          1           0       -0.457081   -2.426577   -2.216462
     81          1           0       -1.344108   -4.117388   -3.801992
     82          1           0       -3.781934   -4.444558   -4.081165
     83          1           0       -5.395688   -3.090470   -2.766795
     84          1           0       -6.625130   -1.252970   -1.055054
     85          1           0       -6.484284    3.039504   -0.263139
     86          1           0       -7.957341    5.035316   -0.368070
     87          1           0      -10.312403    4.919648    0.389385
     88          1           0      -11.253433    2.792577    1.259207
     89          1           0      -11.664751    0.166436    2.102240
     90          1           0      -11.430307   -2.233582    2.695341
     91          1           0       -9.267439   -3.399498    2.384294
     92          1           0       -7.295383   -2.205549    1.462486
     93          1           0       -5.294471    1.660067    1.809418
     94          1           0       -2.915098    1.170704    1.282244
     95          1           0       -1.299948   -3.298518    0.538783
     96          1           0       -2.567706   -4.789992    2.041020
     97          1           0       -3.238076   -4.010457    4.306189
     98          1           0       -2.614930   -1.722758    5.058002
     99          1           0       -1.336138   -0.232059    3.562264
    100          1           0        1.115017    2.549014    2.691777
    101          1           0        2.005747    4.201723    4.313463
    102          1           0        4.443131    4.552790    4.563352
    103          1           0        6.052793    3.257659    3.186024
    104          1           0        7.279485    1.487115    1.414327
    105          1           0        7.210227   -2.766331    0.588413
    106          1           0        8.723630   -4.733341    0.661339
    107          1           0       11.060096   -4.571867   -0.144721
    108          1           0       11.941916   -2.426586   -1.031852
    109          1           0       12.284431    0.210694   -1.879463
    110          1           0       11.988625    2.606053   -2.464359
    111          1           0        9.808360    3.726759   -2.109274
    112          1           0        7.880082    2.491787   -1.150618
    113          1           0        5.955060   -1.379468   -1.498933
    114          1           0        3.576163   -0.944524   -0.924567
 ---------------------------------------------------------------------
 Rotational constants (GHZ):           0.0626745           0.0124781           0.0124413
 Leave Link  202 at Sat Nov  5 10:54:37 2022, MaxMem=   402653184 cpu:               1.1 elap:               0.2
 (Enter /home/wykgroup/appl/g16/l301.exe)
 Standard basis: 6-31G(d) (6D, 10F)
 Ernie: Thresh=  0.10000D-02 Tol=  0.10000D-05 Strict=F.
 AO basis set in the form of general basis input (Overlap normalization):
      1 0
 S   6 1.00       0.000000000000
      0.4173511460D+04  0.1834772160D-02
      0.6274579110D+03  0.1399462700D-01
      0.1429020930D+03  0.6858655181D-01
      0.4023432930D+02  0.2322408730D+00
      0.1282021290D+02  0.4690699481D+00
      0.4390437010D+01  0.3604551991D+00
 SP   3 1.00       0.000000000000
      0.1162636186D+02 -0.1149611817D+00  0.6757974388D-01
      0.2716279807D+01 -0.1691174786D+00  0.3239072959D+00
      0.7722183966D+00  0.1145851947D+01  0.7408951398D+00
 SP   1 1.00       0.000000000000
      0.2120314975D+00  0.1000000000D+01  0.1000000000D+01
 D   1 1.00       0.000000000000
      0.8000000000D+00  0.1000000000D+01
 ****
      2 0
 S   6 1.00       0.000000000000
      0.3047524880D+04  0.1834737132D-02
      0.4573695180D+03  0.1403732281D-01
      0.1039486850D+03  0.6884262226D-01
      0.2921015530D+02  0.2321844432D+00
      0.9286662960D+01  0.4679413484D+00
      0.3163926960D+01  0.3623119853D+00
 SP   3 1.00       0.000000000000
      0.7868272350D+01 -0.1193324198D+00  0.6899906659D-01
      0.1881288540D+01 -0.1608541517D+00  0.3164239610D+00
      0.5442492580D+00  0.1143456438D+01  0.7443082909D+00
 SP   1 1.00       0.000000000000
      0.1687144782D+00  0.1000000000D+01  0.1000000000D+01
 D   1 1.00       0.000000000000
      0.8000000000D+00  0.1000000000D+01
 ****
      3 0
 S   6 1.00       0.000000000000
      0.3047524880D+04  0.1834737132D-02
      0.4573695180D+03  0.1403732281D-01
      0.1039486850D+03  0.6884262226D-01
      0.2921015530D+02  0.2321844432D+00
      0.9286662960D+01  0.4679413484D+00
      0.3163926960D+01  0.3623119853D+00
 SP   3 1.00       0.000000000000
      0.7868272350D+01 -0.1193324198D+00  0.6899906659D-01
      0.1881288540D+01 -0.1608541517D+00  0.3164239610D+00
      0.5442492580D+00  0.1143456438D+01  0.7443082909D+00
 SP   1 1.00       0.000000000000
      0.1687144782D+00  0.1000000000D+01  0.1000000000D+01
 D   1 1.00       0.000000000000
      0.8000000000D+00  0.1000000000D+01
 ****
      4 0
 S   6 1.00       0.000000000000
      0.3047524880D+04  0.1834737132D-02
      0.4573695180D+03  0.1403732281D-01
      0.1039486850D+03  0.6884262226D-01
      0.2921015530D+02  0.2321844432D+00
      0.9286662960D+01  0.4679413484D+00
      0.3163926960D+01  0.3623119853D+00
 SP   3 1.00       0.000000000000
      0.7868272350D+01 -0.1193324198D+00  0.6899906659D-01
      0.1881288540D+01 -0.1608541517D+00  0.3164239610D+00
      0.5442492580D+00  0.1143456438D+01  0.7443082909D+00
 SP   1 1.00       0.000000000000
      0.1687144782D+00  0.1000000000D+01  0.1000000000D+01
 D   1 1.00       0.000000000000
      0.8000000000D+00  0.1000000000D+01
 ****
      5 0
 S   6 1.00       0.000000000000
      0.3047524880D+04  0.1834737132D-02
      0.4573695180D+03  0.1403732281D-01
      0.1039486850D+03  0.6884262226D-01
      0.2921015530D+02  0.2321844432D+00
      0.9286662960D+01  0.4679413484D+00
      0.3163926960D+01  0.3623119853D+00
 SP   3 1.00       0.000000000000
      0.7868272350D+01 -0.1193324198D+00  0.6899906659D-01
      0.1881288540D+01 -0.1608541517D+00  0.3164239610D+00
      0.5442492580D+00  0.1143456438D+01  0.7443082909D+00
 SP   1 1.00       0.000000000000
      0.1687144782D+00  0.1000000000D+01  0.1000000000D+01
 D   1 1.00       0.000000000000
      0.8000000000D+00  0.1000000000D+01
 ****
      6 0
 S   6 1.00       0.000000000000
      0.3047524880D+04  0.1834737132D-02
      0.4573695180D+03  0.1403732281D-01
      0.1039486850D+03  0.6884262226D-01
      0.2921015530D+02  0.2321844432D+00
      0.9286662960D+01  0.4679413484D+00
      0.3163926960D+01  0.3623119853D+00
 SP   3 1.00       0.000000000000
      0.7868272350D+01 -0.1193324198D+00  0.6899906659D-01
      0.1881288540D+01 -0.1608541517D+00  0.3164239610D+00
      0.5442492580D+00  0.1143456438D+01  0.7443082909D+00
 SP   1 1.00       0.000000000000
      0.1687144782D+00  0.1000000000D+01  0.1000000000D+01
 D   1 1.00       0.000000000000
      0.8000000000D+00  0.1000000000D+01
 ****
      7 0
 S   6 1.00       0.000000000000
      0.3047524880D+04  0.1834737132D-02
      0.4573695180D+03  0.1403732281D-01
      0.1039486850D+03  0.6884262226D-01
      0.2921015530D+02  0.2321844432D+00
      0.9286662960D+01  0.4679413484D+00
      0.3163926960D+01  0.3623119853D+00
 SP   3 1.00       0.000000000000
      0.7868272350D+01 -0.1193324198D+00  0.6899906659D-01
      0.1881288540D+01 -0.1608541517D+00  0.3164239610D+00
      0.5442492580D+00  0.1143456438D+01  0.7443082909D+00
 SP   1 1.00       0.000000000000
      0.1687144782D+00  0.1000000000D+01  0.1000000000D+01
 D   1 1.00       0.000000000000
      0.8000000000D+00  0.1000000000D+01
 ****
      8 0
 S   6 1.00       0.000000000000
      0.3047524880D+04  0.1834737132D-02
      0.4573695180D+03  0.1403732281D-01
      0.1039486850D+03  0.6884262226D-01
      0.2921015530D+02  0.2321844432D+00
      0.9286662960D+01  0.4679413484D+00
      0.3163926960D+01  0.3623119853D+00
 SP   3 1.00       0.000000000000
      0.7868272350D+01 -0.1193324198D+00  0.6899906659D-01
      0.1881288540D+01 -0.1608541517D+00  0.3164239610D+00
      0.5442492580D+00  0.1143456438D+01  0.7443082909D+00
 SP   1 1.00       0.000000000000
      0.1687144782D+00  0.1000000000D+01  0.1000000000D+01
 D   1 1.00       0.000000000000
      0.8000000000D+00  0.1000000000D+01
 ****
      9 0
 S   6 1.00       0.000000000000
      0.3047524880D+04  0.1834737132D-02
      0.4573695180D+03  0.1403732281D-01
      0.1039486850D+03  0.6884262226D-01
      0.2921015530D+02  0.2321844432D+00
      0.9286662960D+01  0.4679413484D+00
      0.3163926960D+01  0.3623119853D+00
 SP   3 1.00       0.000000000000
      0.7868272350D+01 -0.1193324198D+00  0.6899906659D-01
      0.1881288540D+01 -0.1608541517D+00  0.3164239610D+00
      0.5442492580D+00  0.1143456438D+01  0.7443082909D+00
 SP   1 1.00       0.000000000000
      0.1687144782D+00  0.1000000000D+01  0.1000000000D+01
 D   1 1.00       0.000000000000
      0.8000000000D+00  0.1000000000D+01
 ****
     10 0
 S   6 1.00       0.000000000000
      0.3047524880D+04  0.1834737132D-02
      0.4573695180D+03  0.1403732281D-01
      0.1039486850D+03  0.6884262226D-01
      0.2921015530D+02  0.2321844432D+00
      0.9286662960D+01  0.4679413484D+00
      0.3163926960D+01  0.3623119853D+00
 SP   3 1.00       0.000000000000
      0.7868272350D+01 -0.1193324198D+00  0.6899906659D-01
      0.1881288540D+01 -0.1608541517D+00  0.3164239610D+00
      0.5442492580D+00  0.1143456438D+01  0.7443082909D+00
 SP   1 1.00       0.000000000000
      0.1687144782D+00  0.1000000000D+01  0.1000000000D+01
 D   1 1.00       0.000000000000
      0.8000000000D+00  0.1000000000D+01
 ****
     11 0
 S   6 1.00       0.000000000000
      0.3047524880D+04  0.1834737132D-02
      0.4573695180D+03  0.1403732281D-01
      0.1039486850D+03  0.6884262226D-01
      0.2921015530D+02  0.2321844432D+00
      0.9286662960D+01  0.4679413484D+00
      0.3163926960D+01  0.3623119853D+00
 SP   3 1.00       0.000000000000
      0.7868272350D+01 -0.1193324198D+00  0.6899906659D-01
      0.1881288540D+01 -0.1608541517D+00  0.3164239610D+00
      0.5442492580D+00  0.1143456438D+01  0.7443082909D+00
 SP   1 1.00       0.000000000000
      0.1687144782D+00  0.1000000000D+01  0.1000000000D+01
 D   1 1.00       0.000000000000
      0.8000000000D+00  0.1000000000D+01
 ****
     12 0
 S   6 1.00       0.000000000000
      0.4173511460D+04  0.1834772160D-02
      0.6274579110D+03  0.1399462700D-01
      0.1429020930D+03  0.6858655181D-01
      0.4023432930D+02  0.2322408730D+00
      0.1282021290D+02  0.4690699481D+00
      0.4390437010D+01  0.3604551991D+00
 SP   3 1.00       0.000000000000
      0.1162636186D+02 -0.1149611817D+00  0.6757974388D-01
      0.2716279807D+01 -0.1691174786D+00  0.3239072959D+00
      0.7722183966D+00  0.1145851947D+01  0.7408951398D+00
 SP   1 1.00       0.000000000000
      0.2120314975D+00  0.1000000000D+01  0.1000000000D+01
 D   1 1.00       0.000000000000
      0.8000000000D+00  0.1000000000D+01
 ****
     13 0
 S   6 1.00       0.000000000000
      0.3047524880D+04  0.1834737132D-02
      0.4573695180D+03  0.1403732281D-01
      0.1039486850D+03  0.6884262226D-01
      0.2921015530D+02  0.2321844432D+00
      0.9286662960D+01  0.4679413484D+00
      0.3163926960D+01  0.3623119853D+00
 SP   3 1.00       0.000000000000
      0.7868272350D+01 -0.1193324198D+00  0.6899906659D-01
      0.1881288540D+01 -0.1608541517D+00  0.3164239610D+00
      0.5442492580D+00  0.1143456438D+01  0.7443082909D+00
 SP   1 1.00       0.000000000000
      0.1687144782D+00  0.1000000000D+01  0.1000000000D+01
 D   1 1.00       0.000000000000
      0.8000000000D+00  0.1000000000D+01
 ****
     14 0
 S   6 1.00       0.000000000000
      0.3047524880D+04  0.1834737132D-02
      0.4573695180D+03  0.1403732281D-01
      0.1039486850D+03  0.6884262226D-01
      0.2921015530D+02  0.2321844432D+00
      0.9286662960D+01  0.4679413484D+00
      0.3163926960D+01  0.3623119853D+00
 SP   3 1.00       0.000000000000
      0.7868272350D+01 -0.1193324198D+00  0.6899906659D-01
      0.1881288540D+01 -0.1608541517D+00  0.3164239610D+00
      0.5442492580D+00  0.1143456438D+01  0.7443082909D+00
 SP   1 1.00       0.000000000000
      0.1687144782D+00  0.1000000000D+01  0.1000000000D+01
 D   1 1.00       0.000000000000
      0.8000000000D+00  0.1000000000D+01
 ****
     15 0
 S   6 1.00       0.000000000000
      0.3047524880D+04  0.1834737132D-02
      0.4573695180D+03  0.1403732281D-01
      0.1039486850D+03  0.6884262226D-01
      0.2921015530D+02  0.2321844432D+00
      0.9286662960D+01  0.4679413484D+00
      0.3163926960D+01  0.3623119853D+00
 SP   3 1.00       0.000000000000
      0.7868272350D+01 -0.1193324198D+00  0.6899906659D-01
      0.1881288540D+01 -0.1608541517D+00  0.3164239610D+00
      0.5442492580D+00  0.1143456438D+01  0.7443082909D+00
 SP   1 1.00       0.000000000000
      0.1687144782D+00  0.1000000000D+01  0.1000000000D+01
 D   1 1.00       0.000000000000
      0.8000000000D+00  0.1000000000D+01
 ****
     16 0
 S   6 1.00       0.000000000000
      0.3047524880D+04  0.1834737132D-02
      0.4573695180D+03  0.1403732281D-01
      0.1039486850D+03  0.6884262226D-01
      0.2921015530D+02  0.2321844432D+00
      0.9286662960D+01  0.4679413484D+00
      0.3163926960D+01  0.3623119853D+00
 SP   3 1.00       0.000000000000
      0.7868272350D+01 -0.1193324198D+00  0.6899906659D-01
      0.1881288540D+01 -0.1608541517D+00  0.3164239610D+00
      0.5442492580D+00  0.1143456438D+01  0.7443082909D+00
 SP   1 1.00       0.000000000000
      0.1687144782D+00  0.1000000000D+01  0.1000000000D+01
 D   1 1.00       0.000000000000
      0.8000000000D+00  0.1000000000D+01
 ****
     17 0
 S   6 1.00       0.000000000000
      0.3047524880D+04  0.1834737132D-02
      0.4573695180D+03  0.1403732281D-01
      0.1039486850D+03  0.6884262226D-01
      0.2921015530D+02  0.2321844432D+00
      0.9286662960D+01  0.4679413484D+00
      0.3163926960D+01  0.3623119853D+00
 SP   3 1.00       0.000000000000
      0.7868272350D+01 -0.1193324198D+00  0.6899906659D-01
      0.1881288540D+01 -0.1608541517D+00  0.3164239610D+00
      0.5442492580D+00  0.1143456438D+01  0.7443082909D+00
 SP   1 1.00       0.000000000000
      0.1687144782D+00  0.1000000000D+01  0.1000000000D+01
 D   1 1.00       0.000000000000
      0.8000000000D+00  0.1000000000D+01
 ****
     18 0
 S   6 1.00       0.000000000000
      0.3047524880D+04  0.1834737132D-02
      0.4573695180D+03  0.1403732281D-01
      0.1039486850D+03  0.6884262226D-01
      0.2921015530D+02  0.2321844432D+00
      0.9286662960D+01  0.4679413484D+00
      0.3163926960D+01  0.3623119853D+00
 SP   3 1.00       0.000000000000
      0.7868272350D+01 -0.1193324198D+00  0.6899906659D-01
      0.1881288540D+01 -0.1608541517D+00  0.3164239610D+00
      0.5442492580D+00  0.1143456438D+01  0.7443082909D+00
 SP   1 1.00       0.000000000000
      0.1687144782D+00  0.1000000000D+01  0.1000000000D+01
 D   1 1.00       0.000000000000
      0.8000000000D+00  0.1000000000D+01
 ****
     19 0
 S   6 1.00       0.000000000000
      0.3047524880D+04  0.1834737132D-02
      0.4573695180D+03  0.1403732281D-01
      0.1039486850D+03  0.6884262226D-01
      0.2921015530D+02  0.2321844432D+00
      0.9286662960D+01  0.4679413484D+00
      0.3163926960D+01  0.3623119853D+00
 SP   3 1.00       0.000000000000
      0.7868272350D+01 -0.1193324198D+00  0.6899906659D-01
      0.1881288540D+01 -0.1608541517D+00  0.3164239610D+00
      0.5442492580D+00  0.1143456438D+01  0.7443082909D+00
 SP   1 1.00       0.000000000000
      0.1687144782D+00  0.1000000000D+01  0.1000000000D+01
 D   1 1.00       0.000000000000
      0.8000000000D+00  0.1000000000D+01
 ****
     20 0
 S   6 1.00       0.000000000000
      0.3047524880D+04  0.1834737132D-02
      0.4573695180D+03  0.1403732281D-01
      0.1039486850D+03  0.6884262226D-01
      0.2921015530D+02  0.2321844432D+00
      0.9286662960D+01  0.4679413484D+00
      0.3163926960D+01  0.3623119853D+00
 SP   3 1.00       0.000000000000
      0.7868272350D+01 -0.1193324198D+00  0.6899906659D-01
      0.1881288540D+01 -0.1608541517D+00  0.3164239610D+00
      0.5442492580D+00  0.1143456438D+01  0.7443082909D+00
 SP   1 1.00       0.000000000000
      0.1687144782D+00  0.1000000000D+01  0.1000000000D+01
 D   1 1.00       0.000000000000
      0.8000000000D+00  0.1000000000D+01
 ****
     21 0
 S   6 1.00       0.000000000000
      0.3047524880D+04  0.1834737132D-02
      0.4573695180D+03  0.1403732281D-01
      0.1039486850D+03  0.6884262226D-01
      0.2921015530D+02  0.2321844432D+00
      0.9286662960D+01  0.4679413484D+00
      0.3163926960D+01  0.3623119853D+00
 SP   3 1.00       0.000000000000
      0.7868272350D+01 -0.1193324198D+00  0.6899906659D-01
      0.1881288540D+01 -0.1608541517D+00  0.3164239610D+00
      0.5442492580D+00  0.1143456438D+01  0.7443082909D+00
 SP   1 1.00       0.000000000000
      0.1687144782D+00  0.1000000000D+01  0.1000000000D+01
 D   1 1.00       0.000000000000
      0.8000000000D+00  0.1000000000D+01
 ****
     22 0
 S   6 1.00       0.000000000000
      0.4173511460D+04  0.1834772160D-02
      0.6274579110D+03  0.1399462700D-01
      0.1429020930D+03  0.6858655181D-01
      0.4023432930D+02  0.2322408730D+00
      0.1282021290D+02  0.4690699481D+00
      0.4390437010D+01  0.3604551991D+00
 SP   3 1.00       0.000000000000
      0.1162636186D+02 -0.1149611817D+00  0.6757974388D-01
      0.2716279807D+01 -0.1691174786D+00  0.3239072959D+00
      0.7722183966D+00  0.1145851947D+01  0.7408951398D+00
 SP   1 1.00       0.000000000000
      0.2120314975D+00  0.1000000000D+01  0.1000000000D+01
 D   1 1.00       0.000000000000
      0.8000000000D+00  0.1000000000D+01
 ****
     23 0
 S   6 1.00       0.000000000000
      0.3047524880D+04  0.1834737132D-02
      0.4573695180D+03  0.1403732281D-01
      0.1039486850D+03  0.6884262226D-01
      0.2921015530D+02  0.2321844432D+00
      0.9286662960D+01  0.4679413484D+00
      0.3163926960D+01  0.3623119853D+00
 SP   3 1.00       0.000000000000
      0.7868272350D+01 -0.1193324198D+00  0.6899906659D-01
      0.1881288540D+01 -0.1608541517D+00  0.3164239610D+00
      0.5442492580D+00  0.1143456438D+01  0.7443082909D+00
 SP   1 1.00       0.000000000000
      0.1687144782D+00  0.1000000000D+01  0.1000000000D+01
 D   1 1.00       0.000000000000
      0.8000000000D+00  0.1000000000D+01
 ****
     24 0
 S   6 1.00       0.000000000000
      0.3047524880D+04  0.1834737132D-02
      0.4573695180D+03  0.1403732281D-01
      0.1039486850D+03  0.6884262226D-01
      0.2921015530D+02  0.2321844432D+00
      0.9286662960D+01  0.4679413484D+00
      0.3163926960D+01  0.3623119853D+00
 SP   3 1.00       0.000000000000
      0.7868272350D+01 -0.1193324198D+00  0.6899906659D-01
      0.1881288540D+01 -0.1608541517D+00  0.3164239610D+00
      0.5442492580D+00  0.1143456438D+01  0.7443082909D+00
 SP   1 1.00       0.000000000000
      0.1687144782D+00  0.1000000000D+01  0.1000000000D+01
 D   1 1.00       0.000000000000
      0.8000000000D+00  0.1000000000D+01
 ****
     25 0
 S   6 1.00       0.000000000000
      0.3047524880D+04  0.1834737132D-02
      0.4573695180D+03  0.1403732281D-01
      0.1039486850D+03  0.6884262226D-01
      0.2921015530D+02  0.2321844432D+00
      0.9286662960D+01  0.4679413484D+00
      0.3163926960D+01  0.3623119853D+00
 SP   3 1.00       0.000000000000
      0.7868272350D+01 -0.1193324198D+00  0.6899906659D-01
      0.1881288540D+01 -0.1608541517D+00  0.3164239610D+00
      0.5442492580D+00  0.1143456438D+01  0.7443082909D+00
 SP   1 1.00       0.000000000000
      0.1687144782D+00  0.1000000000D+01  0.1000000000D+01
 D   1 1.00       0.000000000000
      0.8000000000D+00  0.1000000000D+01
 ****
     26 0
 S   6 1.00       0.000000000000
      0.3047524880D+04  0.1834737132D-02
      0.4573695180D+03  0.1403732281D-01
      0.1039486850D+03  0.6884262226D-01
      0.2921015530D+02  0.2321844432D+00
      0.9286662960D+01  0.4679413484D+00
      0.3163926960D+01  0.3623119853D+00
 SP   3 1.00       0.000000000000
      0.7868272350D+01 -0.1193324198D+00  0.6899906659D-01
      0.1881288540D+01 -0.1608541517D+00  0.3164239610D+00
      0.5442492580D+00  0.1143456438D+01  0.7443082909D+00
 SP   1 1.00       0.000000000000
      0.1687144782D+00  0.1000000000D+01  0.1000000000D+01
 D   1 1.00       0.000000000000
      0.8000000000D+00  0.1000000000D+01
 ****
     27 0
 S   6 1.00       0.000000000000
      0.3047524880D+04  0.1834737132D-02
      0.4573695180D+03  0.1403732281D-01
      0.1039486850D+03  0.6884262226D-01
      0.2921015530D+02  0.2321844432D+00
      0.9286662960D+01  0.4679413484D+00
      0.3163926960D+01  0.3623119853D+00
 SP   3 1.00       0.000000000000
      0.7868272350D+01 -0.1193324198D+00  0.6899906659D-01
      0.1881288540D+01 -0.1608541517D+00  0.3164239610D+00
      0.5442492580D+00  0.1143456438D+01  0.7443082909D+00
 SP   1 1.00       0.000000000000
      0.1687144782D+00  0.1000000000D+01  0.1000000000D+01
 D   1 1.00       0.000000000000
      0.8000000000D+00  0.1000000000D+01
 ****
     28 0
 S   6 1.00       0.000000000000
      0.3047524880D+04  0.1834737132D-02
      0.4573695180D+03  0.1403732281D-01
      0.1039486850D+03  0.6884262226D-01
      0.2921015530D+02  0.2321844432D+00
      0.9286662960D+01  0.4679413484D+00
      0.3163926960D+01  0.3623119853D+00
 SP   3 1.00       0.000000000000
      0.7868272350D+01 -0.1193324198D+00  0.6899906659D-01
      0.1881288540D+01 -0.1608541517D+00  0.3164239610D+00
      0.5442492580D+00  0.1143456438D+01  0.7443082909D+00
 SP   1 1.00       0.000000000000
      0.1687144782D+00  0.1000000000D+01  0.1000000000D+01
 D   1 1.00       0.000000000000
      0.8000000000D+00  0.1000000000D+01
 ****
     29 0
 S   6 1.00       0.000000000000
      0.3047524880D+04  0.1834737132D-02
      0.4573695180D+03  0.1403732281D-01
      0.1039486850D+03  0.6884262226D-01
      0.2921015530D+02  0.2321844432D+00
      0.9286662960D+01  0.4679413484D+00
      0.3163926960D+01  0.3623119853D+00
 SP   3 1.00       0.000000000000
      0.7868272350D+01 -0.1193324198D+00  0.6899906659D-01
      0.1881288540D+01 -0.1608541517D+00  0.3164239610D+00
      0.5442492580D+00  0.1143456438D+01  0.7443082909D+00
 SP   1 1.00       0.000000000000
      0.1687144782D+00  0.1000000000D+01  0.1000000000D+01
 D   1 1.00       0.000000000000
      0.8000000000D+00  0.1000000000D+01
 ****
     30 0
 S   6 1.00       0.000000000000
      0.3047524880D+04  0.1834737132D-02
      0.4573695180D+03  0.1403732281D-01
      0.1039486850D+03  0.6884262226D-01
      0.2921015530D+02  0.2321844432D+00
      0.9286662960D+01  0.4679413484D+00
      0.3163926960D+01  0.3623119853D+00
 SP   3 1.00       0.000000000000
      0.7868272350D+01 -0.1193324198D+00  0.6899906659D-01
      0.1881288540D+01 -0.1608541517D+00  0.3164239610D+00
      0.5442492580D+00  0.1143456438D+01  0.7443082909D+00
 SP   1 1.00       0.000000000000
      0.1687144782D+00  0.1000000000D+01  0.1000000000D+01
 D   1 1.00       0.000000000000
      0.8000000000D+00  0.1000000000D+01
 ****
     31 0
 S   6 1.00       0.000000000000
      0.3047524880D+04  0.1834737132D-02
      0.4573695180D+03  0.1403732281D-01
      0.1039486850D+03  0.6884262226D-01
      0.2921015530D+02  0.2321844432D+00
      0.9286662960D+01  0.4679413484D+00
      0.3163926960D+01  0.3623119853D+00
 SP   3 1.00       0.000000000000
      0.7868272350D+01 -0.1193324198D+00  0.6899906659D-01
      0.1881288540D+01 -0.1608541517D+00  0.3164239610D+00
      0.5442492580D+00  0.1143456438D+01  0.7443082909D+00
 SP   1 1.00       0.000000000000
      0.1687144782D+00  0.1000000000D+01  0.1000000000D+01
 D   1 1.00       0.000000000000
      0.8000000000D+00  0.1000000000D+01
 ****
     32 0
 S   6 1.00       0.000000000000
      0.3047524880D+04  0.1834737132D-02
      0.4573695180D+03  0.1403732281D-01
      0.1039486850D+03  0.6884262226D-01
      0.2921015530D+02  0.2321844432D+00
      0.9286662960D+01  0.4679413484D+00
      0.3163926960D+01  0.3623119853D+00
 SP   3 1.00       0.000000000000
      0.7868272350D+01 -0.1193324198D+00  0.6899906659D-01
      0.1881288540D+01 -0.1608541517D+00  0.3164239610D+00
      0.5442492580D+00  0.1143456438D+01  0.7443082909D+00
 SP   1 1.00       0.000000000000
      0.1687144782D+00  0.1000000000D+01  0.1000000000D+01
 D   1 1.00       0.000000000000
      0.8000000000D+00  0.1000000000D+01
 ****
     33 0
 S   6 1.00       0.000000000000
      0.3047524880D+04  0.1834737132D-02
      0.4573695180D+03  0.1403732281D-01
      0.1039486850D+03  0.6884262226D-01
      0.2921015530D+02  0.2321844432D+00
      0.9286662960D+01  0.4679413484D+00
      0.3163926960D+01  0.3623119853D+00
 SP   3 1.00       0.000000000000
      0.7868272350D+01 -0.1193324198D+00  0.6899906659D-01
      0.1881288540D+01 -0.1608541517D+00  0.3164239610D+00
      0.5442492580D+00  0.1143456438D+01  0.7443082909D+00
 SP   1 1.00       0.000000000000
      0.1687144782D+00  0.1000000000D+01  0.1000000000D+01
 D   1 1.00       0.000000000000
      0.8000000000D+00  0.1000000000D+01
 ****
     34 0
 S   6 1.00       0.000000000000
      0.3047524880D+04  0.1834737132D-02
      0.4573695180D+03  0.1403732281D-01
      0.1039486850D+03  0.6884262226D-01
      0.2921015530D+02  0.2321844432D+00
      0.9286662960D+01  0.4679413484D+00
      0.3163926960D+01  0.3623119853D+00
 SP   3 1.00       0.000000000000
      0.7868272350D+01 -0.1193324198D+00  0.6899906659D-01
      0.1881288540D+01 -0.1608541517D+00  0.3164239610D+00
      0.5442492580D+00  0.1143456438D+01  0.7443082909D+00
 SP   1 1.00       0.000000000000
      0.1687144782D+00  0.1000000000D+01  0.1000000000D+01
 D   1 1.00       0.000000000000
      0.8000000000D+00  0.1000000000D+01
 ****
     35 0
 S   6 1.00       0.000000000000
      0.3047524880D+04  0.1834737132D-02
      0.4573695180D+03  0.1403732281D-01
      0.1039486850D+03  0.6884262226D-01
      0.2921015530D+02  0.2321844432D+00
      0.9286662960D+01  0.4679413484D+00
      0.3163926960D+01  0.3623119853D+00
 SP   3 1.00       0.000000000000
      0.7868272350D+01 -0.1193324198D+00  0.6899906659D-01
      0.1881288540D+01 -0.1608541517D+00  0.3164239610D+00
      0.5442492580D+00  0.1143456438D+01  0.7443082909D+00
 SP   1 1.00       0.000000000000
      0.1687144782D+00  0.1000000000D+01  0.1000000000D+01
 D   1 1.00       0.000000000000
      0.8000000000D+00  0.1000000000D+01
 ****
     36 0
 S   6 1.00       0.000000000000
      0.3047524880D+04  0.1834737132D-02
      0.4573695180D+03  0.1403732281D-01
      0.1039486850D+03  0.6884262226D-01
      0.2921015530D+02  0.2321844432D+00
      0.9286662960D+01  0.4679413484D+00
      0.3163926960D+01  0.3623119853D+00
 SP   3 1.00       0.000000000000
      0.7868272350D+01 -0.1193324198D+00  0.6899906659D-01
      0.1881288540D+01 -0.1608541517D+00  0.3164239610D+00
      0.5442492580D+00  0.1143456438D+01  0.7443082909D+00
 SP   1 1.00       0.000000000000
      0.1687144782D+00  0.1000000000D+01  0.1000000000D+01
 D   1 1.00       0.000000000000
      0.8000000000D+00  0.1000000000D+01
 ****
     37 0
 S   6 1.00       0.000000000000
      0.3047524880D+04  0.1834737132D-02
      0.4573695180D+03  0.1403732281D-01
      0.1039486850D+03  0.6884262226D-01
      0.2921015530D+02  0.2321844432D+00
      0.9286662960D+01  0.4679413484D+00
      0.3163926960D+01  0.3623119853D+00
 SP   3 1.00       0.000000000000
      0.7868272350D+01 -0.1193324198D+00  0.6899906659D-01
      0.1881288540D+01 -0.1608541517D+00  0.3164239610D+00
      0.5442492580D+00  0.1143456438D+01  0.7443082909D+00
 SP   1 1.00       0.000000000000
      0.1687144782D+00  0.1000000000D+01  0.1000000000D+01
 D   1 1.00       0.000000000000
      0.8000000000D+00  0.1000000000D+01
 ****
     38 0
 S   6 1.00       0.000000000000
      0.3047524880D+04  0.1834737132D-02
      0.4573695180D+03  0.1403732281D-01
      0.1039486850D+03  0.6884262226D-01
      0.2921015530D+02  0.2321844432D+00
      0.9286662960D+01  0.4679413484D+00
      0.3163926960D+01  0.3623119853D+00
 SP   3 1.00       0.000000000000
      0.7868272350D+01 -0.1193324198D+00  0.6899906659D-01
      0.1881288540D+01 -0.1608541517D+00  0.3164239610D+00
      0.5442492580D+00  0.1143456438D+01  0.7443082909D+00
 SP   1 1.00       0.000000000000
      0.1687144782D+00  0.1000000000D+01  0.1000000000D+01
 D   1 1.00       0.000000000000
      0.8000000000D+00  0.1000000000D+01
 ****
     39 0
 S   6 1.00       0.000000000000
      0.3047524880D+04  0.1834737132D-02
      0.4573695180D+03  0.1403732281D-01
      0.1039486850D+03  0.6884262226D-01
      0.2921015530D+02  0.2321844432D+00
      0.9286662960D+01  0.4679413484D+00
      0.3163926960D+01  0.3623119853D+00
 SP   3 1.00       0.000000000000
      0.7868272350D+01 -0.1193324198D+00  0.6899906659D-01
      0.1881288540D+01 -0.1608541517D+00  0.3164239610D+00
      0.5442492580D+00  0.1143456438D+01  0.7443082909D+00
 SP   1 1.00       0.000000000000
      0.1687144782D+00  0.1000000000D+01  0.1000000000D+01
 D   1 1.00       0.000000000000
      0.8000000000D+00  0.1000000000D+01
 ****
     40 0
 S   6 1.00       0.000000000000
      0.3047524880D+04  0.1834737132D-02
      0.4573695180D+03  0.1403732281D-01
      0.1039486850D+03  0.6884262226D-01
      0.2921015530D+02  0.2321844432D+00
      0.9286662960D+01  0.4679413484D+00
      0.3163926960D+01  0.3623119853D+00
 SP   3 1.00       0.000000000000
      0.7868272350D+01 -0.1193324198D+00  0.6899906659D-01
      0.1881288540D+01 -0.1608541517D+00  0.3164239610D+00
      0.5442492580D+00  0.1143456438D+01  0.7443082909D+00
 SP   1 1.00       0.000000000000
      0.1687144782D+00  0.1000000000D+01  0.1000000000D+01
 D   1 1.00       0.000000000000
      0.8000000000D+00  0.1000000000D+01
 ****
     41 0
 S   6 1.00       0.000000000000
      0.3047524880D+04  0.1834737132D-02
      0.4573695180D+03  0.1403732281D-01
      0.1039486850D+03  0.6884262226D-01
      0.2921015530D+02  0.2321844432D+00
      0.9286662960D+01  0.4679413484D+00
      0.3163926960D+01  0.3623119853D+00
 SP   3 1.00       0.000000000000
      0.7868272350D+01 -0.1193324198D+00  0.6899906659D-01
      0.1881288540D+01 -0.1608541517D+00  0.3164239610D+00
      0.5442492580D+00  0.1143456438D+01  0.7443082909D+00
 SP   1 1.00       0.000000000000
      0.1687144782D+00  0.1000000000D+01  0.1000000000D+01
 D   1 1.00       0.000000000000
      0.8000000000D+00  0.1000000000D+01
 ****
     42 0
 S   6 1.00       0.000000000000
      0.3047524880D+04  0.1834737132D-02
      0.4573695180D+03  0.1403732281D-01
      0.1039486850D+03  0.6884262226D-01
      0.2921015530D+02  0.2321844432D+00
      0.9286662960D+01  0.4679413484D+00
      0.3163926960D+01  0.3623119853D+00
 SP   3 1.00       0.000000000000
      0.7868272350D+01 -0.1193324198D+00  0.6899906659D-01
      0.1881288540D+01 -0.1608541517D+00  0.3164239610D+00
      0.5442492580D+00  0.1143456438D+01  0.7443082909D+00
 SP   1 1.00       0.000000000000
      0.1687144782D+00  0.1000000000D+01  0.1000000000D+01
 D   1 1.00       0.000000000000
      0.8000000000D+00  0.1000000000D+01
 ****
     43 0
 S   6 1.00       0.000000000000
      0.3047524880D+04  0.1834737132D-02
      0.4573695180D+03  0.1403732281D-01
      0.1039486850D+03  0.6884262226D-01
      0.2921015530D+02  0.2321844432D+00
      0.9286662960D+01  0.4679413484D+00
      0.3163926960D+01  0.3623119853D+00
 SP   3 1.00       0.000000000000
      0.7868272350D+01 -0.1193324198D+00  0.6899906659D-01
      0.1881288540D+01 -0.1608541517D+00  0.3164239610D+00
      0.5442492580D+00  0.1143456438D+01  0.7443082909D+00
 SP   1 1.00       0.000000000000
      0.1687144782D+00  0.1000000000D+01  0.1000000000D+01
 D   1 1.00       0.000000000000
      0.8000000000D+00  0.1000000000D+01
 ****
     44 0
 S   6 1.00       0.000000000000
      0.3047524880D+04  0.1834737132D-02
      0.4573695180D+03  0.1403732281D-01
      0.1039486850D+03  0.6884262226D-01
      0.2921015530D+02  0.2321844432D+00
      0.9286662960D+01  0.4679413484D+00
      0.3163926960D+01  0.3623119853D+00
 SP   3 1.00       0.000000000000
      0.7868272350D+01 -0.1193324198D+00  0.6899906659D-01
      0.1881288540D+01 -0.1608541517D+00  0.3164239610D+00
      0.5442492580D+00  0.1143456438D+01  0.7443082909D+00
 SP   1 1.00       0.000000000000
      0.1687144782D+00  0.1000000000D+01  0.1000000000D+01
 D   1 1.00       0.000000000000
      0.8000000000D+00  0.1000000000D+01
 ****
     45 0
 S   6 1.00       0.000000000000
      0.3047524880D+04  0.1834737132D-02
      0.4573695180D+03  0.1403732281D-01
      0.1039486850D+03  0.6884262226D-01
      0.2921015530D+02  0.2321844432D+00
      0.9286662960D+01  0.4679413484D+00
      0.3163926960D+01  0.3623119853D+00
 SP   3 1.00       0.000000000000
      0.7868272350D+01 -0.1193324198D+00  0.6899906659D-01
      0.1881288540D+01 -0.1608541517D+00  0.3164239610D+00
      0.5442492580D+00  0.1143456438D+01  0.7443082909D+00
 SP   1 1.00       0.000000000000
      0.1687144782D+00  0.1000000000D+01  0.1000000000D+01
 D   1 1.00       0.000000000000
      0.8000000000D+00  0.1000000000D+01
 ****
     46 0
 S   6 1.00       0.000000000000
      0.3047524880D+04  0.1834737132D-02
      0.4573695180D+03  0.1403732281D-01
      0.1039486850D+03  0.6884262226D-01
      0.2921015530D+02  0.2321844432D+00
      0.9286662960D+01  0.4679413484D+00
      0.3163926960D+01  0.3623119853D+00
 SP   3 1.00       0.000000000000
      0.7868272350D+01 -0.1193324198D+00  0.6899906659D-01
      0.1881288540D+01 -0.1608541517D+00  0.3164239610D+00
      0.5442492580D+00  0.1143456438D+01  0.7443082909D+00
 SP   1 1.00       0.000000000000
      0.1687144782D+00  0.1000000000D+01  0.1000000000D+01
 D   1 1.00       0.000000000000
      0.8000000000D+00  0.1000000000D+01
 ****
     47 0
 S   6 1.00       0.000000000000
      0.4173511460D+04  0.1834772160D-02
      0.6274579110D+03  0.1399462700D-01
      0.1429020930D+03  0.6858655181D-01
      0.4023432930D+02  0.2322408730D+00
      0.1282021290D+02  0.4690699481D+00
      0.4390437010D+01  0.3604551991D+00
 SP   3 1.00       0.000000000000
      0.1162636186D+02 -0.1149611817D+00  0.6757974388D-01
      0.2716279807D+01 -0.1691174786D+00  0.3239072959D+00
      0.7722183966D+00  0.1145851947D+01  0.7408951398D+00
 SP   1 1.00       0.000000000000
      0.2120314975D+00  0.1000000000D+01  0.1000000000D+01
 D   1 1.00       0.000000000000
      0.8000000000D+00  0.1000000000D+01
 ****
     48 0
 S   6 1.00       0.000000000000
      0.3047524880D+04  0.1834737132D-02
      0.4573695180D+03  0.1403732281D-01
      0.1039486850D+03  0.6884262226D-01
      0.2921015530D+02  0.2321844432D+00
      0.9286662960D+01  0.4679413484D+00
      0.3163926960D+01  0.3623119853D+00
 SP   3 1.00       0.000000000000
      0.7868272350D+01 -0.1193324198D+00  0.6899906659D-01
      0.1881288540D+01 -0.1608541517D+00  0.3164239610D+00
      0.5442492580D+00  0.1143456438D+01  0.7443082909D+00
 SP   1 1.00       0.000000000000
      0.1687144782D+00  0.1000000000D+01  0.1000000000D+01
 D   1 1.00       0.000000000000
      0.8000000000D+00  0.1000000000D+01
 ****
     49 0
 S   6 1.00       0.000000000000
      0.4173511460D+04  0.1834772160D-02
      0.6274579110D+03  0.1399462700D-01
      0.1429020930D+03  0.6858655181D-01
      0.4023432930D+02  0.2322408730D+00
      0.1282021290D+02  0.4690699481D+00
      0.4390437010D+01  0.3604551991D+00
 SP   3 1.00       0.000000000000
      0.1162636186D+02 -0.1149611817D+00  0.6757974388D-01
      0.2716279807D+01 -0.1691174786D+00  0.3239072959D+00
      0.7722183966D+00  0.1145851947D+01  0.7408951398D+00
 SP   1 1.00       0.000000000000
      0.2120314975D+00  0.1000000000D+01  0.1000000000D+01
 D   1 1.00       0.000000000000
      0.8000000000D+00  0.1000000000D+01
 ****
     50 0
 S   6 1.00       0.000000000000
      0.3047524880D+04  0.1834737132D-02
      0.4573695180D+03  0.1403732281D-01
      0.1039486850D+03  0.6884262226D-01
      0.2921015530D+02  0.2321844432D+00
      0.9286662960D+01  0.4679413484D+00
      0.3163926960D+01  0.3623119853D+00
 SP   3 1.00       0.000000000000
      0.7868272350D+01 -0.1193324198D+00  0.6899906659D-01
      0.1881288540D+01 -0.1608541517D+00  0.3164239610D+00
      0.5442492580D+00  0.1143456438D+01  0.7443082909D+00
 SP   1 1.00       0.000000000000
      0.1687144782D+00  0.1000000000D+01  0.1000000000D+01
 D   1 1.00       0.000000000000
      0.8000000000D+00  0.1000000000D+01
 ****
     51 0
 S   6 1.00       0.000000000000
      0.3047524880D+04  0.1834737132D-02
      0.4573695180D+03  0.1403732281D-01
      0.1039486850D+03  0.6884262226D-01
      0.2921015530D+02  0.2321844432D+00
      0.9286662960D+01  0.4679413484D+00
      0.3163926960D+01  0.3623119853D+00
 SP   3 1.00       0.000000000000
      0.7868272350D+01 -0.1193324198D+00  0.6899906659D-01
      0.1881288540D+01 -0.1608541517D+00  0.3164239610D+00
      0.5442492580D+00  0.1143456438D+01  0.7443082909D+00
 SP   1 1.00       0.000000000000
      0.1687144782D+00  0.1000000000D+01  0.1000000000D+01
 D   1 1.00       0.000000000000
      0.8000000000D+00  0.1000000000D+01
 ****
     52 0
 S   6 1.00       0.000000000000
      0.3047524880D+04  0.1834737132D-02
      0.4573695180D+03  0.1403732281D-01
      0.1039486850D+03  0.6884262226D-01
      0.2921015530D+02  0.2321844432D+00
      0.9286662960D+01  0.4679413484D+00
      0.3163926960D+01  0.3623119853D+00
 SP   3 1.00       0.000000000000
      0.7868272350D+01 -0.1193324198D+00  0.6899906659D-01
      0.1881288540D+01 -0.1608541517D+00  0.3164239610D+00
      0.5442492580D+00  0.1143456438D+01  0.7443082909D+00
 SP   1 1.00       0.000000000000
      0.1687144782D+00  0.1000000000D+01  0.1000000000D+01
 D   1 1.00       0.000000000000
      0.8000000000D+00  0.1000000000D+01
 ****
     53 0
 S   6 1.00       0.000000000000
      0.3047524880D+04  0.1834737132D-02
      0.4573695180D+03  0.1403732281D-01
      0.1039486850D+03  0.6884262226D-01
      0.2921015530D+02  0.2321844432D+00
      0.9286662960D+01  0.4679413484D+00
      0.3163926960D+01  0.3623119853D+00
 SP   3 1.00       0.000000000000
      0.7868272350D+01 -0.1193324198D+00  0.6899906659D-01
      0.1881288540D+01 -0.1608541517D+00  0.3164239610D+00
      0.5442492580D+00  0.1143456438D+01  0.7443082909D+00
 SP   1 1.00       0.000000000000
      0.1687144782D+00  0.1000000000D+01  0.1000000000D+01
 D   1 1.00       0.000000000000
      0.8000000000D+00  0.1000000000D+01
 ****
     54 0
 S   6 1.00       0.000000000000
      0.3047524880D+04  0.1834737132D-02
      0.4573695180D+03  0.1403732281D-01
      0.1039486850D+03  0.6884262226D-01
      0.2921015530D+02  0.2321844432D+00
      0.9286662960D+01  0.4679413484D+00
      0.3163926960D+01  0.3623119853D+00
 SP   3 1.00       0.000000000000
      0.7868272350D+01 -0.1193324198D+00  0.6899906659D-01
      0.1881288540D+01 -0.1608541517D+00  0.3164239610D+00
      0.5442492580D+00  0.1143456438D+01  0.7443082909D+00
 SP   1 1.00       0.000000000000
      0.1687144782D+00  0.1000000000D+01  0.1000000000D+01
 D   1 1.00       0.000000000000
      0.8000000000D+00  0.1000000000D+01
 ****
     55 0
 S   6 1.00       0.000000000000
      0.3047524880D+04  0.1834737132D-02
      0.4573695180D+03  0.1403732281D-01
      0.1039486850D+03  0.6884262226D-01
      0.2921015530D+02  0.2321844432D+00
      0.9286662960D+01  0.4679413484D+00
      0.3163926960D+01  0.3623119853D+00
 SP   3 1.00       0.000000000000
      0.7868272350D+01 -0.1193324198D+00  0.6899906659D-01
      0.1881288540D+01 -0.1608541517D+00  0.3164239610D+00
      0.5442492580D+00  0.1143456438D+01  0.7443082909D+00
 SP   1 1.00       0.000000000000
      0.1687144782D+00  0.1000000000D+01  0.1000000000D+01
 D   1 1.00       0.000000000000
      0.8000000000D+00  0.1000000000D+01
 ****
     56 0
 S   6 1.00       0.000000000000
      0.3047524880D+04  0.1834737132D-02
      0.4573695180D+03  0.1403732281D-01
      0.1039486850D+03  0.6884262226D-01
      0.2921015530D+02  0.2321844432D+00
      0.9286662960D+01  0.4679413484D+00
      0.3163926960D+01  0.3623119853D+00
 SP   3 1.00       0.000000000000
      0.7868272350D+01 -0.1193324198D+00  0.6899906659D-01
      0.1881288540D+01 -0.1608541517D+00  0.3164239610D+00
      0.5442492580D+00  0.1143456438D+01  0.7443082909D+00
 SP   1 1.00       0.000000000000
      0.1687144782D+00  0.1000000000D+01  0.1000000000D+01
 D   1 1.00       0.000000000000
      0.8000000000D+00  0.1000000000D+01
 ****
     57 0
 S   6 1.00       0.000000000000
      0.3047524880D+04  0.1834737132D-02
      0.4573695180D+03  0.1403732281D-01
      0.1039486850D+03  0.6884262226D-01
      0.2921015530D+02  0.2321844432D+00
      0.9286662960D+01  0.4679413484D+00
      0.3163926960D+01  0.3623119853D+00
 SP   3 1.00       0.000000000000
      0.7868272350D+01 -0.1193324198D+00  0.6899906659D-01
      0.1881288540D+01 -0.1608541517D+00  0.3164239610D+00
      0.5442492580D+00  0.1143456438D+01  0.7443082909D+00
 SP   1 1.00       0.000000000000
      0.1687144782D+00  0.1000000000D+01  0.1000000000D+01
 D   1 1.00       0.000000000000
      0.8000000000D+00  0.1000000000D+01
 ****
     58 0
 S   6 1.00       0.000000000000
      0.3047524880D+04  0.1834737132D-02
      0.4573695180D+03  0.1403732281D-01
      0.1039486850D+03  0.6884262226D-01
      0.2921015530D+02  0.2321844432D+00
      0.9286662960D+01  0.4679413484D+00
      0.3163926960D+01  0.3623119853D+00
 SP   3 1.00       0.000000000000
      0.7868272350D+01 -0.1193324198D+00  0.6899906659D-01
      0.1881288540D+01 -0.1608541517D+00  0.3164239610D+00
      0.5442492580D+00  0.1143456438D+01  0.7443082909D+00
 SP   1 1.00       0.000000000000
      0.1687144782D+00  0.1000000000D+01  0.1000000000D+01
 D   1 1.00       0.000000000000
      0.8000000000D+00  0.1000000000D+01
 ****
     59 0
 S   6 1.00       0.000000000000
      0.4173511460D+04  0.1834772160D-02
      0.6274579110D+03  0.1399462700D-01
      0.1429020930D+03  0.6858655181D-01
      0.4023432930D+02  0.2322408730D+00
      0.1282021290D+02  0.4690699481D+00
      0.4390437010D+01  0.3604551991D+00
 SP   3 1.00       0.000000000000
      0.1162636186D+02 -0.1149611817D+00  0.6757974388D-01
      0.2716279807D+01 -0.1691174786D+00  0.3239072959D+00
      0.7722183966D+00  0.1145851947D+01  0.7408951398D+00
 SP   1 1.00       0.000000000000
      0.2120314975D+00  0.1000000000D+01  0.1000000000D+01
 D   1 1.00       0.000000000000
      0.8000000000D+00  0.1000000000D+01
 ****
     60 0
 S   6 1.00       0.000000000000
      0.3047524880D+04  0.1834737132D-02
      0.4573695180D+03  0.1403732281D-01
      0.1039486850D+03  0.6884262226D-01
      0.2921015530D+02  0.2321844432D+00
      0.9286662960D+01  0.4679413484D+00
      0.3163926960D+01  0.3623119853D+00
 SP   3 1.00       0.000000000000
      0.7868272350D+01 -0.1193324198D+00  0.6899906659D-01
      0.1881288540D+01 -0.1608541517D+00  0.3164239610D+00
      0.5442492580D+00  0.1143456438D+01  0.7443082909D+00
 SP   1 1.00       0.000000000000
      0.1687144782D+00  0.1000000000D+01  0.1000000000D+01
 D   1 1.00       0.000000000000
      0.8000000000D+00  0.1000000000D+01
 ****
     61 0
 S   6 1.00       0.000000000000
      0.3047524880D+04  0.1834737132D-02
      0.4573695180D+03  0.1403732281D-01
      0.1039486850D+03  0.6884262226D-01
      0.2921015530D+02  0.2321844432D+00
      0.9286662960D+01  0.4679413484D+00
      0.3163926960D+01  0.3623119853D+00
 SP   3 1.00       0.000000000000
      0.7868272350D+01 -0.1193324198D+00  0.6899906659D-01
      0.1881288540D+01 -0.1608541517D+00  0.3164239610D+00
      0.5442492580D+00  0.1143456438D+01  0.7443082909D+00
 SP   1 1.00       0.000000000000
      0.1687144782D+00  0.1000000000D+01  0.1000000000D+01
 D   1 1.00       0.000000000000
      0.8000000000D+00  0.1000000000D+01
 ****
     62 0
 S   6 1.00       0.000000000000
      0.3047524880D+04  0.1834737132D-02
      0.4573695180D+03  0.1403732281D-01
      0.1039486850D+03  0.6884262226D-01
      0.2921015530D+02  0.2321844432D+00
      0.9286662960D+01  0.4679413484D+00
      0.3163926960D+01  0.3623119853D+00
 SP   3 1.00       0.000000000000
      0.7868272350D+01 -0.1193324198D+00  0.6899906659D-01
      0.1881288540D+01 -0.1608541517D+00  0.3164239610D+00
      0.5442492580D+00  0.1143456438D+01  0.7443082909D+00
 SP   1 1.00       0.000000000000
      0.1687144782D+00  0.1000000000D+01  0.1000000000D+01
 D   1 1.00       0.000000000000
      0.8000000000D+00  0.1000000000D+01
 ****
     63 0
 S   6 1.00       0.000000000000
      0.3047524880D+04  0.1834737132D-02
      0.4573695180D+03  0.1403732281D-01
      0.1039486850D+03  0.6884262226D-01
      0.2921015530D+02  0.2321844432D+00
      0.9286662960D+01  0.4679413484D+00
      0.3163926960D+01  0.3623119853D+00
 SP   3 1.00       0.000000000000
      0.7868272350D+01 -0.1193324198D+00  0.6899906659D-01
      0.1881288540D+01 -0.1608541517D+00  0.3164239610D+00
      0.5442492580D+00  0.1143456438D+01  0.7443082909D+00
 SP   1 1.00       0.000000000000
      0.1687144782D+00  0.1000000000D+01  0.1000000000D+01
 D   1 1.00       0.000000000000
      0.8000000000D+00  0.1000000000D+01
 ****
     64 0
 S   6 1.00       0.000000000000
      0.3047524880D+04  0.1834737132D-02
      0.4573695180D+03  0.1403732281D-01
      0.1039486850D+03  0.6884262226D-01
      0.2921015530D+02  0.2321844432D+00
      0.9286662960D+01  0.4679413484D+00
      0.3163926960D+01  0.3623119853D+00
 SP   3 1.00       0.000000000000
      0.7868272350D+01 -0.1193324198D+00  0.6899906659D-01
      0.1881288540D+01 -0.1608541517D+00  0.3164239610D+00
      0.5442492580D+00  0.1143456438D+01  0.7443082909D+00
 SP   1 1.00       0.000000000000
      0.1687144782D+00  0.1000000000D+01  0.1000000000D+01
 D   1 1.00       0.000000000000
      0.8000000000D+00  0.1000000000D+01
 ****
     65 0
 S   6 1.00       0.000000000000
      0.3047524880D+04  0.1834737132D-02
      0.4573695180D+03  0.1403732281D-01
      0.1039486850D+03  0.6884262226D-01
      0.2921015530D+02  0.2321844432D+00
      0.9286662960D+01  0.4679413484D+00
      0.3163926960D+01  0.3623119853D+00
 SP   3 1.00       0.000000000000
      0.7868272350D+01 -0.1193324198D+00  0.6899906659D-01
      0.1881288540D+01 -0.1608541517D+00  0.3164239610D+00
      0.5442492580D+00  0.1143456438D+01  0.7443082909D+00
 SP   1 1.00       0.000000000000
      0.1687144782D+00  0.1000000000D+01  0.1000000000D+01
 D   1 1.00       0.000000000000
      0.8000000000D+00  0.1000000000D+01
 ****
     66 0
 S   6 1.00       0.000000000000
      0.3047524880D+04  0.1834737132D-02
      0.4573695180D+03  0.1403732281D-01
      0.1039486850D+03  0.6884262226D-01
      0.2921015530D+02  0.2321844432D+00
      0.9286662960D+01  0.4679413484D+00
      0.3163926960D+01  0.3623119853D+00
 SP   3 1.00       0.000000000000
      0.7868272350D+01 -0.1193324198D+00  0.6899906659D-01
      0.1881288540D+01 -0.1608541517D+00  0.3164239610D+00
      0.5442492580D+00  0.1143456438D+01  0.7443082909D+00
 SP   1 1.00       0.000000000000
      0.1687144782D+00  0.1000000000D+01  0.1000000000D+01
 D   1 1.00       0.000000000000
      0.8000000000D+00  0.1000000000D+01
 ****
     67 0
 S   6 1.00       0.000000000000
      0.3047524880D+04  0.1834737132D-02
      0.4573695180D+03  0.1403732281D-01
      0.1039486850D+03  0.6884262226D-01
      0.2921015530D+02  0.2321844432D+00
      0.9286662960D+01  0.4679413484D+00
      0.3163926960D+01  0.3623119853D+00
 SP   3 1.00       0.000000000000
      0.7868272350D+01 -0.1193324198D+00  0.6899906659D-01
      0.1881288540D+01 -0.1608541517D+00  0.3164239610D+00
      0.5442492580D+00  0.1143456438D+01  0.7443082909D+00
 SP   1 1.00       0.000000000000
      0.1687144782D+00  0.1000000000D+01  0.1000000000D+01
 D   1 1.00       0.000000000000
      0.8000000000D+00  0.1000000000D+01
 ****
     68 0
 S   6 1.00       0.000000000000
      0.3047524880D+04  0.1834737132D-02
      0.4573695180D+03  0.1403732281D-01
      0.1039486850D+03  0.6884262226D-01
      0.2921015530D+02  0.2321844432D+00
      0.9286662960D+01  0.4679413484D+00
      0.3163926960D+01  0.3623119853D+00
 SP   3 1.00       0.000000000000
      0.7868272350D+01 -0.1193324198D+00  0.6899906659D-01
      0.1881288540D+01 -0.1608541517D+00  0.3164239610D+00
      0.5442492580D+00  0.1143456438D+01  0.7443082909D+00
 SP   1 1.00       0.000000000000
      0.1687144782D+00  0.1000000000D+01  0.1000000000D+01
 D   1 1.00       0.000000000000
      0.8000000000D+00  0.1000000000D+01
 ****
     69 0
 S   6 1.00       0.000000000000
      0.3047524880D+04  0.1834737132D-02
      0.4573695180D+03  0.1403732281D-01
      0.1039486850D+03  0.6884262226D-01
      0.2921015530D+02  0.2321844432D+00
      0.9286662960D+01  0.4679413484D+00
      0.3163926960D+01  0.3623119853D+00
 SP   3 1.00       0.000000000000
      0.7868272350D+01 -0.1193324198D+00  0.6899906659D-01
      0.1881288540D+01 -0.1608541517D+00  0.3164239610D+00
      0.5442492580D+00  0.1143456438D+01  0.7443082909D+00
 SP   1 1.00       0.000000000000
      0.1687144782D+00  0.1000000000D+01  0.1000000000D+01
 D   1 1.00       0.000000000000
      0.8000000000D+00  0.1000000000D+01
 ****
     70 0
 S   6 1.00       0.000000000000
      0.3047524880D+04  0.1834737132D-02
      0.4573695180D+03  0.1403732281D-01
      0.1039486850D+03  0.6884262226D-01
      0.2921015530D+02  0.2321844432D+00
      0.9286662960D+01  0.4679413484D+00
      0.3163926960D+01  0.3623119853D+00
 SP   3 1.00       0.000000000000
      0.7868272350D+01 -0.1193324198D+00  0.6899906659D-01
      0.1881288540D+01 -0.1608541517D+00  0.3164239610D+00
      0.5442492580D+00  0.1143456438D+01  0.7443082909D+00
 SP   1 1.00       0.000000000000
[...]
 Alpha virt. eigenvalues --    1.33335   1.33562   1.33736   1.34083   1.34325
 Alpha virt. eigenvalues --    1.34749   1.34878   1.34954   1.35102   1.36719
 Alpha virt. eigenvalues --    1.38225   1.38549   1.39158   1.39249   1.39532
 Alpha virt. eigenvalues --    1.39627   1.40030   1.40680   1.41345   1.41864
 Alpha virt. eigenvalues --    1.42490   1.42848   1.42909   1.43163   1.43456
 Alpha virt. eigenvalues --    1.43858   1.44177   1.44237   1.44335   1.44863
 Alpha virt. eigenvalues --    1.45012   1.45240   1.45407   1.45538   1.45657
 Alpha virt. eigenvalues --    1.45947   1.46067   1.46087   1.46545   1.46714
 Alpha virt. eigenvalues --    1.46886   1.47305   1.47466   1.47512   1.47613
 Alpha virt. eigenvalues --    1.47890   1.47943   1.47978   1.48378   1.48609
 Alpha virt. eigenvalues --    1.48693   1.48944   1.49254   1.49451   1.49512
 Alpha virt. eigenvalues --    1.49598   1.50155   1.50199   1.50327   1.50387
 Alpha virt. eigenvalues --    1.50862   1.51039   1.51240   1.53285   1.53480
 Alpha virt. eigenvalues --    1.53806   1.56728   1.57491   1.58072   1.58709
 Alpha virt. eigenvalues --    1.59028   1.59078   1.60148   1.60808   1.61071
 Alpha virt. eigenvalues --    1.62074   1.62175   1.62314   1.62983   1.63371
 Alpha virt. eigenvalues --    1.63446   1.63636   1.67206   1.67766   1.68370
 Alpha virt. eigenvalues --    1.68816   1.70330   1.70912   1.71595   1.71779
 Alpha virt. eigenvalues --    1.72594   1.73054   1.73931   1.74529   1.74944
 Alpha virt. eigenvalues --    1.75236   1.75988   1.76300   1.76449   1.76824
 Alpha virt. eigenvalues --    1.77071   1.77513   1.77618   1.77881   1.78171
 Alpha virt. eigenvalues --    1.78296   1.78562   1.78842   1.79008   1.79802
 Alpha virt. eigenvalues --    1.80374   1.80686   1.80950   1.81087   1.81353
 Alpha virt. eigenvalues --    1.81715   1.82408   1.82587   1.82973   1.83169
 Alpha virt. eigenvalues --    1.83297   1.83863   1.84337   1.84386   1.85480
 Alpha virt. eigenvalues --    1.85750   1.85876   1.86127   1.86514   1.87006
 Alpha virt. eigenvalues --    1.87149   1.87642   1.88014   1.88895   1.89040
 Alpha virt. eigenvalues --    1.89457   1.90153   1.90526   1.91140   1.91335
 Alpha virt. eigenvalues --    1.91498   1.91687   1.92105   1.92351   1.92507
 Alpha virt. eigenvalues --    1.92601   1.92932   1.92999   1.93191   1.93393
 Alpha virt. eigenvalues --    1.93645   1.94141   1.94365   1.94545   1.94694
 Alpha virt. eigenvalues --    1.95246   1.95601   1.95836   1.96057   1.96303
 Alpha virt. eigenvalues --    1.96456   1.96855   1.97072   1.97180   1.97649
 Alpha virt. eigenvalues --    1.97880   1.98050   1.98370   1.98634   1.99890
 Alpha virt. eigenvalues --    1.99989   2.00222   2.01063   2.01455   2.02324
 Alpha virt. eigenvalues --    2.02865   2.03280   2.03622   2.03755   2.03825
 Alpha virt. eigenvalues --    2.04067   2.04234   2.04614   2.05268   2.06215
 Alpha virt. eigenvalues --    2.06713   2.07656   2.07822   2.08061   2.08360
 Alpha virt. eigenvalues --    2.08799   2.09026   2.09611   2.10321   2.10450
 Alpha virt. eigenvalues --    2.10722   2.11204   2.11581   2.11978   2.12300
 Alpha virt. eigenvalues --    2.12415   2.12582   2.12640   2.13022   2.13299
 Alpha virt. eigenvalues --    2.13749   2.13832   2.14114   2.14302   2.14643
 Alpha virt. eigenvalues --    2.15250   2.15992   2.16379   2.16820   2.16942
 Alpha virt. eigenvalues --    2.17603   2.18220   2.18351   2.19034   2.19303
 Alpha virt. eigenvalues --    2.20189   2.20220   2.20988   2.21272   2.21492
 Alpha virt. eigenvalues --    2.21922   2.22112   2.22245   2.22599   2.22727
 Alpha virt. eigenvalues --    2.23227   2.23694   2.23771   2.24107   2.24286
 Alpha virt. eigenvalues --    2.24584   2.24847   2.25208   2.25388   2.25903
 Alpha virt. eigenvalues --    2.26275   2.26485   2.26520   2.26867   2.27177
 Alpha virt. eigenvalues --    2.27646   2.27864   2.28437   2.28516   2.28594
 Alpha virt. eigenvalues --    2.29160   2.29297   2.29644   2.29952   2.30048
 Alpha virt. eigenvalues --    2.30177   2.30907   2.31582   2.31965   2.32728
 Alpha virt. eigenvalues --    2.33063   2.34534   2.35335   2.35486   2.36463
 Alpha virt. eigenvalues --    2.36943   2.37815   2.38019   2.38830   2.38996
 Alpha virt. eigenvalues --    2.39342   2.39733   2.40026   2.41259   2.41622
 Alpha virt. eigenvalues --    2.42007   2.42623   2.44529   2.44649   2.45536
 Alpha virt. eigenvalues --    2.45996   2.47091   2.48186   2.49243   2.50178
 Alpha virt. eigenvalues --    2.50720   2.52130   2.52232   2.52896   2.53088
 Alpha virt. eigenvalues --    2.53866   2.53879   2.54804   2.55157   2.55933
 Alpha virt. eigenvalues --    2.56325   2.56719   2.57776   2.58004   2.58160
 Alpha virt. eigenvalues --    2.58298   2.58699   2.59810   2.60111   2.60344
 Alpha virt. eigenvalues --    2.62172   2.62304   2.62736   2.63129   2.63274
 Alpha virt. eigenvalues --    2.63704   2.64183   2.64480   2.65360   2.65618
 Alpha virt. eigenvalues --    2.65934   2.66009   2.66175   2.66323   2.66674
 Alpha virt. eigenvalues --    2.66800   2.67744   2.67987   2.68354   2.68401
 Alpha virt. eigenvalues --    2.68517   2.68770   2.69253   2.69354   2.69982
 Alpha virt. eigenvalues --    2.70403   2.70595   2.70888   2.71025   2.71231
 Alpha virt. eigenvalues --    2.71736   2.72440   2.73040   2.73182   2.73442
 Alpha virt. eigenvalues --    2.73494   2.73796   2.73918   2.74227   2.74881
 Alpha virt. eigenvalues --    2.75011   2.75575   2.75957   2.75987   2.76369
 Alpha virt. eigenvalues --    2.76434   2.78978   2.79894   2.80147   2.80493
 Alpha virt. eigenvalues --    2.81062   2.81738   2.82378   2.83166   2.83803
 Alpha virt. eigenvalues --    2.84742   2.85293   2.85443   2.85987   2.86388
 Alpha virt. eigenvalues --    2.86469   2.88564   2.89420   2.89862   2.90504
 Alpha virt. eigenvalues --    2.90689   2.92263   2.92676   2.94109   2.94187
 Alpha virt. eigenvalues --    2.94609   2.95032   2.98435   2.98919   2.99113
 Alpha virt. eigenvalues --    2.99579   3.00606   3.02670   3.05808   3.05907
 Alpha virt. eigenvalues --    3.07824   3.09655   3.10980   3.11259   3.20911
 Alpha virt. eigenvalues --    3.21736   3.23864   3.24895   3.26557   3.28269
 Alpha virt. eigenvalues --    3.30530   3.32297   3.33821   3.34342   3.35010
 Alpha virt. eigenvalues --    3.35138   3.35815   3.39197   3.39550   3.39708
 Alpha virt. eigenvalues --    3.40626   3.51539   3.52090   3.52364   3.52973
 Alpha virt. eigenvalues --    3.53461   4.05323   4.05991   4.07266   4.07660
 Alpha virt. eigenvalues --    4.07795   4.08232   4.08371   4.09012   4.09096
 Alpha virt. eigenvalues --    4.09501   4.09632   4.09920   4.10156   4.10216
 Alpha virt. eigenvalues --    4.10837   4.11213   4.11245   4.11524   4.13192
 Alpha virt. eigenvalues --    4.14149   4.14297   4.14786   4.15826   4.16191
 Alpha virt. eigenvalues --    4.16508   4.16749   4.16947   4.18113   4.18598
 Alpha virt. eigenvalues --    4.18842   4.19448   4.21119   4.22529   4.25372
 Alpha virt. eigenvalues --    4.26398   4.29200   4.29608   4.30033   4.31278
 Alpha virt. eigenvalues --    4.33549   4.33834   4.34987   4.35904   4.36261
 Alpha virt. eigenvalues --    4.36845   4.36948   4.37641   4.40087   4.40424
 Alpha virt. eigenvalues --    4.40711   4.41031   4.44192   4.44606   4.44953
 Alpha virt. eigenvalues --    4.45603   4.45914   4.46600   4.52983   4.53837
 Alpha virt. eigenvalues --    4.54269   4.57235   4.62227   4.67037   4.69303
 Alpha virt. eigenvalues --    4.71720   4.73395   4.73905   4.75883   4.75932
 Alpha virt. eigenvalues --    4.85182   4.85835   4.86530   4.86687   4.95717
          Condensed to atoms (all electrons):
 Mulliken charges:
               1
     1  N   -0.469698
     2  C    0.247284
     3  C    0.093924
     4  C    0.068973
     5  C    0.051749
     6  C   -0.139101
     7  C   -0.134969
     8  C   -0.116564
     9  C   -0.129891
    10  C   -0.135310
    11  C    0.135260
    12  N   -0.753604
    13  C    0.323046
    14  C   -0.174163
    15  C   -0.141041
    16  C   -0.143441
    17  C   -0.195571
    18  C    0.061804
    19  C    0.062634
    20  C   -0.234863
    21  C    0.255975
    22  N   -0.732718
    23  C    0.312371
    24  C   -0.177072
    25  C   -0.141844
    26  C   -0.145262
    27  C   -0.197290
    28  C    0.059440
    29  C    0.059515
    30  C   -0.197298
    31  C   -0.145255
    32  C   -0.142068
    33  C   -0.178571
    34  C    0.312721
    35  C   -0.165456
    36  C   -0.185370
    37  C    0.336458
    38  C    0.069749
    39  C    0.049636
    40  C   -0.139685
    41  C   -0.135992
    42  C   -0.117191
    43  C   -0.129746
    44  C   -0.136019
    45  C    0.092468
    46  C    0.247325
    47  N   -0.468715
    48  C    0.267817
    49  N   -0.799114
    50  C    0.326702
    51  C   -0.163092
    52  C   -0.137249
    53  C   -0.140796
    54  C   -0.191510
    55  C    0.065449
    56  C    0.065717
    57  C   -0.229214
    58  C    0.254232
    59  N   -0.732294
    60  C    0.312055
    61  C   -0.178043
    62  C   -0.142279
    63  C   -0.145365
    64  C   -0.197834
    65  C    0.059449
    66  C    0.059654
    67  C   -0.197759
    68  C   -0.145305
    69  C   -0.142359
    70  C   -0.178781
    71  C    0.312430
    72  C   -0.160226
    73  C   -0.174345
    74  C    0.339806
    75  H    0.145669
    76  H    0.143151
    77  H    0.141838
    78  H    0.143807
    79  H    0.141066
    80  H    0.132320
    81  H    0.134820
    82  H    0.132724
    83  H    0.138781
    84  H    0.155063
    85  H    0.132938
    86  H    0.125607
    87  H    0.124032
    88  H    0.129825
    89  H    0.129648
    90  H    0.123643
    91  H    0.125217
    92  H    0.138150
    93  H    0.153535
    94  H    0.138155
    95  H    0.148482
    96  H    0.143007
    97  H    0.141890
    98  H    0.144574
    99  H    0.141194
   100  H    0.128047
   101  H    0.133227
   102  H    0.132328
   103  H    0.139371
   104  H    0.155511
   105  H    0.138328
   106  H    0.124952
   107  H    0.121777
   108  H    0.128019
   109  H    0.127706
   110  H    0.121884
   111  H    0.126422
   112  H    0.142855
   113  H    0.152022
   114  H    0.134101
 Sum of Mulliken charges =  -0.00000
 Mulliken charges with hydrogens summed into heavy atoms:
               1
     1  N   -0.469698
     2  C    0.247284
     3  C    0.093924
     4  C    0.068973
     5  C    0.051749
     6  C    0.006568
     7  C    0.008182
     8  C    0.025274
     9  C    0.013916
    10  C    0.005757
    11  C    0.135260
    12  N   -0.753604
    13  C    0.323046
    14  C   -0.041843
    15  C   -0.006221
    16  C   -0.010717
    17  C   -0.056790
    18  C    0.061804
    19  C    0.062634
    20  C   -0.079799
    21  C    0.255975
    22  N   -0.732718
    23  C    0.312371
    24  C   -0.044134
    25  C   -0.016237
    26  C   -0.021230
    27  C   -0.067465
    28  C    0.059440
    29  C    0.059515
    30  C   -0.067649
    31  C   -0.021611
    32  C   -0.016851
    33  C   -0.040422
    34  C    0.312721
    35  C   -0.011921
    36  C   -0.047216
    37  C    0.336458
    38  C    0.069749
    39  C    0.049636
    40  C    0.008797
    41  C    0.007015
    42  C    0.024699
    43  C    0.014828
    44  C    0.005175
    45  C    0.092468
    46  C    0.247325
    47  N   -0.468715
    48  C    0.267817
    49  N   -0.799114
    50  C    0.326702
    51  C   -0.035046
    52  C   -0.004022
    53  C   -0.008468
    54  C   -0.052139
    55  C    0.065449
    56  C    0.065717
    57  C   -0.073703
    58  C    0.254232
    59  N   -0.732294
    60  C    0.312055
    61  C   -0.039715
    62  C   -0.017327
    63  C   -0.023587
    64  C   -0.069815
    65  C    0.059449
    66  C    0.059654
    67  C   -0.070053
    68  C   -0.023420
    69  C   -0.015936
    70  C   -0.035926
    71  C    0.312430
    72  C   -0.008204
    73  C   -0.040244
    74  C    0.339806
 Electronic spatial extent (au):  <R**2>=          85191.6320
 Charge=             -0.0000 electrons
 Dipole moment (field-independent basis, Debye):
    X=             -4.8374    Y=             -1.6149    Z=             -1.4861  Tot=              5.3119
 Quadrupole moment (field-independent basis, Debye-Ang):
   XX=           -447.1259   YY=           -398.5028   ZZ=           -412.2854
   XY=              4.4535   XZ=             -1.6852   YZ=             13.3321
 Traceless Quadrupole moment (field-independent basis, Debye-Ang):
   XX=            -27.8212   YY=             20.8019   ZZ=              7.0193
   XY=              4.4535   XZ=             -1.6852   YZ=             13.3321
 Octapole moment (field-independent basis, Debye-Ang**2):
  XXX=           -205.8852  YYY=            -93.3355  ZZZ=           -214.4223  XYY=            -93.7910
  XXY=            -16.6220  XXZ=            -33.1865  XZZ=           -125.6669  YZZ=              4.8927
  YYZ=             -9.4219  XYZ=             70.8636
 Hexadecapole moment (field-independent basis, Debye-Ang**3):
 XXXX=         -95801.0090 YYYY=         -11003.9461 ZZZZ=         -10949.3111 XXXY=            325.7838
 XXXZ=           1311.4227 YYYX=            243.5904 YYYZ=              5.1741 ZZZX=           2462.0228
 ZZZY=             42.7826 XXYY=         -17039.5923 XXZZ=         -18442.8876 YYZZ=          -3531.7636
 XXYZ=            -91.9536 YYXZ=            910.8705 ZZXY=            446.6193
 N-N= 1.036746262598D+04 E-N=-2.755249685844D+04  KE= 2.915592027679D+03
 Leave Link  601 at Sat Nov  5 12:34:20 2022, MaxMem=   402653184 cpu:               2.7 elap:               0.3
 (Enter /home/wykgroup/appl/g16/l9999.exe)
 1\1\GINC-NODE45\SP\RB3LYP TD-FC\6-31G(d)\C68H40N6\WYKGROUP\05-Nov-2022
 \0\\#p b3lyp/6-31g(d) 6D 10F nosymm GFInput td=(50-50,nstate=2) SCF=XQ
 C\\Gaussian input prepared by ASE\\0,1\N,0,2.4872860543,2.5906746744,-
 2.0460648613\C,0,1.8584490938,1.8381705513,-1.4216733735\C,0,1.0907344
 624,0.9212632077,-0.6280289797\C,0,-0.1774256426,0.4754447501,-1.07109
 46583\C,0,-0.6970862861,0.9115658013,-2.3985433368\C,0,-1.8858304309,1
 .6505705273,-2.4982811069\C,0,-2.3492403894,2.072523032,-3.7428722265\
 C,0,-1.637771768,1.7579017801,-4.9021290269\C,0,-0.4549425649,1.023607
 3377,-4.8118468436\C,0,0.0159145565,0.6067424192,-3.5679990029\C,0,-0.
 9291420149,-0.3591337831,-0.2156685796\N,0,-2.207762223,-0.8151952018,
 -0.6436994322\C,0,-2.4437645178,-1.8061884187,-1.6041400037\C,0,-1.527
 1398391,-2.5674581748,-2.3318220368\C,0,-2.0351133217,-3.5134207157,-3
 .2206348362\C,0,-3.4188639055,-3.6993503527,-3.3796090363\C,0,-4.32622
 10848,-2.9406479603,-2.6455202966\C,0,-3.8422731596,-1.9844616142,-1.7
 45437614\C,0,-4.4773376556,-1.0559348642,-0.8323458299\C,0,-5.80998885
 7,-0.7492989316,-0.54460823\C,0,-6.0911099384,0.2307675234,0.409488770
 6\N,0,-7.4417295726,0.5451281086,0.7293252146\C,0,-8.0489245441,1.7955
 106905,0.5770996523\C,0,-7.5141706028,2.9849739838,0.0746437354\C,0,-8
 .3499337472,4.09829174,0.0177744265\C,0,-9.6874310131,4.0329425286,0.4
 455257986\C,0,-10.2168769724,2.8426549335,0.9358352915\C,0,-9.39921403
 52,1.7083984996,1.0037748788\C,0,-9.6152215157,0.3423381415,1.43315526
 8\C,0,-10.7169438094,-0.3452432692,1.956015712\C,0,-10.5818641593,-1.6
 896870861,2.2899439821\C,0,-9.3544459121,-2.3512990709,2.110879044\C,0
 ,-8.2424309676,-1.6916522257,1.5917864551\C,0,-8.3875325428,-0.3444922
 371,1.2494348917\C,0,-5.0454013553,0.9131637272,1.0625216164\C,0,-3.71
 18429004,0.6382485941,0.7728411806\C,0,-3.4387007773,-0.3555541186,-0.
 1689971165\C,0,-0.449117139,-0.755005004,1.0517077894\C,0,-1.234639368
 9,-1.6567143693,1.9418959578\C,0,-1.5906087808,-2.9482339135,1.5240262
 787\C,0,-2.3052618073,-3.7899365943,2.3742137894\C,0,-2.6791510542,-3.
 3528576613,3.6463518085\C,0,-2.3293547249,-2.0701959865,4.0693979147\C
 ,0,-1.6071433182,-1.2284939719,3.2252337055\C,0,0.8255242534,-0.294614
 4357,1.4600421445\C,0,1.395483058,-0.7357222984,2.7012157357\N,0,1.875
 5759752,-1.0958846917,3.6968648992\C,0,1.5956986619,0.5404866671,0.629
 3968128\N,0,2.8641248458,0.9929665282,1.0542343945\C,0,3.1007352698,1.
 9668550147,2.0401717919\C,0,2.1853599938,2.6947900348,2.7992977348\C,0
 ,2.6950958568,3.6222431784,3.705954007\C,0,4.0783759125,3.8221287992,3
 .8475521194\C,0,4.9836499739,3.0963692651,3.0788336589\C,0,4.497421371
 ,2.1578527126,2.161875827\C,0,5.1322776521,1.2616801566,1.2156708278\C
 ,0,6.4652745717,0.9833741728,0.9026926077\C,0,6.747439234,0.0309325932
 ,-0.0782385335\N,0,8.0983151311,-0.2552110826,-0.4235432395\C,0,8.7328
 783324,-1.4930131071,-0.2846840318\C,0,8.2311794645,-2.6925434278,0.22
 77990487\C,0,9.0896655365,-3.7891708912,0.266864023\C,0,10.4167290194,
 -3.6975884822,-0.1880934966\C,0,10.9131082371,-2.4970169569,-0.6879719
 755\C,0,10.0724177907,-1.3787386027,-0.7384148602\C,0,10.2524796771,-0
 .0081847217,-1.170253696\C,0,11.3293010403,0.7025801687,-1.7137774287\
 C,0,11.1598091006,2.0443297471,-2.0428226924\C,0,9.9227713729,2.680535
 6998,-1.8385761467\C,0,8.8350034622,1.9978482735,-1.2985351952\C,0,9.0
 150771,0.653672663,-0.9612931988\C,0,5.7043082355,-0.6526929047,-0.733
 0674747\C,0,4.3711820526,-0.4056590394,-0.4189341775\C,0,4.0989207214,
 0.5613297201,0.5481246793\H,0,-2.4422514525,1.9049256607,-1.6018404605
 \H,0,-3.26722039,2.6499104497,-3.8052923231\H,0,-2.0025452174,2.086420
 2301,-5.8712522854\H,0,0.1057615619,0.7761053076,-5.7085075188\H,0,0.9
 385255535,0.0369264322,-3.5052881558\H,0,-0.4570812272,-2.4265769227,-
 2.2164616177\H,0,-1.3441079631,-4.1173879934,-3.8019919103\H,0,-3.7819
 341691,-4.4445576843,-4.0811650383\H,0,-5.395687788,-3.0904704073,-2.7
 667946203\H,0,-6.6251302052,-1.2529701362,-1.0550542296\H,0,-6.4842838
 723,3.0395037059,-0.263138942\H,0,-7.9573407059,5.0353157239,-0.368069
 6191\H,0,-10.3124025217,4.9196476953,0.3893845228\H,0,-11.2534330902,2
 .7925772379,1.2592067515\H,0,-11.6647514561,0.1664361874,2.1022403736\
 H,0,-11.4303066319,-2.2335817759,2.6953411589\H,0,-9.2674394885,-3.399
 4978005,2.3842941171\H,0,-7.295382878,-2.2055488066,1.4624856762\H,0,-
 5.2944713255,1.6600666094,1.8094181641\H,0,-2.9150982602,1.1707038245,
 1.2822443197\H,0,-1.2999475058,-3.2985180304,0.5387826474\H,0,-2.56770
 5905,-4.7899916045,2.0410195558\H,0,-3.2380760247,-4.0104572457,4.3061
 890447\H,0,-2.6149297603,-1.7227584946,5.0580018798\H,0,-1.3361379319,
 -0.2320588221,3.5622638367\H,0,1.1150174547,2.5490136743,2.6917769242\
 H,0,2.0057470606,4.2017229359,4.3134625453\H,0,4.4431308408,4.55279014
 57,4.5633517696\H,0,6.0527930117,3.2576594129,3.1860244776\H,0,7.27948
 45804,1.487115298,1.4143270834\H,0,7.2102270278,-2.7663308236,0.588413
 3794\H,0,8.7236303444,-4.7333406151,0.661338922\H,0,11.0600958543,-4.5
 718666252,-0.1447209729\H,0,11.9419158604,-2.4265857841,-1.0318520298\
 H,0,12.2844309179,0.2106940401,-1.8794625186\H,0,11.9886250682,2.60605
 25951,-2.4643594443\H,0,9.8083596276,3.7267593381,-2.109273557\H,0,7.8
 800821955,2.4917869562,-1.1506176311\H,0,5.9550602994,-1.379467826,-1.
 4989330421\H,0,3.5761626603,-0.9445238422,-0.9245671322\\Version=ES64L
 -G16RevB.01\HF=-2943.9063902\RMSD=7.934e-09\PG=C01 [X(C68H40N6)]\\@


            ARSENIC

 FOR SMELTER FUMES HAVE I BEEN NAMED,
    I AM AN EVIL POISONOUS SMOKE...
 BUT WHEN FROM POISON I AM FREED,
    THROUGH ART AND SLEIGHT OF HAND,
 THEN CAN I CURE BOTH MAN AND BEAST,
    FROM DIRE DISEASE OFTTIMES DIRECT THEM;
 BUT PREPARE ME CORRECTLY, AND TAKE GREAT CARE
    THAT YOU FAITHFULLY KEEP WATCHFUL GUARD OVER ME;
 FOR ELSE I AM POISON, AND POISON REMAIN,
    THAT PIERCES THE HEART OF MANY A ONE.

 ATTRIBUTED TO THE PROBABLY MYTHICAL 15TH
 CENTURY MONK, BASILIUS VALENTINUS
 Job cpu time:       0 days 13 hours  7 minutes  2.1 seconds.
 Elapsed time:       0 days  1 hours 39 minutes 40.8 seconds.
 File lengths (MBytes):  RWF=   7433 Int=      0 D2E=      0 Chk=    286 Scr=      1
 Normal termination of Gaussian 16 at Sat Nov  5 12:34:20 2022.
