 Entering Gaussian System, Link 0=/home/wykgroup/appl/g16/g16
 Input=./calculation/no_transfer_pubchem_sampling_9_b3lyp/155645895.com
 Output=./calculation/no_transfer_pubchem_sampling_9_b3lyp/155645895.log
 Initial command:
 /home/wykgroup/appl/g16/l1.exe "/userdata/scratch/wykgroup/khs/./calculation/no_transfer_pubchem_sampling_9_b3lyp/155645895/Gau-14691.inp" -scrdir="/userdata/scratch/wykgroup/khs/./calculation/no_transfer_pubchem_sampling_9_b3lyp/155645895/"
 Entering Link 1 = /home/wykgroup/appl/g16/l1.exe PID=     14692.
  
 Copyright (c) 1988-2017, Gaussian, Inc.  All Rights Reserved.
  
 This is part of the Gaussian(R) 16 program.  It is based on
 the Gaussian(R) 09 system (copyright 2009, Gaussian, Inc.),
 the Gaussian(R) 03 system (copyright 2003, Gaussian, Inc.),
 the Gaussian(R) 98 system (copyright 1998, Gaussian, Inc.),
 the Gaussian(R) 94 system (copyright 1995, Gaussian, Inc.),
 the Gaussian 92(TM) system (copyright 1992, Gaussian, Inc.),
 the Gaussian 90(TM) system (copyright 1990, Gaussian, Inc.),
 the Gaussian 88(TM) system (copyright 1988, Gaussian, Inc.),
 the Gaussian 86(TM) system (copyright 1986, Carnegie Mellon
 University), and the Gaussian 82(TM) system (copyright 1983,
 Carnegie Mellon University). Gaussian is a federally registered
 trademark of Gaussian, Inc.
  
 This software contains proprietary and confidential information,
 including trade secrets, belonging to Gaussian, Inc.
  
 This software is provided under written license and may be
 used, copied, transmitted, or stored only in accord with that
 written license.
  
 The following legend is applicable only to US Government
 contracts under FAR:
  
                    RESTRICTED RIGHTS LEGEND
  
 Use, reproduction and disclosure by the US Government is
 subject to restrictions as set forth in subparagraphs (a)
 and (c) of the Commercial Computer Software - Restricted
 Rights clause in FAR 52.227-19.
  
 Gaussian, Inc.
 340 Quinnipiac St., Bldg. 40, Wallingford CT 06492
  
  
 ---------------------------------------------------------------
 Warning -- This program may not be used in any manner that
 competes with the business of Gaussian, Inc. or will provide
 assistance to any competitor of Gaussian, Inc.  The licensee
 of this program is prohibited from giving any competitor of
 Gaussian, Inc. access to this program.  By using this program,
 the user acknowledges that Gaussian, Inc. is engaged in the
 business of creating and licensing software in the field of
 computational chemistry and represents and warrants to the
 licensee that it is not a competitor of Gaussian, Inc. and that
 it will not use this program in any manner prohibited above.
 ---------------------------------------------------------------
  

 Cite this work as:
 Gaussian 16, Revision B.01,
 M. J. Frisch, G. W. Trucks, H. B. Schlegel, G. E. Scuseria, 
 M. A. Robb, J. R. Cheeseman, G. Scalmani, V. Barone, 
 G. A. Petersson, H. Nakatsuji, X. Li, M. Caricato, A. V. Marenich, 
 J. Bloino, B. G. Janesko, R. Gomperts, B. Mennucci, H. P. Hratchian, 
 J. V. Ortiz, A. F. Izmaylov, J. L. Sonnenberg, D. Williams-Young, 
 F. Ding, F. Lipparini, F. Egidi, J. Goings, B. Peng, A. Petrone, 
 T. Henderson, D. Ranasinghe, V. G. Zakrzewski, J. Gao, N. Rega, 
 G. Zheng, W. Liang, M. Hada, M. Ehara, K. Toyota, R. Fukuda, 
 J. Hasegawa, M. Ishida, T. Nakajima, Y. Honda, O. Kitao, H. Nakai, 
 T. Vreven, K. Throssell, J. A. Montgomery, Jr., J. E. Peralta, 
 F. Ogliaro, M. J. Bearpark, J. J. Heyd, E. N. Brothers, K. N. Kudin, 
 V. N. Staroverov, T. A. Keith, R. Kobayashi, J. Normand, 
 K. Raghavachari, A. P. Rendell, J. C. Burant, S. S. Iyengar, 
 J. Tomasi, M. Cossi, J. M. Millam, M. Klene, C. Adamo, R. Cammi, 
 J. W. Ochterski, R. L. Martin, K. Morokuma, O. Farkas, 
 J. B. Foresman, and D. J. Fox, Gaussian, Inc., Wallingford CT, 2016.
 
 ******************************************
 Gaussian 16:  ES64L-G16RevB.01 20-Dec-2017
                 5-Nov-2022 
 ******************************************
 %chk=./calculation/no_transfer_pubchem_sampling_9_b3lyp/155645895.chk
 %nprocshared=7
 Will use up to    7 processors via shared memory.
 %mem=6GB
 -----------------------------
 #p b3lyp/6-31g(d) opt SCF=XQC
 -----------------------------
 1/18=20,19=15,26=3,38=1/1,3;
 2/9=110,12=2,17=6,18=5,40=1/2;
 3/5=1,6=6,7=1,11=2,25=1,30=1,71=1,74=-5/1,2,3;
 4//1;
 5/5=2,8=3,13=1,38=5/2,8;
 6/7=2,8=2,9=2,10=2,28=1/1;
 7//1,2,3,16;
 1/18=20,19=15,26=3/3(2);
 2/9=110/2;
 99//99;
 2/9=110/2;
 3/5=1,6=6,7=1,11=2,25=1,30=1,71=1,74=-5/1,2,3;
 4/5=5,16=3,69=1/1;
 5/5=2,8=3,13=1,38=5/2,8;
 7//1,2,3,16;
 1/18=20,19=15,26=3/3(-5);
 2/9=110/2;
 6/7=2,8=2,9=2,10=2,19=2,28=1/1;
 99/9=1/99;
 Leave Link    1 at Sat Nov  5 01:36:18 2022, MaxMem=   805306368 cpu:               0.9 elap:               0.1
 (Enter /home/wykgroup/appl/g16/l101.exe)
 ------------------------------
 Gaussian input prepared by ASE
 ------------------------------
 Symbolic Z-matrix:
 Charge =  0 Multiplicity = 1
 C                    -3.32871  -4.87963  -0.50485 
 C                    -3.55321  -3.41263  -0.71275 
 C                    -4.7884   -2.93452  -1.13702 
 C                    -5.00475  -1.57661  -1.30508 
 C                    -3.99045  -0.67381  -1.05375 
 C                    -2.74575  -1.1371   -0.63324 
 C                    -1.66288  -0.18938  -0.3726 
 N                    -1.96949   1.1019   -0.29225 
 C                    -0.9555    1.92424  -0.04325 
 C                    -1.24068   3.35706   0.04123 
 C                    -2.55923   3.79815   0.1314 
 C                    -2.83168   5.1498    0.21471 
 C                    -1.79501   6.07004   0.20464 
 C                    -0.48206   5.63602   0.10925 
 C                    -0.20212   4.28559   0.02828 
 N                     0.30063   1.53044   0.13306 
 C                     0.51596   0.22116   0.02504 
 N                     1.79421  -0.23298   0.18767 
 C                     2.85338   0.47963   0.75403 
 C                     2.88103   1.74939   1.30632 
 C                     4.08035   2.20366   1.82773 
 C                     5.22762   1.41829   1.80943 
 C                     5.20117   0.14401   1.27592 
 C                     4.00843  -0.32926   0.74904 
 C                     3.63843  -1.58368   0.14742 
 C                     4.35487  -2.73758  -0.13443 
 C                     3.70019  -3.78764  -0.74915 
 C                     2.35567  -3.68417  -1.08815 
 C                     1.62365  -2.54141  -0.81461 
 C                     2.27031  -1.49278  -0.18181 
 N                    -0.43439  -0.67436  -0.23139 
 C                    -2.53753  -2.50297  -0.46316 
 H                    -3.56368  -5.14846   0.52556 
 H                    -3.96714  -5.46776  -1.15999 
 H                    -2.29009  -5.14225  -0.69096 
 H                    -5.58828  -3.6336   -1.33688 
 H                    -5.97085  -1.22439  -1.63604 
 H                    -4.13692   0.38659  -1.1837 
 H                    -3.35166   3.06625   0.14025 
 H                    -3.85426   5.49012   0.28796 
 H                    -2.01058   7.12665   0.26921 
 H                     0.32427   6.35475   0.09657 
 H                     0.81429   3.93402  -0.05757 
 H                     1.99523   2.36032   1.33222 
 H                     4.12274   3.19221   2.26065 
 H                     6.1457    1.80842   2.22316 
 H                     6.08519  -0.47537   1.27004 
 H                     5.4017   -2.80669   0.11953 
 H                     4.2374   -4.69655  -0.9762 
 H                     1.86895  -4.51379  -1.57954 
 H                     0.58555  -2.46537  -1.08874 
 H                    -1.57164  -2.84394  -0.12248 
 
 ITRead=  0  0  0  0  0  0  0  0  0  0  0  0  0  0  0  0  0  0  0  0
 ITRead=  0  0  0  0  0  0  0  0  0  0  0  0  0  0  0  0  0  0  0  0
 ITRead=  0  0  0  0  0  0  0  0  0  0  0  0
 MicOpt= -1 -1 -1 -1 -1 -1 -1 -1 -1 -1 -1 -1 -1 -1 -1 -1 -1 -1 -1 -1
 MicOpt= -1 -1 -1 -1 -1 -1 -1 -1 -1 -1 -1 -1 -1 -1 -1 -1 -1 -1 -1 -1
 MicOpt= -1 -1 -1 -1 -1 -1 -1 -1 -1 -1 -1 -1
 NAtoms=     52 NQM=       52 NQMF=       0 NMMI=      0 NMMIF=      0
                NMic=       0 NMicF=      0.
                    Isotopes and Nuclear Properties:
 (Nuclear quadrupole moments (NQMom) in fm**2, nuclear magnetic moments (NMagM)
  in nuclear magnetons)

  Atom         1           2           3           4           5           6           7           8           9          10
 IAtWgt=          12          12          12          12          12          12          12          14          12          12
 AtmWgt=  12.0000000  12.0000000  12.0000000  12.0000000  12.0000000  12.0000000  12.0000000  14.0030740  12.0000000  12.0000000
 NucSpn=           0           0           0           0           0           0           0           2           0           0
 AtZEff=  -0.0000000  -0.0000000  -0.0000000  -0.0000000  -0.0000000  -0.0000000  -0.0000000  -0.0000000  -0.0000000  -0.0000000
 NQMom=    0.0000000   0.0000000   0.0000000   0.0000000   0.0000000   0.0000000   0.0000000   2.0440000   0.0000000   0.0000000
 NMagM=    0.0000000   0.0000000   0.0000000   0.0000000   0.0000000   0.0000000   0.0000000   0.4037610   0.0000000   0.0000000
 AtZNuc=   6.0000000   6.0000000   6.0000000   6.0000000   6.0000000   6.0000000   6.0000000   7.0000000   6.0000000   6.0000000

  Atom        11          12          13          14          15          16          17          18          19          20
 IAtWgt=          12          12          12          12          12          14          12          14          12          12
 AtmWgt=  12.0000000  12.0000000  12.0000000  12.0000000  12.0000000  14.0030740  12.0000000  14.0030740  12.0000000  12.0000000
 NucSpn=           0           0           0           0           0           2           0           2           0           0
 AtZEff=  -0.0000000  -0.0000000  -0.0000000  -0.0000000  -0.0000000  -0.0000000  -0.0000000  -0.0000000  -0.0000000  -0.0000000
 NQMom=    0.0000000   0.0000000   0.0000000   0.0000000   0.0000000   2.0440000   0.0000000   2.0440000   0.0000000   0.0000000
 NMagM=    0.0000000   0.0000000   0.0000000   0.0000000   0.0000000   0.4037610   0.0000000   0.4037610   0.0000000   0.0000000
 AtZNuc=   6.0000000   6.0000000   6.0000000   6.0000000   6.0000000   7.0000000   6.0000000   7.0000000   6.0000000   6.0000000

  Atom        21          22          23          24          25          26          27          28          29          30
 IAtWgt=          12          12          12          12          12          12          12          12          12          12
 AtmWgt=  12.0000000  12.0000000  12.0000000  12.0000000  12.0000000  12.0000000  12.0000000  12.0000000  12.0000000  12.0000000
 NucSpn=           0           0           0           0           0           0           0           0           0           0
 AtZEff=  -0.0000000  -0.0000000  -0.0000000  -0.0000000  -0.0000000  -0.0000000  -0.0000000  -0.0000000  -0.0000000  -0.0000000
 NQMom=    0.0000000   0.0000000   0.0000000   0.0000000   0.0000000   0.0000000   0.0000000   0.0000000   0.0000000   0.0000000
 NMagM=    0.0000000   0.0000000   0.0000000   0.0000000   0.0000000   0.0000000   0.0000000   0.0000000   0.0000000   0.0000000
 AtZNuc=   6.0000000   6.0000000   6.0000000   6.0000000   6.0000000   6.0000000   6.0000000   6.0000000   6.0000000   6.0000000

  Atom        31          32          33          34          35          36          37          38          39          40
 IAtWgt=          14          12           1           1           1           1           1           1           1           1
 AtmWgt=  14.0030740  12.0000000   1.0078250   1.0078250   1.0078250   1.0078250   1.0078250   1.0078250   1.0078250   1.0078250
 NucSpn=           2           0           1           1           1           1           1           1           1           1
 AtZEff=  -0.0000000  -0.0000000  -0.0000000  -0.0000000  -0.0000000  -0.0000000  -0.0000000  -0.0000000  -0.0000000  -0.0000000
 NQMom=    2.0440000   0.0000000   0.0000000   0.0000000   0.0000000   0.0000000   0.0000000   0.0000000   0.0000000   0.0000000
 NMagM=    0.4037610   0.0000000   2.7928460   2.7928460   2.7928460   2.7928460   2.7928460   2.7928460   2.7928460   2.7928460
 AtZNuc=   7.0000000   6.0000000   1.0000000   1.0000000   1.0000000   1.0000000   1.0000000   1.0000000   1.0000000   1.0000000

  Atom        41          42          43          44          45          46          47          48          49          50
 IAtWgt=           1           1           1           1           1           1           1           1           1           1
 AtmWgt=   1.0078250   1.0078250   1.0078250   1.0078250   1.0078250   1.0078250   1.0078250   1.0078250   1.0078250   1.0078250
 NucSpn=           1           1           1           1           1           1           1           1           1           1
 AtZEff=  -0.0000000  -0.0000000  -0.0000000  -0.0000000  -0.0000000  -0.0000000  -0.0000000  -0.0000000  -0.0000000  -0.0000000
 NQMom=    0.0000000   0.0000000   0.0000000   0.0000000   0.0000000   0.0000000   0.0000000   0.0000000   0.0000000   0.0000000
 NMagM=    2.7928460   2.7928460   2.7928460   2.7928460   2.7928460   2.7928460   2.7928460   2.7928460   2.7928460   2.7928460
 AtZNuc=   1.0000000   1.0000000   1.0000000   1.0000000   1.0000000   1.0000000   1.0000000   1.0000000   1.0000000   1.0000000

  Atom        51          52
 IAtWgt=           1           1
 AtmWgt=   1.0078250   1.0078250
 NucSpn=           1           1
 AtZEff=  -0.0000000  -0.0000000
 NQMom=    0.0000000   0.0000000
 NMagM=    2.7928460   2.7928460
 AtZNuc=   1.0000000   1.0000000
 Leave Link  101 at Sat Nov  5 01:36:19 2022, MaxMem=   805306368 cpu:               1.3 elap:               0.2
 (Enter /home/wykgroup/appl/g16/l103.exe)

 GradGradGradGradGradGradGradGradGradGradGradGradGradGradGradGradGradGrad
 Berny optimization.
 Initialization pass.
                           ----------------------------
                           !    Initial Parameters    !
                           ! (Angstroms and Degrees)  !
 --------------------------                            --------------------------
 ! Name  Definition              Value          Derivative Info.                !
 --------------------------------------------------------------------------------
 ! R1    R(1,2)                  1.4986         estimate D2E/DX2                !
 ! R2    R(1,33)                 1.0905         estimate D2E/DX2                !
 ! R3    R(1,34)                 1.0875         estimate D2E/DX2                !
 ! R4    R(1,35)                 1.0873         estimate D2E/DX2                !
 ! R5    R(2,3)                  1.3908         estimate D2E/DX2                !
 ! R6    R(2,32)                 1.3861         estimate D2E/DX2                !
 ! R7    R(3,4)                  1.3853         estimate D2E/DX2                !
 ! R8    R(3,36)                 1.081          estimate D2E/DX2                !
 ! R9    R(4,5)                  1.3809         estimate D2E/DX2                !
 ! R10   R(4,37)                 1.0803         estimate D2E/DX2                !
 ! R11   R(5,6)                  1.3931         estimate D2E/DX2                !
 ! R12   R(5,38)                 1.0783         estimate D2E/DX2                !
 ! R13   R(6,7)                  1.4624         estimate D2E/DX2                !
 ! R14   R(6,32)                 1.3921         estimate D2E/DX2                !
 ! R15   R(7,8)                  1.3296         estimate D2E/DX2                !
 ! R16   R(7,31)                 1.3283         estimate D2E/DX2                !
 ! R17   R(8,9)                  1.3291         estimate D2E/DX2                !
 ! R18   R(9,10)                 1.4634         estimate D2E/DX2                !
 ! R19   R(9,16)                 1.3282         estimate D2E/DX2                !
 ! R20   R(10,11)                1.3933         estimate D2E/DX2                !
 ! R21   R(10,15)                1.3932         estimate D2E/DX2                !
 ! R22   R(11,12)                1.3814         estimate D2E/DX2                !
 ! R23   R(11,39)                1.0787         estimate D2E/DX2                !
 ! R24   R(12,13)                1.3862         estimate D2E/DX2                !
 ! R25   R(12,40)                1.0802         estimate D2E/DX2                !
 ! R26   R(13,14)                1.3861         estimate D2E/DX2                !
 ! R27   R(13,41)                1.0803         estimate D2E/DX2                !
 ! R28   R(14,15)                1.3815         estimate D2E/DX2                !
 ! R29   R(14,42)                1.0802         estimate D2E/DX2                !
 ! R30   R(15,43)                1.0789         estimate D2E/DX2                !
 ! R31   R(16,17)                1.3313         estimate D2E/DX2                !
 ! R32   R(17,18)                1.3662         estimate D2E/DX2                !
 ! R33   R(17,31)                1.3307         estimate D2E/DX2                !
 ! R34   R(18,19)                1.3966         estimate D2E/DX2                !
 ! R35   R(18,30)                1.3965         estimate D2E/DX2                !
 ! R36   R(19,20)                1.3849         estimate D2E/DX2                !
 ! R37   R(19,24)                1.4101         estimate D2E/DX2                !
 ! R38   R(20,21)                1.3844         estimate D2E/DX2                !
 ! R39   R(20,44)                1.0764         estimate D2E/DX2                !
 ! R40   R(21,22)                1.3905         estimate D2E/DX2                !
 ! R41   R(21,45)                1.08           estimate D2E/DX2                !
 ! R42   R(22,23)                1.3817         estimate D2E/DX2                !
 ! R43   R(22,46)                1.0799         estimate D2E/DX2                !
 ! R44   R(23,24)                1.3872         estimate D2E/DX2                !
 ! R45   R(23,47)                1.0794         estimate D2E/DX2                !
 ! R46   R(24,25)                1.4396         estimate D2E/DX2                !
 ! R47   R(25,26)                1.3872         estimate D2E/DX2                !
 ! R48   R(25,30)                1.4101         estimate D2E/DX2                !
 ! R49   R(26,27)                1.3817         estimate D2E/DX2                !
 ! R50   R(26,48)                1.0794         estimate D2E/DX2                !
 ! R51   R(27,28)                1.3905         estimate D2E/DX2                !
 ! R52   R(27,49)                1.0799         estimate D2E/DX2                !
 ! R53   R(28,29)                1.3844         estimate D2E/DX2                !
 ! R54   R(28,50)                1.0801         estimate D2E/DX2                !
 ! R55   R(29,30)                1.385          estimate D2E/DX2                !
 ! R56   R(29,51)                1.0764         estimate D2E/DX2                !
 ! R57   R(32,52)                1.0795         estimate D2E/DX2                !
 ! A1    A(2,1,33)             109.8846         estimate D2E/DX2                !
 ! A2    A(2,1,34)             110.97           estimate D2E/DX2                !
 ! A3    A(2,1,35)             110.8414         estimate D2E/DX2                !
 ! A4    A(33,1,34)            108.0236         estimate D2E/DX2                !
 ! A5    A(33,1,35)            107.9387         estimate D2E/DX2                !
 ! A6    A(34,1,35)            109.0883         estimate D2E/DX2                !
 ! A7    A(1,2,3)              120.7904         estimate D2E/DX2                !
 ! A8    A(1,2,32)             120.5091         estimate D2E/DX2                !
 ! A9    A(3,2,32)             118.6915         estimate D2E/DX2                !
 ! A10   A(2,3,4)              120.8433         estimate D2E/DX2                !
 ! A11   A(2,3,36)             119.4242         estimate D2E/DX2                !
 ! A12   A(4,3,36)             119.7326         estimate D2E/DX2                !
 ! A13   A(3,4,5)              120.2684         estimate D2E/DX2                !
 ! A14   A(3,4,37)             119.7656         estimate D2E/DX2                !
 ! A15   A(5,4,37)             119.9658         estimate D2E/DX2                !
 ! A16   A(4,5,6)              119.589          estimate D2E/DX2                !
 ! A17   A(4,5,38)             121.4116         estimate D2E/DX2                !
 ! A18   A(6,5,38)             118.9974         estimate D2E/DX2                !
 ! A19   A(5,6,7)              119.9906         estimate D2E/DX2                !
 ! A20   A(5,6,32)             119.7898         estimate D2E/DX2                !
 ! A21   A(7,6,32)             120.2196         estimate D2E/DX2                !
 ! A22   A(6,7,8)              117.9944         estimate D2E/DX2                !
 ! A23   A(6,7,31)             117.8504         estimate D2E/DX2                !
 ! A24   A(8,7,31)             124.1553         estimate D2E/DX2                !
 ! A25   A(7,8,9)              115.8672         estimate D2E/DX2                !
 ! A26   A(8,9,10)             117.9012         estimate D2E/DX2                !
 ! A27   A(8,9,16)             124.2616         estimate D2E/DX2                !
 ! A28   A(10,9,16)            117.8372         estimate D2E/DX2                !
 ! A29   A(9,10,11)            119.877          estimate D2E/DX2                !
 ! A30   A(9,10,15)            120.4479         estimate D2E/DX2                !
 ! A31   A(11,10,15)           119.6748         estimate D2E/DX2                !
 ! A32   A(10,11,12)           120.0219         estimate D2E/DX2                !
 ! A33   A(10,11,39)           118.7452         estimate D2E/DX2                !
 ! A34   A(12,11,39)           121.2319         estimate D2E/DX2                !
 ! A35   A(11,12,13)           120.1085         estimate D2E/DX2                !
 ! A36   A(11,12,40)           119.939          estimate D2E/DX2                !
 ! A37   A(13,12,40)           119.9525         estimate D2E/DX2                !
 ! A38   A(12,13,14)           120.066          estimate D2E/DX2                !
 ! A39   A(12,13,41)           119.9756         estimate D2E/DX2                !
 ! A40   A(14,13,41)           119.9583         estimate D2E/DX2                !
 ! A41   A(13,14,15)           120.1352         estimate D2E/DX2                !
 ! A42   A(13,14,42)           119.9681         estimate D2E/DX2                !
 ! A43   A(15,14,42)           119.8967         estimate D2E/DX2                !
 ! A44   A(10,15,14)           119.9927         estimate D2E/DX2                !
 ! A45   A(10,15,43)           119.0675         estimate D2E/DX2                !
 ! A46   A(14,15,43)           120.9357         estimate D2E/DX2                !
 ! A47   A(9,16,17)            115.7097         estimate D2E/DX2                !
 ! A48   A(16,17,18)           117.9429         estimate D2E/DX2                !
 ! A49   A(16,17,31)           124.1912         estimate D2E/DX2                !
 ! A50   A(18,17,31)           117.8659         estimate D2E/DX2                !
 ! A51   A(17,18,19)           126.031          estimate D2E/DX2                !
 ! A52   A(17,18,30)           125.9672         estimate D2E/DX2                !
 ! A53   A(19,18,30)           108.0017         estimate D2E/DX2                !
 ! A54   A(18,19,20)           130.1415         estimate D2E/DX2                !
 ! A55   A(18,19,24)           109.0921         estimate D2E/DX2                !
 ! A56   A(20,19,24)           120.7288         estimate D2E/DX2                !
 ! A57   A(19,20,21)           117.9261         estimate D2E/DX2                !
 ! A58   A(19,20,44)           120.9006         estimate D2E/DX2                !
 ! A59   A(21,20,44)           121.1727         estimate D2E/DX2                !
 ! A60   A(20,21,22)           121.634          estimate D2E/DX2                !
 ! A61   A(20,21,45)           119.0332         estimate D2E/DX2                !
 ! A62   A(22,21,45)           119.3327         estimate D2E/DX2                !
 ! A63   A(21,22,23)           120.6767         estimate D2E/DX2                !
 ! A64   A(21,22,46)           119.4954         estimate D2E/DX2                !
 ! A65   A(23,22,46)           119.8266         estimate D2E/DX2                !
 ! A66   A(22,23,24)           118.5404         estimate D2E/DX2                !
 ! A67   A(22,23,47)           121.0386         estimate D2E/DX2                !
 ! A68   A(24,23,47)           120.4206         estimate D2E/DX2                !
 ! A69   A(19,24,23)           120.4809         estimate D2E/DX2                !
 ! A70   A(19,24,25)           106.9054         estimate D2E/DX2                !
 ! A71   A(23,24,25)           132.6117         estimate D2E/DX2                !
 ! A72   A(24,25,26)           132.611          estimate D2E/DX2                !
 ! A73   A(24,25,30)           106.9043         estimate D2E/DX2                !
 ! A74   A(26,25,30)           120.4826         estimate D2E/DX2                !
 ! A75   A(25,26,27)           118.546          estimate D2E/DX2                !
 ! A76   A(25,26,48)           120.4203         estimate D2E/DX2                !
 ! A77   A(27,26,48)           121.0333         estimate D2E/DX2                !
 ! A78   A(26,27,28)           120.6693         estimate D2E/DX2                !
 ! A79   A(26,27,49)           119.8321         estimate D2E/DX2                !
 ! A80   A(28,27,49)           119.4972         estimate D2E/DX2                !
 ! A81   A(27,28,29)           121.6376         estimate D2E/DX2                !
 ! A82   A(27,28,50)           119.3077         estimate D2E/DX2                !
 ! A83   A(29,28,50)           119.0545         estimate D2E/DX2                !
 ! A84   A(28,29,30)           117.9289         estimate D2E/DX2                !
 ! A85   A(28,29,51)           121.1952         estimate D2E/DX2                !
 ! A86   A(30,29,51)           120.8752         estimate D2E/DX2                !
 ! A87   A(18,30,25)           109.095          estimate D2E/DX2                !
 ! A88   A(18,30,29)           130.1446         estimate D2E/DX2                !
 ! A89   A(25,30,29)           120.7218         estimate D2E/DX2                !
 ! A90   A(7,31,17)            115.8031         estimate D2E/DX2                !
 ! A91   A(2,32,6)             120.8171         estimate D2E/DX2                !
 ! A92   A(2,32,52)            120.343          estimate D2E/DX2                !
 ! A93   A(6,32,52)            118.8369         estimate D2E/DX2                !
 ! D1    D(33,1,2,3)           -90.5329         estimate D2E/DX2                !
 ! D2    D(33,1,2,32)           88.3624         estimate D2E/DX2                !
 ! D3    D(34,1,2,3)            28.8724         estimate D2E/DX2                !
 ! D4    D(34,1,2,32)         -152.2322         estimate D2E/DX2                !
 ! D5    D(35,1,2,3)           150.248          estimate D2E/DX2                !
 ! D6    D(35,1,2,32)          -30.8566         estimate D2E/DX2                !
 ! D7    D(1,2,3,4)            178.7615         estimate D2E/DX2                !
 ! D8    D(1,2,3,36)            -1.1994         estimate D2E/DX2                !
 ! D9    D(32,2,3,4)            -0.1536         estimate D2E/DX2                !
 ! D10   D(32,2,3,36)          179.8855         estimate D2E/DX2                !
 ! D11   D(1,2,32,6)          -178.9464         estimate D2E/DX2                !
 ! D12   D(1,2,32,52)            0.4141         estimate D2E/DX2                !
 ! D13   D(3,2,32,6)            -0.0281         estimate D2E/DX2                !
 ! D14   D(3,2,32,52)          179.3323         estimate D2E/DX2                !
 ! D15   D(2,3,4,5)              0.0803         estimate D2E/DX2                !
 ! D16   D(2,3,4,37)           179.9585         estimate D2E/DX2                !
 ! D17   D(36,3,4,5)          -179.9589         estimate D2E/DX2                !
 ! D18   D(36,3,4,37)           -0.0807         estimate D2E/DX2                !
 ! D19   D(3,4,5,6)              0.1752         estimate D2E/DX2                !
 ! D20   D(3,4,5,38)           179.6588         estimate D2E/DX2                !
 ! D21   D(37,4,5,6)          -179.7028         estimate D2E/DX2                !
 ! D22   D(37,4,5,38)           -0.2192         estimate D2E/DX2                !
 ! D23   D(4,5,6,7)            179.619          estimate D2E/DX2                !
 ! D24   D(4,5,6,32)            -0.3535         estimate D2E/DX2                !
 ! D25   D(38,5,6,7)             0.1229         estimate D2E/DX2                !
 ! D26   D(38,5,6,32)         -179.8496         estimate D2E/DX2                !
 ! D27   D(5,6,7,8)             12.9259         estimate D2E/DX2                !
 ! D28   D(5,6,7,31)          -167.0613         estimate D2E/DX2                !
 ! D29   D(32,6,7,8)          -167.1017         estimate D2E/DX2                !
 ! D30   D(32,6,7,31)           12.9111         estimate D2E/DX2                !
 ! D31   D(5,6,32,2)             0.2816         estimate D2E/DX2                !
 ! D32   D(5,6,32,52)         -179.0884         estimate D2E/DX2                !
 ! D33   D(7,6,32,2)          -179.6909         estimate D2E/DX2                !
 ! D34   D(7,6,32,52)            0.9392         estimate D2E/DX2                !
 ! D35   D(6,7,8,9)            179.4639         estimate D2E/DX2                !
 ! D36   D(31,7,8,9)            -0.5497         estimate D2E/DX2                !
 ! D37   D(6,7,31,17)         -178.9942         estimate D2E/DX2                !
 ! D38   D(8,7,31,17)            1.0194         estimate D2E/DX2                !
 ! D39   D(7,8,9,10)           179.4046         estimate D2E/DX2                !
 ! D40   D(7,8,9,16)            -0.5446         estimate D2E/DX2                !
 ! D41   D(8,9,10,11)           12.8511         estimate D2E/DX2                !
 ! D42   D(8,9,10,15)         -166.9628         estimate D2E/DX2                !
 ! D43   D(16,9,10,11)        -167.1963         estimate D2E/DX2                !
 ! D44   D(16,9,10,15)          12.9898         estimate D2E/DX2                !
 ! D45   D(8,9,16,17)            1.0353         estimate D2E/DX2                !
 ! D46   D(10,9,16,17)        -178.914          estimate D2E/DX2                !
 ! D47   D(9,10,11,12)         179.8361         estimate D2E/DX2                !
 ! D48   D(9,10,11,39)           0.1866         estimate D2E/DX2                !
 ! D49   D(15,10,11,12)         -0.3485         estimate D2E/DX2                !
 ! D50   D(15,10,11,39)       -179.9981         estimate D2E/DX2                !
 ! D51   D(9,10,15,14)        -179.9653         estimate D2E/DX2                !
 ! D52   D(9,10,15,43)           0.7728         estimate D2E/DX2                !
 ! D53   D(11,10,15,14)          0.2205         estimate D2E/DX2                !
 ! D54   D(11,10,15,43)       -179.0414         estimate D2E/DX2                !
 ! D55   D(10,11,12,13)          0.199          estimate D2E/DX2                !
 ! D56   D(10,11,12,40)       -179.7916         estimate D2E/DX2                !
 ! D57   D(39,11,12,13)        179.8397         estimate D2E/DX2                !
 ! D58   D(39,11,12,40)         -0.1509         estimate D2E/DX2                !
 ! D59   D(11,12,13,14)          0.0799         estimate D2E/DX2                !
 ! D60   D(11,12,13,41)        179.9577         estimate D2E/DX2                !
 ! D61   D(40,12,13,14)       -179.9296         estimate D2E/DX2                !
 ! D62   D(40,12,13,41)         -0.0518         estimate D2E/DX2                !
 ! D63   D(12,13,14,15)         -0.2084         estimate D2E/DX2                !
 ! D64   D(12,13,14,42)        179.6944         estimate D2E/DX2                !
 ! D65   D(41,13,14,15)        179.9137         estimate D2E/DX2                !
 ! D66   D(41,13,14,42)         -0.1834         estimate D2E/DX2                !
 ! D67   D(13,14,15,10)          0.0571         estimate D2E/DX2                !
 ! D68   D(13,14,15,43)        179.3049         estimate D2E/DX2                !
 ! D69   D(42,14,15,10)       -179.8458         estimate D2E/DX2                !
 ! D70   D(42,14,15,43)         -0.598          estimate D2E/DX2                !
 ! D71   D(9,16,17,18)         179.4958         estimate D2E/DX2                !
 ! D72   D(9,16,17,31)          -0.5008         estimate D2E/DX2                !
 ! D73   D(16,17,18,19)         15.7194         estimate D2E/DX2                !
 ! D74   D(16,17,18,30)       -164.3837         estimate D2E/DX2                !
 ! D75   D(31,17,18,19)       -164.2838         estimate D2E/DX2                !
 ! D76   D(31,17,18,30)         15.6132         estimate D2E/DX2                !
 ! D77   D(16,17,31,7)          -0.4615         estimate D2E/DX2                !
 ! D78   D(18,17,31,7)         179.5418         estimate D2E/DX2                !
 ! D79   D(17,18,19,20)          2.0299         estimate D2E/DX2                !
 ! D80   D(17,18,19,24)        179.7667         estimate D2E/DX2                !
 ! D81   D(30,18,19,20)       -177.8824         estimate D2E/DX2                !
 ! D82   D(30,18,19,24)         -0.1456         estimate D2E/DX2                !
 ! D83   D(17,18,30,25)        179.9747         estimate D2E/DX2                !
 ! D84   D(17,18,30,29)          2.2703         estimate D2E/DX2                !
 ! D85   D(19,18,30,25)         -0.113          estimate D2E/DX2                !
 ! D86   D(19,18,30,29)       -177.8173         estimate D2E/DX2                !
 ! D87   D(18,19,20,21)        178.6734         estimate D2E/DX2                !
 ! D88   D(18,19,20,44)         -1.0516         estimate D2E/DX2                !
 ! D89   D(24,19,20,21)          1.1616         estimate D2E/DX2                !
 ! D90   D(24,19,20,44)       -178.5634         estimate D2E/DX2                !
 ! D91   D(18,19,24,23)       -179.2072         estimate D2E/DX2                !
 ! D92   D(18,19,24,25)          0.3396         estimate D2E/DX2                !
 ! D93   D(20,19,24,23)         -1.2198         estimate D2E/DX2                !
 ! D94   D(20,19,24,25)        178.327          estimate D2E/DX2                !
 ! D95   D(19,20,21,22)         -0.2709         estimate D2E/DX2                !
 ! D96   D(19,20,21,45)        179.8521         estimate D2E/DX2                !
 ! D97   D(44,20,21,22)        179.4532         estimate D2E/DX2                !
 ! D98   D(44,20,21,45)         -0.4237         estimate D2E/DX2                !
 ! D99   D(20,21,22,23)         -0.5972         estimate D2E/DX2                !
 ! D100  D(20,21,22,46)        179.8157         estimate D2E/DX2                !
 ! D101  D(45,21,22,23)        179.2793         estimate D2E/DX2                !
 ! D102  D(45,21,22,46)         -0.3078         estimate D2E/DX2                !
 ! D103  D(21,22,23,24)          0.551          estimate D2E/DX2                !
 ! D104  D(21,22,23,47)       -179.2164         estimate D2E/DX2                !
 ! D105  D(46,22,23,24)       -179.8633         estimate D2E/DX2                !
 ! D106  D(46,22,23,47)          0.3694         estimate D2E/DX2                !
 ! D107  D(22,23,24,19)          0.3383         estimate D2E/DX2                !
 ! D108  D(22,23,24,25)       -179.0726         estimate D2E/DX2                !
 ! D109  D(47,23,24,19)       -179.8929         estimate D2E/DX2                !
 ! D110  D(47,23,24,25)          0.6963         estimate D2E/DX2                !
 ! D111  D(19,24,25,26)        179.0493         estimate D2E/DX2                !
 ! D112  D(19,24,25,30)         -0.4009         estimate D2E/DX2                !
 ! D113  D(23,24,25,26)         -1.4814         estimate D2E/DX2                !
 ! D114  D(23,24,25,30)        179.0684         estimate D2E/DX2                !
 ! D115  D(24,25,26,27)       -179.0432         estimate D2E/DX2                !
 ! D116  D(24,25,26,48)          0.7136         estimate D2E/DX2                !
 ! D117  D(30,25,26,27)          0.3464         estimate D2E/DX2                !
 ! D118  D(30,25,26,48)       -179.8968         estimate D2E/DX2                !
 ! D119  D(24,25,30,18)          0.3196         estimate D2E/DX2                !
 ! D120  D(24,25,30,29)        178.2784         estimate D2E/DX2                !
 ! D121  D(26,25,30,18)       -179.2109         estimate D2E/DX2                !
 ! D122  D(26,25,30,29)         -1.2521         estimate D2E/DX2                !
 ! D123  D(25,26,27,28)          0.5683         estimate D2E/DX2                !
 ! D124  D(25,26,27,49)       -179.8688         estimate D2E/DX2                !
 ! D125  D(48,26,27,28)       -179.187          estimate D2E/DX2                !
 ! D126  D(48,26,27,49)          0.376          estimate D2E/DX2                !
 ! D127  D(26,27,28,29)         -0.6167         estimate D2E/DX2                !
 ! D128  D(26,27,28,50)        179.2177         estimate D2E/DX2                !
 ! D129  D(49,27,28,29)        179.8189         estimate D2E/DX2                !
 ! D130  D(49,27,28,50)         -0.3467         estimate D2E/DX2                !
 ! D131  D(27,28,29,30)         -0.2755         estimate D2E/DX2                !
 ! D132  D(27,28,29,51)        179.4023         estimate D2E/DX2                !
 ! D133  D(50,28,29,30)        179.8897         estimate D2E/DX2                !
 ! D134  D(50,28,29,51)         -0.4325         estimate D2E/DX2                !
 ! D135  D(28,29,30,18)        178.6679         estimate D2E/DX2                !
 ! D136  D(28,29,30,25)          1.1915         estimate D2E/DX2                !
 ! D137  D(51,29,30,18)         -1.0109         estimate D2E/DX2                !
 ! D138  D(51,29,30,25)       -178.4873         estimate D2E/DX2                !
 --------------------------------------------------------------------------------
 Trust Radius=3.00D-01 FncErr=1.00D-07 GrdErr=1.00D-06 EigMax=2.50D+02 EigMin=1.00D-04
 Number of steps in this run=    298 maximum allowed number of steps=    312.
 GradGradGradGradGradGradGradGradGradGradGradGradGradGradGradGradGradGrad

 Leave Link  103 at Sat Nov  5 01:36:19 2022, MaxMem=   805306368 cpu:               0.1 elap:               0.0
 (Enter /home/wykgroup/appl/g16/l202.exe)
 Stoichiometry    C28H20N4
 Framework group  C1[X(C28H20N4)]
 Deg. of freedom   150
 Full point group                 C1      NOp   1
 Largest Abelian subgroup         C1      NOp   1
 Largest concise Abelian subgroup C1      NOp   1
                         Standard orientation:                         
 ---------------------------------------------------------------------
 Center     Atomic      Atomic             Coordinates (Angstroms)
 Number     Number       Type             X           Y           Z
 ---------------------------------------------------------------------
      1          6           0       -3.619102   -4.820166    0.818176
      2          6           0       -3.831273   -3.383780    0.447373
      3          6           0       -5.106360   -2.899588    0.175324
      4          6           0       -5.306884   -1.566305   -0.142677
      5          6           0       -4.236945   -0.694859   -0.195849
      6          6           0       -2.952705   -1.165405    0.068840
      7          6           0       -1.812281   -0.252012    0.006831
      8          7           0       -2.060185    1.053293   -0.044207
      9          6           0       -0.993435    1.844821   -0.088311
     10          6           0       -1.215181    3.289567   -0.158820
     11          6           0       -2.483360    3.810078    0.090291
     12          6           0       -2.695275    5.173649    0.027874
     13          6           0       -1.648559    6.026381   -0.286536
     14          6           0       -0.386577    5.512480   -0.540782
     15          6           0       -0.166846    4.150016   -0.477524
     16          7           0        0.261431    1.409952   -0.073535
     17          6           0        0.414119    0.088151   -0.031515
     18          7           0        1.686504   -0.409461   -0.025363
     19          6           0        2.849902    0.313204    0.247901
     20          6           0        3.012899    1.641700    0.603713
     21          6           0        4.298393    2.095084    0.845689
     22          6           0        5.400011    1.252781    0.744004
     23          6           0        5.241335   -0.077755    0.406936
     24          6           0        3.960781   -0.551026    0.161188
     25          6           0        3.452719   -1.852200   -0.186995
     26          6           0        4.072873   -3.070726   -0.421142
     27          6           0        3.288670   -4.155859   -0.762637
     28          6           0        1.909393   -4.025112   -0.880396
     29          6           0        1.272104   -2.817870   -0.650148
     30          6           0        2.051539   -1.731310   -0.289468
     31          7           0       -0.593562   -0.780267    0.004843
     32          6           0       -2.760066   -2.505847    0.391306
     33          1           0       -3.678191   -4.936369    1.900877
     34          1           0       -4.380177   -5.454422    0.369650
     35          1           0       -2.637698   -5.161519    0.497779
     36          1           0       -5.950011   -3.574291    0.213831
     37          1           0       -6.304704   -1.208985   -0.351545
     38          1           0       -4.371196    0.345255   -0.446725
     39          1           0       -3.284146    3.130235    0.335742
     40          1           0       -3.678261    5.576022    0.224557
     41          1           0       -1.816857    7.092377   -0.335430
     42          1           0        0.426807    6.178020   -0.790481
     43          1           0        0.807523    3.735174   -0.683873
     44          1           0        2.164551    2.298107    0.693071
     45          1           0        4.446339    3.128611    1.122045
     46          1           0        6.387913    1.643734    0.937508
     47          1           0        6.091179   -0.739770    0.338598
     48          1           0        5.145374   -3.162519   -0.340798
     49          1           0        3.749585   -5.114855   -0.947397
     50          1           0        1.318849   -4.884870   -1.160934
     51          1           0        0.204881   -2.722369   -0.752623
     52          1           0       -1.760409   -2.850734    0.608106
 ---------------------------------------------------------------------
 Rotational constants (GHZ):           0.1411089           0.1249504           0.0677014
 Leave Link  202 at Sat Nov  5 01:36:19 2022, MaxMem=   805306368 cpu:               0.1 elap:               0.0
 (Enter /home/wykgroup/appl/g16/l301.exe)
 Standard basis: 6-31G(d) (6D, 7F)
 Ernie: Thresh=  0.10000D-02 Tol=  0.10000D-05 Strict=F.
 There are   520 symmetry adapted cartesian basis functions of A   symmetry.
 There are   520 symmetry adapted basis functions of A   symmetry.
   520 basis functions,   976 primitive gaussians,   520 cartesian basis functions
   108 alpha electrons      108 beta electrons
       nuclear repulsion energy      2883.0974008760 Hartrees.
 IExCor=  402 DFT=T Ex+Corr=B3LYP ExCW=0 ScaHFX=  0.200000
 ScaDFX=  0.800000  0.720000  1.000000  0.810000 ScalE2=  1.000000  1.000000
 IRadAn=      5 IRanWt=     -1 IRanGd=            0 ICorTp=0 IEmpDi=  4
 NAtoms=   52 NActive=   52 NUniq=   52 SFac= 1.00D+00 NAtFMM=   60 NAOKFM=F Big=F
 Integral buffers will be    131072 words long.
 Raffenetti 2 integral format.
 Two-electron integral symmetry is turned on.
 Leave Link  301 at Sat Nov  5 01:36:19 2022, MaxMem=   805306368 cpu:               0.4 elap:               0.1
 (Enter /home/wykgroup/appl/g16/l302.exe)
 NPDir=0 NMtPBC=     1 NCelOv=     1 NCel=       1 NClECP=     1 NCelD=      1
         NCelK=      1 NCelE2=     1 NClLst=     1 CellRange=     0.0.
 One-electron integrals computed using PRISM.
 One-electron integral symmetry used in STVInt
 NBasis=   520 RedAO= T EigKep=  2.74D-04  NBF=   520
 NBsUse=   520 1.00D-06 EigRej= -1.00D+00 NBFU=   520
 Precomputing XC quadrature grid using
 IXCGrd= 4 IRadAn=           5 IRanWt=          -1 IRanGd=           0 AccXCQ= 0.00D+00.
 Generated NRdTot=       0 NPtTot=           0 NUsed=           0 NTot=          32
 NSgBfM=   513   513   513   513   513 MxSgAt=    52 MxSgA2=    52.
 Leave Link  302 at Sat Nov  5 01:36:20 2022, MaxMem=   805306368 cpu:               5.5 elap:               0.8
 (Enter /home/wykgroup/appl/g16/l303.exe)
 DipDrv:  MaxL=1.
 Leave Link  303 at Sat Nov  5 01:36:20 2022, MaxMem=   805306368 cpu:               0.4 elap:               0.1
 (Enter /home/wykgroup/appl/g16/l401.exe)
 ExpMin= 1.61D-01 ExpMax= 4.17D+03 ExpMxC= 6.27D+02 IAcc=3 IRadAn=         5 AccDes= 0.00D+00
 Harris functional with IExCor=  402 and IRadAn=       5 diagonalized for initial guess.
 HarFok:  IExCor=  402 AccDes= 0.00D+00 IRadAn=         5 IDoV= 1 UseB2=F ITyADJ=14
 ICtDFT=  3500011 ScaDFX=  1.000000  1.000000  1.000000  1.000000
 FoFCou: FMM=F IPFlag=           0 FMFlag=      100000 FMFlg1=           0
         NFxFlg=           0 DoJE=T BraDBF=F KetDBF=T FulRan=T
         wScrn=  0.000000 ICntrl=       500 IOpCl=  0 I1Cent=   200000004 NGrid=           0
         NMat0=    1 NMatS0=      1 NMatT0=    0 NMatD0=    1 NMtDS0=    0 NMtDT0=    0
 Petite list used in FoFCou.
 Harris En= -1298.08382791427    
 JPrj=0 DoOrth=F DoCkMO=F.
 Leave Link  401 at Sat Nov  5 01:36:23 2022, MaxMem=   805306368 cpu:              23.3 elap:               3.4
 (Enter /home/wykgroup/appl/g16/l502.exe)
 Integral symmetry usage will be decided dynamically.
 Closed shell SCF:
 Using DIIS extrapolation, IDIIS=  1040.
 NGot=   805306368 LenX=   804756342 LenY=   804485422
 Requested convergence on RMS density matrix=1.00D-08 within  32 cycles.
 Requested convergence on MAX density matrix=1.00D-06.
 Requested convergence on             energy=1.00D-06.
 No special actions if energy rises.
 Fock matrices will be formed incrementally for  20 cycles.
 Integral accuracy reduced to 1.0D-05 until final iterations.

 Cycle   1  Pass 0  IDiag  1:
 FoFJK:  IHMeth= 1 ICntrl=       0 DoSepK=F KAlg= 0 I1Cent=           0 FoldK=F
 IRaf= 630000000 NMat=       1 IRICut=       1 DoRegI=T DoRafI=F ISym2E= 0 IDoP0=0 IntGTp=1.
 FoFCou: FMM=F IPFlag=           0 FMFlag=      100000 FMFlg1=           0
         NFxFlg=           0 DoJE=F BraDBF=F KetDBF=F FulRan=T
         wScrn=  0.000000 ICntrl=         0 IOpCl=  0 I1Cent=           0 NGrid=           0
         NMat0=    1 NMatS0=      1 NMatT0=    0 NMatD0=    1 NMtDS0=    0 NMtDT0=    0
 Symmetry not used in FoFCou.
 E= -1297.39421769499    
 DIIS: error= 3.62D-02 at cycle   1 NSaved=   1.
 NSaved= 1 IEnMin= 1 EnMin= -1297.39421769499     IErMin= 1 ErrMin= 3.62D-02
 ErrMax= 3.62D-02  0.00D+00 EMaxC= 1.00D-01 BMatC= 6.69D-01 BMatP= 6.69D-01
 IDIUse=3 WtCom= 6.38D-01 WtEn= 3.62D-01
 Coeff-Com:  0.100D+01
 Coeff-En:   0.100D+01
 Coeff:      0.100D+01
 Gap=     0.173 Goal=   None    Shift=    0.000
 GapD=    0.173 DampG=1.000 DampE=0.500 DampFc=0.5000 IDamp=-1.
 Damping current iteration by 5.00D-01
 RMSDP=4.10D-03 MaxDP=1.34D-01              OVMax= 2.72D-01

 Cycle   2  Pass 0  IDiag  1:
 RMSU=  1.99D-03    CP:  9.67D-01
 E= -1297.67614582783     Delta-E=       -0.281928132839 Rises=F Damp=T
 DIIS: error= 1.06D-02 at cycle   2 NSaved=   2.
 NSaved= 2 IEnMin= 2 EnMin= -1297.67614582783     IErMin= 2 ErrMin= 1.06D-02
 ErrMax= 1.06D-02  0.00D+00 EMaxC= 1.00D-01 BMatC= 6.54D-02 BMatP= 6.69D-01
 IDIUse=3 WtCom= 8.94D-01 WtEn= 1.06D-01
 Coeff-Com:  0.864D-01 0.914D+00
 Coeff-En:   0.164D+00 0.836D+00
 Coeff:      0.946D-01 0.905D+00
 Gap=     0.210 Goal=   None    Shift=    0.000
 RMSDP=1.54D-03 MaxDP=1.16D-01 DE=-2.82D-01 OVMax= 2.83D-01

 Cycle   3  Pass 0  IDiag  1:
 RMSU=  1.48D-03    CP:  9.45D-01  8.74D-01
 E= -1297.99280631548     Delta-E=       -0.316660487647 Rises=F Damp=F
 DIIS: error= 1.68D-02 at cycle   3 NSaved=   3.
 NSaved= 3 IEnMin= 3 EnMin= -1297.99280631548     IErMin= 2 ErrMin= 1.06D-02
 ErrMax= 1.68D-02  0.00D+00 EMaxC= 1.00D-01 BMatC= 8.70D-02 BMatP= 6.54D-02
 IDIUse=2 WtCom= 0.00D+00 WtEn= 1.00D+00
 Coeff-En:   0.000D+00 0.000D+00 0.100D+01
 Coeff:      0.000D+00 0.000D+00 0.100D+01
 Gap=     0.198 Goal=   None    Shift=    0.000
 RMSDP=2.27D-03 MaxDP=1.45D-01 DE=-3.17D-01 OVMax= 2.84D-01

 Cycle   4  Pass 0  IDiag  1:
 RMSU=  1.34D-03    CP:  9.47D-01  1.28D+00 -1.10D-01
 E= -1297.57831612589     Delta-E=        0.414490189589 Rises=F Damp=F
 DIIS: error= 4.25D-02 at cycle   4 NSaved=   4.
 NSaved= 4 IEnMin= 3 EnMin= -1297.99280631548     IErMin= 2 ErrMin= 1.06D-02
 ErrMax= 4.25D-02  0.00D+00 EMaxC= 1.00D-01 BMatC= 4.58D-01 BMatP= 6.54D-02
 IDIUse=2 WtCom= 0.00D+00 WtEn= 1.00D+00
 Coeff-En:   0.000D+00 0.000D+00 0.782D+00 0.218D+00
 Coeff:      0.000D+00 0.000D+00 0.782D+00 0.218D+00
 Gap=     0.151 Goal=   None    Shift=    0.000
 RMSDP=1.14D-03 MaxDP=7.38D-02 DE= 4.14D-01 OVMax= 1.74D-01

 Cycle   5  Pass 0  IDiag  1:
 RMSU=  2.37D-04    CP:  9.47D-01  1.06D+00  4.18D-01  5.08D-01
 E= -1298.05598697631     Delta-E=       -0.477670850421 Rises=F Damp=F
 DIIS: error= 1.11D-02 at cycle   5 NSaved=   5.
 NSaved= 5 IEnMin= 5 EnMin= -1298.05598697631     IErMin= 2 ErrMin= 1.06D-02
 ErrMax= 1.11D-02  0.00D+00 EMaxC= 1.00D-01 BMatC= 3.24D-02 BMatP= 6.54D-02
 IDIUse=3 WtCom= 8.89D-01 WtEn= 1.11D-01
 Coeff-Com:  0.231D-02 0.667D-02 0.306D+00-0.704D-01 0.755D+00
 Coeff-En:   0.000D+00 0.000D+00 0.320D+00 0.000D+00 0.680D+00
 Coeff:      0.206D-02 0.593D-02 0.308D+00-0.626D-01 0.747D+00
 Gap=     0.150 Goal=   None    Shift=    0.000
 RMSDP=4.66D-04 MaxDP=3.16D-02 DE=-4.78D-01 OVMax= 6.51D-02

 Cycle   6  Pass 0  IDiag  1:
 RMSU=  7.84D-05    CP:  9.47D-01  9.79D-01  6.45D-01  3.11D-01  7.33D-01
 E= -1298.09263768071     Delta-E=       -0.036650704403 Rises=F Damp=F
 DIIS: error= 8.20D-04 at cycle   6 NSaved=   6.
 NSaved= 6 IEnMin= 6 EnMin= -1298.09263768071     IErMin= 6 ErrMin= 8.20D-04
 ErrMax= 8.20D-04  0.00D+00 EMaxC= 1.00D-01 BMatC= 3.48D-04 BMatP= 3.24D-02
 IDIUse=3 WtCom= 9.92D-01 WtEn= 8.20D-03
 Coeff-Com: -0.750D-03 0.252D-02 0.131D+00-0.610D-01 0.446D+00 0.482D+00
 Coeff-En:   0.000D+00 0.000D+00 0.000D+00 0.000D+00 0.000D+00 0.100D+01
 Coeff:     -0.744D-03 0.250D-02 0.130D+00-0.605D-01 0.442D+00 0.486D+00
 Gap=     0.145 Goal=   None    Shift=    0.000
 RMSDP=4.97D-05 MaxDP=2.60D-03 DE=-3.67D-02 OVMax= 6.36D-03

 Cycle   7  Pass 0  IDiag  1:
 RMSU=  2.06D-05    CP:  9.47D-01  9.84D-01  6.35D-01  3.14D-01  8.28D-01
                    CP:  5.52D-01
 E= -1298.09297926645     Delta-E=       -0.000341585735 Rises=F Damp=F
 DIIS: error= 1.90D-04 at cycle   7 NSaved=   7.
 NSaved= 7 IEnMin= 7 EnMin= -1298.09297926645     IErMin= 7 ErrMin= 1.90D-04
 ErrMax= 1.90D-04  0.00D+00 EMaxC= 1.00D-01 BMatC= 2.19D-05 BMatP= 3.48D-04
 IDIUse=3 WtCom= 9.98D-01 WtEn= 1.90D-03
 Coeff-Com: -0.594D-03 0.157D-02 0.525D-01-0.294D-01 0.194D+00 0.272D+00
 Coeff-Com:  0.510D+00
 Coeff-En:   0.000D+00 0.000D+00 0.000D+00 0.000D+00 0.000D+00 0.000D+00
 Coeff-En:   0.100D+01
 Coeff:     -0.592D-03 0.157D-02 0.524D-01-0.294D-01 0.194D+00 0.272D+00
 Coeff:      0.511D+00
 Gap=     0.146 Goal=   None    Shift=    0.000
 RMSDP=1.23D-05 MaxDP=5.81D-04 DE=-3.42D-04 OVMax= 1.61D-03

 Cycle   8  Pass 0  IDiag  1:
 RMSU=  7.59D-06    CP:  9.47D-01  9.83D-01  6.37D-01  3.15D-01  8.25D-01
                    CP:  5.90D-01  5.74D-01
 E= -1298.09300005630     Delta-E=       -0.000020789850 Rises=F Damp=F
 DIIS: error= 5.89D-05 at cycle   8 NSaved=   8.
 NSaved= 8 IEnMin= 8 EnMin= -1298.09300005630     IErMin= 8 ErrMin= 5.89D-05
 ErrMax= 5.89D-05  0.00D+00 EMaxC= 1.00D-01 BMatC= 2.84D-06 BMatP= 2.19D-05
 IDIUse=1 WtCom= 1.00D+00 WtEn= 0.00D+00
 Coeff-Com: -0.167D-03 0.318D-03 0.867D-02-0.619D-02 0.344D-01 0.772D-01
 Coeff-Com:  0.293D+00 0.593D+00
 Coeff:     -0.167D-03 0.318D-03 0.867D-02-0.619D-02 0.344D-01 0.772D-01
 Coeff:      0.293D+00 0.593D+00
 Gap=     0.145 Goal=   None    Shift=    0.000
 RMSDP=4.60D-06 MaxDP=2.23D-04 DE=-2.08D-05 OVMax= 5.26D-04

 Initial convergence to 1.0D-05 achieved.  Increase integral accuracy.
 Cycle   9  Pass 1  IDiag  1:
 E= -1298.09299938157     Delta-E=        0.000000674726 Rises=F Damp=F
 DIIS: error= 9.41D-05 at cycle   1 NSaved=   1.
 NSaved= 1 IEnMin= 1 EnMin= -1298.09299938157     IErMin= 1 ErrMin= 9.41D-05
 ErrMax= 9.41D-05  0.00D+00 EMaxC= 1.00D-01 BMatC= 4.51D-06 BMatP= 4.51D-06
 IDIUse=1 WtCom= 1.00D+00 WtEn= 0.00D+00
 Coeff-Com:  0.100D+01
 Coeff:      0.100D+01
 Gap=     0.146 Goal=   None    Shift=    0.000
 RMSDP=4.60D-06 MaxDP=2.23D-04 DE= 6.75D-07 OVMax= 5.41D-04

 Cycle  10  Pass 1  IDiag  1:
 RMSU=  7.59D-05    CP:  1.00D+00
 E= -1298.09300158214     Delta-E=       -0.000002200563 Rises=F Damp=F
 DIIS: error= 5.48D-05 at cycle   2 NSaved=   2.
 NSaved= 2 IEnMin= 2 EnMin= -1298.09300158214     IErMin= 2 ErrMin= 5.48D-05
 ErrMax= 5.48D-05  0.00D+00 EMaxC= 1.00D-01 BMatC= 1.83D-06 BMatP= 4.51D-06
 IDIUse=1 WtCom= 1.00D+00 WtEn= 0.00D+00
 Coeff-Com:  0.335D+00 0.665D+00
 Coeff:      0.335D+00 0.665D+00
 Gap=     0.145 Goal=   None    Shift=    0.000
 RMSDP=6.23D-06 MaxDP=3.15D-04 DE=-2.20D-06 OVMax= 6.97D-04

 Cycle  11  Pass 1  IDiag  1:
 RMSU=  6.22D-06    CP:  1.00D+00  1.00D+00
 E= -1298.09300131484     Delta-E=        0.000000267291 Rises=F Damp=F
 DIIS: error= 6.00D-05 at cycle   3 NSaved=   3.
 NSaved= 3 IEnMin= 2 EnMin= -1298.09300158214     IErMin= 2 ErrMin= 5.48D-05
 ErrMax= 6.00D-05  0.00D+00 EMaxC= 1.00D-01 BMatC= 2.08D-06 BMatP= 1.83D-06
 IDIUse=1 WtCom= 1.00D+00 WtEn= 0.00D+00
 Coeff-Com:  0.105D-01 0.513D+00 0.476D+00
 Coeff:      0.105D-01 0.513D+00 0.476D+00
 Gap=     0.145 Goal=   None    Shift=    0.000
 RMSDP=3.38D-06 MaxDP=2.07D-04 DE= 2.67D-07 OVMax= 4.12D-04

 Cycle  12  Pass 1  IDiag  1:
 RMSU=  8.58D-07    CP:  1.00D+00  1.01D+00  4.80D-01
 E= -1298.09300349278     Delta-E=       -0.000002177940 Rises=F Damp=F
 DIIS: error= 6.06D-06 at cycle   4 NSaved=   4.
 NSaved= 4 IEnMin= 4 EnMin= -1298.09300349278     IErMin= 4 ErrMin= 6.06D-06
 ErrMax= 6.06D-06  0.00D+00 EMaxC= 1.00D-01 BMatC= 5.63D-08 BMatP= 1.83D-06
 IDIUse=1 WtCom= 1.00D+00 WtEn= 0.00D+00
 Coeff-Com: -0.282D-02 0.299D+00 0.294D+00 0.410D+00
 Coeff:     -0.282D-02 0.299D+00 0.294D+00 0.410D+00
 Gap=     0.145 Goal=   None    Shift=    0.000
 RMSDP=5.36D-07 MaxDP=3.94D-05 DE=-2.18D-06 OVMax= 5.77D-05

 Cycle  13  Pass 1  IDiag  1:
 RMSU=  2.04D-07    CP:  1.00D+00  1.01D+00  4.96D-01  4.34D-01
 E= -1298.09300354499     Delta-E=       -0.000000052201 Rises=F Damp=F
 DIIS: error= 2.75D-06 at cycle   5 NSaved=   5.
 NSaved= 5 IEnMin= 5 EnMin= -1298.09300354499     IErMin= 5 ErrMin= 2.75D-06
 ErrMax= 2.75D-06  0.00D+00 EMaxC= 1.00D-01 BMatC= 2.24D-09 BMatP= 5.63D-08
 IDIUse=1 WtCom= 1.00D+00 WtEn= 0.00D+00
 Coeff-Com: -0.217D-02 0.181D+00 0.178D+00 0.268D+00 0.375D+00
 Coeff:     -0.217D-02 0.181D+00 0.178D+00 0.268D+00 0.375D+00
 Gap=     0.145 Goal=   None    Shift=    0.000
 RMSDP=1.13D-07 MaxDP=4.99D-06 DE=-5.22D-08 OVMax= 1.61D-05

 Cycle  14  Pass 1  IDiag  1:
 RMSU=  6.57D-08    CP:  1.00D+00  1.01D+00  4.95D-01  4.71D-01  5.81D-01
 E= -1298.09300354735     Delta-E=       -0.000000002363 Rises=F Damp=F
 DIIS: error= 5.20D-07 at cycle   6 NSaved=   6.
 NSaved= 6 IEnMin= 6 EnMin= -1298.09300354735     IErMin= 6 ErrMin= 5.20D-07
 ErrMax= 5.20D-07  0.00D+00 EMaxC= 1.00D-01 BMatC= 7.93D-11 BMatP= 2.24D-09
 IDIUse=1 WtCom= 1.00D+00 WtEn= 0.00D+00
 Coeff-Com: -0.115D-02 0.916D-01 0.903D-01 0.139D+00 0.226D+00 0.455D+00
 Coeff:     -0.115D-02 0.916D-01 0.903D-01 0.139D+00 0.226D+00 0.455D+00
 Gap=     0.145 Goal=   None    Shift=    0.000
 RMSDP=2.52D-08 MaxDP=1.80D-06 DE=-2.36D-09 OVMax= 3.20D-06

 Cycle  15  Pass 1  IDiag  1:
 RMSU=  2.02D-08    CP:  1.00D+00  1.01D+00  4.95D-01  4.63D-01  6.00D-01
                    CP:  8.25D-01
 E= -1298.09300354744     Delta-E=       -0.000000000096 Rises=F Damp=F
 DIIS: error= 1.40D-07 at cycle   7 NSaved=   7.
 NSaved= 7 IEnMin= 7 EnMin= -1298.09300354744     IErMin= 7 ErrMin= 1.40D-07
 ErrMax= 1.40D-07  0.00D+00 EMaxC= 1.00D-01 BMatC= 3.78D-12 BMatP= 7.93D-11
 IDIUse=1 WtCom= 1.00D+00 WtEn= 0.00D+00
 Coeff-Com: -0.182D-03 0.135D-01 0.134D-01 0.220D-01 0.405D-01 0.198D+00
 Coeff-Com:  0.712D+00
 Coeff:     -0.182D-03 0.135D-01 0.134D-01 0.220D-01 0.405D-01 0.198D+00
 Coeff:      0.712D+00
 Gap=     0.145 Goal=   None    Shift=    0.000
 RMSDP=7.01D-09 MaxDP=4.60D-07 DE=-9.64D-11 OVMax= 9.58D-07

 SCF Done:  E(RB3LYP) =  -1298.09300355     A.U. after   15 cycles
            NFock= 15  Conv=0.70D-08     -V/T= 2.0086
 KE= 1.286978909150D+03 PE=-8.776287357081D+03 EE= 3.308118043508D+03
 Leave Link  502 at Sat Nov  5 01:37:49 2022, MaxMem=   805306368 cpu:             603.9 elap:              86.3
 (Enter /home/wykgroup/appl/g16/l508.exe)
 QCSCF skips out because SCF is already converged.
 Leave Link  508 at Sat Nov  5 01:37:49 2022, MaxMem=   805306368 cpu:               0.0 elap:               0.0
 (Enter /home/wykgroup/appl/g16/l601.exe)
 Copying SCF densities to generalized density rwf, IOpCl= 0 IROHF=0.

 **********************************************************************

            Population analysis using the SCF Density.

 **********************************************************************

 Orbital symmetries:
       Occupied  (A) (A) (A) (A) (A) (A) (A) (A) (A) (A) (A) (A)
                 (A) (A) (A) (A) (A) (A) (A) (A) (A) (A) (A) (A)
                 (A) (A) (A) (A) (A) (A) (A) (A) (A) (A) (A) (A)
                 (A) (A) (A) (A) (A) (A) (A) (A) (A) (A) (A) (A)
                 (A) (A) (A) (A) (A) (A) (A) (A) (A) (A) (A) (A)
                 (A) (A) (A) (A) (A) (A) (A) (A) (A) (A) (A) (A)
                 (A) (A) (A) (A) (A) (A) (A) (A) (A) (A) (A) (A)
                 (A) (A) (A) (A) (A) (A) (A) (A) (A) (A) (A) (A)
                 (A) (A) (A) (A) (A) (A) (A) (A) (A) (A) (A) (A)
       Virtual   (A) (A) (A) (A) (A) (A) (A) (A) (A) (A) (A) (A)
                 (A) (A) (A) (A) (A) (A) (A) (A) (A) (A) (A) (A)
                 (A) (A) (A) (A) (A) (A) (A) (A) (A) (A) (A) (A)
                 (A) (A) (A) (A) (A) (A) (A) (A) (A) (A) (A) (A)
                 (A) (A) (A) (A) (A) (A) (A) (A) (A) (A) (A) (A)
                 (A) (A) (A) (A) (A) (A) (A) (A) (A) (A) (A) (A)
                 (A) (A) (A) (A) (A) (A) (A) (A) (A) (A) (A) (A)
                 (A) (A) (A) (A) (A) (A) (A) (A) (A) (A) (A) (A)
                 (A) (A) (A) (A) (A) (A) (A) (A) (A) (A) (A) (A)
                 (A) (A) (A) (A) (A) (A) (A) (A) (A) (A) (A) (A)
                 (A) (A) (A) (A) (A) (A) (A) (A) (A) (A) (A) (A)
                 (A) (A) (A) (A) (A) (A) (A) (A) (A) (A) (A) (A)
                 (A) (A) (A) (A) (A) (A) (A) (A) (A) (A) (A) (A)
                 (A) (A) (A) (A) (A) (A) (A) (A) (A) (A) (A) (A)
                 (A) (A) (A) (A) (A) (A) (A) (A) (A) (A) (A) (A)
                 (A) (A) (A) (A) (A) (A) (A) (A) (A) (A) (A) (A)
                 (A) (A) (A) (A) (A) (A) (A) (A) (A) (A) (A) (A)
                 (A) (A) (A) (A) (A) (A) (A) (A) (A) (A) (A) (A)
                 (A) (A) (A) (A) (A) (A) (A) (A) (A) (A) (A) (A)
                 (A) (A) (A) (A) (A) (A) (A) (A) (A) (A) (A) (A)
                 (A) (A) (A) (A) (A) (A) (A) (A) (A) (A) (A) (A)
                 (A) (A) (A) (A) (A) (A) (A) (A) (A) (A) (A) (A)
                 (A) (A) (A) (A) (A) (A) (A) (A) (A) (A) (A) (A)
                 (A) (A) (A) (A) (A) (A) (A) (A) (A) (A) (A) (A)
                 (A) (A) (A) (A) (A) (A) (A) (A) (A) (A) (A) (A)
                 (A) (A) (A) (A) (A) (A) (A) (A) (A) (A) (A) (A)
                 (A) (A) (A) (A) (A) (A) (A) (A) (A) (A) (A) (A)
                 (A) (A) (A) (A) (A) (A) (A) (A) (A) (A) (A) (A)
                 (A) (A) (A) (A) (A) (A) (A) (A) (A) (A) (A) (A)
                 (A) (A) (A) (A) (A) (A) (A) (A) (A) (A) (A) (A)
                 (A) (A) (A) (A) (A) (A) (A) (A) (A) (A) (A) (A)
                 (A) (A) (A) (A) (A) (A) (A) (A) (A) (A) (A) (A)
                 (A) (A) (A) (A) (A) (A) (A) (A) (A) (A) (A) (A)
                 (A) (A) (A) (A) (A) (A) (A) (A) (A) (A) (A) (A)
                 (A) (A) (A) (A)
 The electronic state is 1-A.
 Alpha  occ. eigenvalues --  -14.39720 -14.33425 -14.33395 -14.32942 -10.30689
 Alpha  occ. eigenvalues --  -10.27270 -10.27237 -10.22409 -10.22403 -10.19696
 Alpha  occ. eigenvalues --  -10.19678 -10.19517 -10.19492 -10.19165 -10.19114
 Alpha  occ. eigenvalues --  -10.19101 -10.19034 -10.19034 -10.18906 -10.18881
 Alpha  occ. eigenvalues --  -10.18842 -10.18703 -10.18661 -10.18623 -10.18612
 Alpha  occ. eigenvalues --  -10.18293 -10.18268 -10.18268 -10.18116 -10.18097
 Alpha  occ. eigenvalues --  -10.18063 -10.18049  -1.04675  -0.99838  -0.91632
 Alpha  occ. eigenvalues --   -0.90703  -0.86318  -0.86121  -0.85082  -0.84884
 Alpha  occ. eigenvalues --   -0.78583  -0.78361  -0.76889  -0.76227  -0.75268
 Alpha  occ. eigenvalues --   -0.75128  -0.74338  -0.71861  -0.69387  -0.68341
 Alpha  occ. eigenvalues --   -0.67891  -0.64305  -0.62083  -0.61931  -0.60842
 Alpha  occ. eigenvalues --   -0.59995  -0.58453  -0.57566  -0.57317  -0.55156
 Alpha  occ. eigenvalues --   -0.54424  -0.52364  -0.51407  -0.50975  -0.50343
 Alpha  occ. eigenvalues --   -0.47995  -0.47529  -0.46281  -0.45962  -0.45799
 Alpha  occ. eigenvalues --   -0.45160  -0.44560  -0.43815  -0.43696  -0.43498
 Alpha  occ. eigenvalues --   -0.43273  -0.42551  -0.42466  -0.42283  -0.41759
 Alpha  occ. eigenvalues --   -0.41474  -0.40944  -0.38914  -0.38447  -0.37998
 Alpha  occ. eigenvalues --   -0.37221  -0.36499  -0.35902  -0.35710  -0.35398
 Alpha  occ. eigenvalues --   -0.35167  -0.34912  -0.34688  -0.34395  -0.33900
 Alpha  occ. eigenvalues --   -0.33374  -0.32911  -0.30595  -0.27896  -0.26450
 Alpha  occ. eigenvalues --   -0.26289  -0.25623  -0.25280  -0.25160  -0.24780
 Alpha  occ. eigenvalues --   -0.24308  -0.21440  -0.21181
 Alpha virt. eigenvalues --   -0.06631  -0.05159  -0.02467  -0.00344  -0.00050
 Alpha virt. eigenvalues --    0.00358   0.00881   0.03972   0.04800   0.04942
 Alpha virt. eigenvalues --    0.09310   0.09781   0.10251   0.11015   0.12111
 Alpha virt. eigenvalues --    0.12231   0.13030   0.13945   0.14838   0.15230
 Alpha virt. eigenvalues --    0.15847   0.16269   0.16623   0.17237   0.17409
 Alpha virt. eigenvalues --    0.17876   0.18386   0.18585   0.19035   0.19990
 Alpha virt. eigenvalues --    0.20219   0.20508   0.21290   0.21976   0.22698
 Alpha virt. eigenvalues --    0.23270   0.23459   0.24626   0.25085   0.26358
 Alpha virt. eigenvalues --    0.26590   0.26807   0.28398   0.29361   0.29697
 Alpha virt. eigenvalues --    0.29876   0.30708   0.31043   0.32146   0.32517
 Alpha virt. eigenvalues --    0.33011   0.33564   0.34106   0.34624   0.35058
 Alpha virt. eigenvalues --    0.37128   0.37674   0.39149   0.39548   0.39998
 Alpha virt. eigenvalues --    0.41157   0.42208   0.43718   0.46891   0.47442
 Alpha virt. eigenvalues --    0.48482   0.49400   0.50664   0.50915   0.51473
 Alpha virt. eigenvalues --    0.51990   0.52574   0.52822   0.53434   0.54003
 Alpha virt. eigenvalues --    0.54177   0.54743   0.54825   0.55516   0.55621
 Alpha virt. eigenvalues --    0.55923   0.56175   0.56508   0.56701   0.57115
 Alpha virt. eigenvalues --    0.57968   0.58166   0.58371   0.58483   0.58648
 Alpha virt. eigenvalues --    0.59056   0.59204   0.59371   0.59683   0.60271
 Alpha virt. eigenvalues --    0.60718   0.60968   0.61263   0.61387   0.61598
 Alpha virt. eigenvalues --    0.61863   0.61938   0.62020   0.62302   0.62627
 Alpha virt. eigenvalues --    0.63128   0.63569   0.64507   0.64624   0.64695
 Alpha virt. eigenvalues --    0.65222   0.65439   0.65479   0.66169   0.66632
 Alpha virt. eigenvalues --    0.67308   0.67566   0.68998   0.70520   0.70697
 Alpha virt. eigenvalues --    0.71913   0.72774   0.73655   0.74816   0.75937
 Alpha virt. eigenvalues --    0.76992   0.78810   0.78909   0.79555   0.79902
 Alpha virt. eigenvalues --    0.81110   0.81273   0.81998   0.83026   0.83477
 Alpha virt. eigenvalues --    0.84060   0.84203   0.84782   0.85068   0.85384
 Alpha virt. eigenvalues --    0.86264   0.86748   0.86988   0.87049   0.87502
 Alpha virt. eigenvalues --    0.88263   0.88408   0.89737   0.90439   0.90691
 Alpha virt. eigenvalues --    0.91109   0.91545   0.91894   0.91976   0.93014
 Alpha virt. eigenvalues --    0.93526   0.93766   0.95423   0.95696   0.95836
 Alpha virt. eigenvalues --    0.96198   0.96610   0.97305   0.98446   0.99817
 Alpha virt. eigenvalues --    1.00324   1.01026   1.01947   1.02865   1.03571
 Alpha virt. eigenvalues --    1.04411   1.05907   1.07294   1.07493   1.08705
 Alpha virt. eigenvalues --    1.09383   1.10195   1.10843   1.11717   1.13048
 Alpha virt. eigenvalues --    1.15242   1.15880   1.17595   1.18016   1.18681
 Alpha virt. eigenvalues --    1.19232   1.20009   1.20329   1.20907   1.21888
 Alpha virt. eigenvalues --    1.22793   1.23696   1.24906   1.25372   1.25771
 Alpha virt. eigenvalues --    1.25851   1.27678   1.28275   1.28695   1.29036
 Alpha virt. eigenvalues --    1.30377   1.31020   1.31334   1.33299   1.33705
 Alpha virt. eigenvalues --    1.35294   1.36534   1.38826   1.39915   1.40129
 Alpha virt. eigenvalues --    1.40590   1.42630   1.43634   1.44313   1.45072
 Alpha virt. eigenvalues --    1.45416   1.45922   1.46359   1.46734   1.47577
 Alpha virt. eigenvalues --    1.47930   1.48139   1.48533   1.48591   1.49111
 Alpha virt. eigenvalues --    1.49543   1.49803   1.50374   1.50429   1.50670
 Alpha virt. eigenvalues --    1.51116   1.51812   1.52175   1.52638   1.55403
 Alpha virt. eigenvalues --    1.57788   1.58170   1.61993   1.65720   1.68879
 Alpha virt. eigenvalues --    1.71234   1.75190   1.76212   1.76288   1.77791
 Alpha virt. eigenvalues --    1.78680   1.79928   1.80332   1.80498   1.82122
 Alpha virt. eigenvalues --    1.82187   1.82376   1.83141   1.83730   1.83905
 Alpha virt. eigenvalues --    1.85942   1.87179   1.88656   1.89703   1.89780
 Alpha virt. eigenvalues --    1.90515   1.91285   1.91716   1.93003   1.93559
 Alpha virt. eigenvalues --    1.94128   1.94910   1.96157   1.96859   1.97358
 Alpha virt. eigenvalues --    1.97691   1.98248   1.98918   1.99532   1.99673
 Alpha virt. eigenvalues --    2.01307   2.04336   2.04879   2.07489   2.08017
 Alpha virt. eigenvalues --    2.08129   2.09715   2.11490   2.11903   2.12410
 Alpha virt. eigenvalues --    2.13046   2.13341   2.14240   2.14951   2.15087
 Alpha virt. eigenvalues --    2.15646   2.16436   2.17731   2.17940   2.19749
 Alpha virt. eigenvalues --    2.20577   2.20951   2.22034   2.22610   2.23302
 Alpha virt. eigenvalues --    2.23529   2.24452   2.26042   2.27006   2.27045
 Alpha virt. eigenvalues --    2.27458   2.28481   2.28789   2.29478   2.30792
 Alpha virt. eigenvalues --    2.30937   2.31300   2.31727   2.34190   2.35382
 Alpha virt. eigenvalues --    2.36072   2.36532   2.37558   2.38799   2.39702
 Alpha virt. eigenvalues --    2.40005   2.41718   2.42497   2.43215   2.47112
 Alpha virt. eigenvalues --    2.50347   2.52443   2.52832   2.54614   2.56100
 Alpha virt. eigenvalues --    2.58619   2.58768   2.59213   2.59764   2.62885
 Alpha virt. eigenvalues --    2.63395   2.64478   2.65416   2.65902   2.67005
 Alpha virt. eigenvalues --    2.68096   2.68633   2.69434   2.70648   2.71503
 Alpha virt. eigenvalues --    2.72216   2.72846   2.73733   2.74342   2.75052
 Alpha virt. eigenvalues --    2.76183   2.76878   2.77309   2.79431   2.79489
 Alpha virt. eigenvalues --    2.80221   2.80817   2.84270   2.85667   2.86827
 Alpha virt. eigenvalues --    2.87273   2.89815   2.90971   2.91894   2.92456
 Alpha virt. eigenvalues --    2.94718   2.97051   2.98103   3.01118   3.02521
 Alpha virt. eigenvalues --    3.23526   3.24059   3.27886   3.34239   3.37146
 Alpha virt. eigenvalues --    3.42927   3.43860   3.46080   3.56269   3.58663
 Alpha virt. eigenvalues --    4.09347   4.09624   4.10016   4.10553   4.10671
 Alpha virt. eigenvalues --    4.11154   4.11286   4.12022   4.12674   4.15349
 Alpha virt. eigenvalues --    4.17786   4.18863   4.21791   4.23504   4.25388
 Alpha virt. eigenvalues --    4.27870   4.29518   4.32636   4.33961   4.35411
 Alpha virt. eigenvalues --    4.37793   4.41756   4.44657   4.45367   4.47944
 Alpha virt. eigenvalues --    4.52201   4.59153   4.62936   4.73413   4.75625
 Alpha virt. eigenvalues --    4.80937   4.87471
          Condensed to atoms (all electrons):
 Mulliken charges:
               1
     1  C   -0.526745
     2  C    0.166878
     3  C   -0.163918
     4  C   -0.136837
     5  C   -0.156087
     6  C    0.082416
     7  C    0.448333
     8  N   -0.539896
     9  C    0.448034
    10  C    0.078132
    11  C   -0.151017
    12  C   -0.139188
    13  C   -0.113459
    14  C   -0.140415
    15  C   -0.155445
    16  N   -0.557935
    17  C    0.721398
    18  N   -0.751746
    19  C    0.298800
    20  C   -0.142318
    21  C   -0.145974
    22  C   -0.137964
    23  C   -0.196694
    24  C    0.058741
    25  C    0.058653
    26  C   -0.196687
    27  C   -0.137906
    28  C   -0.146447
    29  C   -0.141810
    30  C    0.298742
    31  N   -0.558209
    32  C   -0.214718
    33  H    0.169862
    34  H    0.157012
    35  H    0.161086
    36  H    0.124540
    37  H    0.131325
    38  H    0.157189
    39  H    0.160457
    40  H    0.133309
    41  H    0.133109
    42  H    0.133763
    43  H    0.161505
    44  H    0.176304
    45  H    0.126144
    46  H    0.124406
    47  H    0.130299
    48  H    0.130367
    49  H    0.124302
    50  H    0.125124
    51  H    0.176469
    52  H    0.154714
 Sum of Mulliken charges =  -0.00000
 Mulliken charges with hydrogens summed into heavy atoms:
               1
     1  C   -0.038785
     2  C    0.166878
     3  C   -0.039378
     4  C   -0.005512
     5  C    0.001101
     6  C    0.082416
     7  C    0.448333
     8  N   -0.539896
     9  C    0.448034
    10  C    0.078132
    11  C    0.009440
    12  C   -0.005879
    13  C    0.019650
    14  C   -0.006652
    15  C    0.006060
    16  N   -0.557935
    17  C    0.721398
    18  N   -0.751746
    19  C    0.298800
    20  C    0.033986
    21  C   -0.019830
    22  C   -0.013558
    23  C   -0.066394
    24  C    0.058741
    25  C    0.058653
    26  C   -0.066320
    27  C   -0.013604
    28  C   -0.021323
    29  C    0.034659
    30  C    0.298742
    31  N   -0.558209
    32  C   -0.060004
 Electronic spatial extent (au):  <R**2>=          15007.0875
 Charge=             -0.0000 electrons
 Dipole moment (field-independent basis, Debye):
    X=             -1.0827    Y=              0.0328    Z=              0.1348  Tot=              1.0915
 Quadrupole moment (field-independent basis, Debye-Ang):
   XX=           -161.3152   YY=           -155.9672   ZZ=           -187.1498
   XY=              2.4508   XZ=             -0.1242   YZ=              0.0810
 Traceless Quadrupole moment (field-independent basis, Debye-Ang):
   XX=              6.8288   YY=             12.1769   ZZ=            -19.0057
   XY=              2.4508   XZ=             -0.1242   YZ=              0.0810
 Octapole moment (field-independent basis, Debye-Ang**2):
  XXX=            -16.4208  YYY=             45.1885  ZZZ=              2.7837  XYY=            -30.0240
  XXY=            -22.0515  XXZ=              8.0870  XZZ=             -6.5879  YZZ=             -2.9591
  YYZ=             -5.8775  XYZ=              9.0668
 Hexadecapole moment (field-independent basis, Debye-Ang**3):
 XXXX=          -9759.3483 YYYY=          -8616.3002 ZZZZ=           -428.1328 XXXY=             47.8753
 XXXZ=             71.4739 YYYX=            -41.6117 YYYZ=            -18.1418 ZZZX=            -12.0629
 ZZZY=            -15.7851 XXYY=          -3042.7317 XXZZ=          -1985.1087 YYZZ=          -1760.4529
 XXYZ=             32.1526 YYXZ=            -55.7022 ZZXY=             28.2759
 N-N= 2.883097400876D+03 E-N=-8.776287391925D+03  KE= 1.286978909150D+03
 No NMR shielding tensors so no spin-rotation constants.
 Leave Link  601 at Sat Nov  5 01:37:50 2022, MaxMem=   805306368 cpu:               1.4 elap:               0.2
 (Enter /home/wykgroup/appl/g16/l701.exe)
 ... and contract with generalized density number  0.
 Compute integral first derivatives.
 Leave Link  701 at Sat Nov  5 01:37:50 2022, MaxMem=   805306368 cpu:               1.5 elap:               0.2
 (Enter /home/wykgroup/appl/g16/l702.exe)
 L702 exits ... SP integral derivatives will be done elsewhere.
 Leave Link  702 at Sat Nov  5 01:37:50 2022, MaxMem=   805306368 cpu:               0.2 elap:               0.0
 (Enter /home/wykgroup/appl/g16/l703.exe)
 Integral derivatives from FoFJK, PRISM(SPDF).
 Compute integral first derivatives, UseDBF=F ICtDFT=           0.
 Calling FoFJK, ICntrl=      2127 FMM=F ISym2X=0 I1Cent= 0 IOpClX= 0 NMat=1 NMatS=1 NMatT=0.
 FoFJK:  IHMeth= 1 ICntrl=    2127 DoSepK=F KAlg= 0 I1Cent=           0 FoldK=F
 IRaf=         0 NMat=       1 IRICut=       1 DoRegI=T DoRafI=F ISym2E= 0 IDoP0=0 IntGTp=1.
 FoFCou: FMM=F IPFlag=           0 FMFlag=      100000 FMFlg1=         800
         NFxFlg=           0 DoJE=F BraDBF=F KetDBF=F FulRan=T
         wScrn=  0.000000 ICntrl=      2127 IOpCl=  0 I1Cent=           0 NGrid=           0
         NMat0=    1 NMatS0=      1 NMatT0=    0 NMatD0=    1 NMtDS0=    0 NMtDT0=    0
 Symmetry not used in FoFCou.
 Leave Link  703 at Sat Nov  5 01:38:24 2022, MaxMem=   805306368 cpu:             236.0 elap:              33.7
 (Enter /home/wykgroup/appl/g16/l716.exe)
 Dipole        =-4.25948481D-01 1.29125760D-02 5.30340608D-02
 ***** Axes restored to original set *****
 -------------------------------------------------------------------
 Center     Atomic                   Forces (Hartrees/Bohr)
 Number     Number              X              Y              Z
 -------------------------------------------------------------------
      1        6          -0.000638548    0.001350543    0.001222330
      2        6           0.000849584   -0.004770214   -0.000362975
      3        6          -0.003493816   -0.002465069   -0.000972013
      4        6          -0.006159610    0.002107369   -0.001821700
      5        6          -0.000578515    0.004975538   -0.000140992
      6        6          -0.001117111   -0.000282699    0.000079212
      7        6           0.000374209    0.000764078   -0.000415778
      8        7          -0.013287823    0.004567946   -0.001691329
      9        6          -0.000130133   -0.000305525    0.000349137
     10        6          -0.000408049    0.000564238   -0.000024718
     11        6          -0.003664535   -0.003363597   -0.000283688
     12        6          -0.006265711    0.002451173    0.000544981
     13        6          -0.001394645    0.006611882    0.000367464
     14        6           0.005011852    0.004821328   -0.000025400
     15        6           0.004774956   -0.001778949    0.000061153
     16        7           0.010682153    0.005447594    0.001192258
     17        6          -0.011115814    0.004062991   -0.001376376
     18        7           0.001192238   -0.000359583    0.000148589
     19        6           0.009338465    0.005785287    0.004200799
     20        6          -0.005625986    0.007214947    0.002217336
     21        6           0.000970591    0.004336405    0.002489436
     22        6           0.007448097    0.002738479    0.003172283
     23        6           0.001699470   -0.002391570   -0.000670250
     24        6          -0.003189882   -0.001485709   -0.001852311
     25        6          -0.001871651    0.003298724    0.001214365
     26        6           0.002628877    0.000850392    0.001234363
     27        6           0.004567471   -0.007019907   -0.001618665
     28        6          -0.001386146   -0.004214839   -0.002582959
     29        6          -0.008195090   -0.002274924   -0.004060914
     30        6           0.004376303   -0.010693243   -0.002448623
     31        7           0.004788138   -0.010895619    0.000819963
     32        6           0.002662641   -0.000345597    0.000252311
     33        1          -0.000467952   -0.004023752    0.004237778
     34        1          -0.001893015   -0.004325012   -0.002314557
     35        1           0.004114191   -0.003235180   -0.000560257
     36        1          -0.003600811   -0.003279497   -0.001085620
     37        1          -0.004155615    0.001701897   -0.001671999
     38        1          -0.000886314    0.003799326   -0.000502852
     39        1          -0.003024881   -0.002271987   -0.000097111
     40        1          -0.004520049    0.001305917    0.000463167
     41        1          -0.000958630    0.004716531    0.000269598
     42        1           0.003599547    0.003016345   -0.000208171
     43        1           0.003731235   -0.000991375   -0.000280277
     44        1          -0.000648901    0.001417862    0.000028279
     45        1          -0.000163061    0.004409668    0.001848508
     46        1           0.004317925    0.001597431    0.001812529
     47        1           0.004303984   -0.002760808    0.000096231
     48        1           0.004971522   -0.000536796    0.001098721
     49        1           0.002650613   -0.004073598   -0.000917147
     50        1          -0.002463487   -0.003431616   -0.002170679
     51        1          -0.001324565   -0.000752385   -0.000282609
     52        1           0.003576283   -0.001584843    0.001019178
 -------------------------------------------------------------------
 Cartesian Forces:  Max     0.013287823 RMS     0.003643302
 Leave Link  716 at Sat Nov  5 01:38:24 2022, MaxMem=   805306368 cpu:               0.2 elap:               0.1
 (Enter /home/wykgroup/appl/g16/l103.exe)

 GradGradGradGradGradGradGradGradGradGradGradGradGradGradGradGradGradGrad
 Berny optimization.
 FormGI is forming the generalized inverse of G from B-inverse, IUseBI=4.
 Internal  Forces:  Max     0.025203093 RMS     0.004964068
 Search for a local minimum.
 Step number   1 out of a maximum of  298
 All quantities printed in internal units (Hartrees-Bohrs-Radians)
 RMS Force = .49641D-02 SwitMx=.10000D-02 MixMth= 1
 Mixed Optimization -- RFO/linear search
 Second derivative matrix not updated -- first step.
 ITU=  0
     Eigenvalues ---    0.00785   0.01251   0.01263   0.01646   0.01800
     Eigenvalues ---    0.01845   0.01899   0.01909   0.01927   0.01976
     Eigenvalues ---    0.02002   0.02012   0.02021   0.02047   0.02056
     Eigenvalues ---    0.02138   0.02194   0.02198   0.02227   0.02241
     Eigenvalues ---    0.02247   0.02247   0.02248   0.02251   0.02261
     Eigenvalues ---    0.02262   0.02262   0.02264   0.02272   0.02273
     Eigenvalues ---    0.02273   0.02287   0.02291   0.02291   0.02291
     Eigenvalues ---    0.02291   0.02294   0.02294   0.02300   0.02300
     Eigenvalues ---    0.02306   0.02309   0.02314   0.02405   0.02609
     Eigenvalues ---    0.02630   0.02634   0.07239   0.07424   0.15999
     Eigenvalues ---    0.15999   0.15999   0.16000   0.16000   0.16000
     Eigenvalues ---    0.16000   0.16000   0.16000   0.16000   0.16000
     Eigenvalues ---    0.16000   0.16000   0.16000   0.16000   0.16000
     Eigenvalues ---    0.16000   0.16000   0.16000   0.16000   0.21999
     Eigenvalues ---    0.22000   0.22000   0.22000   0.22000   0.22595
     Eigenvalues ---    0.22597   0.23468   0.23480   0.23488   0.24479
     Eigenvalues ---    0.24525   0.24980   0.24982   0.24995   0.24999
     Eigenvalues ---    0.25000   0.25000   0.25000   0.25000   0.25000
[...]
     33          1           0       -4.131324   -5.293566    1.637208
     34          1           0       -3.847040   -5.588674   -0.078618
     35          1           0       -2.495976   -5.145905    0.975104
     36          1           0       -5.945409   -3.707556    0.345215
     37          1           0       -6.362100   -1.316492   -0.135958
     38          1           0       -4.452248    0.279822   -0.277421
     39          1           0       -3.398661    3.122264    0.167044
     40          1           0       -3.825705    5.569120    0.019697
     41          1           0       -1.945824    7.128458   -0.445574
     42          1           0        0.352985    6.235428   -0.762491
     43          1           0        0.764512    3.789855   -0.610144
     44          1           0        2.162489    2.345441    0.806592
     45          1           0        4.434976    3.176349    1.325871
     46          1           0        6.414211    1.699660    1.112434
     47          1           0        6.133293   -0.667886    0.398015
     48          1           0        5.254644   -3.050998   -0.403768
     49          1           0        3.932038   -5.032658   -1.123699
     50          1           0        1.470364   -4.864741   -1.359030
     51          1           0        0.282591   -2.752570   -0.855843
     52          1           0       -1.726693   -2.924673    0.543566
 ---------------------------------------------------------------------
 Rotational constants (GHZ):           0.1380995           0.1217718           0.0664311
 Leave Link  202 at Sat Nov  5 02:12:01 2022, MaxMem=   805306368 cpu:               0.1 elap:               0.0
 (Enter /home/wykgroup/appl/g16/l601.exe)
 Copying SCF densities to generalized density rwf, IOpCl= 0 IROHF=0.

 **********************************************************************

            Population analysis using the SCF Density.

 **********************************************************************

 Orbital symmetries:
       Occupied  (A) (A) (A) (A) (A) (A) (A) (A) (A) (A) (A) (A)
                 (A) (A) (A) (A) (A) (A) (A) (A) (A) (A) (A) (A)
                 (A) (A) (A) (A) (A) (A) (A) (A) (A) (A) (A) (A)
                 (A) (A) (A) (A) (A) (A) (A) (A) (A) (A) (A) (A)
                 (A) (A) (A) (A) (A) (A) (A) (A) (A) (A) (A) (A)
                 (A) (A) (A) (A) (A) (A) (A) (A) (A) (A) (A) (A)
                 (A) (A) (A) (A) (A) (A) (A) (A) (A) (A) (A) (A)
                 (A) (A) (A) (A) (A) (A) (A) (A) (A) (A) (A) (A)
                 (A) (A) (A) (A) (A) (A) (A) (A) (A) (A) (A) (A)
       Virtual   (A) (A) (A) (A) (A) (A) (A) (A) (A) (A) (A) (A)
                 (A) (A) (A) (A) (A) (A) (A) (A) (A) (A) (A) (A)
                 (A) (A) (A) (A) (A) (A) (A) (A) (A) (A) (A) (A)
                 (A) (A) (A) (A) (A) (A) (A) (A) (A) (A) (A) (A)
                 (A) (A) (A) (A) (A) (A) (A) (A) (A) (A) (A) (A)
                 (A) (A) (A) (A) (A) (A) (A) (A) (A) (A) (A) (A)
                 (A) (A) (A) (A) (A) (A) (A) (A) (A) (A) (A) (A)
                 (A) (A) (A) (A) (A) (A) (A) (A) (A) (A) (A) (A)
                 (A) (A) (A) (A) (A) (A) (A) (A) (A) (A) (A) (A)
                 (A) (A) (A) (A) (A) (A) (A) (A) (A) (A) (A) (A)
                 (A) (A) (A) (A) (A) (A) (A) (A) (A) (A) (A) (A)
                 (A) (A) (A) (A) (A) (A) (A) (A) (A) (A) (A) (A)
                 (A) (A) (A) (A) (A) (A) (A) (A) (A) (A) (A) (A)
                 (A) (A) (A) (A) (A) (A) (A) (A) (A) (A) (A) (A)
                 (A) (A) (A) (A) (A) (A) (A) (A) (A) (A) (A) (A)
                 (A) (A) (A) (A) (A) (A) (A) (A) (A) (A) (A) (A)
                 (A) (A) (A) (A) (A) (A) (A) (A) (A) (A) (A) (A)
                 (A) (A) (A) (A) (A) (A) (A) (A) (A) (A) (A) (A)
                 (A) (A) (A) (A) (A) (A) (A) (A) (A) (A) (A) (A)
                 (A) (A) (A) (A) (A) (A) (A) (A) (A) (A) (A) (A)
                 (A) (A) (A) (A) (A) (A) (A) (A) (A) (A) (A) (A)
                 (A) (A) (A) (A) (A) (A) (A) (A) (A) (A) (A) (A)
                 (A) (A) (A) (A) (A) (A) (A) (A) (A) (A) (A) (A)
                 (A) (A) (A) (A) (A) (A) (A) (A) (A) (A) (A) (A)
                 (A) (A) (A) (A) (A) (A) (A) (A) (A) (A) (A) (A)
                 (A) (A) (A) (A) (A) (A) (A) (A) (A) (A) (A) (A)
                 (A) (A) (A) (A) (A) (A) (A) (A) (A) (A) (A) (A)
                 (A) (A) (A) (A) (A) (A) (A) (A) (A) (A) (A) (A)
                 (A) (A) (A) (A) (A) (A) (A) (A) (A) (A) (A) (A)
                 (A) (A) (A) (A) (A) (A) (A) (A) (A) (A) (A) (A)
                 (A) (A) (A) (A) (A) (A) (A) (A) (A) (A) (A) (A)
                 (A) (A) (A) (A) (A) (A) (A) (A) (A) (A) (A) (A)
                 (A) (A) (A) (A) (A) (A) (A) (A) (A) (A) (A) (A)
                 (A) (A) (A) (A) (A) (A) (A) (A) (A) (A) (A) (A)
                 (A) (A) (A) (A)
 The electronic state is 1-A.
 Alpha  occ. eigenvalues --  -14.39798 -14.33854 -14.33837 -14.33429 -10.31038
 Alpha  occ. eigenvalues --  -10.27811 -10.27789 -10.22913 -10.22907 -10.20250
 Alpha  occ. eigenvalues --  -10.20160 -10.20070 -10.19897 -10.19538 -10.19510
 Alpha  occ. eigenvalues --  -10.19482 -10.19468 -10.19441 -10.19334 -10.19238
 Alpha  occ. eigenvalues --  -10.19201 -10.19151 -10.19081 -10.19018 -10.19010
 Alpha  occ. eigenvalues --  -10.18776 -10.18760 -10.18666 -10.18636 -10.18628
 Alpha  occ. eigenvalues --  -10.18556 -10.18542  -1.03677  -0.98590  -0.91139
 Alpha  occ. eigenvalues --   -0.90190  -0.85816  -0.85615  -0.84568  -0.84443
 Alpha  occ. eigenvalues --   -0.78141  -0.77934  -0.76490  -0.75850  -0.74932
 Alpha  occ. eigenvalues --   -0.74795  -0.73991  -0.71675  -0.69140  -0.67904
 Alpha  occ. eigenvalues --   -0.67647  -0.63913  -0.61799  -0.61468  -0.60544
 Alpha  occ. eigenvalues --   -0.59764  -0.58321  -0.57487  -0.57204  -0.54858
 Alpha  occ. eigenvalues --   -0.54084  -0.52005  -0.51113  -0.50692  -0.50085
 Alpha  occ. eigenvalues --   -0.47415  -0.47177  -0.46103  -0.45797  -0.45609
 Alpha  occ. eigenvalues --   -0.45085  -0.44304  -0.43583  -0.43473  -0.43221
 Alpha  occ. eigenvalues --   -0.42867  -0.42360  -0.42190  -0.42135  -0.41630
 Alpha  occ. eigenvalues --   -0.41394  -0.40906  -0.38717  -0.38244  -0.37903
 Alpha  occ. eigenvalues --   -0.36952  -0.36507  -0.36010  -0.35717  -0.35258
 Alpha  occ. eigenvalues --   -0.34896  -0.34830  -0.34653  -0.34432  -0.33961
 Alpha  occ. eigenvalues --   -0.33518  -0.32738  -0.30419  -0.27783  -0.26633
 Alpha  occ. eigenvalues --   -0.26563  -0.25531  -0.25189  -0.25137  -0.24739
 Alpha  occ. eigenvalues --   -0.24278  -0.21483  -0.21172
 Alpha virt. eigenvalues --   -0.06899  -0.05419  -0.02701  -0.00581  -0.00211
 Alpha virt. eigenvalues --    0.00134   0.00555   0.03510   0.04188   0.04507
 Alpha virt. eigenvalues --    0.09066   0.09656   0.09965   0.10809   0.11491
 Alpha virt. eigenvalues --    0.11884   0.12623   0.13678   0.14208   0.14824
 Alpha virt. eigenvalues --    0.15648   0.15904   0.16051   0.16279   0.17116
 Alpha virt. eigenvalues --    0.17719   0.17850   0.18058   0.18339   0.19626
 Alpha virt. eigenvalues --    0.19713   0.19840   0.20220   0.21395   0.22215
 Alpha virt. eigenvalues --    0.22459   0.22876   0.24022   0.24363   0.25312
 Alpha virt. eigenvalues --    0.25860   0.26262   0.27545   0.28482   0.28784
 Alpha virt. eigenvalues --    0.29023   0.30129   0.30538   0.31146   0.31625
 Alpha virt. eigenvalues --    0.32181   0.32937   0.33406   0.33911   0.34314
 Alpha virt. eigenvalues --    0.36476   0.37097   0.38369   0.38763   0.39001
 Alpha virt. eigenvalues --    0.40608   0.41481   0.43302   0.46614   0.47088
 Alpha virt. eigenvalues --    0.48567   0.49144   0.50497   0.50920   0.51137
 Alpha virt. eigenvalues --    0.51626   0.52270   0.52641   0.52805   0.53549
 Alpha virt. eigenvalues --    0.54165   0.54487   0.54592   0.55116   0.55248
 Alpha virt. eigenvalues --    0.55348   0.55517   0.56302   0.56469   0.56950
 Alpha virt. eigenvalues --    0.57502   0.57695   0.57937   0.58068   0.58174
 Alpha virt. eigenvalues --    0.58798   0.58857   0.58928   0.59302   0.60151
 Alpha virt. eigenvalues --    0.60251   0.60648   0.60988   0.61025   0.61314
 Alpha virt. eigenvalues --    0.61562   0.61584   0.61677   0.62100   0.62194
 Alpha virt. eigenvalues --    0.62898   0.63424   0.63681   0.64222   0.64317
 Alpha virt. eigenvalues --    0.64588   0.65062   0.65265   0.65595   0.65849
 Alpha virt. eigenvalues --    0.66279   0.66895   0.68078   0.69399   0.70422
 Alpha virt. eigenvalues --    0.71308   0.71920   0.73502   0.74924   0.75302
 Alpha virt. eigenvalues --    0.76511   0.77697   0.78535   0.78857   0.79862
 Alpha virt. eigenvalues --    0.80807   0.80980   0.81101   0.82374   0.83012
 Alpha virt. eigenvalues --    0.83716   0.83791   0.84332   0.84698   0.85007
 Alpha virt. eigenvalues --    0.85813   0.86153   0.86210   0.86322   0.87392
 Alpha virt. eigenvalues --    0.87771   0.88700   0.88769   0.89626   0.89965
 Alpha virt. eigenvalues --    0.90475   0.91147   0.91313   0.91559   0.92430
 Alpha virt. eigenvalues --    0.93330   0.93629   0.94538   0.94953   0.95306
 Alpha virt. eigenvalues --    0.95482   0.95659   0.96231   0.98226   0.99101
 Alpha virt. eigenvalues --    0.99628   1.00067   1.00767   1.02441   1.03322
 Alpha virt. eigenvalues --    1.04281   1.05897   1.06722   1.07152   1.08166
 Alpha virt. eigenvalues --    1.08278   1.09604   1.10488   1.11468   1.12770
 Alpha virt. eigenvalues --    1.14504   1.15159   1.16262   1.17208   1.17593
 Alpha virt. eigenvalues --    1.18698   1.18973   1.19550   1.20727   1.21525
 Alpha virt. eigenvalues --    1.22701   1.23410   1.23505   1.24639   1.24774
 Alpha virt. eigenvalues --    1.25396   1.26908   1.27109   1.27673   1.28888
 Alpha virt. eigenvalues --    1.29873   1.30890   1.31507   1.32891   1.33361
 Alpha virt. eigenvalues --    1.34181   1.35175   1.38027   1.38938   1.39137
 Alpha virt. eigenvalues --    1.39453   1.42463   1.42921   1.43504   1.44680
 Alpha virt. eigenvalues --    1.45006   1.45440   1.45959   1.46268   1.47008
 Alpha virt. eigenvalues --    1.47456   1.47669   1.47855   1.48423   1.48678
 Alpha virt. eigenvalues --    1.49117   1.49293   1.49657   1.50007   1.50484
 Alpha virt. eigenvalues --    1.50612   1.51174   1.51394   1.51789   1.54835
 Alpha virt. eigenvalues --    1.56553   1.57034   1.60559   1.64142   1.68275
 Alpha virt. eigenvalues --    1.70683   1.72733   1.74609   1.75353   1.76755
 Alpha virt. eigenvalues --    1.78174   1.78560   1.78801   1.79745   1.80578
 Alpha virt. eigenvalues --    1.80931   1.81283   1.81928   1.82124   1.82508
 Alpha virt. eigenvalues --    1.84650   1.85389   1.87867   1.88335   1.88830
 Alpha virt. eigenvalues --    1.89121   1.89814   1.90333   1.91464   1.92340
 Alpha virt. eigenvalues --    1.92638   1.93257   1.94492   1.95585   1.95883
 Alpha virt. eigenvalues --    1.96087   1.96762   1.97714   1.98258   1.98640
 Alpha virt. eigenvalues --    1.99584   2.02724   2.03146   2.05514   2.05851
 Alpha virt. eigenvalues --    2.07303   2.08432   2.09674   2.10280   2.11146
 Alpha virt. eigenvalues --    2.11207   2.12474   2.13360   2.13493   2.13888
 Alpha virt. eigenvalues --    2.14116   2.14870   2.15640   2.16597   2.17499
 Alpha virt. eigenvalues --    2.19175   2.19501   2.19725   2.20394   2.21430
 Alpha virt. eigenvalues --    2.21684   2.23355   2.24453   2.25820   2.26032
 Alpha virt. eigenvalues --    2.26504   2.27482   2.27653   2.29249   2.29575
 Alpha virt. eigenvalues --    2.30298   2.30554   2.31332   2.32251   2.34467
 Alpha virt. eigenvalues --    2.34646   2.34756   2.36944   2.37363   2.38312
 Alpha virt. eigenvalues --    2.39101   2.40487   2.41071   2.42177   2.45028
 Alpha virt. eigenvalues --    2.47740   2.50446   2.50995   2.53172   2.54959
 Alpha virt. eigenvalues --    2.56504   2.56587   2.57160   2.58617   2.61186
 Alpha virt. eigenvalues --    2.61867   2.62978   2.63655   2.64701   2.65181
 Alpha virt. eigenvalues --    2.65738   2.67326   2.67965   2.68413   2.68770
 Alpha virt. eigenvalues --    2.70154   2.70912   2.72067   2.72397   2.72919
 Alpha virt. eigenvalues --    2.74350   2.75141   2.75242   2.77241   2.77692
 Alpha virt. eigenvalues --    2.78729   2.79187   2.82210   2.83565   2.84842
 Alpha virt. eigenvalues --    2.85224   2.88053   2.89596   2.90389   2.90804
 Alpha virt. eigenvalues --    2.93034   2.95334   2.96622   2.99242   3.00790
 Alpha virt. eigenvalues --    3.18971   3.20630   3.24000   3.31191   3.33279
 Alpha virt. eigenvalues --    3.38983   3.39846   3.42071   3.51602   3.53996
 Alpha virt. eigenvalues --    4.07735   4.08275   4.08739   4.09536   4.09867
 Alpha virt. eigenvalues --    4.10008   4.10459   4.11341   4.11859   4.14497
 Alpha virt. eigenvalues --    4.17097   4.18053   4.21316   4.22536   4.24220
 Alpha virt. eigenvalues --    4.26065   4.27814   4.31759   4.32837   4.34656
 Alpha virt. eigenvalues --    4.36963   4.40737   4.43631   4.44303   4.45635
 Alpha virt. eigenvalues --    4.49387   4.55789   4.60971   4.71551   4.73348
 Alpha virt. eigenvalues --    4.77855   4.85469
          Condensed to atoms (all electrons):
 Mulliken charges:
               1
     1  C   -0.531973
     2  C    0.172526
     3  C   -0.164171
     4  C   -0.137037
     5  C   -0.161299
     6  C    0.083014
     7  C    0.452235
     8  N   -0.543017
     9  C    0.452292
    10  C    0.076544
    11  C   -0.155505
    12  C   -0.139331
    13  C   -0.116067
    14  C   -0.139890
    15  C   -0.160487
    16  N   -0.550879
    17  C    0.710500
    18  N   -0.760166
    19  C    0.307306
    20  C   -0.146260
    21  C   -0.146767
    22  C   -0.138342
    23  C   -0.195948
    24  C    0.054650
    25  C    0.054688
    26  C   -0.195998
    27  C   -0.138320
    28  C   -0.147135
    29  C   -0.146461
    30  C    0.307085
    31  N   -0.550776
    32  C   -0.224413
    33  H    0.163223
    34  H    0.164361
    35  H    0.161223
    36  H    0.127313
    37  H    0.133516
    38  H    0.159242
    39  H    0.161798
    40  H    0.135053
    41  H    0.135165
    42  H    0.135610
    43  H    0.164603
    44  H    0.172469
    45  H    0.128499
    46  H    0.127452
    47  H    0.131696
    48  H    0.131745
    49  H    0.127328
    50  H    0.127883
    51  H    0.173083
    52  H    0.158143
 Sum of Mulliken charges =  -0.00000
 Mulliken charges with hydrogens summed into heavy atoms:
               1
     1  C   -0.043166
     2  C    0.172526
     3  C   -0.036858
     4  C   -0.003521
     5  C   -0.002057
     6  C    0.083014
     7  C    0.452235
     8  N   -0.543017
     9  C    0.452292
    10  C    0.076544
    11  C    0.006293
    12  C   -0.004278
    13  C    0.019097
    14  C   -0.004280
    15  C    0.004116
    16  N   -0.550879
    17  C    0.710500
    18  N   -0.760166
    19  C    0.307306
    20  C    0.026209
    21  C   -0.018268
    22  C   -0.010890
    23  C   -0.064252
    24  C    0.054650
    25  C    0.054688
    26  C   -0.064253
    27  C   -0.010992
    28  C   -0.019253
    29  C    0.026622
    30  C    0.307085
    31  N   -0.550776
    32  C   -0.066270
 Electronic spatial extent (au):  <R**2>=          15322.5055
 Charge=             -0.0000 electrons
 Dipole moment (field-independent basis, Debye):
    X=             -1.1077    Y=             -0.0265    Z=              0.0687  Tot=              1.1101
 Quadrupole moment (field-independent basis, Debye-Ang):
   XX=           -160.1104   YY=           -154.6954   ZZ=           -188.1259
   XY=              2.5316   XZ=              0.3408   YZ=              0.9293
 Traceless Quadrupole moment (field-independent basis, Debye-Ang):
   XX=              7.5335   YY=             12.9486   ZZ=            -20.4820
   XY=              2.5316   XZ=              0.3408   YZ=              0.9293
 Octapole moment (field-independent basis, Debye-Ang**2):
  XXX=            -17.3593  YYY=             41.7499  ZZZ=              1.8327  XYY=            -34.0718
  XXY=            -22.2629  XXZ=             11.2885  XZZ=             -4.5189  YZZ=             -3.9838
  YYZ=             -9.5092  XYZ=             13.3333
 Hexadecapole moment (field-independent basis, Debye-Ang**3):
 XXXX=          -9924.6296 YYYY=          -8717.0369 ZZZZ=           -492.6580 XXXY=             43.8964
 XXXZ=             63.1216 YYYX=            -32.1046 YYYZ=            -19.3430 ZZZX=             -7.4210
 ZZZY=             -7.1320 XXYY=          -3081.3015 XXZZ=          -2039.0032 YYZZ=          -1794.8226
 XXYZ=             33.6609 YYXZ=            -46.9821 ZZXY=             32.0621
 N-N= 2.853934202497D+03 E-N=-8.716884341873D+03  KE= 1.285643820887D+03
 No NMR shielding tensors so no spin-rotation constants.
 Leave Link  601 at Sat Nov  5 02:12:01 2022, MaxMem=   805306368 cpu:               1.5 elap:               0.3
 (Enter /home/wykgroup/appl/g16/l9999.exe)
 1\1\GINC-NODE04\FOpt\RB3LYP\6-31G(d)\C28H20N4\WYKGROUP\05-Nov-2022\0\\
 #p b3lyp/6-31g(d) opt SCF=XQC\\Gaussian input prepared by ASE\\0,1\C,-
 3.3461263289,-4.9410480897,-0.5251291325\C,-3.5954104511,-3.4564698434
 ,-0.6622132183\C,-4.8668035198,-2.9738661231,-1.0087688821\C,-5.103550
 0776,-1.6053424259,-1.1354020111\C,-4.0756783958,-0.6907043571,-0.9173
 344699\C,-2.7962518958,-1.1507744089,-0.5765282889\C,-1.6933554565,-0.
 1877450165,-0.345932118\N,-2.0007921947,1.1176549311,-0.2900832103\C,-
 0.9702836196,1.9467292491,-0.0655938569\C,-1.2499227801,3.40163414,-0.
 0084534439\C,-2.5741672275,3.8669568093,0.0046242759\C,-2.8379719191,5
 .23314074,0.0633340438\C,-1.7848598085,6.1503410501,0.1021842394\C,-0.
 4643377424,5.6945424432,0.0825024973\C,-0.196340273,4.3288896968,0.029
 4313287\N,0.2996902759,1.5503201394,0.1043959989\C,0.501903038,0.22886
 06662,0.0249965812\N,1.8023937664,-0.2331180378,0.1881572902\C,2.87272
 22121,0.4802025125,0.7951795785\C,2.9019479291,1.7396074454,1.40117413
 72\C,4.1068768511,2.1676561843,1.9596337846\C,5.2605289562,1.371854015
 4,1.9231283517\C,5.2235318566,0.1136269953,1.3299489897\C,4.0254916056
 ,-0.3371334345,0.7687785411\C,3.6654792615,-1.5799690739,0.1179690777\
 C,4.4086283877,-2.7198938231,-0.2009139546\C,3.7836884421,-3.769271016
 2,-0.8677407893\C,2.4293395073,-3.674563615,-1.2174435159\C,1.66737880
 14,-2.5483140673,-0.9043975476\C,2.2961777617,-1.5018121283,-0.2234461
 764\N,-0.4545696668,-0.6809291893,-0.1998549986\C,-2.5713547445,-2.531
 4382626,-0.4511989643\H,-4.0470758817,-5.4010327516,0.1819236906\H,-3.
 4729532488,-5.4573983388,-1.4851604929\H,-2.3311580365,-5.1435518663,-
 0.1700359716\H,-5.678285284,-3.6788053076,-1.1777337999\H,-6.094846036
 2,-1.250323028,-1.404216598\H,-4.246063672,0.3754992087,-1.011191271\H
 ,-3.3824805257,3.1452673673,-0.0264675537\H,-3.8663729532,5.5837011362
 ,0.0787517404\H,-1.9923294215,7.2163264814,0.1455373929\H,0.3576382902
 ,6.404813876,0.1059965677\H,0.8253649641,3.9667689891,0.0032162333\H,2
 .0207930585,2.3624485184,1.4332225031\H,4.1451803416,3.1453236771,2.43
 23929807\H,6.1839078548,1.7373521886,2.3635134345\H,6.1095212802,-0.51
 5200179,1.30754902\H,5.4609851964,-2.7792326209,0.063499388\H,4.347028
 9219,-4.6624774171,-1.1226928972\H,1.9536295689,-4.4967377376,-1.74525
 5711\H,0.6244462562,-2.4879690586,-1.1765836425\H,-1.5809352241,-2.874
 3982424,-0.1705271502\\Version=ES64L-G16RevB.01\State=1-A\HF=-1298.100
 1067\RMSD=5.659e-09\RMSF=4.870e-06\Dipole=-0.4336093,-0.0197542,-0.048
 3869\Quadrupole=4.8311112,9.0338309,-13.8649421,1.0849388,3.7719701,4.
 2490717\PG=C01 [X(C28H20N4)]\\@


 The most important thing in communication is to hear what isn't being said.
 -- Peter F. Drucker
 Job cpu time:       0 days  4 hours  8 minutes 47.9 seconds.
 Elapsed time:       0 days  0 hours 35 minutes 39.6 seconds.
 File lengths (MBytes):  RWF=    172 Int=      0 D2E=      0 Chk=     23 Scr=      1
 Normal termination of Gaussian 16 at Sat Nov  5 02:12:01 2022.
