 Entering Gaussian System, Link 0=/home/wykgroup/appl/g16/g16
 Input=./calculation/no_transfer_pubchem_sampling_9_b3lyp/155652768.com
 Output=./calculation/no_transfer_pubchem_sampling_9_b3lyp/155652768.log
 Initial command:
 /home/wykgroup/appl/g16/l1.exe "/userdata/scratch/wykgroup/khs/./calculation/no_transfer_pubchem_sampling_9_b3lyp/155652768/Gau-24502.inp" -scrdir="/userdata/scratch/wykgroup/khs/./calculation/no_transfer_pubchem_sampling_9_b3lyp/155652768/"
 Entering Link 1 = /home/wykgroup/appl/g16/l1.exe PID=     24503.
  
 Copyright (c) 1988-2017, Gaussian, Inc.  All Rights Reserved.
  
 This is part of the Gaussian(R) 16 program.  It is based on
 the Gaussian(R) 09 system (copyright 2009, Gaussian, Inc.),
 the Gaussian(R) 03 system (copyright 2003, Gaussian, Inc.),
 the Gaussian(R) 98 system (copyright 1998, Gaussian, Inc.),
 the Gaussian(R) 94 system (copyright 1995, Gaussian, Inc.),
 the Gaussian 92(TM) system (copyright 1992, Gaussian, Inc.),
 the Gaussian 90(TM) system (copyright 1990, Gaussian, Inc.),
 the Gaussian 88(TM) system (copyright 1988, Gaussian, Inc.),
 the Gaussian 86(TM) system (copyright 1986, Carnegie Mellon
 University), and the Gaussian 82(TM) system (copyright 1983,
 Carnegie Mellon University). Gaussian is a federally registered
 trademark of Gaussian, Inc.
  
 This software contains proprietary and confidential information,
 including trade secrets, belonging to Gaussian, Inc.
  
 This software is provided under written license and may be
 used, copied, transmitted, or stored only in accord with that
 written license.
  
 The following legend is applicable only to US Government
 contracts under FAR:
  
                    RESTRICTED RIGHTS LEGEND
  
 Use, reproduction and disclosure by the US Government is
 subject to restrictions as set forth in subparagraphs (a)
 and (c) of the Commercial Computer Software - Restricted
 Rights clause in FAR 52.227-19.
  
 Gaussian, Inc.
 340 Quinnipiac St., Bldg. 40, Wallingford CT 06492
  
  
 ---------------------------------------------------------------
 Warning -- This program may not be used in any manner that
 competes with the business of Gaussian, Inc. or will provide
 assistance to any competitor of Gaussian, Inc.  The licensee
 of this program is prohibited from giving any competitor of
 Gaussian, Inc. access to this program.  By using this program,
 the user acknowledges that Gaussian, Inc. is engaged in the
 business of creating and licensing software in the field of
 computational chemistry and represents and warrants to the
 licensee that it is not a competitor of Gaussian, Inc. and that
 it will not use this program in any manner prohibited above.
 ---------------------------------------------------------------
  

 Cite this work as:
 Gaussian 16, Revision B.01,
 M. J. Frisch, G. W. Trucks, H. B. Schlegel, G. E. Scuseria, 
 M. A. Robb, J. R. Cheeseman, G. Scalmani, V. Barone, 
 G. A. Petersson, H. Nakatsuji, X. Li, M. Caricato, A. V. Marenich, 
 J. Bloino, B. G. Janesko, R. Gomperts, B. Mennucci, H. P. Hratchian, 
 J. V. Ortiz, A. F. Izmaylov, J. L. Sonnenberg, D. Williams-Young, 
 F. Ding, F. Lipparini, F. Egidi, J. Goings, B. Peng, A. Petrone, 
 T. Henderson, D. Ranasinghe, V. G. Zakrzewski, J. Gao, N. Rega, 
 G. Zheng, W. Liang, M. Hada, M. Ehara, K. Toyota, R. Fukuda, 
 J. Hasegawa, M. Ishida, T. Nakajima, Y. Honda, O. Kitao, H. Nakai, 
 T. Vreven, K. Throssell, J. A. Montgomery, Jr., J. E. Peralta, 
 F. Ogliaro, M. J. Bearpark, J. J. Heyd, E. N. Brothers, K. N. Kudin, 
 V. N. Staroverov, T. A. Keith, R. Kobayashi, J. Normand, 
 K. Raghavachari, A. P. Rendell, J. C. Burant, S. S. Iyengar, 
 J. Tomasi, M. Cossi, J. M. Millam, M. Klene, C. Adamo, R. Cammi, 
 J. W. Ochterski, R. L. Martin, K. Morokuma, O. Farkas, 
 J. B. Foresman, and D. J. Fox, Gaussian, Inc., Wallingford CT, 2016.
 
 ******************************************
 Gaussian 16:  ES64L-G16RevB.01 20-Dec-2017
                 5-Nov-2022 
 ******************************************
 %chk=./calculation/no_transfer_pubchem_sampling_9_b3lyp/155652768.chk
 %nprocshared=7
 Will use up to    7 processors via shared memory.
 %mem=6GB
 -----------------------------
 #p b3lyp/6-31g(d) opt SCF=XQC
 -----------------------------
 1/18=20,19=15,26=3,38=1/1,3;
 2/9=110,12=2,17=6,18=5,40=1/2;
 3/5=1,6=6,7=1,11=2,25=1,30=1,71=1,74=-5/1,2,3;
 4//1;
 5/5=2,8=3,13=1,38=5/2,8;
 6/7=2,8=2,9=2,10=2,28=1/1;
 7//1,2,3,16;
 1/18=20,19=15,26=3/3(2);
 2/9=110/2;
 99//99;
 2/9=110/2;
 3/5=1,6=6,7=1,11=2,25=1,30=1,71=1,74=-5/1,2,3;
 4/5=5,16=3,69=1/1;
 5/5=2,8=3,13=1,38=5/2,8;
 7//1,2,3,16;
 1/18=20,19=15,26=3/3(-5);
 2/9=110/2;
 6/7=2,8=2,9=2,10=2,19=2,28=1/1;
 99/9=1/99;
 Leave Link    1 at Sat Nov  5 01:38:33 2022, MaxMem=   805306368 cpu:               1.0 elap:               0.2
 (Enter /home/wykgroup/appl/g16/l101.exe)
 ------------------------------
 Gaussian input prepared by ASE
 ------------------------------
 Symbolic Z-matrix:
 Charge =  0 Multiplicity = 1
 C                     0.95925   3.81064  -0.40386 
 C                     0.73407   2.78106  -1.52067 
 C                    -0.1638    3.38028  -2.61106 
 C                     2.09937   2.45935  -2.13589 
 C                     0.05327   1.5543   -0.93091 
 C                     0.5987    0.28426  -1.04268 
 C                    -0.0216   -0.80403  -0.43735 
 O                     0.48583  -2.07922  -0.51513 
 C                     1.84251  -2.26868  -0.48786 
 C                     2.31973  -3.46478  -1.03803 
 C                     3.66781  -3.7547   -1.04269 
 C                     4.55971  -2.82785  -0.51722 
 C                     5.99168  -2.76454  -0.4061 
 C                     7.00233  -3.65618  -0.73809 
 C                     8.32315  -3.32991  -0.47448 
 C                     9.48153  -4.25616  -0.81502 
 C                     10.4432  -3.53092  -1.76712 
 C                     10.21775  -4.63835   0.47677 
 C                     9.02109  -5.5463   -1.49898 
 C                     8.59619  -2.10542   0.14689 
 C                     7.61003  -1.19935   0.4855 
 C                     6.29599  -1.5193    0.18443 
 N                     5.12075  -0.82904   0.43901 
 C                     4.98888   0.50604   0.80291 
 C                     5.88315   1.46663   0.33074 
 C                     5.70628   2.80082   0.67335 
 C                     6.66433   3.84842   0.13504 
 C                     6.54868   3.87205  -1.39573 
 C                     6.35523   5.24967   0.66739 
 C                     8.09663   3.4802    0.54542 
 C                     4.61349   3.10526   1.48347 
 C                     3.77008   2.08355   1.88279 
 N                     3.94162   0.81626   1.55929 
 C                     4.06319  -1.63261   0.0433 
 C                     2.7106   -1.35695   0.09612 
 C                    -1.21968  -0.64798   0.23848 
 C                    -1.79756   0.61827   0.33012 
 N                    -3.00056   0.76755   0.99453 
 C                    -3.99028  -0.29077   1.03368 
 N                    -5.23877   0.39574   1.29716 
 C                    -6.46767  -0.14924   0.95504 
 C                    -6.63882  -1.53073   0.98368 
 C                    -7.85612  -2.10557   0.64826 
 C                    -7.99118  -3.62147   0.69568 
 C                    -7.72321  -4.10374   2.12824 
 C                    -6.96792  -4.24584  -0.26357 
 C                    -9.38314  -4.10893   0.2842 
 C                    -8.90777  -1.27171   0.28824 
 C                    -8.75905   0.10943   0.23174 
 C                    -9.88835   1.03961  -0.19012 
 C                    -11.19834   0.29766  -0.46926 
 C                    -10.14865   2.05538   0.93128 
 C                    -9.47438   1.77643  -1.47163 
 C                    -7.52777   0.65849   0.55522 
 C                    -4.9504    1.69033   1.69914 
 C                    -5.75253   2.6456    2.28802 
 C                    -5.16946   3.85096   2.6694 
 C                    -3.81798   4.07432   2.4963 
 C                    -2.99568   3.10211   1.93211 
 C                    -3.57193   1.92003   1.51787 
 C                    -1.15157   1.7046   -0.25701 
 H                     1.56725   3.37508   0.38664 
 H                     0.01974   4.1447    0.0265 
 H                     1.47862   4.6819   -0.79829 
 H                     0.30804   4.2584   -3.04721 
 H                    -0.3332    2.65074  -3.40009 
 H                    -1.12849   3.67521  -2.20748 
 H                     2.55195   3.3759   -2.51017 
 H                     2.77028   2.03084  -1.39372 
 H                     2.00427   1.77046  -2.97167 
 H                     1.5066    0.11458  -1.59517 
 H                     1.60312  -4.1534   -1.45726 
 H                     4.02541  -4.68037  -1.4671 
 H                     6.73092  -4.59584  -1.18908 
 H                     11.26887  -4.1861   -2.03709 
 H                     10.85589  -2.63603  -1.30976 
 H                     9.9219   -3.23964  -2.67675 
 H                     10.62927  -3.76397   0.97316 
 H                     9.53473  -5.13078   1.1658 
 H                     11.03607  -5.3202    0.25454 
 H                     8.3647   -6.12061  -0.84949 
 H                     9.88743  -6.16305  -1.73013 
 H                     8.50327  -5.33138  -2.4309 
 H                     9.61702  -1.84781   0.38499 
 H                     7.86676  -0.28227   0.99425 
 H                     6.67795   1.16039  -0.32925 
 H                     5.52895   4.10896  -1.69269 
 H                     6.81426   2.91084  -1.8277 
 H                     7.21341   4.62761  -1.80858 
 H                     6.41908   5.27808   1.75286 
 H                     7.07972   5.95672   0.2688 
 H                     5.36465   5.57649   0.35966 
 H                     8.79134   4.23983   0.19394 
 H                     8.39922   2.52564   0.12362 
 H                     8.17437   3.4176    1.62917 
 H                     4.40026   4.1131    1.79485 
 H                     2.90306   2.28569   2.49914 
 H                     2.35314  -0.46181   0.57681 
 H                    -1.67495  -1.51091   0.69535 
 H                    -4.02745  -0.83656   0.07966 
 H                    -3.75955  -1.01053   1.84457 
 H                    -5.80979  -2.15157   1.28292 
 H                    -6.71924  -3.84516   2.45264 
 H                    -8.43126  -3.64666   2.81635 
 H                    -7.83235  -5.18477   2.1872 
 H                    -5.95015  -3.99654   0.02306 
 H                    -7.06495  -5.32958  -0.26218 
 H                    -7.1347   -3.88542  -1.27662 
 H                    -9.41394  -5.19584   0.33093 
 H                    -9.61724  -3.81058  -0.73507 
 H                    -10.14778  -3.7238    0.95469 
 H                    -9.85742  -1.70589   0.03838 
 H                    -11.54217  -0.23502   0.41439 
 H                    -11.08375  -0.40664  -1.28989 
 H                    -11.96755   1.01476  -0.74965 
 H                    -10.39743   1.53851   1.85599 
 H                    -9.27808   2.67955   1.1116 
 H                    -10.98015   2.70444   0.66414 
 H                    -8.57959   2.37215  -1.31392 
 H                    -10.2728   2.43972  -1.79815 
 H                    -9.27176   1.06174  -2.26669 
 H                    -7.36495   1.72011   0.47414 
 H                    -6.79677   2.45941   2.48028 
 H                    -5.78545   4.61073   3.12627 
 H                    -3.38182   5.00753   2.81929 
 H                    -1.93309   3.26639   1.85614 
 H                    -1.62561   2.66987  -0.21001 
 
 ITRead=  0  0  0  0  0  0  0  0  0  0  0  0  0  0  0  0  0  0  0  0
 ITRead=  0  0  0  0  0  0  0  0  0  0  0  0  0  0  0  0  0  0  0  0
 ITRead=  0  0  0  0  0  0  0  0  0  0  0  0  0  0  0  0  0  0  0  0
 ITRead=  0  0  0  0  0  0  0  0  0  0  0  0  0  0  0  0  0  0  0  0
 ITRead=  0  0  0  0  0  0  0  0  0  0  0  0  0  0  0  0  0  0  0  0
 ITRead=  0  0  0  0  0  0  0  0  0  0  0  0  0  0  0  0  0  0  0  0
 ITRead=  0  0  0  0  0  0  0
 MicOpt= -1 -1 -1 -1 -1 -1 -1 -1 -1 -1 -1 -1 -1 -1 -1 -1 -1 -1 -1 -1
 MicOpt= -1 -1 -1 -1 -1 -1 -1 -1 -1 -1 -1 -1 -1 -1 -1 -1 -1 -1 -1 -1
 MicOpt= -1 -1 -1 -1 -1 -1 -1 -1 -1 -1 -1 -1 -1 -1 -1 -1 -1 -1 -1 -1
 MicOpt= -1 -1 -1 -1 -1 -1 -1 -1 -1 -1 -1 -1 -1 -1 -1 -1 -1 -1 -1 -1
 MicOpt= -1 -1 -1 -1 -1 -1 -1 -1 -1 -1 -1 -1 -1 -1 -1 -1 -1 -1 -1 -1
 MicOpt= -1 -1 -1 -1 -1 -1 -1 -1 -1 -1 -1 -1 -1 -1 -1 -1 -1 -1 -1 -1
 MicOpt= -1 -1 -1 -1 -1 -1 -1
 NAtoms=    127 NQM=      127 NQMF=       0 NMMI=      0 NMMIF=      0
                NMic=       0 NMicF=      0.
                    Isotopes and Nuclear Properties:
 (Nuclear quadrupole moments (NQMom) in fm**2, nuclear magnetic moments (NMagM)
  in nuclear magnetons)

  Atom         1           2           3           4           5           6           7           8           9          10
 IAtWgt=          12          12          12          12          12          12          12          16          12          12
 AtmWgt=  12.0000000  12.0000000  12.0000000  12.0000000  12.0000000  12.0000000  12.0000000  15.9949146  12.0000000  12.0000000
 NucSpn=           0           0           0           0           0           0           0           0           0           0
 AtZEff=  -0.0000000  -0.0000000  -0.0000000  -0.0000000  -0.0000000  -0.0000000  -0.0000000  -0.0000000  -0.0000000  -0.0000000
 NQMom=    0.0000000   0.0000000   0.0000000   0.0000000   0.0000000   0.0000000   0.0000000   0.0000000   0.0000000   0.0000000
 NMagM=    0.0000000   0.0000000   0.0000000   0.0000000   0.0000000   0.0000000   0.0000000   0.0000000   0.0000000   0.0000000
 AtZNuc=   6.0000000   6.0000000   6.0000000   6.0000000   6.0000000   6.0000000   6.0000000   8.0000000   6.0000000   6.0000000

  Atom        11          12          13          14          15          16          17          18          19          20
 IAtWgt=          12          12          12          12          12          12          12          12          12          12
 AtmWgt=  12.0000000  12.0000000  12.0000000  12.0000000  12.0000000  12.0000000  12.0000000  12.0000000  12.0000000  12.0000000
 NucSpn=           0           0           0           0           0           0           0           0           0           0
 AtZEff=  -0.0000000  -0.0000000  -0.0000000  -0.0000000  -0.0000000  -0.0000000  -0.0000000  -0.0000000  -0.0000000  -0.0000000
 NQMom=    0.0000000   0.0000000   0.0000000   0.0000000   0.0000000   0.0000000   0.0000000   0.0000000   0.0000000   0.0000000
 NMagM=    0.0000000   0.0000000   0.0000000   0.0000000   0.0000000   0.0000000   0.0000000   0.0000000   0.0000000   0.0000000
 AtZNuc=   6.0000000   6.0000000   6.0000000   6.0000000   6.0000000   6.0000000   6.0000000   6.0000000   6.0000000   6.0000000

  Atom        21          22          23          24          25          26          27          28          29          30
 IAtWgt=          12          12          14          12          12          12          12          12          12          12
 AtmWgt=  12.0000000  12.0000000  14.0030740  12.0000000  12.0000000  12.0000000  12.0000000  12.0000000  12.0000000  12.0000000
 NucSpn=           0           0           2           0           0           0           0           0           0           0
 AtZEff=  -0.0000000  -0.0000000  -0.0000000  -0.0000000  -0.0000000  -0.0000000  -0.0000000  -0.0000000  -0.0000000  -0.0000000
 NQMom=    0.0000000   0.0000000   2.0440000   0.0000000   0.0000000   0.0000000   0.0000000   0.0000000   0.0000000   0.0000000
 NMagM=    0.0000000   0.0000000   0.4037610   0.0000000   0.0000000   0.0000000   0.0000000   0.0000000   0.0000000   0.0000000
 AtZNuc=   6.0000000   6.0000000   7.0000000   6.0000000   6.0000000   6.0000000   6.0000000   6.0000000   6.0000000   6.0000000

  Atom        31          32          33          34          35          36          37          38          39          40
 IAtWgt=          12          12          14          12          12          12          12          14          12          14
 AtmWgt=  12.0000000  12.0000000  14.0030740  12.0000000  12.0000000  12.0000000  12.0000000  14.0030740  12.0000000  14.0030740
 NucSpn=           0           0           2           0           0           0           0           2           0           2
 AtZEff=  -0.0000000  -0.0000000  -0.0000000  -0.0000000  -0.0000000  -0.0000000  -0.0000000  -0.0000000  -0.0000000  -0.0000000
 NQMom=    0.0000000   0.0000000   2.0440000   0.0000000   0.0000000   0.0000000   0.0000000   2.0440000   0.0000000   2.0440000
 NMagM=    0.0000000   0.0000000   0.4037610   0.0000000   0.0000000   0.0000000   0.0000000   0.4037610   0.0000000   0.4037610
 AtZNuc=   6.0000000   6.0000000   7.0000000   6.0000000   6.0000000   6.0000000   6.0000000   7.0000000   6.0000000   7.0000000

  Atom        41          42          43          44          45          46          47          48          49          50
 IAtWgt=          12          12          12          12          12          12          12          12          12          12
 AtmWgt=  12.0000000  12.0000000  12.0000000  12.0000000  12.0000000  12.0000000  12.0000000  12.0000000  12.0000000  12.0000000
 NucSpn=           0           0           0           0           0           0           0           0           0           0
 AtZEff=  -0.0000000  -0.0000000  -0.0000000  -0.0000000  -0.0000000  -0.0000000  -0.0000000  -0.0000000  -0.0000000  -0.0000000
 NQMom=    0.0000000   0.0000000   0.0000000   0.0000000   0.0000000   0.0000000   0.0000000   0.0000000   0.0000000   0.0000000
 NMagM=    0.0000000   0.0000000   0.0000000   0.0000000   0.0000000   0.0000000   0.0000000   0.0000000   0.0000000   0.0000000
 AtZNuc=   6.0000000   6.0000000   6.0000000   6.0000000   6.0000000   6.0000000   6.0000000   6.0000000   6.0000000   6.0000000

  Atom        51          52          53          54          55          56          57          58          59          60
 IAtWgt=          12          12          12          12          12          12          12          12          12          12
 AtmWgt=  12.0000000  12.0000000  12.0000000  12.0000000  12.0000000  12.0000000  12.0000000  12.0000000  12.0000000  12.0000000
 NucSpn=           0           0           0           0           0           0           0           0           0           0
 AtZEff=  -0.0000000  -0.0000000  -0.0000000  -0.0000000  -0.0000000  -0.0000000  -0.0000000  -0.0000000  -0.0000000  -0.0000000
 NQMom=    0.0000000   0.0000000   0.0000000   0.0000000   0.0000000   0.0000000   0.0000000   0.0000000   0.0000000   0.0000000
 NMagM=    0.0000000   0.0000000   0.0000000   0.0000000   0.0000000   0.0000000   0.0000000   0.0000000   0.0000000   0.0000000
 AtZNuc=   6.0000000   6.0000000   6.0000000   6.0000000   6.0000000   6.0000000   6.0000000   6.0000000   6.0000000   6.0000000

  Atom        61          62          63          64          65          66          67          68          69          70
 IAtWgt=          12           1           1           1           1           1           1           1           1           1
 AtmWgt=  12.0000000   1.0078250   1.0078250   1.0078250   1.0078250   1.0078250   1.0078250   1.0078250   1.0078250   1.0078250
 NucSpn=           0           1           1           1           1           1           1           1           1           1
 AtZEff=  -0.0000000  -0.0000000  -0.0000000  -0.0000000  -0.0000000  -0.0000000  -0.0000000  -0.0000000  -0.0000000  -0.0000000
 NQMom=    0.0000000   0.0000000   0.0000000   0.0000000   0.0000000   0.0000000   0.0000000   0.0000000   0.0000000   0.0000000
 NMagM=    0.0000000   2.7928460   2.7928460   2.7928460   2.7928460   2.7928460   2.7928460   2.7928460   2.7928460   2.7928460
 AtZNuc=   6.0000000   1.0000000   1.0000000   1.0000000   1.0000000   1.0000000   1.0000000   1.0000000   1.0000000   1.0000000

  Atom        71          72          73          74          75          76          77          78          79          80
 IAtWgt=           1           1           1           1           1           1           1           1           1           1
 AtmWgt=   1.0078250   1.0078250   1.0078250   1.0078250   1.0078250   1.0078250   1.0078250   1.0078250   1.0078250   1.0078250
 NucSpn=           1           1           1           1           1           1           1           1           1           1
 AtZEff=  -0.0000000  -0.0000000  -0.0000000  -0.0000000  -0.0000000  -0.0000000  -0.0000000  -0.0000000  -0.0000000  -0.0000000
 NQMom=    0.0000000   0.0000000   0.0000000   0.0000000   0.0000000   0.0000000   0.0000000   0.0000000   0.0000000   0.0000000
 NMagM=    2.7928460   2.7928460   2.7928460   2.7928460   2.7928460   2.7928460   2.7928460   2.7928460   2.7928460   2.7928460
 AtZNuc=   1.0000000   1.0000000   1.0000000   1.0000000   1.0000000   1.0000000   1.0000000   1.0000000   1.0000000   1.0000000

  Atom        81          82          83          84          85          86          87          88          89          90
 IAtWgt=           1           1           1           1           1           1           1           1           1           1
 AtmWgt=   1.0078250   1.0078250   1.0078250   1.0078250   1.0078250   1.0078250   1.0078250   1.0078250   1.0078250   1.0078250
 NucSpn=           1           1           1           1           1           1           1           1           1           1
 AtZEff=  -0.0000000  -0.0000000  -0.0000000  -0.0000000  -0.0000000  -0.0000000  -0.0000000  -0.0000000  -0.0000000  -0.0000000
 NQMom=    0.0000000   0.0000000   0.0000000   0.0000000   0.0000000   0.0000000   0.0000000   0.0000000   0.0000000   0.0000000
 NMagM=    2.7928460   2.7928460   2.7928460   2.7928460   2.7928460   2.7928460   2.7928460   2.7928460   2.7928460   2.7928460
 AtZNuc=   1.0000000   1.0000000   1.0000000   1.0000000   1.0000000   1.0000000   1.0000000   1.0000000   1.0000000   1.0000000

  Atom        91          92          93          94          95          96          97          98          99         100
 IAtWgt=           1           1           1           1           1           1           1           1           1           1
 AtmWgt=   1.0078250   1.0078250   1.0078250   1.0078250   1.0078250   1.0078250   1.0078250   1.0078250   1.0078250   1.0078250
 NucSpn=           1           1           1           1           1           1           1           1           1           1
 AtZEff=  -0.0000000  -0.0000000  -0.0000000  -0.0000000  -0.0000000  -0.0000000  -0.0000000  -0.0000000  -0.0000000  -0.0000000
 NQMom=    0.0000000   0.0000000   0.0000000   0.0000000   0.0000000   0.0000000   0.0000000   0.0000000   0.0000000   0.0000000
 NMagM=    2.7928460   2.7928460   2.7928460   2.7928460   2.7928460   2.7928460   2.7928460   2.7928460   2.7928460   2.7928460
 AtZNuc=   1.0000000   1.0000000   1.0000000   1.0000000   1.0000000   1.0000000   1.0000000   1.0000000   1.0000000   1.0000000

  Atom       101         102         103         104         105         106         107         108         109         110
 IAtWgt=           1           1           1           1           1           1           1           1           1           1
 AtmWgt=   1.0078250   1.0078250   1.0078250   1.0078250   1.0078250   1.0078250   1.0078250   1.0078250   1.0078250   1.0078250
 NucSpn=           1           1           1           1           1           1           1           1           1           1
 AtZEff=  -0.0000000  -0.0000000  -0.0000000  -0.0000000  -0.0000000  -0.0000000  -0.0000000  -0.0000000  -0.0000000  -0.0000000
 NQMom=    0.0000000   0.0000000   0.0000000   0.0000000   0.0000000   0.0000000   0.0000000   0.0000000   0.0000000   0.0000000
 NMagM=    2.7928460   2.7928460   2.7928460   2.7928460   2.7928460   2.7928460   2.7928460   2.7928460   2.7928460   2.7928460
 AtZNuc=   1.0000000   1.0000000   1.0000000   1.0000000   1.0000000   1.0000000   1.0000000   1.0000000   1.0000000   1.0000000

  Atom       111         112         113         114         115         116         117         118         119         120
 IAtWgt=           1           1           1           1           1           1           1           1           1           1
 AtmWgt=   1.0078250   1.0078250   1.0078250   1.0078250   1.0078250   1.0078250   1.0078250   1.0078250   1.0078250   1.0078250
 NucSpn=           1           1           1           1           1           1           1           1           1           1
 AtZEff=  -0.0000000  -0.0000000  -0.0000000  -0.0000000  -0.0000000  -0.0000000  -0.0000000  -0.0000000  -0.0000000  -0.0000000
 NQMom=    0.0000000   0.0000000   0.0000000   0.0000000   0.0000000   0.0000000   0.0000000   0.0000000   0.0000000   0.0000000
 NMagM=    2.7928460   2.7928460   2.7928460   2.7928460   2.7928460   2.7928460   2.7928460   2.7928460   2.7928460   2.7928460
 AtZNuc=   1.0000000   1.0000000   1.0000000   1.0000000   1.0000000   1.0000000   1.0000000   1.0000000   1.0000000   1.0000000

  Atom       121         122         123         124         125         126         127
 IAtWgt=           1           1           1           1           1           1           1
 AtmWgt=   1.0078250   1.0078250   1.0078250   1.0078250   1.0078250   1.0078250   1.0078250
 NucSpn=           1           1           1           1           1           1           1
 AtZEff=  -0.0000000  -0.0000000  -0.0000000  -0.0000000  -0.0000000  -0.0000000  -0.0000000
 NQMom=    0.0000000   0.0000000   0.0000000   0.0000000   0.0000000   0.0000000   0.0000000
 NMagM=    2.7928460   2.7928460   2.7928460   2.7928460   2.7928460   2.7928460   2.7928460
 AtZNuc=   1.0000000   1.0000000   1.0000000   1.0000000   1.0000000   1.0000000   1.0000000
 Leave Link  101 at Sat Nov  5 01:38:34 2022, MaxMem=   805306368 cpu:               2.7 elap:               0.5
 (Enter /home/wykgroup/appl/g16/l103.exe)

 GradGradGradGradGradGradGradGradGradGradGradGradGradGradGradGradGradGrad
 Berny optimization.
 Initialization pass.
                           ----------------------------
                           !    Initial Parameters    !
                           ! (Angstroms and Degrees)  !
 --------------------------                            --------------------------
 ! Name  Definition              Value          Derivative Info.                !
 --------------------------------------------------------------------------------
 ! R1    R(1,2)                  1.5356         estimate D2E/DX2                !
 ! R2    R(1,62)                 1.0882         estimate D2E/DX2                !
 ! R3    R(1,63)                 1.086          estimate D2E/DX2                !
 ! R4    R(1,64)                 1.0883         estimate D2E/DX2                !
 ! R5    R(2,3)                  1.5343         estimate D2E/DX2                !
 ! R6    R(2,4)                  1.5317         estimate D2E/DX2                !
 ! R7    R(2,5)                  1.5219         estimate D2E/DX2                !
 ! R8    R(3,65)                 1.0881         estimate D2E/DX2                !
 ! R9    R(3,66)                 1.0879         estimate D2E/DX2                !
 ! R10   R(3,67)                 1.0865         estimate D2E/DX2                !
 ! R11   R(4,68)                 1.0886         estimate D2E/DX2                !
 ! R12   R(4,69)                 1.0884         estimate D2E/DX2                !
 ! R13   R(4,70)                 1.0873         estimate D2E/DX2                !
 ! R14   R(5,6)                  1.3867         estimate D2E/DX2                !
 ! R15   R(5,61)                 1.3887         estimate D2E/DX2                !
 ! R16   R(6,7)                  1.3913         estimate D2E/DX2                !
 ! R17   R(6,71)                 1.0763         estimate D2E/DX2                !
 ! R18   R(7,8)                  1.3746         estimate D2E/DX2                !
 ! R19   R(7,36)                 1.3844         estimate D2E/DX2                !
 ! R20   R(8,9)                  1.3701         estimate D2E/DX2                !
 ! R21   R(9,10)                 1.4004         estimate D2E/DX2                !
 ! R22   R(9,35)                 1.3878         estimate D2E/DX2                !
 ! R23   R(10,11)                1.3789         estimate D2E/DX2                !
 ! R24   R(10,72)                1.0787         estimate D2E/DX2                !
 ! R25   R(11,12)                1.3895         estimate D2E/DX2                !
 ! R26   R(11,73)                1.0793         estimate D2E/DX2                !
 ! R27   R(12,13)                1.4377         estimate D2E/DX2                !
 ! R28   R(12,34)                1.4104         estimate D2E/DX2                !
 ! R29   R(13,14)                1.388          estimate D2E/DX2                !
 ! R30   R(13,22)                1.4114         estimate D2E/DX2                !
 ! R31   R(14,15)                1.3858         estimate D2E/DX2                !
 ! R32   R(14,74)                1.077          estimate D2E/DX2                !
 ! R33   R(15,16)                1.5218         estimate D2E/DX2                !
 ! R34   R(15,20)                1.4            estimate D2E/DX2                !
 ! R35   R(16,17)                1.5353         estimate D2E/DX2                !
 ! R36   R(16,18)                1.5352         estimate D2E/DX2                !
 ! R37   R(16,19)                1.5311         estimate D2E/DX2                !
 ! R38   R(17,75)                1.0881         estimate D2E/DX2                !
 ! R39   R(17,76)                1.0864         estimate D2E/DX2                !
 ! R40   R(17,77)                1.0881         estimate D2E/DX2                !
 ! R41   R(18,78)                1.0864         estimate D2E/DX2                !
 ! R42   R(18,79)                1.088          estimate D2E/DX2                !
 ! R43   R(18,80)                1.0881         estimate D2E/DX2                !
 ! R44   R(19,81)                1.0874         estimate D2E/DX2                !
 ! R45   R(19,82)                1.0883         estimate D2E/DX2                !
 ! R46   R(19,83)                1.0876         estimate D2E/DX2                !
 ! R47   R(20,21)                1.3814         estimate D2E/DX2                !
 ! R48   R(20,84)                1.0794         estimate D2E/DX2                !
 ! R49   R(21,22)                1.3855         estimate D2E/DX2                !
 ! R50   R(21,85)                1.0797         estimate D2E/DX2                !
 ! R51   R(22,23)                1.3865         estimate D2E/DX2                !
 ! R52   R(23,24)                1.3901         estimate D2E/DX2                !
 ! R53   R(23,34)                1.3859         estimate D2E/DX2                !
 ! R54   R(24,25)                1.3948         estimate D2E/DX2                !
 ! R55   R(24,33)                1.3286         estimate D2E/DX2                !
 ! R56   R(25,26)                1.3888         estimate D2E/DX2                !
 ! R57   R(25,86)                1.0775         estimate D2E/DX2                !
 ! R58   R(26,27)                1.5183         estimate D2E/DX2                !
 ! R59   R(26,31)                1.394          estimate D2E/DX2                !
 ! R60   R(27,28)                1.5353         estimate D2E/DX2                !
 ! R61   R(27,29)                1.5305         estimate D2E/DX2                !
 ! R62   R(27,30)                1.5348         estimate D2E/DX2                !
 ! R63   R(28,87)                1.0882         estimate D2E/DX2                !
 ! R64   R(28,88)                1.0868         estimate D2E/DX2                !
 ! R65   R(28,89)                1.0877         estimate D2E/DX2                !
 ! R66   R(29,90)                1.0877         estimate D2E/DX2                !
 ! R67   R(29,91)                1.088          estimate D2E/DX2                !
 ! R68   R(29,92)                1.0875         estimate D2E/DX2                !
 ! R69   R(30,93)                1.0878         estimate D2E/DX2                !
 ! R70   R(30,94)                1.0866         estimate D2E/DX2                !
 ! R71   R(30,95)                1.0883         estimate D2E/DX2                !
 ! R72   R(31,32)                1.3837         estimate D2E/DX2                !
 ! R73   R(31,96)                1.0762         estimate D2E/DX2                !
 ! R74   R(32,33)                1.3191         estimate D2E/DX2                !
 ! R75   R(32,97)                1.0828         estimate D2E/DX2                !
 ! R76   R(34,35)                1.3814         estimate D2E/DX2                !
 ! R77   R(35,98)                1.0771         estimate D2E/DX2                !
 ! R78   R(36,37)                1.3949         estimate D2E/DX2                !
 ! R79   R(36,99)                1.0773         estimate D2E/DX2                !
 ! R80   R(37,38)                1.3824         estimate D2E/DX2                !
 ! R81   R(37,61)                1.3936         estimate D2E/DX2                !
 ! R82   R(38,39)                1.4495         estimate D2E/DX2                !
 ! R83   R(38,60)                1.3887         estimate D2E/DX2                !
 ! R84   R(39,40)                1.449          estimate D2E/DX2                !
 ! R85   R(39,100)               1.0997         estimate D2E/DX2                !
 ! R86   R(39,101)               1.1085         estimate D2E/DX2                !
 ! R87   R(40,41)                1.3872         estimate D2E/DX2                !
 ! R88   R(40,55)                1.3859         estimate D2E/DX2                !
 ! R89   R(41,42)                1.3923         estimate D2E/DX2                !
 ! R90   R(41,54)                1.3914         estimate D2E/DX2                !
 ! R91   R(42,43)                1.3874         estimate D2E/DX2                !
 ! R92   R(42,102)               1.0781         estimate D2E/DX2                !
 ! R93   R(43,44)                1.5226         estimate D2E/DX2                !
 ! R94   R(43,48)                1.3896         estimate D2E/DX2                !
 ! R95   R(44,45)                1.5351         estimate D2E/DX2                !
 ! R96   R(44,46)                1.5353         estimate D2E/DX2                !
 ! R97   R(44,47)                1.5312         estimate D2E/DX2                !
 ! R98   R(45,103)               1.0863         estimate D2E/DX2                !
 ! R99   R(45,104)               1.088          estimate D2E/DX2                !
 ! R100  R(45,105)               1.0881         estimate D2E/DX2                !
 ! R101  R(46,106)               1.0863         estimate D2E/DX2                !
 ! R102  R(46,107)               1.0881         estimate D2E/DX2                !
 ! R103  R(46,108)               1.0881         estimate D2E/DX2                !
 ! R104  R(47,109)               1.0883         estimate D2E/DX2                !
 ! R105  R(47,110)               1.0875         estimate D2E/DX2                !
 ! R106  R(47,111)               1.0875         estimate D2E/DX2                !
 ! R107  R(48,49)                1.3903         estimate D2E/DX2                !
 ! R108  R(48,112)               1.0737         estimate D2E/DX2                !
 ! R109  R(49,50)                1.5227         estimate D2E/DX2                !
 ! R110  R(49,54)                1.3864         estimate D2E/DX2                !
 ! R111  R(50,51)                1.5312         estimate D2E/DX2                !
 ! R112  R(50,52)                1.5353         estimate D2E/DX2                !
 ! R113  R(50,53)                1.5351         estimate D2E/DX2                !
 ! R114  R(51,113)               1.0876         estimate D2E/DX2                !
 ! R115  R(51,114)               1.0875         estimate D2E/DX2                !
 ! R116  R(51,115)               1.0884         estimate D2E/DX2                !
 ! R117  R(52,116)               1.0882         estimate D2E/DX2                !
 ! R118  R(52,117)               1.0863         estimate D2E/DX2                !
 ! R119  R(52,118)               1.0881         estimate D2E/DX2                !
 ! R120  R(53,119)               1.0865         estimate D2E/DX2                !
 ! R121  R(53,120)               1.0881         estimate D2E/DX2                !
 ! R122  R(53,121)               1.0881         estimate D2E/DX2                !
 ! R123  R(54,122)               1.0771         estimate D2E/DX2                !
 ! R124  R(55,56)                1.3794         estimate D2E/DX2                !
 ! R125  R(55,60)                1.4092         estimate D2E/DX2                !
 ! R126  R(56,57)                1.3922         estimate D2E/DX2                !
 ! R127  R(56,123)               1.078          estimate D2E/DX2                !
 ! R128  R(57,58)                1.3807         estimate D2E/DX2                !
 ! R129  R(57,124)               1.0796         estimate D2E/DX2                !
 ! R130  R(58,59)                1.3927         estimate D2E/DX2                !
 ! R131  R(58,125)               1.0796         estimate D2E/DX2                !
 ! R132  R(59,60)                1.3788         estimate D2E/DX2                !
 ! R133  R(59,126)               1.0779         estimate D2E/DX2                !
 ! R134  R(61,127)               1.0764         estimate D2E/DX2                !
 ! A1    A(2,1,62)             109.9909         estimate D2E/DX2                !
 ! A2    A(2,1,63)             111.5662         estimate D2E/DX2                !
 ! A3    A(2,1,64)             110.0694         estimate D2E/DX2                !
 ! A4    A(62,1,63)            108.5774         estimate D2E/DX2                !
 ! A5    A(62,1,64)            108.4856         estimate D2E/DX2                !
 ! A6    A(63,1,64)            108.0717         estimate D2E/DX2                !
 ! A7    A(1,2,3)              109.9263         estimate D2E/DX2                !
 ! A8    A(1,2,4)              107.5924         estimate D2E/DX2                !
 ! A9    A(1,2,5)              108.9182         estimate D2E/DX2                !
 ! A10   A(3,2,4)              108.5541         estimate D2E/DX2                !
 ! A11   A(3,2,5)              109.1727         estimate D2E/DX2                !
 ! A12   A(4,2,5)              112.6489         estimate D2E/DX2                !
 ! A13   A(2,3,65)             110.2597         estimate D2E/DX2                !
 ! A14   A(2,3,66)             110.1607         estimate D2E/DX2                !
 ! A15   A(2,3,67)             111.1994         estimate D2E/DX2                !
 ! A16   A(65,3,66)            108.5417         estimate D2E/DX2                !
 ! A17   A(65,3,67)            108.3516         estimate D2E/DX2                !
 ! A18   A(66,3,67)            108.2514         estimate D2E/DX2                !
 ! A19   A(2,4,68)             109.3807         estimate D2E/DX2                !
 ! A20   A(2,4,69)             110.994          estimate D2E/DX2                !
 ! A21   A(2,4,70)             111.338          estimate D2E/DX2                !
 ! A22   A(68,4,69)            108.0397         estimate D2E/DX2                !
 ! A23   A(68,4,70)            107.7909         estimate D2E/DX2                !
 ! A24   A(69,4,70)            109.1869         estimate D2E/DX2                !
 ! A25   A(2,5,6)              122.0772         estimate D2E/DX2                !
 ! A26   A(2,5,61)             119.2699         estimate D2E/DX2                !
 ! A27   A(6,5,61)             118.6528         estimate D2E/DX2                !
 ! A28   A(5,6,7)              120.397          estimate D2E/DX2                !
 ! A29   A(5,6,71)             121.1689         estimate D2E/DX2                !
 ! A30   A(7,6,71)             118.4342         estimate D2E/DX2                !
 ! A31   A(6,7,8)              122.4418         estimate D2E/DX2                !
 ! A32   A(6,7,36)             120.6696         estimate D2E/DX2                !
 ! A33   A(8,7,36)             116.8501         estimate D2E/DX2                !
 ! A34   A(7,8,9)              119.5161         estimate D2E/DX2                !
 ! A35   A(8,9,10)             116.598          estimate D2E/DX2                !
 ! A36   A(8,9,35)             122.4746         estimate D2E/DX2                !
 ! A37   A(10,9,35)            120.8838         estimate D2E/DX2                !
 ! A38   A(9,10,11)            120.9354         estimate D2E/DX2                !
 ! A39   A(9,10,72)            118.1363         estimate D2E/DX2                !
 ! A40   A(11,10,72)           120.9282         estimate D2E/DX2                !
 ! A41   A(10,11,12)           119.079          estimate D2E/DX2                !
 ! A42   A(10,11,73)           120.3697         estimate D2E/DX2                !
 ! A43   A(12,11,73)           120.5398         estimate D2E/DX2                !
 ! A44   A(11,12,13)           134.2633         estimate D2E/DX2                !
 ! A45   A(11,12,34)           119.3139         estimate D2E/DX2                !
 ! A46   A(13,12,34)           106.4158         estimate D2E/DX2                !
 ! A47   A(12,13,14)           132.7227         estimate D2E/DX2                !
 ! A48   A(12,13,22)           106.6159         estimate D2E/DX2                !
 ! A49   A(14,13,22)           120.6535         estimate D2E/DX2                !
 ! A50   A(13,14,15)           119.8164         estimate D2E/DX2                !
 ! A51   A(13,14,74)           118.4967         estimate D2E/DX2                !
 ! A52   A(15,14,74)           121.684          estimate D2E/DX2                !
 ! A53   A(14,15,16)           122.6585         estimate D2E/DX2                !
 ! A54   A(14,15,20)           118.439          estimate D2E/DX2                !
 ! A55   A(16,15,20)           118.8966         estimate D2E/DX2                !
 ! A56   A(15,16,17)           109.15           estimate D2E/DX2                !
 ! A57   A(15,16,18)           109.1641         estimate D2E/DX2                !
 ! A58   A(15,16,19)           112.5774         estimate D2E/DX2                !
 ! A59   A(17,16,18)           109.8178         estimate D2E/DX2                !
 ! A60   A(17,16,19)           108.021          estimate D2E/DX2                !
 ! A61   A(18,16,19)           108.0791         estimate D2E/DX2                !
 ! A62   A(16,17,75)           110.1658         estimate D2E/DX2                !
 ! A63   A(16,17,76)           111.4665         estimate D2E/DX2                !
 ! A64   A(16,17,77)           110.1679         estimate D2E/DX2                !
 ! A65   A(75,17,76)           108.1908         estimate D2E/DX2                !
 ! A66   A(75,17,77)           108.5012         estimate D2E/DX2                !
 ! A67   A(76,17,77)           108.2646         estimate D2E/DX2                !
 ! A68   A(16,18,78)           111.4534         estimate D2E/DX2                !
 ! A69   A(16,18,79)           110.1518         estimate D2E/DX2                !
 ! A70   A(16,18,80)           110.1701         estimate D2E/DX2                !
 ! A71   A(78,18,79)           108.2226         estimate D2E/DX2                !
 ! A72   A(78,18,80)           108.2271         estimate D2E/DX2                !
 ! A73   A(79,18,80)           108.5332         estimate D2E/DX2                !
 ! A74   A(16,19,81)           111.0835         estimate D2E/DX2                !
 ! A75   A(16,19,82)           109.4522         estimate D2E/DX2                !
 ! A76   A(16,19,83)           111.0667         estimate D2E/DX2                !
 ! A77   A(81,19,82)           107.9426         estimate D2E/DX2                !
 ! A78   A(81,19,83)           109.1933         estimate D2E/DX2                !
 ! A79   A(82,19,83)           108.0003         estimate D2E/DX2                !
 ! A80   A(15,20,21)           122.9062         estimate D2E/DX2                !
 ! A81   A(15,20,84)           119.4113         estimate D2E/DX2                !
 ! A82   A(21,20,84)           117.6808         estimate D2E/DX2                !
 ! A83   A(20,21,22)           118.1858         estimate D2E/DX2                !
 ! A84   A(20,21,85)           120.1907         estimate D2E/DX2                !
 ! A85   A(22,21,85)           121.6038         estimate D2E/DX2                !
 ! A86   A(13,22,21)           119.9439         estimate D2E/DX2                !
 ! A87   A(13,22,23)           109.4693         estimate D2E/DX2                !
 ! A88   A(21,22,23)           130.4673         estimate D2E/DX2                !
 ! A89   A(22,23,24)           127.3456         estimate D2E/DX2                !
 ! A90   A(22,23,34)           107.8016         estimate D2E/DX2                !
 ! A91   A(24,23,34)           124.0032         estimate D2E/DX2                !
 ! A92   A(23,24,25)           120.7988         estimate D2E/DX2                !
 ! A93   A(23,24,33)           116.6207         estimate D2E/DX2                !
 ! A94   A(25,24,33)           122.5012         estimate D2E/DX2                !
 ! A95   A(24,25,26)           119.7665         estimate D2E/DX2                !
 ! A96   A(24,25,86)           118.9819         estimate D2E/DX2                !
 ! A97   A(26,25,86)           121.2032         estimate D2E/DX2                !
 ! A98   A(25,26,27)           119.6728         estimate D2E/DX2                !
 ! A99   A(25,26,31)           116.9374         estimate D2E/DX2                !
 ! A100  A(27,26,31)           123.3698         estimate D2E/DX2                !
 ! A101  A(26,27,28)           108.4572         estimate D2E/DX2                !
 ! A102  A(26,27,29)           112.3934         estimate D2E/DX2                !
 ! A103  A(26,27,30)           109.1803         estimate D2E/DX2                !
 ! A104  A(28,27,29)           108.5113         estimate D2E/DX2                !
 ! A105  A(28,27,30)           109.9128         estimate D2E/DX2                !
 ! A106  A(29,27,30)           108.3688         estimate D2E/DX2                !
 ! A107  A(27,28,87)           110.2444         estimate D2E/DX2                !
 ! A108  A(27,28,88)           111.3639         estimate D2E/DX2                !
 ! A109  A(27,28,89)           110.0651         estimate D2E/DX2                !
 ! A110  A(87,28,88)           108.2451         estimate D2E/DX2                !
 ! A111  A(87,28,89)           108.533          estimate D2E/DX2                !
 ! A112  A(88,28,89)           108.3105         estimate D2E/DX2                !
 ! A113  A(27,29,90)           111.049          estimate D2E/DX2                !
 ! A114  A(27,29,91)           109.4557         estimate D2E/DX2                !
 ! A115  A(27,29,92)           111.1416         estimate D2E/DX2                !
 ! A116  A(90,29,91)           108.0309         estimate D2E/DX2                !
 ! A117  A(90,29,92)           109.1467         estimate D2E/DX2                !
 ! A118  A(91,29,92)           107.9136         estimate D2E/DX2                !
 ! A119  A(27,30,93)           110.0035         estimate D2E/DX2                !
 ! A120  A(27,30,94)           111.5218         estimate D2E/DX2                !
 ! A121  A(27,30,95)           110.2874         estimate D2E/DX2                !
 ! A122  A(93,30,94)           108.0721         estimate D2E/DX2                !
 ! A123  A(93,30,95)           108.44           estimate D2E/DX2                !
 ! A124  A(94,30,95)           108.4293         estimate D2E/DX2                !
 ! A125  A(26,31,32)           118.9654         estimate D2E/DX2                !
 ! A126  A(26,31,96)           121.8703         estimate D2E/DX2                !
 ! A127  A(32,31,96)           119.1585         estimate D2E/DX2                !
 ! A128  A(31,32,33)           124.0092         estimate D2E/DX2                !
 ! A129  A(31,32,97)           120.9624         estimate D2E/DX2                !
 ! A130  A(33,32,97)           115.0284         estimate D2E/DX2                !
 ! A131  A(24,33,32)           117.8039         estimate D2E/DX2                !
 ! A132  A(12,34,23)           109.6448         estimate D2E/DX2                !
 ! A133  A(12,34,35)           121.9375         estimate D2E/DX2                !
 ! A134  A(23,34,35)           128.356          estimate D2E/DX2                !
 ! A135  A(9,35,34)            117.7293         estimate D2E/DX2                !
 ! A136  A(9,35,98)            121.7496         estimate D2E/DX2                !
 ! A137  A(34,35,98)           120.5211         estimate D2E/DX2                !
 ! A138  A(7,36,37)            119.5337         estimate D2E/DX2                !
 ! A139  A(7,36,99)            118.8458         estimate D2E/DX2                !
 ! A140  A(37,36,99)           121.6132         estimate D2E/DX2                !
 ! A141  A(36,37,38)           119.3497         estimate D2E/DX2                !
 ! A142  A(36,37,61)           119.2029         estimate D2E/DX2                !
 ! A143  A(38,37,61)           121.4465         estimate D2E/DX2                !
 ! A144  A(37,38,39)           121.8924         estimate D2E/DX2                !
 ! A145  A(37,38,60)           128.9616         estimate D2E/DX2                !
 ! A146  A(39,38,60)           108.3493         estimate D2E/DX2                !
 ! A147  A(38,39,40)           104.3183         estimate D2E/DX2                !
 ! A148  A(38,39,100)          111.2228         estimate D2E/DX2                !
 ! A149  A(38,39,101)          110.5914         estimate D2E/DX2                !
 ! A150  A(40,39,100)          111.3315         estimate D2E/DX2                !
 ! A151  A(40,39,101)          110.7298         estimate D2E/DX2                !
 ! A152  A(100,39,101)         108.6254         estimate D2E/DX2                !
 ! A153  A(39,40,41)           122.1642         estimate D2E/DX2                !
 ! A154  A(39,40,55)           108.4234         estimate D2E/DX2                !
 ! A155  A(41,40,55)           128.5257         estimate D2E/DX2                !
 ! A156  A(40,41,42)           119.58           estimate D2E/DX2                !
 ! A157  A(40,41,54)           121.1813         estimate D2E/DX2                !
 ! A158  A(42,41,54)           119.2245         estimate D2E/DX2                !
 ! A159  A(41,42,43)           120.9299         estimate D2E/DX2                !
 ! A160  A(41,42,102)          118.8529         estimate D2E/DX2                !
 ! A161  A(43,42,102)          120.2137         estimate D2E/DX2                !
 ! A162  A(42,43,44)           118.8686         estimate D2E/DX2                !
 ! A163  A(42,43,48)           118.5586         estimate D2E/DX2                !
 ! A164  A(44,43,48)           122.572          estimate D2E/DX2                !
 ! A165  A(43,44,45)           109.0472         estimate D2E/DX2                !
 ! A166  A(43,44,46)           109.045          estimate D2E/DX2                !
 ! A167  A(43,44,47)           112.906          estimate D2E/DX2                !
 ! A168  A(45,44,46)           109.8128         estimate D2E/DX2                !
 ! A169  A(45,44,47)           108.0259         estimate D2E/DX2                !
 ! A170  A(46,44,47)           107.9704         estimate D2E/DX2                !
 ! A171  A(44,45,103)          111.4213         estimate D2E/DX2                !
 ! A172  A(44,45,104)          110.1585         estimate D2E/DX2                !
 ! A173  A(44,45,105)          110.1923         estimate D2E/DX2                !
 ! A174  A(103,45,104)         108.2145         estimate D2E/DX2                !
 ! A175  A(103,45,105)         108.2405         estimate D2E/DX2                !
 ! A176  A(104,45,105)         108.5314         estimate D2E/DX2                !
 ! A177  A(44,46,106)          111.484          estimate D2E/DX2                !
 ! A178  A(44,46,107)          110.1716         estimate D2E/DX2                !
 ! A179  A(44,46,108)          110.1713         estimate D2E/DX2                !
 ! A180  A(106,46,107)         108.1669         estimate D2E/DX2                !
 ! A181  A(106,46,108)         108.254          estimate D2E/DX2                !
 ! A182  A(107,46,108)         108.508          estimate D2E/DX2                !
 ! A183  A(44,47,109)          109.3985         estimate D2E/DX2                !
 ! A184  A(44,47,110)          111.1132         estimate D2E/DX2                !
 ! A185  A(44,47,111)          111.1482         estimate D2E/DX2                !
 ! A186  A(109,47,110)         107.946          estimate D2E/DX2                !
 ! A187  A(109,47,111)         107.8973         estimate D2E/DX2                !
 ! A188  A(110,47,111)         109.2292         estimate D2E/DX2                !
 ! A189  A(43,48,49)           121.7157         estimate D2E/DX2                !
 ! A190  A(43,48,112)          119.1452         estimate D2E/DX2                !
 ! A191  A(49,48,112)          119.1366         estimate D2E/DX2                !
 ! A192  A(48,49,50)           122.6015         estimate D2E/DX2                !
 ! A193  A(48,49,54)           118.6166         estimate D2E/DX2                !
 ! A194  A(50,49,54)           118.776          estimate D2E/DX2                !
 ! A195  A(49,50,51)           112.8937         estimate D2E/DX2                !
 ! A196  A(49,50,52)           109.1203         estimate D2E/DX2                !
 ! A197  A(49,50,53)           108.9353         estimate D2E/DX2                !
 ! A198  A(51,50,52)           107.9811         estimate D2E/DX2                !
 ! A199  A(51,50,53)           108.1258         estimate D2E/DX2                !
 ! A200  A(52,50,53)           109.7497         estimate D2E/DX2                !
 ! A201  A(50,51,113)          111.0809         estimate D2E/DX2                !
 ! A202  A(50,51,114)          111.1769         estimate D2E/DX2                !
 ! A203  A(50,51,115)          109.4123         estimate D2E/DX2                !
 ! A204  A(113,51,114)         109.2224         estimate D2E/DX2                !
 ! A205  A(113,51,115)         107.9741         estimate D2E/DX2                !
 ! A206  A(114,51,115)         107.8657         estimate D2E/DX2                !
 ! A207  A(50,52,116)          110.1939         estimate D2E/DX2                !
 ! A208  A(50,52,117)          111.4407         estimate D2E/DX2                !
 ! A209  A(50,52,118)          110.1748         estimate D2E/DX2                !
 ! A210  A(116,52,117)         108.3665         estimate D2E/DX2                !
 ! A211  A(116,52,118)         108.4965         estimate D2E/DX2                !
 ! A212  A(117,52,118)         108.0841         estimate D2E/DX2                !
 ! A213  A(50,53,119)          111.3515         estimate D2E/DX2                !
 ! A214  A(50,53,120)          110.1945         estimate D2E/DX2                !
 ! A215  A(50,53,121)          110.1773         estimate D2E/DX2                !
 ! A216  A(119,53,120)         108.2783         estimate D2E/DX2                !
 ! A217  A(119,53,121)         108.2315         estimate D2E/DX2                !
 ! A218  A(120,53,121)         108.5272         estimate D2E/DX2                !
 ! A219  A(41,54,49)           120.9155         estimate D2E/DX2                !
 ! A220  A(41,54,122)          118.5956         estimate D2E/DX2                !
 ! A221  A(49,54,122)          120.4658         estimate D2E/DX2                !
 ! A222  A(40,55,56)           130.5213         estimate D2E/DX2                !
 ! A223  A(40,55,60)           108.5723         estimate D2E/DX2                !
 ! A224  A(56,55,60)           120.7211         estimate D2E/DX2                !
 ! A225  A(55,56,57)           118.2284         estimate D2E/DX2                !
 ! A226  A(55,56,123)          121.3203         estimate D2E/DX2                !
 ! A227  A(57,56,123)          120.4223         estimate D2E/DX2                !
 ! A228  A(56,57,58)           121.0411         estimate D2E/DX2                !
 ! A229  A(56,57,124)          119.0967         estimate D2E/DX2                !
 ! A230  A(58,57,124)          119.8493         estimate D2E/DX2                !
 ! A231  A(57,58,59)           121.0497         estimate D2E/DX2                !
 ! A232  A(57,58,125)          119.8546         estimate D2E/DX2                !
 ! A233  A(59,58,125)          119.0844         estimate D2E/DX2                !
 ! A234  A(58,59,60)           118.2574         estimate D2E/DX2                !
 ! A235  A(58,59,126)          120.2782         estimate D2E/DX2                !
 ! A236  A(60,59,126)          121.4333         estimate D2E/DX2                !
 ! A237  A(38,60,55)           108.4012         estimate D2E/DX2                !
 ! A238  A(38,60,59)           130.7504         estimate D2E/DX2                !
 ! A239  A(55,60,59)           120.66           estimate D2E/DX2                !
 ! A240  A(5,61,37)            121.4841         estimate D2E/DX2                !
 ! A241  A(5,61,127)           120.0227         estimate D2E/DX2                !
 ! A242  A(37,61,127)          118.4564         estimate D2E/DX2                !
 ! D1    D(62,1,2,3)           178.0319         estimate D2E/DX2                !
 ! D2    D(62,1,2,4)           -63.933          estimate D2E/DX2                !
 ! D3    D(62,1,2,5)            58.4595         estimate D2E/DX2                !
 ! D4    D(63,1,2,3)            57.48           estimate D2E/DX2                !
 ! D5    D(63,1,2,4)           175.5151         estimate D2E/DX2                !
 ! D6    D(63,1,2,5)           -62.0924         estimate D2E/DX2                !
 ! D7    D(64,1,2,3)           -62.4883         estimate D2E/DX2                !
 ! D8    D(64,1,2,4)            55.5467         estimate D2E/DX2                !
 ! D9    D(64,1,2,5)           177.9392         estimate D2E/DX2                !
 ! D10   D(1,2,3,65)            60.7329         estimate D2E/DX2                !
 ! D11   D(1,2,3,66)          -179.4913         estimate D2E/DX2                !
 ! D12   D(1,2,3,67)           -59.4748         estimate D2E/DX2                !
 ! D13   D(4,2,3,65)           -56.7054         estimate D2E/DX2                !
 ! D14   D(4,2,3,66)            63.0705         estimate D2E/DX2                !
 ! D15   D(4,2,3,67)          -176.913          estimate D2E/DX2                !
 ! D16   D(5,2,3,65)          -179.85           estimate D2E/DX2                !
 ! D17   D(5,2,3,66)           -60.0741         estimate D2E/DX2                !
 ! D18   D(5,2,3,67)            59.9423         estimate D2E/DX2                !
 ! D19   D(1,2,4,68)           -58.0579         estimate D2E/DX2                !
 ! D20   D(1,2,4,69)            61.0602         estimate D2E/DX2                !
 ! D21   D(1,2,4,70)          -177.0806         estimate D2E/DX2                !
 ! D22   D(3,2,4,68)            60.8601         estimate D2E/DX2                !
 ! D23   D(3,2,4,69)           179.9782         estimate D2E/DX2                !
 ! D24   D(3,2,4,70)           -58.1626         estimate D2E/DX2                !
 ! D25   D(5,2,4,68)          -178.1142         estimate D2E/DX2                !
 ! D26   D(5,2,4,69)           -58.9961         estimate D2E/DX2                !
 ! D27   D(5,2,4,70)            62.8631         estimate D2E/DX2                !
 ! D28   D(1,2,5,6)           -123.5364         estimate D2E/DX2                !
 ! D29   D(1,2,5,61)            56.3886         estimate D2E/DX2                !
 ! D30   D(3,2,5,6)            116.424          estimate D2E/DX2                !
 ! D31   D(3,2,5,61)           -63.6509         estimate D2E/DX2                !
 ! D32   D(4,2,5,6)             -4.2478         estimate D2E/DX2                !
 ! D33   D(4,2,5,61)           175.6772         estimate D2E/DX2                !
 ! D34   D(2,5,6,7)            177.0217         estimate D2E/DX2                !
 ! D35   D(2,5,6,71)            -2.9424         estimate D2E/DX2                !
 ! D36   D(61,5,6,7)            -2.9038         estimate D2E/DX2                !
 ! D37   D(61,5,6,71)          177.1321         estimate D2E/DX2                !
 ! D38   D(2,5,61,37)         -178.3506         estimate D2E/DX2                !
 ! D39   D(2,5,61,127)           3.8908         estimate D2E/DX2                !
 ! D40   D(6,5,61,37)            1.577          estimate D2E/DX2                !
 ! D41   D(6,5,61,127)        -176.1816         estimate D2E/DX2                !
 ! D42   D(5,6,7,8)           -179.6501         estimate D2E/DX2                !
 ! D43   D(5,6,7,36)             2.6766         estimate D2E/DX2                !
 ! D44   D(71,6,7,8)             0.315          estimate D2E/DX2                !
 ! D45   D(71,6,7,36)         -177.3583         estimate D2E/DX2                !
 ! D46   D(6,7,8,9)             36.6845         estimate D2E/DX2                !
 ! D47   D(36,7,8,9)          -145.5586         estimate D2E/DX2                !
 ! D48   D(6,7,36,37)           -1.0326         estimate D2E/DX2                !
 ! D49   D(6,7,36,99)          179.9268         estimate D2E/DX2                !
 ! D50   D(8,7,36,37)         -178.8318         estimate D2E/DX2                !
 ! D51   D(8,7,36,99)            2.1276         estimate D2E/DX2                !
 ! D52   D(7,8,9,10)          -157.6695         estimate D2E/DX2                !
 ! D53   D(7,8,9,35)            24.7181         estimate D2E/DX2                !
 ! D54   D(8,9,10,11)         -179.1936         estimate D2E/DX2                !
 ! D55   D(8,9,10,72)            0.7506         estimate D2E/DX2                !
 ! D56   D(35,9,10,11)          -1.5407         estimate D2E/DX2                !
 ! D57   D(35,9,10,72)         178.4035         estimate D2E/DX2                !
 ! D58   D(8,9,35,34)         -178.6734         estimate D2E/DX2                !
 ! D59   D(8,9,35,98)            1.3282         estimate D2E/DX2                !
 ! D60   D(10,9,35,34)           3.8143         estimate D2E/DX2                !
 ! D61   D(10,9,35,98)        -176.1841         estimate D2E/DX2                !
 ! D62   D(9,10,11,12)          -1.3694         estimate D2E/DX2                !
 ! D63   D(9,10,11,73)         179.8582         estimate D2E/DX2                !
 ! D64   D(72,10,11,12)        178.688          estimate D2E/DX2                !
 ! D65   D(72,10,11,73)         -0.0844         estimate D2E/DX2                !
 ! D66   D(10,11,12,13)       -177.024          estimate D2E/DX2                !
 ! D67   D(10,11,12,34)          1.8689         estimate D2E/DX2                !
 ! D68   D(73,11,12,13)          1.7463         estimate D2E/DX2                !
 ! D69   D(73,11,12,34)       -179.3608         estimate D2E/DX2                !
 ! D70   D(11,12,13,14)         -3.5454         estimate D2E/DX2                !
 ! D71   D(11,12,13,22)        177.5007         estimate D2E/DX2                !
 ! D72   D(34,12,13,14)        177.461          estimate D2E/DX2                !
 ! D73   D(34,12,13,22)         -1.4929         estimate D2E/DX2                !
 ! D74   D(11,12,34,23)       -176.8587         estimate D2E/DX2                !
 ! D75   D(11,12,34,35)          0.5056         estimate D2E/DX2                !
 ! D76   D(13,12,34,23)          2.3148         estimate D2E/DX2                !
 ! D77   D(13,12,34,35)        179.6791         estimate D2E/DX2                !
 ! D78   D(12,13,14,15)       -178.0953         estimate D2E/DX2                !
 ! D79   D(12,13,14,74)          1.291          estimate D2E/DX2                !
 ! D80   D(22,13,14,15)          0.7395         estimate D2E/DX2                !
 ! D81   D(22,13,14,74)       -179.8743         estimate D2E/DX2                !
 ! D82   D(12,13,22,21)        176.5959         estimate D2E/DX2                !
 ! D83   D(12,13,22,23)          0.1663         estimate D2E/DX2                !
 ! D84   D(14,13,22,21)         -2.5108         estimate D2E/DX2                !
 ! D85   D(14,13,22,23)       -178.9404         estimate D2E/DX2                !
 ! D86   D(13,14,15,16)       -179.8067         estimate D2E/DX2                !
 ! D87   D(13,14,15,20)          1.0857         estimate D2E/DX2                !
 ! D88   D(74,14,15,16)          0.8271         estimate D2E/DX2                !
 ! D89   D(74,14,15,20)       -178.2805         estimate D2E/DX2                !
 ! D90   D(14,15,16,17)        121.3021         estimate D2E/DX2                !
 ! D91   D(14,15,16,18)       -118.6562         estimate D2E/DX2                !
 ! D92   D(14,15,16,19)          1.3643         estimate D2E/DX2                !
 ! D93   D(20,15,16,17)        -59.5942         estimate D2E/DX2                !
 ! D94   D(20,15,16,18)         60.4475         estimate D2E/DX2                !
 ! D95   D(20,15,16,19)       -179.532          estimate D2E/DX2                !
 ! D96   D(14,15,20,21)         -1.2325         estimate D2E/DX2                !
 ! D97   D(14,15,20,84)        178.2694         estimate D2E/DX2                !
 ! D98   D(16,15,20,21)        179.6256         estimate D2E/DX2                !
 ! D99   D(16,15,20,84)         -0.8725         estimate D2E/DX2                !
 ! D100  D(15,16,17,75)       -178.9011         estimate D2E/DX2                !
 ! D101  D(15,16,17,76)         60.9815         estimate D2E/DX2                !
 ! D102  D(15,16,17,77)        -59.2303         estimate D2E/DX2                !
 ! D103  D(18,16,17,75)         61.4605         estimate D2E/DX2                !
 ! D104  D(18,16,17,76)        -58.6569         estimate D2E/DX2                !
 ! D105  D(18,16,17,77)       -178.8687         estimate D2E/DX2                !
 ! D106  D(19,16,17,75)        -56.1929         estimate D2E/DX2                !
 ! D107  D(19,16,17,76)       -176.3103         estimate D2E/DX2                !
 ! D108  D(19,16,17,77)         63.4779         estimate D2E/DX2                !
 ! D109  D(15,16,18,78)        -61.1756         estimate D2E/DX2                !
 ! D110  D(15,16,18,79)         58.964          estimate D2E/DX2                !
 ! D111  D(15,16,18,80)        178.667          estimate D2E/DX2                !
 ! D112  D(17,16,18,78)         58.4542         estimate D2E/DX2                !
 ! D113  D(17,16,18,79)        178.5938         estimate D2E/DX2                !
 ! D114  D(17,16,18,80)        -61.7032         estimate D2E/DX2                !
 ! D115  D(19,16,18,78)        176.0714         estimate D2E/DX2                !
 ! D116  D(19,16,18,79)        -63.789          estimate D2E/DX2                !
 ! D117  D(19,16,18,80)         55.914          estimate D2E/DX2                !
 ! D118  D(15,16,19,81)        -61.5992         estimate D2E/DX2                !
 ! D119  D(15,16,19,82)        179.3021         estimate D2E/DX2                !
 ! D120  D(15,16,19,83)         60.1423         estimate D2E/DX2                !
 ! D121  D(17,16,19,81)        177.8124         estimate D2E/DX2                !
 ! D122  D(17,16,19,82)         58.7136         estimate D2E/DX2                !
 ! D123  D(17,16,19,83)        -60.4461         estimate D2E/DX2                !
 ! D124  D(18,16,19,81)         59.0461         estimate D2E/DX2                !
 ! D125  D(18,16,19,82)        -60.0526         estimate D2E/DX2                !
 ! D126  D(18,16,19,83)       -179.2123         estimate D2E/DX2                !
 ! D127  D(15,20,21,22)         -0.503          estimate D2E/DX2                !
 ! D128  D(15,20,21,85)        177.9062         estimate D2E/DX2                !
 ! D129  D(84,20,21,22)        179.987          estimate D2E/DX2                !
 ! D130  D(84,20,21,85)         -1.6039         estimate D2E/DX2                !
 ! D131  D(20,21,22,13)          2.3444         estimate D2E/DX2                !
 ! D132  D(20,21,22,23)        177.9181         estimate D2E/DX2                !
 ! D133  D(85,21,22,13)       -176.0411         estimate D2E/DX2                !
 ! D134  D(85,21,22,23)         -0.4674         estimate D2E/DX2                !
 ! D135  D(13,22,23,24)       -168.426          estimate D2E/DX2                !
 ! D136  D(13,22,23,34)          1.2601         estimate D2E/DX2                !
 ! D137  D(21,22,23,24)         15.6414         estimate D2E/DX2                !
 ! D138  D(21,22,23,34)       -174.6725         estimate D2E/DX2                !
 ! D139  D(22,23,24,25)         32.9003         estimate D2E/DX2                !
 ! D140  D(22,23,24,33)       -150.2597         estimate D2E/DX2                !
 ! D141  D(34,23,24,25)       -135.2333         estimate D2E/DX2                !
 ! D142  D(34,23,24,33)         41.6067         estimate D2E/DX2                !
 ! D143  D(22,23,34,12)         -2.2384         estimate D2E/DX2                !
 ! D144  D(22,23,34,35)       -179.3859         estimate D2E/DX2                !
 ! D145  D(24,23,34,12)        167.8752         estimate D2E/DX2                !
 ! D146  D(24,23,34,35)         -9.2723         estimate D2E/DX2                !
 ! D147  D(23,24,25,26)        177.9455         estimate D2E/DX2                !
 ! D148  D(23,24,25,86)          0.4425         estimate D2E/DX2                !
 ! D149  D(33,24,25,26)          1.2954         estimate D2E/DX2                !
 ! D150  D(33,24,25,86)       -176.2076         estimate D2E/DX2                !
 ! D151  D(23,24,33,32)       -177.8777         estimate D2E/DX2                !
 ! D152  D(25,24,33,32)         -1.0962         estimate D2E/DX2                !
 ! D153  D(24,25,26,27)       -178.7508         estimate D2E/DX2                !
 ! D154  D(24,25,26,31)         -0.3212         estimate D2E/DX2                !
 ! D155  D(86,25,26,27)         -1.3046         estimate D2E/DX2                !
 ! D156  D(86,25,26,31)        177.125          estimate D2E/DX2                !
 ! D157  D(25,26,27,28)         62.6756         estimate D2E/DX2                !
 ! D158  D(25,26,27,29)       -177.3554         estimate D2E/DX2                !
 ! D159  D(25,26,27,30)        -57.0775         estimate D2E/DX2                !
 ! D160  D(31,26,27,28)       -115.648          estimate D2E/DX2                !
 ! D161  D(31,26,27,29)          4.321          estimate D2E/DX2                !
 ! D162  D(31,26,27,30)        124.5989         estimate D2E/DX2                !
 ! D163  D(25,26,31,32)         -0.7348         estimate D2E/DX2                !
 ! D164  D(25,26,31,96)       -179.8568         estimate D2E/DX2                !
 ! D165  D(27,26,31,32)        177.6314         estimate D2E/DX2                !
 ! D166  D(27,26,31,96)         -1.4906         estimate D2E/DX2                !
 ! D167  D(26,27,28,87)         59.3354         estimate D2E/DX2                !
 ! D168  D(26,27,28,88)        -60.8358         estimate D2E/DX2                !
 ! D169  D(26,27,28,89)        179.0303         estimate D2E/DX2                !
 ! D170  D(29,27,28,87)        -63.0279         estimate D2E/DX2                !
 ! D171  D(29,27,28,88)        176.8009         estimate D2E/DX2                !
 ! D172  D(29,27,28,89)         56.6669         estimate D2E/DX2                !
 ! D173  D(30,27,28,87)        178.6293         estimate D2E/DX2                !
 ! D174  D(30,27,28,88)         58.4581         estimate D2E/DX2                !
 ! D175  D(30,27,28,89)        -61.6758         estimate D2E/DX2                !
 ! D176  D(26,27,29,90)         59.6821         estimate D2E/DX2                !
 ! D177  D(26,27,29,91)        178.8711         estimate D2E/DX2                !
 ! D178  D(26,27,29,92)        -62.0278         estimate D2E/DX2                !
 ! D179  D(28,27,29,90)        179.6198         estimate D2E/DX2                !
 ! D180  D(28,27,29,91)        -61.1913         estimate D2E/DX2                !
 ! D181  D(28,27,29,92)         57.9098         estimate D2E/DX2                !
 ! D182  D(30,27,29,90)        -61.0639         estimate D2E/DX2                !
 ! D183  D(30,27,29,91)         58.1251         estimate D2E/DX2                !
 ! D184  D(30,27,29,92)        177.2262         estimate D2E/DX2                !
 ! D185  D(26,27,30,93)       -178.1657         estimate D2E/DX2                !
 ! D186  D(26,27,30,94)         61.938          estimate D2E/DX2                !
 ! D187  D(26,27,30,95)        -58.5979         estimate D2E/DX2                !
 ! D188  D(28,27,30,93)         62.9837         estimate D2E/DX2                !
 ! D189  D(28,27,30,94)        -56.9126         estimate D2E/DX2                !
 ! D190  D(28,27,30,95)       -177.4485         estimate D2E/DX2                !
 ! D191  D(29,27,30,93)        -55.447          estimate D2E/DX2                !
 ! D192  D(29,27,30,94)       -175.3433         estimate D2E/DX2                !
 ! D193  D(29,27,30,95)         64.1208         estimate D2E/DX2                !
 ! D194  D(26,31,32,33)          0.977          estimate D2E/DX2                !
 ! D195  D(26,31,32,97)       -179.0299         estimate D2E/DX2                !
 ! D196  D(96,31,32,33)       -179.8768         estimate D2E/DX2                !
 ! D197  D(96,31,32,97)          0.1163         estimate D2E/DX2                !
 ! D198  D(31,32,33,24)         -0.0486         estimate D2E/DX2                !
 ! D199  D(97,32,33,24)        179.9579         estimate D2E/DX2                !
 ! D200  D(12,34,35,9)          -3.3169         estimate D2E/DX2                !
 ! D201  D(12,34,35,98)        176.6815         estimate D2E/DX2                !
 ! D202  D(23,34,35,9)         173.5172         estimate D2E/DX2                !
 ! D203  D(23,34,35,98)         -6.4844         estimate D2E/DX2                !
 ! D204  D(7,36,37,38)         179.3685         estimate D2E/DX2                !
 ! D205  D(7,36,37,61)          -0.303          estimate D2E/DX2                !
 ! D206  D(99,36,37,38)         -1.6183         estimate D2E/DX2                !
 ! D207  D(99,36,37,61)        178.7103         estimate D2E/DX2                !
 ! D208  D(36,37,38,39)        -30.5867         estimate D2E/DX2                !
 ! D209  D(36,37,38,60)        160.8757         estimate D2E/DX2                !
 ! D210  D(61,37,38,39)        149.0771         estimate D2E/DX2                !
 ! D211  D(61,37,38,60)        -19.4604         estimate D2E/DX2                !
 ! D212  D(36,37,61,5)           0.0199         estimate D2E/DX2                !
 ! D213  D(36,37,61,127)       177.8125         estimate D2E/DX2                !
 ! D214  D(38,37,61,5)        -179.6445         estimate D2E/DX2                !
 ! D215  D(38,37,61,127)        -1.8519         estimate D2E/DX2                !
 ! D216  D(37,38,39,40)       -157.0869         estimate D2E/DX2                !
 ! D217  D(37,38,39,100)       -36.9641         estimate D2E/DX2                !
 ! D218  D(37,38,39,101)        83.8262         estimate D2E/DX2                !
 ! D219  D(60,38,39,40)         13.5436         estimate D2E/DX2                !
 ! D220  D(60,38,39,100)       133.6665         estimate D2E/DX2                !
 ! D221  D(60,38,39,101)      -105.5433         estimate D2E/DX2                !
 ! D222  D(37,38,60,55)        160.8558         estimate D2E/DX2                !
 ! D223  D(37,38,60,59)        -24.2262         estimate D2E/DX2                !
 ! D224  D(39,38,60,55)         -8.9045         estimate D2E/DX2                !
 ! D225  D(39,38,60,59)        166.0134         estimate D2E/DX2                !
 ! D226  D(38,39,40,41)        156.7134         estimate D2E/DX2                !
 ! D227  D(38,39,40,55)        -13.356          estimate D2E/DX2                !
 ! D228  D(100,39,40,41)        36.6636         estimate D2E/DX2                !
 ! D229  D(100,39,40,55)      -133.4058         estimate D2E/DX2                !
 ! D230  D(101,39,40,41)       -84.2937         estimate D2E/DX2                !
 ! D231  D(101,39,40,55)       105.6369         estimate D2E/DX2                !
 ! D232  D(39,40,41,42)         32.1602         estimate D2E/DX2                !
 ! D233  D(39,40,41,54)       -146.4591         estimate D2E/DX2                !
 ! D234  D(55,40,41,42)       -159.9118         estimate D2E/DX2                !
 ! D235  D(55,40,41,54)         21.469          estimate D2E/DX2                !
 ! D236  D(39,40,55,56)       -166.5658         estimate D2E/DX2                !
 ! D237  D(39,40,55,60)          8.4013         estimate D2E/DX2                !
 ! D238  D(41,40,55,56)         24.189          estimate D2E/DX2                !
 ! D239  D(41,40,55,60)       -160.8439         estimate D2E/DX2                !
 ! D240  D(40,41,42,43)        179.9346         estimate D2E/DX2                !
 ! D241  D(40,41,42,102)         0.6191         estimate D2E/DX2                !
 ! D242  D(54,41,42,43)         -1.4189         estimate D2E/DX2                !
 ! D243  D(54,41,42,102)       179.2655         estimate D2E/DX2                !
 ! D244  D(40,41,54,49)       -179.127          estimate D2E/DX2                !
 ! D245  D(40,41,54,122)         2.6136         estimate D2E/DX2                !
 ! D246  D(42,41,54,49)          2.2489         estimate D2E/DX2                !
 ! D247  D(42,41,54,122)      -176.0105         estimate D2E/DX2                !
 ! D248  D(41,42,43,44)       -179.9995         estimate D2E/DX2                !
 ! D249  D(41,42,43,48)         -0.3273         estimate D2E/DX2                !
 ! D250  D(102,42,43,44)        -0.6932         estimate D2E/DX2                !
 ! D251  D(102,42,43,48)       178.979          estimate D2E/DX2                !
 ! D252  D(42,43,44,45)         60.6151         estimate D2E/DX2                !
 ! D253  D(42,43,44,46)        -59.2875         estimate D2E/DX2                !
 ! D254  D(42,43,44,47)       -179.3004         estimate D2E/DX2                !
 ! D255  D(48,43,44,45)       -119.0433         estimate D2E/DX2                !
 ! D256  D(48,43,44,46)        121.0541         estimate D2E/DX2                !
 ! D257  D(48,43,44,47)          1.0412         estimate D2E/DX2                !
 ! D258  D(42,43,48,49)          1.31           estimate D2E/DX2                !
 ! D259  D(42,43,48,112)      -179.2652         estimate D2E/DX2                !
 ! D260  D(44,43,48,49)       -179.0306         estimate D2E/DX2                !
 ! D261  D(44,43,48,112)         0.3942         estimate D2E/DX2                !
 ! D262  D(43,44,45,103)       -60.8327         estimate D2E/DX2                !
 ! D263  D(43,44,45,104)        59.2802         estimate D2E/DX2                !
 ! D264  D(43,44,45,105)       178.9993         estimate D2E/DX2                !
 ! D265  D(46,44,45,103)        58.5944         estimate D2E/DX2                !
 ! D266  D(46,44,45,104)       178.7073         estimate D2E/DX2                !
 ! D267  D(46,44,45,105)       -61.5737         estimate D2E/DX2                !
 ! D268  D(47,44,45,103)       176.1174         estimate D2E/DX2                !
 ! D269  D(47,44,45,104)       -63.7697         estimate D2E/DX2                !
 ! D270  D(47,44,45,105)        55.9494         estimate D2E/DX2                !
 ! D271  D(43,44,46,106)        61.2653         estimate D2E/DX2                !
 ! D272  D(43,44,46,107)      -178.6319         estimate D2E/DX2                !
 ! D273  D(43,44,46,108)       -58.9468         estimate D2E/DX2                !
 ! D274  D(45,44,46,106)       -58.1632         estimate D2E/DX2                !
 ! D275  D(45,44,46,107)        61.9396         estimate D2E/DX2                !
 ! D276  D(45,44,46,108)      -178.3753         estimate D2E/DX2                !
[...]
 Alpha virt. eigenvalues --    0.97654   0.97966   0.98261   0.98747   0.99021
 Alpha virt. eigenvalues --    0.99277   0.99538   0.99597   0.99807   1.00029
 Alpha virt. eigenvalues --    1.00242   1.00380   1.00555   1.00696   1.01091
 Alpha virt. eigenvalues --    1.01304   1.01548   1.01615   1.02048   1.02276
 Alpha virt. eigenvalues --    1.02547   1.02849   1.03066   1.03832   1.04820
 Alpha virt. eigenvalues --    1.05769   1.05973   1.06754   1.07020   1.07552
 Alpha virt. eigenvalues --    1.07918   1.08343   1.09687   1.09774   1.10346
 Alpha virt. eigenvalues --    1.10820   1.11338   1.11748   1.12918   1.13194
 Alpha virt. eigenvalues --    1.13938   1.14363   1.15003   1.15646   1.16566
 Alpha virt. eigenvalues --    1.16629   1.16951   1.17074   1.17335   1.18095
 Alpha virt. eigenvalues --    1.18407   1.19175   1.19771   1.20491   1.20747
 Alpha virt. eigenvalues --    1.21227   1.21248   1.21501   1.21809   1.22215
 Alpha virt. eigenvalues --    1.23258   1.23703   1.23999   1.24908   1.25394
 Alpha virt. eigenvalues --    1.26031   1.26516   1.27025   1.27692   1.28086
 Alpha virt. eigenvalues --    1.28553   1.29155   1.29826   1.31220   1.32586
 Alpha virt. eigenvalues --    1.32761   1.33179   1.33804   1.34488   1.34658
 Alpha virt. eigenvalues --    1.34741   1.34806   1.35136   1.35360   1.35841
 Alpha virt. eigenvalues --    1.35917   1.38170   1.39620   1.40210   1.40642
 Alpha virt. eigenvalues --    1.41823   1.42332   1.43283   1.43671   1.43756
 Alpha virt. eigenvalues --    1.44952   1.45186   1.45641   1.46266   1.46612
 Alpha virt. eigenvalues --    1.47058   1.47229   1.47330   1.47671   1.47872
 Alpha virt. eigenvalues --    1.48250   1.48686   1.48860   1.49276   1.49669
 Alpha virt. eigenvalues --    1.50143   1.50426   1.50587   1.51293   1.51825
 Alpha virt. eigenvalues --    1.51967   1.52875   1.53058   1.53256   1.53454
 Alpha virt. eigenvalues --    1.54277   1.54502   1.55948   1.56067   1.57486
 Alpha virt. eigenvalues --    1.58496   1.59018   1.59602   1.60052   1.61815
 Alpha virt. eigenvalues --    1.62329   1.62698   1.63463   1.64604   1.65503
 Alpha virt. eigenvalues --    1.65646   1.66085   1.66310   1.66415   1.66493
 Alpha virt. eigenvalues --    1.67121   1.67206   1.67735   1.67989   1.69222
 Alpha virt. eigenvalues --    1.69724   1.70632   1.71311   1.71424   1.71891
 Alpha virt. eigenvalues --    1.72814   1.72884   1.72931   1.73124   1.74378
 Alpha virt. eigenvalues --    1.74537   1.75130   1.75354   1.76529   1.76685
 Alpha virt. eigenvalues --    1.77705   1.78475   1.78639   1.78845   1.78919
 Alpha virt. eigenvalues --    1.79289   1.80320   1.81411   1.81824   1.81908
 Alpha virt. eigenvalues --    1.82236   1.82682   1.83425   1.83801   1.84807
 Alpha virt. eigenvalues --    1.85055   1.85505   1.85607   1.85841   1.86148
 Alpha virt. eigenvalues --    1.86254   1.86470   1.86625   1.86747   1.86869
 Alpha virt. eigenvalues --    1.86984   1.87663   1.87843   1.88109   1.88311
 Alpha virt. eigenvalues --    1.89079   1.89516   1.89696   1.89986   1.90309
 Alpha virt. eigenvalues --    1.90796   1.91158   1.91620   1.92036   1.92379
 Alpha virt. eigenvalues --    1.92899   1.93058   1.93413   1.93873   1.94195
 Alpha virt. eigenvalues --    1.94690   1.95453   1.95603   1.96122   1.96799
 Alpha virt. eigenvalues --    1.97104   1.97556   1.97772   1.98036   1.98230
 Alpha virt. eigenvalues --    1.98525   1.99015   1.99226   1.99874   2.00756
 Alpha virt. eigenvalues --    2.01014   2.02260   2.02508   2.03221   2.03685
 Alpha virt. eigenvalues --    2.04975   2.05104   2.06558   2.06788   2.07074
 Alpha virt. eigenvalues --    2.07576   2.08039   2.08317   2.08551   2.08680
 Alpha virt. eigenvalues --    2.09000   2.09196   2.09354   2.09505   2.09699
 Alpha virt. eigenvalues --    2.10369   2.11128   2.11804   2.12039   2.12463
 Alpha virt. eigenvalues --    2.12964   2.13374   2.14501   2.14654   2.14821
 Alpha virt. eigenvalues --    2.15398   2.15455   2.15840   2.16417   2.16810
 Alpha virt. eigenvalues --    2.16891   2.17372   2.17639   2.17765   2.17980
 Alpha virt. eigenvalues --    2.18288   2.18351   2.18921   2.19178   2.19439
 Alpha virt. eigenvalues --    2.19762   2.20079   2.21151   2.22094   2.22557
 Alpha virt. eigenvalues --    2.23111   2.23453   2.23782   2.23947   2.24053
 Alpha virt. eigenvalues --    2.24239   2.24400   2.24882   2.25057   2.25170
 Alpha virt. eigenvalues --    2.25218   2.25257   2.25603   2.25712   2.25996
 Alpha virt. eigenvalues --    2.26353   2.26638   2.26880   2.26918   2.27207
 Alpha virt. eigenvalues --    2.27313   2.27376   2.27508   2.27762   2.28166
 Alpha virt. eigenvalues --    2.28802   2.29058   2.29118   2.29394   2.29414
 Alpha virt. eigenvalues --    2.29536   2.29913   2.30094   2.30106   2.30352
 Alpha virt. eigenvalues --    2.30704   2.31472   2.31530   2.31673   2.32278
 Alpha virt. eigenvalues --    2.32406   2.32805   2.33916   2.33954   2.34615
 Alpha virt. eigenvalues --    2.36140   2.36378   2.37470   2.38041   2.39033
 Alpha virt. eigenvalues --    2.40272   2.40878   2.42494   2.44014   2.44295
 Alpha virt. eigenvalues --    2.45770   2.46154   2.46947   2.47997   2.48585
 Alpha virt. eigenvalues --    2.48838   2.49848   2.50591   2.50832   2.53119
 Alpha virt. eigenvalues --    2.53835   2.54432   2.54951   2.55275   2.56070
 Alpha virt. eigenvalues --    2.56522   2.57138   2.57747   2.58153   2.58756
 Alpha virt. eigenvalues --    2.59594   2.59918   2.60678   2.60912   2.61693
 Alpha virt. eigenvalues --    2.62609   2.62804   2.63464   2.64042   2.64820
 Alpha virt. eigenvalues --    2.65120   2.65606   2.65824   2.66746   2.67545
 Alpha virt. eigenvalues --    2.67907   2.68531   2.68783   2.69252   2.69554
 Alpha virt. eigenvalues --    2.69851   2.71061   2.71399   2.71662   2.72062
 Alpha virt. eigenvalues --    2.72173   2.72695   2.73053   2.73134   2.73717
 Alpha virt. eigenvalues --    2.75034   2.75524   2.76015   2.76694   2.77906
 Alpha virt. eigenvalues --    2.78696   2.79416   2.79747   2.80398   2.81233
 Alpha virt. eigenvalues --    2.82344   2.82658   2.84460   2.85379   2.86258
 Alpha virt. eigenvalues --    2.87095   2.87885   2.88365   2.89026   2.90423
 Alpha virt. eigenvalues --    2.90828   2.92301   2.93891   2.94087   2.95516
 Alpha virt. eigenvalues --    2.96272   2.97856   2.99410   3.02038   3.03505
 Alpha virt. eigenvalues --    3.03727   3.04482   3.08635   3.09811   3.13325
 Alpha virt. eigenvalues --    3.20752   3.21179   3.25295   3.30201   3.35761
 Alpha virt. eigenvalues --    3.36672   3.37855   3.43962   3.44924   3.45518
 Alpha virt. eigenvalues --    3.48263   3.54283   4.08735   4.09829   4.10396
 Alpha virt. eigenvalues --    4.12072   4.12591   4.13094   4.13481   4.13652
 Alpha virt. eigenvalues --    4.15039   4.15283   4.16851   4.17243   4.17391
 Alpha virt. eigenvalues --    4.18027   4.18534   4.18766   4.19568   4.20692
 Alpha virt. eigenvalues --    4.21076   4.22070   4.22715   4.22927   4.23208
 Alpha virt. eigenvalues --    4.24352   4.28434   4.29951   4.30849   4.30885
 Alpha virt. eigenvalues --    4.30919   4.31491   4.31509   4.31775   4.32261
 Alpha virt. eigenvalues --    4.32789   4.33093   4.33942   4.35879   4.38637
 Alpha virt. eigenvalues --    4.38974   4.39898   4.40717   4.42716   4.43010
 Alpha virt. eigenvalues --    4.44456   4.47094   4.48586   4.50821   4.52279
 Alpha virt. eigenvalues --    4.52946   4.61182   4.64247   4.65934   4.69467
 Alpha virt. eigenvalues --    4.71142   4.71172   4.74110   4.78467   4.80006
 Alpha virt. eigenvalues --    4.83468   4.85824   4.89352
          Condensed to atoms (all electrons):
 Mulliken charges:
               1
     1  C   -0.442238
     2  C    0.016476
     3  C   -0.439321
     4  C   -0.457543
     5  C    0.167241
     6  C   -0.252544
     7  C    0.374147
     8  O   -0.591637
     9  C    0.352339
    10  C   -0.193884
    11  C   -0.205016
    12  C    0.063731
    13  C    0.066067
    14  C   -0.281415
    15  C    0.174729
    16  C    0.014567
    17  C   -0.437736
    18  C   -0.437945
    19  C   -0.453964
    20  C   -0.205124
    21  C   -0.180088
    22  C    0.318027
    23  N   -0.736656
    24  C    0.467760
    25  C   -0.232139
    26  C    0.198021
    27  C    0.014113
    28  C   -0.442122
    29  C   -0.459526
    30  C   -0.445382
    31  C   -0.209492
    32  C    0.039622
    33  N   -0.474216
    34  C    0.311861
    35  C   -0.213464
    36  C   -0.263055
    37  C    0.358857
    38  N   -0.686104
    39  C    0.060063
    40  N   -0.684852
    41  C    0.360267
    42  C   -0.269050
    43  C    0.191975
    44  C    0.015241
    45  C   -0.437956
    46  C   -0.437682
    47  C   -0.455984
    48  C   -0.285347
    49  C    0.182056
    50  C    0.016860
    51  C   -0.455944
    52  C   -0.441680
    53  C   -0.438876
    54  C   -0.254784
    55  C    0.325114
    56  C   -0.189751
    57  C   -0.148170
    58  C   -0.149187
    59  C   -0.188691
    60  C    0.323228
    61  C   -0.249208
    62  H    0.146841
    63  H    0.144705
    64  H    0.137469
    65  H    0.137193
    66  H    0.148716
    67  H    0.147200
    68  H    0.139377
    69  H    0.148476
    70  H    0.148617
    71  H    0.141902
    72  H    0.135321
    73  H    0.132539
    74  H    0.126857
    75  H    0.136655
    76  H    0.140018
    77  H    0.145992
    78  H    0.140936
    79  H    0.147943
    80  H    0.136409
    81  H    0.145656
    82  H    0.140036
    83  H    0.144640
    84  H    0.121262
    85  H    0.141450
    86  H    0.155052
    87  H    0.151330
    88  H    0.150077
    89  H    0.145252
    90  H    0.149203
    91  H    0.146875
    92  H    0.149112
    93  H    0.145867
    94  H    0.148702
    95  H    0.151420
    96  H    0.136864
    97  H    0.146144
    98  H    0.174610
    99  H    0.139925
   100  H    0.169403
   101  H    0.146055
   102  H    0.127165
   103  H    0.142233
   104  H    0.147404
   105  H    0.137906
   106  H    0.140505
   107  H    0.138394
   108  H    0.147214
   109  H    0.140138
   110  H    0.145483
   111  H    0.145630
   112  H    0.121699
   113  H    0.145197
   114  H    0.145514
   115  H    0.139816
   116  H    0.146730
   117  H    0.144242
   118  H    0.137705
   119  H    0.146659
   120  H    0.136899
   121  H    0.146684
   122  H    0.140168
   123  H    0.144319
   124  H    0.121881
   125  H    0.120957
   126  H    0.143057
   127  H    0.139712
 Sum of Mulliken charges =  -0.00000
 Mulliken charges with hydrogens summed into heavy atoms:
               1
     1  C   -0.013223
     2  C    0.016476
     3  C   -0.006213
     4  C   -0.021072
     5  C    0.167241
     6  C   -0.110642
     7  C    0.374147
     8  O   -0.591637
     9  C    0.352339
    10  C   -0.058563
    11  C   -0.072477
    12  C    0.063731
    13  C    0.066067
    14  C   -0.154558
    15  C    0.174729
    16  C    0.014567
    17  C   -0.015072
    18  C   -0.012657
    19  C   -0.023632
    20  C   -0.083862
    21  C   -0.038638
    22  C    0.318027
    23  N   -0.736656
    24  C    0.467760
    25  C   -0.077087
    26  C    0.198021
    27  C    0.014113
    28  C    0.004537
    29  C   -0.014335
    30  C    0.000607
    31  C   -0.072628
    32  C    0.185766
    33  N   -0.474216
    34  C    0.311861
    35  C   -0.038854
    36  C   -0.123130
    37  C    0.358857
    38  N   -0.686104
    39  C    0.375521
    40  N   -0.684852
    41  C    0.360267
    42  C   -0.141885
    43  C    0.191975
    44  C    0.015241
    45  C   -0.010412
    46  C   -0.011569
    47  C   -0.024734
    48  C   -0.163648
    49  C    0.182056
    50  C    0.016860
    51  C   -0.025417
    52  C   -0.013003
    53  C   -0.008634
    54  C   -0.114615
    55  C    0.325114
    56  C   -0.045431
    57  C   -0.026289
    58  C   -0.028230
    59  C   -0.045634
    60  C    0.323228
    61  C   -0.109496
 Electronic spatial extent (au):  <R**2>=          81473.8988
 Charge=             -0.0000 electrons
 Dipole moment (field-independent basis, Debye):
    X=             -2.2647    Y=              2.3823    Z=             -0.0958  Tot=              3.2884
 Quadrupole moment (field-independent basis, Debye-Ang):
   XX=           -326.9053   YY=           -343.1786   ZZ=           -366.2330
   XY=            -20.1392   XZ=              1.0290   YZ=             -5.8513
 Traceless Quadrupole moment (field-independent basis, Debye-Ang):
   XX=             18.5336   YY=              2.2604   ZZ=            -20.7940
   XY=            -20.1392   XZ=              1.0290   YZ=             -5.8513
 Octapole moment (field-independent basis, Debye-Ang**2):
  XXX=            -94.8132  YYY=             31.4191  ZZZ=              6.8563  XYY=            -71.3676
  XXY=             33.1840  XXZ=            -38.0212  XZZ=            -22.5558  YZZ=             16.4811
  YYZ=             -8.9897  XYZ=             57.2262
 Hexadecapole moment (field-independent basis, Debye-Ang**3):
 XXXX=         -85537.6914 YYYY=         -17415.8276 ZZZZ=          -5784.3722 XXXY=           -346.3804
 XXXZ=            340.9958 YYYX=           -280.1824 YYYZ=           -160.1266 ZZZX=             26.8332
 ZZZY=            -32.4694 XXYY=         -17052.1333 XXZZ=         -16125.2004 YYZZ=          -3877.2538
 XXYZ=           -292.2090 YYXZ=            -65.9099 ZZXY=           -144.6742
 N-N= 8.177967439390D+03 E-N=-2.207135369343D+04  KE= 2.444031706529D+03
 Leave Link  601 at Sat Nov  5 03:49:23 2022, MaxMem=   805306368 cpu:               1.9 elap:               0.3
 (Enter /home/wykgroup/appl/g16/l9999.exe)
 1\1\GINC-NODE23\FOpt\RB3LYP\6-31G(d)\C56H66N4O1\WYKGROUP\05-Nov-2022\0
 \\#p b3lyp/6-31g(d) opt SCF=XQC\\Gaussian input prepared by ASE\\0,1\C
 ,0.7418039456,4.2247095679,-1.9678133478\C,0.4791354064,3.0065439392,-
 2.8845177922\C,-0.5287215144,3.4041967989,-3.989095211\C,1.8084390282,
 2.626312276,-3.5641251971\C,-0.1045533828,1.8497964254,-2.0482121944\C
 ,0.5140103583,0.595202617,-1.9863970571\C,-0.0719613194,-0.4292026706,
 -1.238053325\O,0.4470802489,-1.7093328202,-1.2059296751\C,1.812896917,
 -1.9213806909,-1.1400586479\C,2.2969638008,-3.0255163777,-1.8614862095
 \C,3.6409875799,-3.3684263137,-1.7851254253\C,4.5039925766,-2.60031960
 69,-0.9959416901\C,5.9215035065,-2.6733123544,-0.7123651207\C,6.924606
 295,-3.5681446717,-1.1033208822\C,8.2300480733,-3.4246538997,-0.626781
 6176\C,9.3735348212,-4.3758936569,-1.0268572951\C,10.5011407923,-3.569
 0320023,-1.7137649572\C,9.9381611535,-5.0700385673,0.2355937522\C,8.90
 79039856,-5.4712173193,-2.004878734\C,8.4894483124,-2.3623943399,0.268
 6041758\C,7.5138126285,-1.4553302309,0.6724782437\C,6.2226310872,-1.60
 28172584,0.1589873416\N,5.0475913943,-0.8706817823,0.4112836422\C,4.95
 52968182,0.3291300342,1.1511539357\C,5.965041867,1.296267188,1.0611637
 667\C,5.8759182816,2.4732263011,1.8144319979\C,6.9827814943,3.53636095
 18,1.7210714957\C,7.0758058137,4.0477642853,0.2635554969\C,6.709541335
 3,4.7403716223,2.6419472756\C,8.3346928873,2.9062724015,2.1319917691\C
 ,4.7328529033,2.6200360556,2.6119867369\C,3.7620113455,1.6201244269,2.
 5998278141\N,3.85740237,0.4868551607,1.8999594088\C,3.9896581146,-1.49
 30042406,-0.2766398319\C,2.6395367723,-1.141555006,-0.3314476108\C,-1.
 2577098868,-0.234606811,-0.5387341446\C,-1.8883290023,1.0203791983,-0.
 5911087112\N,-3.0973236801,1.206775062,0.0848848399\C,-3.9698604339,0.
 0825446922,0.4133701392\N,-5.2314254134,0.732798276,0.7533670954\C,-6.
 4344436403,0.0176050294,0.817102815\C,-6.4085201256,-1.3627344887,1.06
 86834044\C,-7.5882595545,-2.1150429003,1.1075232823\C,-7.5073483422,-3
 .6288603871,1.390469316\C,-6.8587127355,-3.8626879225,2.775821095\C,-6
 .6473609238,-4.3120461473,0.3006539083\C,-8.8926120987,-4.3032767618,1
 .3948656785\C,-8.8053825111,-1.4534071191,0.8962074962\C,-8.8644042208
 ,-0.0763910746,0.631830058\C,-10.1952400057,0.6558998726,0.3634872333\
 C,-11.4164463646,-0.276274773,0.4806396868\C,-10.3714586173,1.80288677
 43,1.3867004294\C,-10.1788718858,1.2453911688,-1.0672241909\C,-7.66835
 49699,0.6460283934,0.5874420974\C,-4.9924008625,2.0931939783,0.9919417
 922\C,-5.78298696,3.0698587085,1.5852841704\C,-5.2493917719,4.36019608
 93,1.7449761391\C,-3.9508536713,4.6493058375,1.3408413937\C,-3.1395999
 768,3.6582798121,0.7616141575\C,-3.6715019202,2.3877963055,0.579410136
 7\C,-1.3056859692,2.0469376293,-1.3526458766\H,1.4525589767,3.97094246
 45,-1.1729839199\H,-0.177080906,4.5847617095,-1.4933904834\H,1.1626451
 686,5.0546583465,-2.5487525442\H,-0.1268762081,4.2273927733,-4.5927232
 524\H,-0.7296487998,2.5592030583,-4.657373602\H,-1.4852964465,3.733532
 5569,-3.5705882553\H,2.1874513141,3.4815549746,-4.135000999\H,2.576055
 025,2.3490773478,-2.8328387088\H,1.6853951695,1.7921843569,-4.26387124
 12\H,1.4345577882,0.3920676134,-2.5167426127\H,1.5992181492,-3.5980561
 824,-2.4633852785\H,4.0170587898,-4.2223125402,-2.3421180086\H,6.66704
 21853,-4.3799890094,-1.7747011182\H,11.3273412927,-4.2318971411,-1.999
 6046804\H,10.9086013066,-2.7951357106,-1.0546568408\H,10.1322350653,-3
 .075024316,-2.6199568828\H,10.3295076175,-4.347021817,0.9590069199\H,9
 .1619229384,-5.6578463062,0.7385870191\H,10.7577743021,-5.7476887585,-
 0.0341134929\H,8.1292539957,-6.1055195596,-1.5661392981\H,9.753254378,
 -6.118686161,-2.2641311318\H,8.5189273025,-5.0464548862,-2.9373566271\
 H,9.4902649838,-2.2398551469,0.6726004468\H,7.7596591337,-0.6746568255
 ,1.3836154682\H,6.7953179599,1.1312343464,0.3853609441\H,6.1312782864,
 4.5034108262,-0.05435535\H,7.3122792828,3.2414248679,-0.4383583883\H,7
 .8639332603,4.8054485647,0.1795272856\H,6.6501209317,4.4431999849,3.69
 51099701\H,7.5243858621,5.4666680452,2.549030805\H,5.7787171212,5.2543
 465914,2.3770849319\H,9.1335525429,3.6548245881,2.0718483915\H,8.61228
 33941,2.0721359866,1.4790542828\H,8.2980599807,2.531287262,3.161135466
 \H,4.5778973453,3.4977355179,3.2275779149\H,2.8569854772,1.7319507006,
 3.1947701354\H,2.2433277631,-0.3227554175,0.2521806683\H,-1.6554244471
 ,-1.0553590261,0.0464528408\H,-4.08827206,-0.5935188682,-0.4432163113\
 H,-3.5704728333,-0.5051901682,1.263102838\H,-5.4565664246,-1.848618686
 7,1.2543462391\H,-5.845134614,-3.4517641748,2.8281265929\H,-7.45044802
 81,-3.3921690003,3.5693119555\H,-6.7940472784,-4.9365223157,2.99056133
 01\H,-5.6284870311,-3.9119541914,0.2730036988\H,-6.5763352752,-5.39012
 93412,0.490361245\H,-7.088562358,-4.1698823957,-0.6924997843\H,-8.7793
 371264,-5.3744602881,1.5967249109\H,-9.3998067034,-4.2011451347,0.4288
 378138\H,-9.5463870075,-3.8889447453,2.1705932133\H,-9.7241184175,-2.0
 208235154,0.931230941\H,-11.5011282972,-0.7145430262,1.4815502987\H,-1
 1.3791262982,-1.0930179834,-0.2489305555\H,-12.3332182813,0.2932440753
 ,0.2903074861\H,-10.3852415978,1.4152765689,2.4118360009\H,-9.56393885
 24,2.5393258066,1.3180327003\H,-11.3169367641,2.3303188089,1.209797130
 4\H,-9.3591058475,1.9578361041,-1.2058199989\H,-11.1184266761,1.772849
 626,-1.2737621613\H,-10.0623846781,0.4529051838,-1.8153007886\H,-7.679
 5371524,1.6991244359,0.3354087311\H,-6.7788521493,2.8400574477,1.94459
 99496\H,-5.8616541274,5.1309860998,2.2042203021\H,-3.5448310249,5.6466
 682994,1.4832145389\H,-2.1139467842,3.8789623428,0.4920776125\H,-1.824
 7437488,2.992878672,-1.4348031751\\Version=ES64L-G16RevB.01\State=1-A\
 HF=-2468.0036079\RMSD=6.631e-09\RMSF=2.074e-06\Dipole=0.9594123,0.8646
 679,0.0753821\Quadrupole=15.982829,-1.2749205,-14.7079085,14.0369706,1
 .0219112,4.9772133\PG=C01 [X(C56H66N4O1)]\\@


 IT'S WHAT A FELLER THINKS HE KNOWS THAT HURTS HIM...
                    ------
           KIN HUBBARD
 Job cpu time:       0 days 15 hours 10 minutes 21.6 seconds.
 Elapsed time:       0 days  2 hours 10 minutes 44.1 seconds.
 File lengths (MBytes):  RWF=    681 Int=      0 D2E=      0 Chk=     89 Scr=      1
 Normal termination of Gaussian 16 at Sat Nov  5 03:49:23 2022.
