 Entering Gaussian System, Link 0=/home/wykgroup/appl/g16/g16
 Input=./calculation/no_transfer_pubchem_sampling_9_b3lyp/157455417.com
 Output=./calculation/no_transfer_pubchem_sampling_9_b3lyp/157455417.log
 Initial command:
 /home/wykgroup/appl/g16/l1.exe "/userdata/scratch/wykgroup/khs/./calculation/no_transfer_pubchem_sampling_9_b3lyp/157455417/Gau-28884.inp" -scrdir="/userdata/scratch/wykgroup/khs/./calculation/no_transfer_pubchem_sampling_9_b3lyp/157455417/"
 Entering Link 1 = /home/wykgroup/appl/g16/l1.exe PID=     28885.
  
 Copyright (c) 1988-2017, Gaussian, Inc.  All Rights Reserved.
  
 This is part of the Gaussian(R) 16 program.  It is based on
 the Gaussian(R) 09 system (copyright 2009, Gaussian, Inc.),
 the Gaussian(R) 03 system (copyright 2003, Gaussian, Inc.),
 the Gaussian(R) 98 system (copyright 1998, Gaussian, Inc.),
 the Gaussian(R) 94 system (copyright 1995, Gaussian, Inc.),
 the Gaussian 92(TM) system (copyright 1992, Gaussian, Inc.),
 the Gaussian 90(TM) system (copyright 1990, Gaussian, Inc.),
 the Gaussian 88(TM) system (copyright 1988, Gaussian, Inc.),
 the Gaussian 86(TM) system (copyright 1986, Carnegie Mellon
 University), and the Gaussian 82(TM) system (copyright 1983,
 Carnegie Mellon University). Gaussian is a federally registered
 trademark of Gaussian, Inc.
  
 This software contains proprietary and confidential information,
 including trade secrets, belonging to Gaussian, Inc.
  
 This software is provided under written license and may be
 used, copied, transmitted, or stored only in accord with that
 written license.
  
 The following legend is applicable only to US Government
 contracts under FAR:
  
                    RESTRICTED RIGHTS LEGEND
  
 Use, reproduction and disclosure by the US Government is
 subject to restrictions as set forth in subparagraphs (a)
 and (c) of the Commercial Computer Software - Restricted
 Rights clause in FAR 52.227-19.
  
 Gaussian, Inc.
 340 Quinnipiac St., Bldg. 40, Wallingford CT 06492
  
  
 ---------------------------------------------------------------
 Warning -- This program may not be used in any manner that
 competes with the business of Gaussian, Inc. or will provide
 assistance to any competitor of Gaussian, Inc.  The licensee
 of this program is prohibited from giving any competitor of
 Gaussian, Inc. access to this program.  By using this program,
 the user acknowledges that Gaussian, Inc. is engaged in the
 business of creating and licensing software in the field of
 computational chemistry and represents and warrants to the
 licensee that it is not a competitor of Gaussian, Inc. and that
 it will not use this program in any manner prohibited above.
 ---------------------------------------------------------------
  

 Cite this work as:
 Gaussian 16, Revision B.01,
 M. J. Frisch, G. W. Trucks, H. B. Schlegel, G. E. Scuseria, 
 M. A. Robb, J. R. Cheeseman, G. Scalmani, V. Barone, 
 G. A. Petersson, H. Nakatsuji, X. Li, M. Caricato, A. V. Marenich, 
 J. Bloino, B. G. Janesko, R. Gomperts, B. Mennucci, H. P. Hratchian, 
 J. V. Ortiz, A. F. Izmaylov, J. L. Sonnenberg, D. Williams-Young, 
 F. Ding, F. Lipparini, F. Egidi, J. Goings, B. Peng, A. Petrone, 
 T. Henderson, D. Ranasinghe, V. G. Zakrzewski, J. Gao, N. Rega, 
 G. Zheng, W. Liang, M. Hada, M. Ehara, K. Toyota, R. Fukuda, 
 J. Hasegawa, M. Ishida, T. Nakajima, Y. Honda, O. Kitao, H. Nakai, 
 T. Vreven, K. Throssell, J. A. Montgomery, Jr., J. E. Peralta, 
 F. Ogliaro, M. J. Bearpark, J. J. Heyd, E. N. Brothers, K. N. Kudin, 
 V. N. Staroverov, T. A. Keith, R. Kobayashi, J. Normand, 
 K. Raghavachari, A. P. Rendell, J. C. Burant, S. S. Iyengar, 
 J. Tomasi, M. Cossi, J. M. Millam, M. Klene, C. Adamo, R. Cammi, 
 J. W. Ochterski, R. L. Martin, K. Morokuma, O. Farkas, 
 J. B. Foresman, and D. J. Fox, Gaussian, Inc., Wallingford CT, 2016.
 
 ******************************************
 Gaussian 16:  ES64L-G16RevB.01 20-Dec-2017
                 5-Nov-2022 
 ******************************************
 %chk=./calculation/no_transfer_pubchem_sampling_9_b3lyp/157455417.chk
 %nprocshared=7
 Will use up to    7 processors via shared memory.
 %mem=6GB
 -----------------------------
 #p b3lyp/6-31g(d) opt SCF=XQC
 -----------------------------
 1/18=20,19=15,26=3,38=1/1,3;
 2/9=110,12=2,17=6,18=5,40=1/2;
 3/5=1,6=6,7=1,11=2,25=1,30=1,71=1,74=-5/1,2,3;
 4//1;
 5/5=2,8=3,13=1,38=5/2,8;
 6/7=2,8=2,9=2,10=2,28=1/1;
 7//1,2,3,16;
 1/18=20,19=15,26=3/3(2);
 2/9=110/2;
 99//99;
 2/9=110/2;
 3/5=1,6=6,7=1,11=2,25=1,30=1,71=1,74=-5/1,2,3;
 4/5=5,16=3,69=1/1;
 5/5=2,8=3,13=1,38=5/2,8;
 7//1,2,3,16;
 1/18=20,19=15,26=3/3(-5);
 2/9=110/2;
 6/7=2,8=2,9=2,10=2,19=2,28=1/1;
 99/9=1/99;
 Leave Link    1 at Sat Nov  5 01:31:41 2022, MaxMem=   805306368 cpu:               0.5 elap:               0.2
 (Enter /home/wykgroup/appl/g16/l101.exe)
 ------------------------------
 Gaussian input prepared by ASE
 ------------------------------
 Symbolic Z-matrix:
 Charge =  0 Multiplicity = 1
 C                    -9.39408   4.96188   0.4667 
 C                    -8.07807   5.06292   0.88657 
 C                    -7.23836   3.9668    0.81713 
 C                    -7.71021   2.75139   0.32777 
 C                    -6.84889   1.56501   0.23746 
 C                    -5.46606   1.649     0.08046 
 C                    -4.75924   0.44968   0.00394 
 C                    -3.30002   0.39567  -0.15558 
 C                    -2.59608   1.42301  -0.77521 
 C                    -1.21184   1.35794  -0.91889 
 C                    -0.46442   2.39511  -1.55357 
 C                     0.88016   2.31668  -1.6788 
 C                     1.60633   1.1925   -1.18363 
 C                     2.99107   1.09047  -1.30102 
 C                     3.67726  -0.01231  -0.80525 
 C                     5.13897  -0.10277  -0.96949 
 C                     5.67982   0.01283  -2.23054 
 C                     7.04901  -0.11673  -2.45308 
 C                     7.89337  -0.36541  -1.39402 
 C                     7.39105  -0.46383  -0.0779 
 C                     8.27608  -0.6941    1.01024 
 C                     7.76108  -0.7544    2.28777 
 C                     6.39392  -0.57364   2.51069 
 C                     5.52929  -0.35913   1.47214 
 C                     5.99606  -0.31975   0.1414 
 C                     9.69156  -0.84528   0.68904 
 C                     10.68125  -1.08986   1.64247 
 C                     12.00643  -1.2265    1.28409 
 C                     12.38274  -1.1214   -0.04712 
 C                     11.42789  -0.88013  -1.01251 
 C                     10.09046  -0.74239  -0.65169 
 O                     9.22077  -0.50466  -1.6676 
 C                     2.96896  -1.04302  -0.19525 
 C                     1.58393  -0.98424  -0.05851 
 C                     0.83566  -2.02886   0.56339 
 C                    -0.50873  -1.95135   0.68889 
 C                    -1.2341   -0.82173   0.20319 
 C                    -2.61672  -0.72029   0.32008 
 C                    -0.51593   0.22881  -0.42071 
 C                     0.88863   0.14714  -0.55232 
 N                    -5.3878   -0.71971   0.09274 
 C                    -6.70866  -0.70931   0.2277 
 C                    -7.39016  -2.00464   0.30847 
 C                    -8.75187  -2.06487   0.59653 
 C                    -9.3909   -3.28727   0.6724 
 C                    -8.68008  -4.45837   0.46171 
 C                    -7.32523  -4.40439   0.17441 
 C                    -6.68063  -3.185     0.09776 
 N                    -7.45937   0.38415   0.29551 
 C                    -9.03965   2.65498  -0.0793 
 C                    -9.87355   3.75397  -0.01414 
 H                    -10.04539   5.82194   0.51921 
 H                    -7.70505   6.0005    1.27259 
 H                    -6.22046   4.05291   1.16831 
 H                    -4.96579   2.60081   0.02147 
 H                    -3.11998   2.27756  -1.17883 
 H                    -1.00475   3.25127  -1.93269 
 H                     1.43725   3.10822  -2.15995 
 H                     3.54395   1.89018  -1.77339 
 H                     5.026     0.18314  -3.07336 
 H                     7.45956  -0.03676  -3.44678 
 H                     8.40542  -0.92778   3.13452 
 H                     6.02129  -0.6009    3.52442 
 H                     4.479    -0.20272   1.66454 
 H                     10.40804  -1.17558   2.68195 
 H                     12.75068  -1.41575   2.04266 
 H                     13.41875  -1.22774  -0.33021 
 H                     11.6887  -0.79323  -2.05558 
 H                     3.49993  -1.91435   0.1617 
 H                     1.37748  -2.88763   0.93416 
 H                    -1.06773  -2.7465    1.16115 
 H                    -3.18233  -1.51027   0.79033 
 H                    -9.28842  -1.14354   0.76138 
 H                    -10.44679  -3.33091   0.89716 
 H                    -9.18213  -5.41325   0.52129 
 H                    -6.77266  -5.31802   0.00912 
 H                    -5.6277   -3.12383  -0.12911 
 H                    -9.39712   1.70663  -0.44969 
 H                    -10.90086   3.67099  -0.33749 
 
 ITRead=  0  0  0  0  0  0  0  0  0  0  0  0  0  0  0  0  0  0  0  0
 ITRead=  0  0  0  0  0  0  0  0  0  0  0  0  0  0  0  0  0  0  0  0
 ITRead=  0  0  0  0  0  0  0  0  0  0  0  0  0  0  0  0  0  0  0  0
 ITRead=  0  0  0  0  0  0  0  0  0  0  0  0  0  0  0  0  0  0  0
 MicOpt= -1 -1 -1 -1 -1 -1 -1 -1 -1 -1 -1 -1 -1 -1 -1 -1 -1 -1 -1 -1
 MicOpt= -1 -1 -1 -1 -1 -1 -1 -1 -1 -1 -1 -1 -1 -1 -1 -1 -1 -1 -1 -1
 MicOpt= -1 -1 -1 -1 -1 -1 -1 -1 -1 -1 -1 -1 -1 -1 -1 -1 -1 -1 -1 -1
 MicOpt= -1 -1 -1 -1 -1 -1 -1 -1 -1 -1 -1 -1 -1 -1 -1 -1 -1 -1 -1
 NAtoms=     79 NQM=       79 NQMF=       0 NMMI=      0 NMMIF=      0
                NMic=       0 NMicF=      0.
                    Isotopes and Nuclear Properties:
 (Nuclear quadrupole moments (NQMom) in fm**2, nuclear magnetic moments (NMagM)
  in nuclear magnetons)

  Atom         1           2           3           4           5           6           7           8           9          10
 IAtWgt=          12          12          12          12          12          12          12          12          12          12
 AtmWgt=  12.0000000  12.0000000  12.0000000  12.0000000  12.0000000  12.0000000  12.0000000  12.0000000  12.0000000  12.0000000
 NucSpn=           0           0           0           0           0           0           0           0           0           0
 AtZEff=  -0.0000000  -0.0000000  -0.0000000  -0.0000000  -0.0000000  -0.0000000  -0.0000000  -0.0000000  -0.0000000  -0.0000000
 NQMom=    0.0000000   0.0000000   0.0000000   0.0000000   0.0000000   0.0000000   0.0000000   0.0000000   0.0000000   0.0000000
 NMagM=    0.0000000   0.0000000   0.0000000   0.0000000   0.0000000   0.0000000   0.0000000   0.0000000   0.0000000   0.0000000
 AtZNuc=   6.0000000   6.0000000   6.0000000   6.0000000   6.0000000   6.0000000   6.0000000   6.0000000   6.0000000   6.0000000

  Atom        11          12          13          14          15          16          17          18          19          20
 IAtWgt=          12          12          12          12          12          12          12          12          12          12
 AtmWgt=  12.0000000  12.0000000  12.0000000  12.0000000  12.0000000  12.0000000  12.0000000  12.0000000  12.0000000  12.0000000
 NucSpn=           0           0           0           0           0           0           0           0           0           0
 AtZEff=  -0.0000000  -0.0000000  -0.0000000  -0.0000000  -0.0000000  -0.0000000  -0.0000000  -0.0000000  -0.0000000  -0.0000000
 NQMom=    0.0000000   0.0000000   0.0000000   0.0000000   0.0000000   0.0000000   0.0000000   0.0000000   0.0000000   0.0000000
 NMagM=    0.0000000   0.0000000   0.0000000   0.0000000   0.0000000   0.0000000   0.0000000   0.0000000   0.0000000   0.0000000
 AtZNuc=   6.0000000   6.0000000   6.0000000   6.0000000   6.0000000   6.0000000   6.0000000   6.0000000   6.0000000   6.0000000

  Atom        21          22          23          24          25          26          27          28          29          30
 IAtWgt=          12          12          12          12          12          12          12          12          12          12
 AtmWgt=  12.0000000  12.0000000  12.0000000  12.0000000  12.0000000  12.0000000  12.0000000  12.0000000  12.0000000  12.0000000
 NucSpn=           0           0           0           0           0           0           0           0           0           0
 AtZEff=  -0.0000000  -0.0000000  -0.0000000  -0.0000000  -0.0000000  -0.0000000  -0.0000000  -0.0000000  -0.0000000  -0.0000000
 NQMom=    0.0000000   0.0000000   0.0000000   0.0000000   0.0000000   0.0000000   0.0000000   0.0000000   0.0000000   0.0000000
 NMagM=    0.0000000   0.0000000   0.0000000   0.0000000   0.0000000   0.0000000   0.0000000   0.0000000   0.0000000   0.0000000
 AtZNuc=   6.0000000   6.0000000   6.0000000   6.0000000   6.0000000   6.0000000   6.0000000   6.0000000   6.0000000   6.0000000

  Atom        31          32          33          34          35          36          37          38          39          40
 IAtWgt=          12          16          12          12          12          12          12          12          12          12
 AtmWgt=  12.0000000  15.9949146  12.0000000  12.0000000  12.0000000  12.0000000  12.0000000  12.0000000  12.0000000  12.0000000
 NucSpn=           0           0           0           0           0           0           0           0           0           0
 AtZEff=  -0.0000000  -0.0000000  -0.0000000  -0.0000000  -0.0000000  -0.0000000  -0.0000000  -0.0000000  -0.0000000  -0.0000000
 NQMom=    0.0000000   0.0000000   0.0000000   0.0000000   0.0000000   0.0000000   0.0000000   0.0000000   0.0000000   0.0000000
 NMagM=    0.0000000   0.0000000   0.0000000   0.0000000   0.0000000   0.0000000   0.0000000   0.0000000   0.0000000   0.0000000
 AtZNuc=   6.0000000   8.0000000   6.0000000   6.0000000   6.0000000   6.0000000   6.0000000   6.0000000   6.0000000   6.0000000

  Atom        41          42          43          44          45          46          47          48          49          50
 IAtWgt=          14          12          12          12          12          12          12          12          14          12
 AtmWgt=  14.0030740  12.0000000  12.0000000  12.0000000  12.0000000  12.0000000  12.0000000  12.0000000  14.0030740  12.0000000
 NucSpn=           2           0           0           0           0           0           0           0           2           0
 AtZEff=  -0.0000000  -0.0000000  -0.0000000  -0.0000000  -0.0000000  -0.0000000  -0.0000000  -0.0000000  -0.0000000  -0.0000000
 NQMom=    2.0440000   0.0000000   0.0000000   0.0000000   0.0000000   0.0000000   0.0000000   0.0000000   2.0440000   0.0000000
 NMagM=    0.4037610   0.0000000   0.0000000   0.0000000   0.0000000   0.0000000   0.0000000   0.0000000   0.4037610   0.0000000
 AtZNuc=   7.0000000   6.0000000   6.0000000   6.0000000   6.0000000   6.0000000   6.0000000   6.0000000   7.0000000   6.0000000

  Atom        51          52          53          54          55          56          57          58          59          60
 IAtWgt=          12           1           1           1           1           1           1           1           1           1
 AtmWgt=  12.0000000   1.0078250   1.0078250   1.0078250   1.0078250   1.0078250   1.0078250   1.0078250   1.0078250   1.0078250
 NucSpn=           0           1           1           1           1           1           1           1           1           1
 AtZEff=  -0.0000000  -0.0000000  -0.0000000  -0.0000000  -0.0000000  -0.0000000  -0.0000000  -0.0000000  -0.0000000  -0.0000000
 NQMom=    0.0000000   0.0000000   0.0000000   0.0000000   0.0000000   0.0000000   0.0000000   0.0000000   0.0000000   0.0000000
 NMagM=    0.0000000   2.7928460   2.7928460   2.7928460   2.7928460   2.7928460   2.7928460   2.7928460   2.7928460   2.7928460
 AtZNuc=   6.0000000   1.0000000   1.0000000   1.0000000   1.0000000   1.0000000   1.0000000   1.0000000   1.0000000   1.0000000

  Atom        61          62          63          64          65          66          67          68          69          70
 IAtWgt=           1           1           1           1           1           1           1           1           1           1
 AtmWgt=   1.0078250   1.0078250   1.0078250   1.0078250   1.0078250   1.0078250   1.0078250   1.0078250   1.0078250   1.0078250
 NucSpn=           1           1           1           1           1           1           1           1           1           1
 AtZEff=  -0.0000000  -0.0000000  -0.0000000  -0.0000000  -0.0000000  -0.0000000  -0.0000000  -0.0000000  -0.0000000  -0.0000000
 NQMom=    0.0000000   0.0000000   0.0000000   0.0000000   0.0000000   0.0000000   0.0000000   0.0000000   0.0000000   0.0000000
 NMagM=    2.7928460   2.7928460   2.7928460   2.7928460   2.7928460   2.7928460   2.7928460   2.7928460   2.7928460   2.7928460
 AtZNuc=   1.0000000   1.0000000   1.0000000   1.0000000   1.0000000   1.0000000   1.0000000   1.0000000   1.0000000   1.0000000

  Atom        71          72          73          74          75          76          77          78          79
 IAtWgt=           1           1           1           1           1           1           1           1           1
 AtmWgt=   1.0078250   1.0078250   1.0078250   1.0078250   1.0078250   1.0078250   1.0078250   1.0078250   1.0078250
 NucSpn=           1           1           1           1           1           1           1           1           1
 AtZEff=  -0.0000000  -0.0000000  -0.0000000  -0.0000000  -0.0000000  -0.0000000  -0.0000000  -0.0000000  -0.0000000
 NQMom=    0.0000000   0.0000000   0.0000000   0.0000000   0.0000000   0.0000000   0.0000000   0.0000000   0.0000000
 NMagM=    2.7928460   2.7928460   2.7928460   2.7928460   2.7928460   2.7928460   2.7928460   2.7928460   2.7928460
 AtZNuc=   1.0000000   1.0000000   1.0000000   1.0000000   1.0000000   1.0000000   1.0000000   1.0000000   1.0000000
 Leave Link  101 at Sat Nov  5 01:31:41 2022, MaxMem=   805306368 cpu:               1.0 elap:               0.3
 (Enter /home/wykgroup/appl/g16/l103.exe)

 GradGradGradGradGradGradGradGradGradGradGradGradGradGradGradGradGradGrad
 Berny optimization.
 Initialization pass.
                           ----------------------------
                           !    Initial Parameters    !
                           ! (Angstroms and Degrees)  !
 --------------------------                            --------------------------
 ! Name  Definition              Value          Derivative Info.                !
 --------------------------------------------------------------------------------
 ! R1    R(1,2)                  1.3851         estimate D2E/DX2                !
 ! R2    R(1,51)                 1.3857         estimate D2E/DX2                !
 ! R3    R(1,52)                 1.0801         estimate D2E/DX2                !
 ! R4    R(2,3)                  1.3825         estimate D2E/DX2                !
 ! R5    R(2,53)                 1.0804         estimate D2E/DX2                !
 ! R6    R(3,4)                  1.3926         estimate D2E/DX2                !
 ! R7    R(3,54)                 1.0802         estimate D2E/DX2                !
 ! R8    R(4,5)                  1.4689         estimate D2E/DX2                !
 ! R9    R(4,50)                 1.3937         estimate D2E/DX2                !
 ! R10   R(5,6)                  1.3942         estimate D2E/DX2                !
 ! R11   R(5,49)                 1.3306         estimate D2E/DX2                !
 ! R12   R(6,7)                  1.3942         estimate D2E/DX2                !
 ! R13   R(6,55)                 1.0769         estimate D2E/DX2                !
 ! R14   R(7,8)                  1.4689         estimate D2E/DX2                !
 ! R15   R(7,41)                 1.3306         estimate D2E/DX2                !
 ! R16   R(8,9)                  1.391          estimate D2E/DX2                !
 ! R17   R(8,38)                 1.3923         estimate D2E/DX2                !
 ! R18   R(9,10)                 1.3932         estimate D2E/DX2                !
 ! R19   R(9,56)                 1.0806         estimate D2E/DX2                !
 ! R20   R(10,11)                1.4273         estimate D2E/DX2                !
 ! R21   R(10,39)                1.4168         estimate D2E/DX2                !
 ! R22   R(11,12)                1.3527         estimate D2E/DX2                !
 ! R23   R(11,57)                1.0811         estimate D2E/DX2                !
 ! R24   R(12,13)                1.427          estimate D2E/DX2                !
 ! R25   R(12,58)                1.0809         estimate D2E/DX2                !
 ! R26   R(13,14)                1.3935         estimate D2E/DX2                !
 ! R27   R(13,40)                1.4165         estimate D2E/DX2                !
 ! R28   R(14,15)                1.3902         estimate D2E/DX2                !
 ! R29   R(14,59)                1.0809         estimate D2E/DX2                !
 ! R30   R(15,16)                1.4737         estimate D2E/DX2                !
 ! R31   R(15,33)                1.3915         estimate D2E/DX2                !
 ! R32   R(16,17)                1.377          estimate D2E/DX2                !
 ! R33   R(16,25)                1.4198         estimate D2E/DX2                !
 ! R34   R(17,18)                1.3932         estimate D2E/DX2                !
 ! R35   R(17,60)                1.0802         estimate D2E/DX2                !
 ! R36   R(18,19)                1.3771         estimate D2E/DX2                !
 ! R37   R(18,61)                1.0781         estimate D2E/DX2                !
 ! R38   R(19,20)                1.4122         estimate D2E/DX2                !
 ! R39   R(19,32)                1.3624         estimate D2E/DX2                !
 ! R40   R(20,21)                1.4214         estimate D2E/DX2                !
 ! R41   R(20,25)                1.4195         estimate D2E/DX2                !
 ! R42   R(21,22)                1.3787         estimate D2E/DX2                !
 ! R43   R(21,26)                1.4593         estimate D2E/DX2                !
 ! R44   R(22,23)                1.397          estimate D2E/DX2                !
 ! R45   R(22,62)                1.0781         estimate D2E/DX2                !
 ! R46   R(23,24)                1.3683         estimate D2E/DX2                !
 ! R47   R(23,63)                1.0804         estimate D2E/DX2                !
 ! R48   R(24,25)                1.4108         estimate D2E/DX2                !
 ! R49   R(24,64)                1.0792         estimate D2E/DX2                !
 ! R50   R(26,27)                1.3958         estimate D2E/DX2                !
 ! R51   R(26,31)                1.4026         estimate D2E/DX2                !
 ! R52   R(27,28)                1.3796         estimate D2E/DX2                !
 ! R53   R(27,65)                1.0782         estimate D2E/DX2                !
 ! R54   R(28,29)                1.3874         estimate D2E/DX2                !
 ! R55   R(28,66)                1.0794         estimate D2E/DX2                !
 ! R56   R(29,30)                1.3791         estimate D2E/DX2                !
 ! R57   R(29,67)                1.0792         estimate D2E/DX2                !
 ! R58   R(30,31)                1.3921         estimate D2E/DX2                !
 ! R59   R(30,68)                1.0787         estimate D2E/DX2                !
 ! R60   R(31,32)                1.3583         estimate D2E/DX2                !
 ! R61   R(33,34)                1.393          estimate D2E/DX2                !
 ! R62   R(33,69)                1.081          estimate D2E/DX2                !
 ! R63   R(34,35)                1.4275         estimate D2E/DX2                !
 ! R64   R(34,40)                1.4168         estimate D2E/DX2                !
 ! R65   R(35,36)                1.3525         estimate D2E/DX2                !
 ! R66   R(35,70)                1.081          estimate D2E/DX2                !
 ! R67   R(36,37)                1.4276         estimate D2E/DX2                !
 ! R68   R(36,71)                1.0806         estimate D2E/DX2                !
 ! R69   R(37,38)                1.3913         estimate D2E/DX2                !
 ! R70   R(37,39)                1.4173         estimate D2E/DX2                !
 ! R71   R(38,72)                1.0794         estimate D2E/DX2                !
 ! R72   R(39,40)                1.4131         estimate D2E/DX2                !
 ! R73   R(41,42)                1.3278         estimate D2E/DX2                !
 ! R74   R(42,43)                1.4659         estimate D2E/DX2                !
 ! R75   R(42,49)                1.3281         estimate D2E/DX2                !
 ! R76   R(43,44)                1.3931         estimate D2E/DX2                !
 ! R77   R(43,48)                1.3932         estimate D2E/DX2                !
 ! R78   R(44,45)                1.3814         estimate D2E/DX2                !
 ! R79   R(44,73)                1.0788         estimate D2E/DX2                !
 ! R80   R(45,46)                1.386          estimate D2E/DX2                !
 ! R81   R(45,74)                1.0804         estimate D2E/DX2                !
 ! R82   R(46,47)                1.386          estimate D2E/DX2                !
 ! R83   R(46,75)                1.0805         estimate D2E/DX2                !
 ! R84   R(47,48)                1.3814         estimate D2E/DX2                !
 ! R85   R(47,76)                1.0805         estimate D2E/DX2                !
 ! R86   R(48,77)                1.0788         estimate D2E/DX2                !
 ! R87   R(50,51)                1.3811         estimate D2E/DX2                !
 ! R88   R(50,78)                1.0791         estimate D2E/DX2                !
 ! R89   R(51,79)                1.0802         estimate D2E/DX2                !
 ! A1    A(2,1,51)             119.8378         estimate D2E/DX2                !
 ! A2    A(2,1,52)             120.0075         estimate D2E/DX2                !
 ! A3    A(51,1,52)            120.154          estimate D2E/DX2                !
 ! A4    A(1,2,3)              120.2673         estimate D2E/DX2                !
 ! A5    A(1,2,53)             119.9785         estimate D2E/DX2                !
 ! A6    A(3,2,53)             119.7541         estimate D2E/DX2                !
 ! A7    A(2,3,4)              120.2524         estimate D2E/DX2                !
 ! A8    A(2,3,54)             119.5254         estimate D2E/DX2                !
 ! A9    A(4,3,54)             120.2045         estimate D2E/DX2                !
 ! A10   A(3,4,5)              121.8603         estimate D2E/DX2                !
 ! A11   A(3,4,50)             119.0917         estimate D2E/DX2                !
 ! A12   A(5,4,50)             119.0464         estimate D2E/DX2                !
 ! A13   A(4,5,6)              122.6738         estimate D2E/DX2                !
 ! A14   A(4,5,49)             116.4286         estimate D2E/DX2                !
 ! A15   A(6,5,49)             120.8918         estimate D2E/DX2                !
 ! A16   A(5,6,7)              117.2051         estimate D2E/DX2                !
 ! A17   A(5,6,55)             121.3429         estimate D2E/DX2                !
 ! A18   A(7,6,55)             121.452          estimate D2E/DX2                !
 ! A19   A(6,7,8)              122.766          estimate D2E/DX2                !
 ! A20   A(6,7,41)             120.8543         estimate D2E/DX2                !
 ! A21   A(8,7,41)             116.3731         estimate D2E/DX2                !
 ! A22   A(7,8,9)              121.5976         estimate D2E/DX2                !
 ! A23   A(7,8,38)             118.6787         estimate D2E/DX2                !
 ! A24   A(9,8,38)             119.722          estimate D2E/DX2                !
 ! A25   A(8,9,10)             120.9479         estimate D2E/DX2                !
 ! A26   A(8,9,56)             120.3387         estimate D2E/DX2                !
 ! A27   A(10,9,56)            118.6936         estimate D2E/DX2                !
 ! A28   A(9,10,11)            122.1553         estimate D2E/DX2                !
 ! A29   A(9,10,39)            119.2731         estimate D2E/DX2                !
 ! A30   A(11,10,39)           118.5716         estimate D2E/DX2                !
 ! A31   A(10,11,12)           121.3026         estimate D2E/DX2                !
 ! A32   A(10,11,57)           118.0149         estimate D2E/DX2                !
 ! A33   A(12,11,57)           120.6824         estimate D2E/DX2                !
 ! A34   A(11,12,13)           121.2916         estimate D2E/DX2                !
 ! A35   A(11,12,58)           120.7336         estimate D2E/DX2                !
 ! A36   A(13,12,58)           117.9748         estimate D2E/DX2                !
 ! A37   A(12,13,14)           122.2864         estimate D2E/DX2                !
 ! A38   A(12,13,40)           118.5687         estimate D2E/DX2                !
 ! A39   A(14,13,40)           119.1449         estimate D2E/DX2                !
 ! A40   A(13,14,15)           121.2336         estimate D2E/DX2                !
 ! A41   A(13,14,59)           119.4026         estimate D2E/DX2                !
 ! A42   A(15,14,59)           119.3576         estimate D2E/DX2                !
 ! A43   A(14,15,16)           119.9017         estimate D2E/DX2                !
 ! A44   A(14,15,33)           119.5158         estimate D2E/DX2                !
 ! A45   A(16,15,33)           120.5497         estimate D2E/DX2                !
 ! A46   A(15,16,17)           119.11           estimate D2E/DX2                !
 ! A47   A(15,16,25)           121.3963         estimate D2E/DX2                !
 ! A48   A(17,16,25)           119.4905         estimate D2E/DX2                !
 ! A49   A(16,17,18)           121.6328         estimate D2E/DX2                !
 ! A50   A(16,17,60)           119.3434         estimate D2E/DX2                !
 ! A51   A(18,17,60)           119.0052         estimate D2E/DX2                !
 ! A52   A(17,18,19)           119.7711         estimate D2E/DX2                !
 ! A53   A(17,18,61)           120.9675         estimate D2E/DX2                !
 ! A54   A(19,18,61)           119.2575         estimate D2E/DX2                !
 ! A55   A(18,19,20)           120.7466         estimate D2E/DX2                !
 ! A56   A(18,19,32)           117.4783         estimate D2E/DX2                !
 ! A57   A(20,19,32)           121.7745         estimate D2E/DX2                !
 ! A58   A(19,20,21)           120.2183         estimate D2E/DX2                !
 ! A59   A(19,20,25)           119.1101         estimate D2E/DX2                !
 ! A60   A(21,20,25)           120.6699         estimate D2E/DX2                !
 ! A61   A(20,21,22)           118.9371         estimate D2E/DX2                !
 ! A62   A(20,21,26)           116.8871         estimate D2E/DX2                !
 ! A63   A(22,21,26)           124.175          estimate D2E/DX2                !
 ! A64   A(21,22,23)           120.5152         estimate D2E/DX2                !
 ! A65   A(21,22,62)           120.7676         estimate D2E/DX2                !
 ! A66   A(23,22,62)           118.7117         estimate D2E/DX2                !
 ! A67   A(22,23,24)           121.1709         estimate D2E/DX2                !
 ! A68   A(22,23,63)           118.9478         estimate D2E/DX2                !
 ! A69   A(24,23,63)           119.8808         estimate D2E/DX2                !
 ! A70   A(23,24,25)           120.7476         estimate D2E/DX2                !
 ! A71   A(23,24,64)           120.1596         estimate D2E/DX2                !
 ! A72   A(25,24,64)           119.0866         estimate D2E/DX2                !
 ! A73   A(16,25,20)           119.2031         estimate D2E/DX2                !
 ! A74   A(16,25,24)           122.8593         estimate D2E/DX2                !
 ! A75   A(20,25,24)           117.9083         estimate D2E/DX2                !
 ! A76   A(21,26,27)           123.7486         estimate D2E/DX2                !
 ! A77   A(21,26,31)           118.5973         estimate D2E/DX2                !
 ! A78   A(27,26,31)           117.654          estimate D2E/DX2                !
 ! A79   A(26,27,28)           121.3992         estimate D2E/DX2                !
 ! A80   A(26,27,65)           119.524          estimate D2E/DX2                !
 ! A81   A(28,27,65)           119.0768         estimate D2E/DX2                !
 ! A82   A(27,28,29)           120.1526         estimate D2E/DX2                !
 ! A83   A(27,28,66)           119.8091         estimate D2E/DX2                !
 ! A84   A(29,28,66)           120.0383         estimate D2E/DX2                !
 ! A85   A(28,29,30)           119.811          estimate D2E/DX2                !
 ! A86   A(28,29,67)           120.3044         estimate D2E/DX2                !
 ! A87   A(30,29,67)           119.8845         estimate D2E/DX2                !
 ! A88   A(29,30,31)           120.07           estimate D2E/DX2                !
 ! A89   A(29,30,68)           121.5739         estimate D2E/DX2                !
 ! A90   A(31,30,68)           118.3561         estimate D2E/DX2                !
 ! A91   A(26,31,30)           120.9131         estimate D2E/DX2                !
 ! A92   A(26,31,32)           123.0715         estimate D2E/DX2                !
 ! A93   A(30,31,32)           116.0153         estimate D2E/DX2                !
 ! A94   A(19,32,31)           119.4411         estimate D2E/DX2                !
 ! A95   A(15,33,34)           121.1915         estimate D2E/DX2                !
 ! A96   A(15,33,69)           119.4587         estimate D2E/DX2                !
 ! A97   A(34,33,69)           119.3385         estimate D2E/DX2                !
 ! A98   A(33,34,35)           122.2117         estimate D2E/DX2                !
 ! A99   A(33,34,40)           119.1712         estimate D2E/DX2                !
 ! A100  A(35,34,40)           118.6171         estimate D2E/DX2                !
 ! A101  A(34,35,36)           121.3            estimate D2E/DX2                !
 ! A102  A(34,35,70)           117.9067         estimate D2E/DX2                !
 ! A103  A(36,35,70)           120.7933         estimate D2E/DX2                !
 ! A104  A(35,36,37)           121.2549         estimate D2E/DX2                !
 ! A105  A(35,36,71)           120.8364         estimate D2E/DX2                !
 ! A106  A(37,36,71)           117.9086         estimate D2E/DX2                !
 ! A107  A(36,37,38)           122.2798         estimate D2E/DX2                !
 ! A108  A(36,37,39)           118.6079         estimate D2E/DX2                !
 ! A109  A(38,37,39)           119.1122         estimate D2E/DX2                !
 ! A110  A(8,38,37)            121.1621         estimate D2E/DX2                !
 ! A111  A(8,38,72)            118.5731         estimate D2E/DX2                !
 ! A112  A(37,38,72)           120.264          estimate D2E/DX2                !
 ! A113  A(10,39,37)           119.7766         estimate D2E/DX2                !
 ! A114  A(10,39,40)           120.1007         estimate D2E/DX2                !
 ! A115  A(37,39,40)           120.1218         estimate D2E/DX2                !
 ! A116  A(13,40,34)           119.737          estimate D2E/DX2                !
 ! A117  A(13,40,39)           120.1644         estimate D2E/DX2                !
 ! A118  A(34,40,39)           120.0979         estimate D2E/DX2                !
 ! A119  A(7,41,42)            118.0235         estimate D2E/DX2                !
 ! A120  A(41,42,43)           117.4623         estimate D2E/DX2                !
 ! A121  A(41,42,49)           125.0261         estimate D2E/DX2                !
 ! A122  A(43,42,49)           117.5117         estimate D2E/DX2                !
 ! A123  A(42,43,44)           120.2658         estimate D2E/DX2                !
 ! A124  A(42,43,48)           120.2342         estimate D2E/DX2                !
 ! A125  A(44,43,48)           119.5            estimate D2E/DX2                !
 ! A126  A(43,44,45)           120.1161         estimate D2E/DX2                !
 ! A127  A(43,44,73)           118.7366         estimate D2E/DX2                !
 ! A128  A(45,44,73)           121.1467         estimate D2E/DX2                !
 ! A129  A(44,45,46)           120.1371         estimate D2E/DX2                !
 ! A130  A(44,45,74)           119.9497         estimate D2E/DX2                !
 ! A131  A(46,45,74)           119.9132         estimate D2E/DX2                !
 ! A132  A(45,46,47)           119.9936         estimate D2E/DX2                !
 ! A133  A(45,46,75)           120.0023         estimate D2E/DX2                !
 ! A134  A(47,46,75)           120.0041         estimate D2E/DX2                !
 ! A135  A(46,47,48)           120.133          estimate D2E/DX2                !
 ! A136  A(46,47,76)           119.9138         estimate D2E/DX2                !
 ! A137  A(48,47,76)           119.9531         estimate D2E/DX2                !
 ! A138  A(43,48,47)           120.1201         estimate D2E/DX2                !
 ! A139  A(43,48,77)           118.7387         estimate D2E/DX2                !
 ! A140  A(47,48,77)           121.1405         estimate D2E/DX2                !
 ! A141  A(5,49,42)            117.9767         estimate D2E/DX2                !
 ! A142  A(4,50,51)            120.4729         estimate D2E/DX2                !
 ! A143  A(4,50,78)            118.4937         estimate D2E/DX2                !
 ! A144  A(51,50,78)           121.0325         estimate D2E/DX2                !
 ! A145  A(1,51,50)            120.0725         estimate D2E/DX2                !
 ! A146  A(1,51,79)            119.9946         estimate D2E/DX2                !
 ! A147  A(50,51,79)           119.933          estimate D2E/DX2                !
 ! D1    D(51,1,2,3)             0.5519         estimate D2E/DX2                !
 ! D2    D(51,1,2,53)         -179.2892         estimate D2E/DX2                !
 ! D3    D(52,1,2,3)          -179.7612         estimate D2E/DX2                !
 ! D4    D(52,1,2,53)            0.3977         estimate D2E/DX2                !
 ! D5    D(2,1,51,50)           -0.2491         estimate D2E/DX2                !
 ! D6    D(2,1,51,79)          179.6845         estimate D2E/DX2                !
 ! D7    D(52,1,51,50)        -179.9355         estimate D2E/DX2                !
 ! D8    D(52,1,51,79)          -0.0019         estimate D2E/DX2                !
 ! D9    D(1,2,3,4)             -0.1732         estimate D2E/DX2                !
 ! D10   D(1,2,3,54)          -178.6428         estimate D2E/DX2                !
 ! D11   D(53,2,3,4)           179.6683         estimate D2E/DX2                !
 ! D12   D(53,2,3,54)            1.1987         estimate D2E/DX2                !
 ! D13   D(2,3,4,5)            179.95           estimate D2E/DX2                !
 ! D14   D(2,3,4,50)            -0.5002         estimate D2E/DX2                !
 ! D15   D(54,3,4,5)            -1.5908         estimate D2E/DX2                !
 ! D16   D(54,3,4,50)          177.9589         estimate D2E/DX2                !
 ! D17   D(3,4,5,6)            -27.5245         estimate D2E/DX2                !
 ! D18   D(3,4,5,49)           153.3438         estimate D2E/DX2                !
 ! D19   D(50,4,5,6)           152.9256         estimate D2E/DX2                !
 ! D20   D(50,4,5,49)          -26.2061         estimate D2E/DX2                !
 ! D21   D(3,4,50,51)            0.8038         estimate D2E/DX2                !
 ! D22   D(3,4,50,78)         -179.5304         estimate D2E/DX2                !
 ! D23   D(5,4,50,51)         -179.6336         estimate D2E/DX2                !
 ! D24   D(5,4,50,78)            0.0322         estimate D2E/DX2                !
 ! D25   D(4,5,6,7)           -179.8268         estimate D2E/DX2                !
 ! D26   D(4,5,6,55)             0.2092         estimate D2E/DX2                !
 ! D27   D(49,5,6,7)            -0.7329         estimate D2E/DX2                !
 ! D28   D(49,5,6,55)          179.3031         estimate D2E/DX2                !
 ! D29   D(4,5,49,42)         -179.4615         estimate D2E/DX2                !
 ! D30   D(6,5,49,42)            1.3902         estimate D2E/DX2                !
 ! D31   D(5,6,7,8)           -179.7362         estimate D2E/DX2                !
 ! D32   D(5,6,7,41)            -0.6999         estimate D2E/DX2                !
 ! D33   D(55,6,7,8)             0.2278         estimate D2E/DX2                !
 ! D34   D(55,6,7,41)          179.2641         estimate D2E/DX2                !
 ! D35   D(6,7,8,9)            -27.049          estimate D2E/DX2                !
 ! D36   D(6,7,8,38)           153.4277         estimate D2E/DX2                !
 ! D37   D(41,7,8,9)           153.8744         estimate D2E/DX2                !
 ! D38   D(41,7,8,38)          -25.6489         estimate D2E/DX2                !
 ! D39   D(6,7,41,42)            1.3946         estimate D2E/DX2                !
 ! D40   D(8,7,41,42)         -179.5099         estimate D2E/DX2                !
 ! D41   D(7,8,9,10)           179.9784         estimate D2E/DX2                !
 ! D42   D(7,8,9,56)            -1.6632         estimate D2E/DX2                !
 ! D43   D(38,8,9,10)           -0.5032         estimate D2E/DX2                !
 ! D44   D(38,8,9,56)          177.8552         estimate D2E/DX2                !
 ! D45   D(7,8,38,37)         -179.6206         estimate D2E/DX2                !
 ! D46   D(7,8,38,72)            0.0419         estimate D2E/DX2                !
 ! D47   D(9,8,38,37)            0.847          estimate D2E/DX2                !
 ! D48   D(9,8,38,72)         -179.4905         estimate D2E/DX2                !
 ! D49   D(8,9,10,11)          179.8152         estimate D2E/DX2                !
 ! D50   D(8,9,10,39)           -0.2177         estimate D2E/DX2                !
 ! D51   D(56,9,10,11)           1.4303         estimate D2E/DX2                !
 ! D52   D(56,9,10,39)        -178.6025         estimate D2E/DX2                !
 ! D53   D(9,10,11,12)         179.7188         estimate D2E/DX2                !
 ! D54   D(9,10,11,57)          -0.1912         estimate D2E/DX2                !
 ! D55   D(39,10,11,12)         -0.2485         estimate D2E/DX2                !
 ! D56   D(39,10,11,57)        179.8414         estimate D2E/DX2                !
 ! D57   D(9,10,39,37)           0.606          estimate D2E/DX2                !
 ! D58   D(9,10,39,40)        -179.7501         estimate D2E/DX2                !
 ! D59   D(11,10,39,37)       -179.4257         estimate D2E/DX2                !
 ! D60   D(11,10,39,40)          0.2182         estimate D2E/DX2                !
 ! D61   D(10,11,12,13)          0.1164         estimate D2E/DX2                !
 ! D62   D(10,11,12,58)       -179.9152         estimate D2E/DX2                !
 ! D63   D(57,11,12,13)       -179.9759         estimate D2E/DX2                !
 ! D64   D(57,11,12,58)         -0.0075         estimate D2E/DX2                !
 ! D65   D(11,12,13,14)       -179.9777         estimate D2E/DX2                !
 ! D66   D(11,12,13,40)          0.0466         estimate D2E/DX2                !
 ! D67   D(58,12,13,14)          0.053          estimate D2E/DX2                !
 ! D68   D(58,12,13,40)       -179.9227         estimate D2E/DX2                !
 ! D69   D(12,13,14,15)        179.7105         estimate D2E/DX2                !
 ! D70   D(12,13,14,59)          0.618          estimate D2E/DX2                !
 ! D71   D(40,13,14,15)         -0.3139         estimate D2E/DX2                !
 ! D72   D(40,13,14,59)       -179.4065         estimate D2E/DX2                !
 ! D73   D(12,13,40,34)        179.6348         estimate D2E/DX2                !
 ! D74   D(12,13,40,39)         -0.0733         estimate D2E/DX2                !
 ! D75   D(14,13,40,34)         -0.3417         estimate D2E/DX2                !
 ! D76   D(14,13,40,39)        179.9502         estimate D2E/DX2                !
 ! D77   D(13,14,15,16)        178.7671         estimate D2E/DX2                !
 ! D78   D(13,14,15,33)          0.8381         estimate D2E/DX2                !
 ! D79   D(59,14,15,16)         -2.1399         estimate D2E/DX2                !
 ! D80   D(59,14,15,33)        179.931          estimate D2E/DX2                !
 ! D81   D(14,15,16,17)        -54.3124         estimate D2E/DX2                !
 ! D82   D(14,15,16,25)        126.343          estimate D2E/DX2                !
 ! D83   D(33,15,16,17)        123.595          estimate D2E/DX2                !
 ! D84   D(33,15,16,25)        -55.7496         estimate D2E/DX2                !
 ! D85   D(14,15,33,34)         -0.7078         estimate D2E/DX2                !
 ! D86   D(14,15,33,69)        178.0623         estimate D2E/DX2                !
 ! D87   D(16,15,33,34)       -178.6232         estimate D2E/DX2                !
 ! D88   D(16,15,33,69)          0.1469         estimate D2E/DX2                !
 ! D89   D(15,16,17,18)       -177.4491         estimate D2E/DX2                !
 ! D90   D(15,16,17,60)          0.9665         estimate D2E/DX2                !
 ! D91   D(25,16,17,18)          1.9082         estimate D2E/DX2                !
 ! D92   D(25,16,17,60)       -179.6762         estimate D2E/DX2                !
 ! D93   D(15,16,25,20)        176.9722         estimate D2E/DX2                !
 ! D94   D(15,16,25,24)         -5.0381         estimate D2E/DX2                !
 ! D95   D(17,16,25,20)         -2.3699         estimate D2E/DX2                !
 ! D96   D(17,16,25,24)        175.6198         estimate D2E/DX2                !
 ! D97   D(16,17,18,19)         -0.0603         estimate D2E/DX2                !
 ! D98   D(16,17,18,61)        179.2095         estimate D2E/DX2                !
 ! D99   D(60,17,18,19)       -178.4812         estimate D2E/DX2                !
 ! D100  D(60,17,18,61)          0.7887         estimate D2E/DX2                !
 ! D101  D(17,18,19,20)         -1.3105         estimate D2E/DX2                !
 ! D102  D(17,18,19,32)        178.983          estimate D2E/DX2                !
 ! D103  D(61,18,19,20)        179.4071         estimate D2E/DX2                !
 ! D104  D(61,18,19,32)         -0.2993         estimate D2E/DX2                !
 ! D105  D(18,19,20,21)       -178.7337         estimate D2E/DX2                !
 ! D106  D(18,19,20,25)          0.7959         estimate D2E/DX2                !
 ! D107  D(32,19,20,21)          0.9599         estimate D2E/DX2                !
 ! D108  D(32,19,20,25)       -179.5104         estimate D2E/DX2                !
 ! D109  D(18,19,32,31)        179.5864         estimate D2E/DX2                !
 ! D110  D(20,19,32,31)         -0.1168         estimate D2E/DX2                !
 ! D111  D(19,20,21,22)        178.496          estimate D2E/DX2                !
 ! D112  D(19,20,21,26)         -1.1789         estimate D2E/DX2                !
 ! D113  D(25,20,21,22)         -1.0262         estimate D2E/DX2                !
 ! D114  D(25,20,21,26)        179.2988         estimate D2E/DX2                !
 ! D115  D(19,20,25,16)          1.0421         estimate D2E/DX2                !
 ! D116  D(19,20,25,24)       -177.0471         estimate D2E/DX2                !
 ! D117  D(21,20,25,16)       -179.4305         estimate D2E/DX2                !
 ! D118  D(21,20,25,24)          2.4804         estimate D2E/DX2                !
 ! D119  D(20,21,22,23)         -0.8749         estimate D2E/DX2                !
 ! D120  D(20,21,22,62)        179.9892         estimate D2E/DX2                !
 ! D121  D(26,21,22,23)        178.7746         estimate D2E/DX2                !
 ! D122  D(26,21,22,62)         -0.3612         estimate D2E/DX2                !
 ! D123  D(20,21,26,27)       -179.2787         estimate D2E/DX2                !
 ! D124  D(20,21,26,31)          0.6338         estimate D2E/DX2                !
 ! D125  D(22,21,26,27)          1.0652         estimate D2E/DX2                !
 ! D126  D(22,21,26,31)       -179.0223         estimate D2E/DX2                !
 ! D127  D(21,22,23,24)          1.2844         estimate D2E/DX2                !
 ! D128  D(21,22,23,63)       -178.4508         estimate D2E/DX2                !
 ! D129  D(62,22,23,24)       -179.5622         estimate D2E/DX2                !
 ! D130  D(62,22,23,63)          0.7026         estimate D2E/DX2                !
 ! D131  D(22,23,24,25)          0.2557         estimate D2E/DX2                !
 ! D132  D(22,23,24,64)       -178.8293         estimate D2E/DX2                !
 ! D133  D(63,23,24,25)        179.9885         estimate D2E/DX2                !
 ! D134  D(63,23,24,64)          0.9034         estimate D2E/DX2                !
 ! D135  D(23,24,25,16)        179.889          estimate D2E/DX2                !
 ! D136  D(23,24,25,20)         -2.0967         estimate D2E/DX2                !
 ! D137  D(64,24,25,16)         -1.0162         estimate D2E/DX2                !
 ! D138  D(64,24,25,20)        176.998          estimate D2E/DX2                !
 ! D139  D(21,26,27,28)        179.9081         estimate D2E/DX2                !
 ! D140  D(21,26,27,65)         -0.0204         estimate D2E/DX2                !
 ! D141  D(31,26,27,28)         -0.0052         estimate D2E/DX2                !
 ! D142  D(31,26,27,65)       -179.9337         estimate D2E/DX2                !
 ! D143  D(21,26,31,30)       -179.9254         estimate D2E/DX2                !
 ! D144  D(21,26,31,32)          0.1814         estimate D2E/DX2                !
 ! D145  D(27,26,31,30)         -0.0076         estimate D2E/DX2                !
 ! D146  D(27,26,31,32)       -179.9007         estimate D2E/DX2                !
 ! D147  D(26,27,28,29)          0.0187         estimate D2E/DX2                !
 ! D148  D(26,27,28,66)       -179.9721         estimate D2E/DX2                !
 ! D149  D(65,27,28,29)        179.9475         estimate D2E/DX2                !
 ! D150  D(65,27,28,66)         -0.0433         estimate D2E/DX2                !
 ! D151  D(27,28,29,30)         -0.0193         estimate D2E/DX2                !
 ! D152  D(27,28,29,67)        179.9911         estimate D2E/DX2                !
 ! D153  D(66,28,29,30)        179.9714         estimate D2E/DX2                !
 ! D154  D(66,28,29,67)         -0.0182         estimate D2E/DX2                !
 ! D155  D(28,29,30,31)          0.0067         estimate D2E/DX2                !
 ! D156  D(28,29,30,68)       -179.9984         estimate D2E/DX2                !
 ! D157  D(67,29,30,31)        179.9964         estimate D2E/DX2                !
 ! D158  D(67,29,30,68)         -0.0088         estimate D2E/DX2                !
 ! D159  D(29,30,31,26)          0.0068         estimate D2E/DX2                !
 ! D160  D(29,30,31,32)        179.9071         estimate D2E/DX2                !
 ! D161  D(68,30,31,26)       -179.9882         estimate D2E/DX2                !
 ! D162  D(68,30,31,32)         -0.0879         estimate D2E/DX2                !
 ! D163  D(26,31,32,19)         -0.4572         estimate D2E/DX2                !
 ! D164  D(30,31,32,19)        179.6449         estimate D2E/DX2                !
 ! D165  D(15,33,34,35)       -179.9994         estimate D2E/DX2                !
 ! D166  D(15,33,34,40)          0.059          estimate D2E/DX2                !
 ! D167  D(69,33,34,35)          1.229          estimate D2E/DX2                !
 ! D168  D(69,33,34,40)       -178.7126         estimate D2E/DX2                !
 ! D169  D(33,34,35,36)        179.8596         estimate D2E/DX2                !
 ! D170  D(33,34,35,70)         -0.0686         estimate D2E/DX2                !
 ! D171  D(40,34,35,36)         -0.1985         estimate D2E/DX2                !
 ! D172  D(40,34,35,70)        179.8733         estimate D2E/DX2                !
 ! D173  D(33,34,40,13)          0.4666         estimate D2E/DX2                !
 ! D174  D(33,34,40,39)       -179.8251         estimate D2E/DX2                !
 ! D175  D(35,34,40,13)       -179.4771         estimate D2E/DX2                !
 ! D176  D(35,34,40,39)          0.2312         estimate D2E/DX2                !
 ! D177  D(34,35,36,37)          0.0556         estimate D2E/DX2                !
 ! D178  D(34,35,36,71)       -179.9911         estimate D2E/DX2                !
 ! D179  D(70,35,36,37)        179.9817         estimate D2E/DX2                !
 ! D180  D(70,35,36,71)         -0.065          estimate D2E/DX2                !
 ! D181  D(35,36,37,38)        179.9517         estimate D2E/DX2                !
 ! D182  D(35,36,37,39)          0.0546         estimate D2E/DX2                !
 ! D183  D(71,36,37,38)         -0.0029         estimate D2E/DX2                !
 ! D184  D(71,36,37,39)       -179.9            estimate D2E/DX2                !
 ! D185  D(36,37,38,8)         179.6498         estimate D2E/DX2                !
 ! D186  D(36,37,38,72)         -0.007          estimate D2E/DX2                !
 ! D187  D(39,37,38,8)          -0.4536         estimate D2E/DX2                !
 ! D188  D(39,37,38,72)        179.8895         estimate D2E/DX2                !
 ! D189  D(36,37,39,10)        179.625          estimate D2E/DX2                !
 ! D190  D(36,37,39,40)         -0.0189         estimate D2E/DX2                !
 ! D191  D(38,37,39,10)         -0.2754         estimate D2E/DX2                !
 ! D192  D(38,37,39,40)       -179.9193         estimate D2E/DX2                !
 ! D193  D(10,39,40,13)         -0.0612         estimate D2E/DX2                !
 ! D194  D(10,39,40,34)       -179.7682         estimate D2E/DX2                !
 ! D195  D(37,39,40,13)        179.5815         estimate D2E/DX2                !
 ! D196  D(37,39,40,34)         -0.1256         estimate D2E/DX2                !
 ! D197  D(7,41,42,43)         179.2951         estimate D2E/DX2                !
 ! D198  D(7,41,42,49)          -0.7268         estimate D2E/DX2                !
 ! D199  D(41,42,43,44)        172.9565         estimate D2E/DX2                !
 ! D200  D(41,42,43,48)         -7.0385         estimate D2E/DX2                !
 ! D201  D(49,42,43,44)         -7.0233         estimate D2E/DX2                !
 ! D202  D(49,42,43,48)        172.9817         estimate D2E/DX2                !
 ! D203  D(41,42,49,5)          -0.6802         estimate D2E/DX2                !
 ! D204  D(43,42,49,5)         179.2979         estimate D2E/DX2                !
 ! D205  D(42,43,44,45)       -179.9756         estimate D2E/DX2                !
 ! D206  D(42,43,44,73)         -0.2356         estimate D2E/DX2                !
 ! D207  D(48,43,44,45)          0.0194         estimate D2E/DX2                !
 ! D208  D(48,43,44,73)        179.7594         estimate D2E/DX2                !
 ! D209  D(42,43,48,47)       -179.9981         estimate D2E/DX2                !
 ! D210  D(42,43,48,77)         -0.2926         estimate D2E/DX2                !
 ! D211  D(44,43,48,47)          0.0069         estimate D2E/DX2                !
 ! D212  D(44,43,48,77)        179.7124         estimate D2E/DX2                !
 ! D213  D(43,44,45,46)         -0.0271         estimate D2E/DX2                !
 ! D214  D(43,44,45,74)        179.9256         estimate D2E/DX2                !
 ! D215  D(73,44,45,46)       -179.7608         estimate D2E/DX2                !
 ! D216  D(73,44,45,74)          0.192          estimate D2E/DX2                !
 ! D217  D(44,45,46,47)          0.0086         estimate D2E/DX2                !
 ! D218  D(44,45,46,75)       -179.9826         estimate D2E/DX2                !
 ! D219  D(74,45,46,47)       -179.9441         estimate D2E/DX2                !
 ! D220  D(74,45,46,75)          0.0647         estimate D2E/DX2                !
 ! D221  D(45,46,47,48)          0.0177         estimate D2E/DX2                !
 ! D222  D(45,46,47,76)       -179.9202         estimate D2E/DX2                !
 ! D223  D(75,46,47,48)       -179.9911         estimate D2E/DX2                !
 ! D224  D(75,46,47,76)          0.0711         estimate D2E/DX2                !
 ! D225  D(46,47,48,43)         -0.0254         estimate D2E/DX2                !
 ! D226  D(46,47,48,77)       -179.7238         estimate D2E/DX2                !
 ! D227  D(76,47,48,43)        179.9124         estimate D2E/DX2                !
 ! D228  D(76,47,48,77)          0.2141         estimate D2E/DX2                !
 ! D229  D(4,50,51,1)           -0.4327         estimate D2E/DX2                !
 ! D230  D(4,50,51,79)         179.6336         estimate D2E/DX2                !
 ! D231  D(78,50,51,1)         179.9101         estimate D2E/DX2                !
 ! D232  D(78,50,51,79)         -0.0236         estimate D2E/DX2                !
 --------------------------------------------------------------------------------
 Trust Radius=3.00D-01 FncErr=1.00D-07 GrdErr=1.00D-06 EigMax=2.50D+02 EigMin=1.00D-04
 Number of steps in this run=    474 maximum allowed number of steps=    474.
 GradGradGradGradGradGradGradGradGradGradGradGradGradGradGradGradGradGrad

 Leave Link  103 at Sat Nov  5 01:31:42 2022, MaxMem=   805306368 cpu:               0.2 elap:               0.1
 (Enter /home/wykgroup/appl/g16/l202.exe)
 Stoichiometry    C48H28N2O
 Framework group  C1[X(C48H28N2O)]
 Deg. of freedom   231
 Full point group                 C1      NOp   1
 Largest Abelian subgroup         C1      NOp   1
 Largest concise Abelian subgroup C1      NOp   1
                         Standard orientation:                         
 ---------------------------------------------------------------------
 Center     Atomic      Atomic             Coordinates (Angstroms)
 Number     Number       Type             X           Y           Z
 ---------------------------------------------------------------------
      1          6           0        9.889973   -4.188210    0.930164
      2          6           0        8.592156   -4.317969    1.396217
      3          6           0        7.674765   -3.303432    1.194962
      4          6           0        8.049438   -2.141418    0.525133
      5          6           0        7.103649   -1.042238    0.290999
      6          6           0        5.727899   -1.242602    0.185668
      7          6           0        4.935500   -0.118068   -0.040914
      8          6           0        3.473607   -0.187804   -0.166233
      9          6           0        2.834614   -1.339339   -0.614035
     10          6           0        1.446977   -1.390731   -0.727321
     11          6           0        0.765058   -2.557128   -1.187423
     12          6           0       -0.583655   -2.589952   -1.285432
     13          6           0       -1.379980   -1.458826   -0.935137
     14          6           0       -2.770313   -1.469990   -1.027640
     15          6           0       -3.525221   -0.357156   -0.674808
     16          6           0       -4.992298   -0.391748   -0.809903
     17          6           0       -5.545358   -0.724102   -2.026375
     18          6           0       -6.923996   -0.722121   -2.227249
     19          6           0       -7.765431   -0.382457   -1.191397
     20          6           0       -7.248603   -0.061797    0.083065
     21          6           0       -8.128772    0.261083    1.151427
     22          6           0       -7.597219    0.539435    2.392765
     23          6           0       -6.216920    0.486819    2.601358
     24          6           0       -5.357365    0.185218    1.580384
     25          6           0       -5.843253   -0.076808    0.282092
     26          6           0       -9.556840    0.267058    0.851132
     27          6           0      -10.544760    0.577532    1.787048
     28          6           0      -11.882384    0.570023    1.449535
     29          6           0      -12.273334    0.249252    0.157630
     30          6           0      -11.320614   -0.062064   -0.789641
     31          6           0       -9.970647   -0.054447   -0.449898
     32          8           0       -9.103978   -0.375364   -1.445306
     33          6           0       -2.882284    0.796626   -0.237124
     34          6           0       -1.494436    0.853291   -0.131635
     35          6           0       -0.812436    2.025258    0.314752
     36          6           0        0.536033    2.059017    0.412903
     37          6           0        1.332119    0.923825    0.072769
     38          6           0        2.720284    0.935347    0.164754
     39          6           0        0.680523   -0.252206   -0.375579
     40          6           0       -0.728359   -0.286877   -0.478714
     41          7           0        5.479849    1.092295   -0.136445
     42          6           0        6.800198    1.192058   -0.037815
     43          6           0        7.388163    2.529241   -0.160643
     44          6           0        8.746840    2.723525    0.078322
     45          6           0        9.297601    3.985093   -0.037831
     46          6           0        8.500896    5.062221   -0.393050
     47          6           0        7.148619    4.874684   -0.632342
     48          6           0        6.592073    3.615599   -0.517236
     49          7           0        7.628614    0.173795    0.163904
     50          6           0        9.361212   -2.013465    0.072027
     51          6           0       10.272940   -3.031857    0.269619
     52          1           0       10.602217   -4.985065    1.086332
     53          1           0        8.294267   -5.213760    1.921620
     54          1           0        6.671962   -3.407859    1.582717
     55          1           0        5.296366   -2.225082    0.276268
     56          1           0        3.411440   -2.205012   -0.906470
     57          1           0        1.358820   -3.419740   -1.455844
     58          1           0       -1.090734   -3.478734   -1.633759
     59          1           0       -3.272449   -2.365290   -1.366229
     60          1           0       -4.895793   -0.968417   -2.854140
     61          1           0       -7.345010   -0.971953   -3.187831
     62          1           0       -8.237478    0.787989    3.223733
     63          1           0       -5.829584    0.684887    3.590286
     64          1           0       -4.295358    0.130518    1.764033
     65          1           0      -10.260316    0.830204    2.795892
     66          1           0      -12.624961    0.814726    2.193752
     67          1           0      -13.319093    0.242482   -0.109045
     68          1           0      -11.592658   -0.315562   -1.802208
     69          1           0       -3.468188    1.671680    0.006936
     70          1           0       -1.408010    2.889145    0.574567
     71          1           0        1.044611    2.950216    0.751858
     72          1           0        3.235779    1.821613    0.502277
     73          1           0        9.351002    1.874438    0.357507
     74          1           0       10.351382    4.132917    0.149283
     75          1           0        8.933993    6.047938   -0.483541
     76          1           0        6.529020    5.715012   -0.910425
     77          1           0        5.542463    3.450370   -0.704028
     78          1           0        9.643094   -1.105866   -0.439006
     79          1           0       11.285828   -2.925871   -0.090410
 ---------------------------------------------------------------------
 Rotational constants (GHZ):           0.1529052           0.0158000           0.0148930
 Leave Link  202 at Sat Nov  5 01:31:42 2022, MaxMem=   805306368 cpu:               0.2 elap:               0.1
 (Enter /home/wykgroup/appl/g16/l301.exe)
 Standard basis: 6-31G(d) (6D, 7F)
 Ernie: Thresh=  0.10000D-02 Tol=  0.10000D-05 Strict=F.
 There are   821 symmetry adapted cartesian basis functions of A   symmetry.
 There are   821 symmetry adapted basis functions of A   symmetry.
   821 basis functions,  1540 primitive gaussians,   821 cartesian basis functions
   169 alpha electrons      169 beta electrons
       nuclear repulsion energy      5307.1261738325 Hartrees.
 IExCor=  402 DFT=T Ex+Corr=B3LYP ExCW=0 ScaHFX=  0.200000
 ScaDFX=  0.800000  0.720000  1.000000  0.810000 ScalE2=  1.000000  1.000000
 IRadAn=      5 IRanWt=     -1 IRanGd=            0 ICorTp=0 IEmpDi=  4
 NAtoms=   79 NActive=   79 NUniq=   79 SFac= 1.00D+00 NAtFMM=   60 NAOKFM=T Big=T
 Integral buffers will be    131072 words long.
 Raffenetti 2 integral format.
 Two-electron integral symmetry is turned on.
 Leave Link  301 at Sat Nov  5 01:31:42 2022, MaxMem=   805306368 cpu:               0.4 elap:               0.1
 (Enter /home/wykgroup/appl/g16/l302.exe)
 NPDir=0 NMtPBC=     1 NCelOv=     1 NCel=       1 NClECP=     1 NCelD=      1
         NCelK=      1 NCelE2=     1 NClLst=     1 CellRange=     0.0.
 One-electron integrals computed using PRISM.
 One-electron integral symmetry used in STVInt
 NBasis=   821 RedAO= T EigKep=  1.41D-04  NBF=   821
 NBsUse=   821 1.00D-06 EigRej= -1.00D+00 NBFU=   821
 Precomputing XC quadrature grid using
 IXCGrd= 4 IRadAn=           5 IRanWt=          -1 IRanGd=           0 AccXCQ= 0.00D+00.
 Generated NRdTot=       0 NPtTot=           0 NUsed=           0 NTot=          32
 NSgBfM=   692   690   691   691   692 MxSgAt=    79 MxSgA2=    79.
 Leave Link  302 at Sat Nov  5 01:31:45 2022, MaxMem=   805306368 cpu:              12.8 elap:               2.8
 (Enter /home/wykgroup/appl/g16/l303.exe)
 DipDrv:  MaxL=1.
 Leave Link  303 at Sat Nov  5 01:31:45 2022, MaxMem=   805306368 cpu:               1.1 elap:               0.3
 (Enter /home/wykgroup/appl/g16/l401.exe)
 ExpMin= 1.61D-01 ExpMax= 5.48D+03 ExpMxC= 8.25D+02 IAcc=3 IRadAn=         5 AccDes= 0.00D+00
 Harris functional with IExCor=  402 and IRadAn=       5 diagonalized for initial guess.
 HarFok:  IExCor=  402 AccDes= 0.00D+00 IRadAn=         5 IDoV= 1 UseB2=F ITyADJ=14
 ICtDFT=  3500011 ScaDFX=  1.000000  1.000000  1.000000  1.000000
 FoFCou: FMM=F IPFlag=           0 FMFlag=      100000 FMFlg1=        2001
         NFxFlg=           0 DoJE=T BraDBF=F KetDBF=T FulRan=T
         wScrn=  0.000000 ICntrl=       500 IOpCl=  0 I1Cent=   200000004 NGrid=           0
         NMat0=    1 NMatS0=      1 NMatT0=    0 NMatD0=    1 NMtDS0=    0 NMtDT0=    0
 Petite list used in FoFCou.
 Harris En= -2030.78807734171    
 JPrj=0 DoOrth=F DoCkMO=F.
 Leave Link  401 at Sat Nov  5 01:31:53 2022, MaxMem=   805306368 cpu:              43.7 elap:               8.6
 (Enter /home/wykgroup/appl/g16/l502.exe)
 Integral symmetry usage will be decided dynamically.
 Closed shell SCF:
 Using DIIS extrapolation, IDIIS=  1040.
 NGot=   805306368 LenX=   803944075 LenY=   803269213
 Requested convergence on RMS density matrix=1.00D-08 within  32 cycles.
 Requested convergence on MAX density matrix=1.00D-06.
 Requested convergence on             energy=1.00D-06.
 No special actions if energy rises.
 Fock matrices will be formed incrementally for  20 cycles.
 Integral accuracy reduced to 1.0D-05 until final iterations.

 Cycle   1  Pass 0  IDiag  1:
 FoFJK:  IHMeth= 1 ICntrl=       0 DoSepK=F KAlg= 0 I1Cent=           0 FoldK=F
 IRaf= 600000000 NMat=       1 IRICut=       1 DoRegI=T DoRafI=F ISym2E= 0 IDoP0=0 IntGTp=1.
 FoFCou: FMM=T IPFlag=           0 FMFlag=      100000 FMFlg1=        2001
         NFxFlg=           0 DoJE=F BraDBF=F KetDBF=F FulRan=T
         wScrn=  0.000000 ICntrl=         0 IOpCl=  0 I1Cent=           0 NGrid=           0
         NMat0=    1 NMatS0=      1 NMatT0=    0 NMatD0=    1 NMtDS0=    0 NMtDT0=    0
 Symmetry not used in FoFCou.
 FMM levels:  10  Number of levels for PrismC:   9
 E= -2029.84601366827    
 DIIS: error= 3.95D-02 at cycle   1 NSaved=   1.
 NSaved= 1 IEnMin= 1 EnMin= -2029.84601366827     IErMin= 1 ErrMin= 3.95D-02
 ErrMax= 3.95D-02  0.00D+00 EMaxC= 1.00D-01 BMatC= 8.94D-01 BMatP= 8.94D-01
 IDIUse=3 WtCom= 6.05D-01 WtEn= 3.95D-01
 Coeff-Com:  0.100D+01
 Coeff-En:   0.100D+01
 Coeff:      0.100D+01
 Gap=     0.152 Goal=   None    Shift=    0.000
 GapD=    0.152 DampG=1.000 DampE=0.500 DampFc=0.5000 IDamp=-1.
 Damping current iteration by 5.00D-01
 RMSDP=3.42D-03 MaxDP=1.16D-01              OVMax= 2.59D-01

 Cycle   2  Pass 0  IDiag  1:
 RMSU=  1.59D-03    CP:  9.51D-01
 E= -2030.28953913333     Delta-E=       -0.443525465067 Rises=F Damp=T
 DIIS: error= 6.56D-03 at cycle   2 NSaved=   2.
 NSaved= 2 IEnMin= 2 EnMin= -2030.28953913333     IErMin= 2 ErrMin= 6.56D-03
 ErrMax= 6.56D-03  0.00D+00 EMaxC= 1.00D-01 BMatC= 7.42D-02 BMatP= 8.94D-01
 IDIUse=3 WtCom= 9.34D-01 WtEn= 6.56D-02
 Coeff-Com: -0.244D-02 0.100D+01
 Coeff-En:   0.263D-02 0.997D+00
 Coeff:     -0.211D-02 0.100D+01
 Gap=     0.162 Goal=   None    Shift=    0.000
 RMSDP=1.29D-03 MaxDP=7.36D-02 DE=-4.44D-01 OVMax= 3.65D-01

 Cycle   3  Pass 0  IDiag  1:
 RMSU=  1.20D-03    CP:  9.19D-01  1.16D+00
 E= -2030.66609048927     Delta-E=       -0.376551355936 Rises=F Damp=F
 DIIS: error= 1.12D-02 at cycle   3 NSaved=   3.
 NSaved= 3 IEnMin= 3 EnMin= -2030.66609048927     IErMin= 2 ErrMin= 6.56D-03
 ErrMax= 1.12D-02  0.00D+00 EMaxC= 1.00D-01 BMatC= 1.21D-01 BMatP= 7.42D-02
 IDIUse=2 WtCom= 0.00D+00 WtEn= 1.00D+00
 Coeff-En:   0.000D+00 0.000D+00 0.100D+01
 Coeff:      0.000D+00 0.000D+00 0.100D+01
 Gap=     0.176 Goal=   None    Shift=    0.000
 RMSDP=1.74D-03 MaxDP=1.75D-01 DE=-3.77D-01 OVMax= 3.37D-01

 Cycle   4  Pass 0  IDiag  1:
 RMSU=  1.10D-03    CP:  9.19D-01  1.41D+00 -7.01D-02
 E= -2030.00986121067     Delta-E=        0.656229278603 Rises=F Damp=F
 DIIS: error= 2.98D-02 at cycle   4 NSaved=   4.
 NSaved= 4 IEnMin= 3 EnMin= -2030.66609048927     IErMin= 2 ErrMin= 6.56D-03
 ErrMax= 2.98D-02  0.00D+00 EMaxC= 1.00D-01 BMatC= 6.97D-01 BMatP= 7.42D-02
 IDIUse=2 WtCom= 0.00D+00 WtEn= 1.00D+00
 Coeff-En:   0.000D+00 0.000D+00 0.793D+00 0.207D+00
 Coeff:      0.000D+00 0.000D+00 0.793D+00 0.207D+00
 Gap=     0.131 Goal=   None    Shift=    0.000
 RMSDP=8.94D-04 MaxDP=1.00D-01 DE= 6.56D-01 OVMax= 2.70D-01

 Cycle   5  Pass 0  IDiag  1:
 RMSU=  2.22D-04    CP:  9.20D-01  1.28D+00  4.27D-01  4.64D-01
 E= -2030.74144292447     Delta-E=       -0.731581713801 Rises=F Damp=F
 DIIS: error= 8.29D-03 at cycle   5 NSaved=   5.
 NSaved= 5 IEnMin= 5 EnMin= -2030.74144292447     IErMin= 2 ErrMin= 6.56D-03
 ErrMax= 8.29D-03  0.00D+00 EMaxC= 1.00D-01 BMatC= 5.68D-02 BMatP= 7.42D-02
 IDIUse=3 WtCom= 9.17D-01 WtEn= 8.29D-02
 Coeff-Com:  0.544D-02 0.984D-02 0.359D+00-0.424D-01 0.668D+00
 Coeff-En:   0.000D+00 0.000D+00 0.359D+00 0.000D+00 0.641D+00
 Coeff:      0.499D-02 0.902D-02 0.359D+00-0.389D-01 0.666D+00
 Gap=     0.126 Goal=   None    Shift=    0.000
 RMSDP=3.66D-04 MaxDP=3.54D-02 DE=-7.32D-01 OVMax= 9.83D-02

 Cycle   6  Pass 0  IDiag  1:
 RMSU=  1.00D-04    CP:  9.20D-01  1.22D+00  6.46D-01  2.78D-01  6.45D-01
 E= -2030.80276993761     Delta-E=       -0.061327013142 Rises=F Damp=F
 DIIS: error= 1.90D-03 at cycle   6 NSaved=   6.
 NSaved= 6 IEnMin= 6 EnMin= -2030.80276993761     IErMin= 6 ErrMin= 1.90D-03
 ErrMax= 1.90D-03  0.00D+00 EMaxC= 1.00D-01 BMatC= 1.61D-03 BMatP= 5.68D-02
 IDIUse=3 WtCom= 9.81D-01 WtEn= 1.90D-02
 Coeff-Com:  0.302D-02-0.301D-02 0.165D+00-0.652D-01 0.466D+00 0.434D+00
 Coeff-En:   0.000D+00 0.000D+00 0.000D+00 0.000D+00 0.000D+00 0.100D+01
 Coeff:      0.296D-02-0.295D-02 0.162D+00-0.640D-01 0.457D+00 0.445D+00
 Gap=     0.126 Goal=   None    Shift=    0.000
 RMSDP=7.05D-05 MaxDP=4.13D-03 DE=-6.13D-02 OVMax= 1.84D-02

 Cycle   7  Pass 0  IDiag  1:
 RMSU=  2.38D-05    CP:  9.20D-01  1.22D+00  6.47D-01  2.70D-01  7.79D-01
                    CP:  4.15D-01
 E= -2030.80452700295     Delta-E=       -0.001757065341 Rises=F Damp=F
 DIIS: error= 4.05D-04 at cycle   7 NSaved=   7.
 NSaved= 7 IEnMin= 7 EnMin= -2030.80452700295     IErMin= 7 ErrMin= 4.05D-04
 ErrMax= 4.05D-04  0.00D+00 EMaxC= 1.00D-01 BMatC= 8.07D-05 BMatP= 1.61D-03
 IDIUse=3 WtCom= 9.96D-01 WtEn= 4.05D-03
 Coeff-Com:  0.118D-02-0.120D-02 0.661D-01-0.310D-01 0.197D+00 0.251D+00
 Coeff-Com:  0.517D+00
 Coeff-En:   0.000D+00 0.000D+00 0.000D+00 0.000D+00 0.000D+00 0.000D+00
 Coeff-En:   0.100D+01
 Coeff:      0.117D-02-0.120D-02 0.658D-01-0.309D-01 0.197D+00 0.250D+00
 Coeff:      0.519D+00
 Gap=     0.125 Goal=   None    Shift=    0.000
 RMSDP=1.75D-05 MaxDP=9.76D-04 DE=-1.76D-03 OVMax= 4.77D-03

 Cycle   8  Pass 0  IDiag  1:
 RMSU=  9.38D-06    CP:  9.20D-01  1.22D+00  6.49D-01  2.71D-01  7.69D-01
                    CP:  4.90D-01  4.84D-01
 E= -2030.80461184503     Delta-E=       -0.000084842078 Rises=F Damp=F
 DIIS: error= 1.67D-04 at cycle   8 NSaved=   8.
 NSaved= 8 IEnMin= 8 EnMin= -2030.80461184503     IErMin= 8 ErrMin= 1.67D-04
 ErrMax= 1.67D-04  0.00D+00 EMaxC= 1.00D-01 BMatC= 1.29D-05 BMatP= 8.07D-05
 IDIUse=3 WtCom= 9.98D-01 WtEn= 1.67D-03
 Coeff-Com:  0.162D-03-0.237D-03 0.872D-02-0.488D-02 0.235D-01 0.635D-01
 Coeff-Com:  0.322D+00 0.587D+00
 Coeff-En:   0.000D+00 0.000D+00 0.000D+00 0.000D+00 0.000D+00 0.000D+00
 Coeff-En:   0.101D+00 0.899D+00
 Coeff:      0.161D-03-0.237D-03 0.871D-02-0.488D-02 0.234D-01 0.634D-01
 Coeff:      0.322D+00 0.587D+00
 Gap=     0.126 Goal=   None    Shift=    0.000
 RMSDP=7.18D-06 MaxDP=4.72D-04 DE=-8.48D-05 OVMax= 1.90D-03

 Initial convergence to 1.0D-05 achieved.  Increase integral accuracy.
 Cycle   9  Pass 1  IDiag  1:
 E= -2030.80462270648     Delta-E=       -0.000010861450 Rises=F Damp=F
 DIIS: error= 3.04D-04 at cycle   1 NSaved=   1.
 NSaved= 1 IEnMin= 1 EnMin= -2030.80462270648     IErMin= 1 ErrMin= 3.04D-04
 ErrMax= 3.04D-04  0.00D+00 EMaxC= 1.00D-01 BMatC= 2.40D-05 BMatP= 2.40D-05
 IDIUse=3 WtCom= 9.97D-01 WtEn= 3.04D-03
 Coeff-Com:  0.100D+01
 Coeff-En:   0.100D+01
 Coeff:      0.100D+01
 Gap=     0.125 Goal=   None    Shift=    0.000
 RMSDP=7.18D-06 MaxDP=4.72D-04 DE=-1.09D-05 OVMax= 1.84D-03

 Cycle  10  Pass 1  IDiag  1:
 RMSU=  1.64D-04    CP:  9.99D-01
 E= -2030.80463201865     Delta-E=       -0.000009312172 Rises=F Damp=F
 DIIS: error= 1.46D-04 at cycle   2 NSaved=   2.
 NSaved= 2 IEnMin= 2 EnMin= -2030.80463201865     IErMin= 2 ErrMin= 1.46D-04
 ErrMax= 1.46D-04  0.00D+00 EMaxC= 1.00D-01 BMatC= 9.46D-06 BMatP= 2.40D-05
 IDIUse=3 WtCom= 9.99D-01 WtEn= 1.46D-03
 Coeff-Com:  0.325D+00 0.675D+00
 Coeff-En:   0.196D+00 0.804D+00
 Coeff:      0.325D+00 0.675D+00
 Gap=     0.126 Goal=   None    Shift=    0.000
 RMSDP=1.04D-05 MaxDP=7.11D-04 DE=-9.31D-06 OVMax= 3.10D-03

 Cycle  11  Pass 1  IDiag  1:
 RMSU=  1.04D-05    CP:  9.99D-01  1.00D+00
 E= -2030.80462539033     Delta-E=        0.000006628323 Rises=F Damp=F
 DIIS: error= 2.04D-04 at cycle   3 NSaved=   3.
 NSaved= 3 IEnMin= 2 EnMin= -2030.80463201865     IErMin= 2 ErrMin= 1.46D-04
 ErrMax= 2.04D-04  0.00D+00 EMaxC= 1.00D-01 BMatC= 1.47D-05 BMatP= 9.46D-06
 IDIUse=3 WtCom= 4.12D-01 WtEn= 5.88D-01
 Coeff-Com:  0.869D-02 0.553D+00 0.439D+00
 Coeff-En:   0.000D+00 0.586D+00 0.414D+00
 Coeff:      0.358D-02 0.572D+00 0.424D+00
 Gap=     0.126 Goal=   None    Shift=    0.000
 RMSDP=5.77D-06 MaxDP=4.00D-04 DE= 6.63D-06 OVMax= 1.83D-03

 Cycle  12  Pass 1  IDiag  1:
 RMSU=  1.40D-06    CP:  9.99D-01  1.01D+00  4.64D-01
 E= -2030.80464241991     Delta-E=       -0.000017029585 Rises=F Damp=F
 DIIS: error= 1.43D-05 at cycle   4 NSaved=   4.
 NSaved= 4 IEnMin= 4 EnMin= -2030.80464241991     IErMin= 4 ErrMin= 1.43D-05
 ErrMax= 1.43D-05  0.00D+00 EMaxC= 1.00D-01 BMatC= 3.35D-07 BMatP= 9.46D-06
 IDIUse=1 WtCom= 1.00D+00 WtEn= 0.00D+00
 Coeff-Com: -0.283D-02 0.346D+00 0.260D+00 0.397D+00
 Coeff:     -0.283D-02 0.346D+00 0.260D+00 0.397D+00
 Gap=     0.126 Goal=   None    Shift=    0.000
 RMSDP=8.83D-07 MaxDP=4.87D-05 DE=-1.70D-05 OVMax= 1.32D-04

 Cycle  13  Pass 1  IDiag  1:
 RMSU=  3.67D-07    CP:  9.99D-01  1.01D+00  4.47D-01  4.40D-01
 E= -2030.80464273787     Delta-E=       -0.000000317959 Rises=F Damp=F
 DIIS: error= 3.73D-06 at cycle   5 NSaved=   5.
 NSaved= 5 IEnMin= 5 EnMin= -2030.80464273787     IErMin= 5 ErrMin= 3.73D-06
 ErrMax= 3.73D-06  0.00D+00 EMaxC= 1.00D-01 BMatC= 1.22D-08 BMatP= 3.35D-07
 IDIUse=1 WtCom= 1.00D+00 WtEn= 0.00D+00
 Coeff-Com: -0.214D-02 0.214D+00 0.160D+00 0.265D+00 0.362D+00
 Coeff:     -0.214D-02 0.214D+00 0.160D+00 0.265D+00 0.362D+00
 Gap=     0.126 Goal=   None    Shift=    0.000
 RMSDP=1.83D-07 MaxDP=1.29D-05 DE=-3.18D-07 OVMax= 4.64D-05

 Cycle  14  Pass 1  IDiag  1:
 RMSU=  1.22D-07    CP:  9.99D-01  1.01D+00  4.47D-01  4.65D-01  6.38D-01
 E= -2030.80464275134     Delta-E=       -0.000000013468 Rises=F Damp=F
 DIIS: error= 5.37D-07 at cycle   6 NSaved=   6.
 NSaved= 6 IEnMin= 6 EnMin= -2030.80464275134     IErMin= 6 ErrMin= 5.37D-07
 ErrMax= 5.37D-07  0.00D+00 EMaxC= 1.00D-01 BMatC= 3.81D-10 BMatP= 1.22D-08
 IDIUse=1 WtCom= 1.00D+00 WtEn= 0.00D+00
 Coeff-Com: -0.115D-02 0.112D+00 0.836D-01 0.140D+00 0.215D+00 0.450D+00
 Coeff:     -0.115D-02 0.112D+00 0.836D-01 0.140D+00 0.215D+00 0.450D+00
 Gap=     0.126 Goal=   None    Shift=    0.000
 RMSDP=3.77D-08 MaxDP=3.58D-06 DE=-1.35D-08 OVMax= 1.02D-05

 Cycle  15  Pass 1  IDiag  1:
 RMSU=  3.16D-08    CP:  9.99D-01  1.01D+00  4.47D-01  4.62D-01  6.63D-01
                    CP:  8.55D-01
 E= -2030.80464275164     Delta-E=       -0.000000000305 Rises=F Damp=F
 DIIS: error= 2.17D-07 at cycle   7 NSaved=   7.
 NSaved= 7 IEnMin= 7 EnMin= -2030.80464275164     IErMin= 7 ErrMin= 2.17D-07
 ErrMax= 2.17D-07  0.00D+00 EMaxC= 1.00D-01 BMatC= 4.69D-11 BMatP= 3.81D-10
 IDIUse=1 WtCom= 1.00D+00 WtEn= 0.00D+00
 Coeff-Com: -0.359D-03 0.341D-01 0.255D-01 0.432D-01 0.705D-01 0.282D+00
 Coeff-Com:  0.545D+00
 Coeff:     -0.359D-03 0.341D-01 0.255D-01 0.432D-01 0.705D-01 0.282D+00
 Coeff:      0.545D+00
 Gap=     0.126 Goal=   None    Shift=    0.000
 RMSDP=1.26D-08 MaxDP=1.12D-06 DE=-3.05D-10 OVMax= 2.48D-06

 Cycle  16  Pass 1  IDiag  1:
 RMSU=  9.05D-09    CP:  9.99D-01  1.01D+00  4.47D-01  4.63D-01  6.62D-01
                    CP:  8.91D-01  7.67D-01
 E= -2030.80464275179     Delta-E=       -0.000000000148 Rises=F Damp=F
 DIIS: error= 7.17D-08 at cycle   8 NSaved=   8.
 NSaved= 8 IEnMin= 8 EnMin= -2030.80464275179     IErMin= 8 ErrMin= 7.17D-08
 ErrMax= 7.17D-08  0.00D+00 EMaxC= 1.00D-01 BMatC= 5.54D-12 BMatP= 4.69D-11
 IDIUse=1 WtCom= 1.00D+00 WtEn= 0.00D+00
 Coeff-Com: -0.211D-04 0.152D-02 0.114D-02 0.228D-02 0.473D-02 0.991D-01
 Coeff-Com:  0.317D+00 0.574D+00
 Coeff:     -0.211D-04 0.152D-02 0.114D-02 0.228D-02 0.473D-02 0.991D-01
 Coeff:      0.317D+00 0.574D+00
 Gap=     0.126 Goal=   None    Shift=    0.000
 RMSDP=4.58D-09 MaxDP=2.63D-07 DE=-1.48D-10 OVMax= 7.38D-07

 SCF Done:  E(RB3LYP) =  -2030.80464275     A.U. after   16 cycles
            NFock= 16  Conv=0.46D-08     -V/T= 2.0087
 KE= 2.013283772453D+03 PE=-1.532297040034D+04 EE= 5.971755811302D+03
 Leave Link  502 at Sat Nov  5 01:36:13 2022, MaxMem=   805306368 cpu:            1240.3 elap:             259.2
 (Enter /home/wykgroup/appl/g16/l508.exe)
 QCSCF skips out because SCF is already converged.
 Leave Link  508 at Sat Nov  5 01:36:13 2022, MaxMem=   805306368 cpu:               0.1 elap:               0.1
 (Enter /home/wykgroup/appl/g16/l601.exe)
 Copying SCF densities to generalized density rwf, IOpCl= 0 IROHF=0.

 **********************************************************************

            Population analysis using the SCF Density.

 **********************************************************************

 Orbital symmetries:
       Occupied  (A) (A) (A) (A) (A) (A) (A) (A) (A) (A) (A) (A)
                 (A) (A) (A) (A) (A) (A) (A) (A) (A) (A) (A) (A)
                 (A) (A) (A) (A) (A) (A) (A) (A) (A) (A) (A) (A)
                 (A) (A) (A) (A) (A) (A) (A) (A) (A) (A) (A) (A)
[...]
 Alpha  occ. eigenvalues --   -0.32203  -0.32020  -0.30644  -0.29613  -0.29570
 Alpha  occ. eigenvalues --   -0.28324  -0.27604  -0.26033  -0.25617  -0.25537
 Alpha  occ. eigenvalues --   -0.25023  -0.24710  -0.24529  -0.24389  -0.24357
 Alpha  occ. eigenvalues --   -0.23286  -0.22440  -0.20084  -0.18688
 Alpha virt. eigenvalues --   -0.06344  -0.06024  -0.05099  -0.04785  -0.02646
 Alpha virt. eigenvalues --   -0.01796  -0.01001  -0.00506  -0.00388   0.00491
 Alpha virt. eigenvalues --    0.00630   0.01550   0.01715   0.04294   0.05184
 Alpha virt. eigenvalues --    0.07125   0.08593   0.08756   0.09740   0.09873
 Alpha virt. eigenvalues --    0.10319   0.10429   0.10623   0.11051   0.11243
 Alpha virt. eigenvalues --    0.11682   0.12529   0.12900   0.13524   0.13798
 Alpha virt. eigenvalues --    0.14330   0.14938   0.15116   0.15226   0.15711
 Alpha virt. eigenvalues --    0.15867   0.16207   0.16800   0.16918   0.17017
 Alpha virt. eigenvalues --    0.17147   0.17204   0.17591   0.17856   0.18264
 Alpha virt. eigenvalues --    0.18527   0.19256   0.19859   0.19906   0.22012
 Alpha virt. eigenvalues --    0.22429   0.22672   0.22793   0.23022   0.23186
 Alpha virt. eigenvalues --    0.23800   0.23985   0.24658   0.24734   0.25323
 Alpha virt. eigenvalues --    0.25686   0.25897   0.26051   0.27230   0.27701
 Alpha virt. eigenvalues --    0.28027   0.28559   0.29166   0.29610   0.29888
 Alpha virt. eigenvalues --    0.30137   0.30416   0.30859   0.31037   0.31288
 Alpha virt. eigenvalues --    0.31446   0.31699   0.32234   0.33039   0.33151
 Alpha virt. eigenvalues --    0.33496   0.33856   0.34364   0.34816   0.35582
 Alpha virt. eigenvalues --    0.36260   0.37279   0.37630   0.38282   0.39397
 Alpha virt. eigenvalues --    0.40095   0.41556   0.42088   0.43027   0.43552
 Alpha virt. eigenvalues --    0.44643   0.45679   0.46636   0.46978   0.47771
 Alpha virt. eigenvalues --    0.48528   0.48857   0.48980   0.49182   0.49470
 Alpha virt. eigenvalues --    0.49908   0.50318   0.50568   0.51140   0.51290
 Alpha virt. eigenvalues --    0.51906   0.52104   0.52328   0.52774   0.52938
 Alpha virt. eigenvalues --    0.53311   0.53723   0.53766   0.53931   0.54053
 Alpha virt. eigenvalues --    0.54197   0.54364   0.54565   0.54875   0.55291
 Alpha virt. eigenvalues --    0.55486   0.55952   0.56052   0.56310   0.56502
 Alpha virt. eigenvalues --    0.56804   0.56934   0.57231   0.57389   0.57464
 Alpha virt. eigenvalues --    0.57641   0.57837   0.58102   0.58243   0.58317
 Alpha virt. eigenvalues --    0.58484   0.58645   0.58684   0.59062   0.59188
 Alpha virt. eigenvalues --    0.59337   0.59669   0.59718   0.59946   0.60095
 Alpha virt. eigenvalues --    0.60148   0.60338   0.60528   0.60686   0.60695
 Alpha virt. eigenvalues --    0.60873   0.60943   0.61211   0.61295   0.61307
 Alpha virt. eigenvalues --    0.61653   0.61727   0.62118   0.62178   0.62228
 Alpha virt. eigenvalues --    0.62581   0.62682   0.63002   0.63083   0.63455
 Alpha virt. eigenvalues --    0.63730   0.63846   0.64289   0.64458   0.65153
 Alpha virt. eigenvalues --    0.65613   0.65697   0.65982   0.66216   0.66858
 Alpha virt. eigenvalues --    0.67272   0.67488   0.68120   0.68395   0.68740
 Alpha virt. eigenvalues --    0.69215   0.69741   0.70259   0.70931   0.71354
 Alpha virt. eigenvalues --    0.72680   0.73671   0.74171   0.74985   0.76244
 Alpha virt. eigenvalues --    0.77610   0.78794   0.78910   0.79433   0.79765
 Alpha virt. eigenvalues --    0.80309   0.80421   0.80724   0.81144   0.81350
 Alpha virt. eigenvalues --    0.81766   0.82029   0.82406   0.82753   0.82837
 Alpha virt. eigenvalues --    0.83306   0.83490   0.83529   0.84009   0.84210
 Alpha virt. eigenvalues --    0.84267   0.84551   0.84647   0.84789   0.84944
 Alpha virt. eigenvalues --    0.85037   0.85363   0.86096   0.86121   0.87275
 Alpha virt. eigenvalues --    0.87716   0.87834   0.88077   0.88356   0.89219
 Alpha virt. eigenvalues --    0.89513   0.89895   0.90199   0.90442   0.90764
 Alpha virt. eigenvalues --    0.90981   0.91674   0.91894   0.92292   0.92694
 Alpha virt. eigenvalues --    0.92902   0.93128   0.93292   0.93805   0.94393
 Alpha virt. eigenvalues --    0.94611   0.94809   0.95667   0.95987   0.96208
 Alpha virt. eigenvalues --    0.96768   0.96936   0.97391   0.97744   0.98696
 Alpha virt. eigenvalues --    0.99422   0.99867   1.00588   1.01736   1.01747
 Alpha virt. eigenvalues --    1.02409   1.02763   1.03883   1.04750   1.05202
 Alpha virt. eigenvalues --    1.05316   1.05687   1.06165   1.06628   1.07093
 Alpha virt. eigenvalues --    1.08017   1.08209   1.08910   1.09166   1.09831
 Alpha virt. eigenvalues --    1.09899   1.10536   1.11244   1.12251   1.12860
 Alpha virt. eigenvalues --    1.13704   1.14764   1.15263   1.15691   1.16614
 Alpha virt. eigenvalues --    1.17258   1.17635   1.18048   1.18473   1.18961
 Alpha virt. eigenvalues --    1.19119   1.19460   1.19974   1.20262   1.20806
 Alpha virt. eigenvalues --    1.21123   1.21694   1.22154   1.22473   1.22997
 Alpha virt. eigenvalues --    1.23227   1.23752   1.24746   1.25151   1.25491
 Alpha virt. eigenvalues --    1.25734   1.25978   1.26559   1.26688   1.27767
 Alpha virt. eigenvalues --    1.28375   1.28753   1.29551   1.30094   1.30433
 Alpha virt. eigenvalues --    1.31419   1.32568   1.33126   1.35716   1.35954
 Alpha virt. eigenvalues --    1.36206   1.36822   1.37862   1.38940   1.39626
 Alpha virt. eigenvalues --    1.40350   1.40856   1.41409   1.41926   1.42288
 Alpha virt. eigenvalues --    1.42555   1.42950   1.43786   1.44169   1.44460
 Alpha virt. eigenvalues --    1.45048   1.45109   1.45723   1.46011   1.46493
 Alpha virt. eigenvalues --    1.46825   1.46953   1.47153   1.47320   1.47662
 Alpha virt. eigenvalues --    1.47985   1.48092   1.48415   1.48582   1.48597
 Alpha virt. eigenvalues --    1.48788   1.49076   1.49091   1.49565   1.49862
 Alpha virt. eigenvalues --    1.49899   1.50628   1.51009   1.51084   1.51148
 Alpha virt. eigenvalues --    1.51499   1.51757   1.52390   1.52666   1.53937
 Alpha virt. eigenvalues --    1.55005   1.55932   1.57060   1.59482   1.60172
 Alpha virt. eigenvalues --    1.60819   1.62678   1.63165   1.66663   1.68970
 Alpha virt. eigenvalues --    1.69461   1.71636   1.71834   1.72808   1.72982
 Alpha virt. eigenvalues --    1.73580   1.74093   1.75304   1.75913   1.76405
 Alpha virt. eigenvalues --    1.77147   1.78029   1.78787   1.79152   1.79584
 Alpha virt. eigenvalues --    1.80435   1.80763   1.80866   1.81144   1.81269
 Alpha virt. eigenvalues --    1.81867   1.82107   1.82287   1.82520   1.82601
 Alpha virt. eigenvalues --    1.83557   1.84852   1.85489   1.86290   1.87078
 Alpha virt. eigenvalues --    1.87310   1.87665   1.87773   1.88136   1.88566
 Alpha virt. eigenvalues --    1.89279   1.89457   1.90045   1.90658   1.91138
 Alpha virt. eigenvalues --    1.91150   1.91400   1.92146   1.92365   1.92520
 Alpha virt. eigenvalues --    1.93384   1.94014   1.94328   1.94605   1.94910
 Alpha virt. eigenvalues --    1.95104   1.96572   1.96801   1.96844   1.97215
 Alpha virt. eigenvalues --    1.97913   1.98579   1.98915   1.99407   2.00230
 Alpha virt. eigenvalues --    2.00912   2.01156   2.01341   2.01739   2.03937
 Alpha virt. eigenvalues --    2.04905   2.05542   2.05954   2.06545   2.07077
 Alpha virt. eigenvalues --    2.08183   2.08759   2.09120   2.09421   2.10130
 Alpha virt. eigenvalues --    2.10923   2.11192   2.12153   2.12874   2.13521
 Alpha virt. eigenvalues --    2.13783   2.13944   2.14582   2.14811   2.14875
 Alpha virt. eigenvalues --    2.15170   2.15513   2.16902   2.17711   2.19119
 Alpha virt. eigenvalues --    2.19719   2.20389   2.21296   2.22333   2.22692
 Alpha virt. eigenvalues --    2.22759   2.23168   2.23797   2.24077   2.24583
 Alpha virt. eigenvalues --    2.24732   2.25059   2.26559   2.26970   2.27071
 Alpha virt. eigenvalues --    2.27340   2.27392   2.27900   2.28385   2.29127
 Alpha virt. eigenvalues --    2.29260   2.29816   2.30055   2.30445   2.30762
 Alpha virt. eigenvalues --    2.31189   2.31494   2.31615   2.32004   2.32450
 Alpha virt. eigenvalues --    2.33690   2.34291   2.34878   2.36104   2.36473
 Alpha virt. eigenvalues --    2.36708   2.37369   2.37682   2.38048   2.38593
 Alpha virt. eigenvalues --    2.39070   2.40151   2.40973   2.41879   2.41982
 Alpha virt. eigenvalues --    2.43169   2.44037   2.45038   2.47510   2.50633
 Alpha virt. eigenvalues --    2.50913   2.51840   2.52398   2.53777   2.53945
 Alpha virt. eigenvalues --    2.54191   2.54505   2.56767   2.58419   2.59518
 Alpha virt. eigenvalues --    2.59726   2.60726   2.60960   2.61260   2.62015
 Alpha virt. eigenvalues --    2.62961   2.63120   2.64024   2.64501   2.65542
 Alpha virt. eigenvalues --    2.66062   2.66384   2.67321   2.67999   2.68121
 Alpha virt. eigenvalues --    2.69158   2.69366   2.70141   2.70740   2.71393
 Alpha virt. eigenvalues --    2.71586   2.71828   2.72034   2.72845   2.74118
 Alpha virt. eigenvalues --    2.74970   2.75323   2.75645   2.76195   2.76515
 Alpha virt. eigenvalues --    2.77274   2.77894   2.78495   2.79611   2.80565
 Alpha virt. eigenvalues --    2.80938   2.81338   2.81949   2.82677   2.82808
 Alpha virt. eigenvalues --    2.83983   2.85547   2.85992   2.87604   2.88521
 Alpha virt. eigenvalues --    2.90367   2.90911   2.91224   2.92466   2.93651
 Alpha virt. eigenvalues --    2.94402   2.95171   2.96461   2.97279   3.00391
 Alpha virt. eigenvalues --    3.00924   3.04547   3.05340   3.07633   3.09258
 Alpha virt. eigenvalues --    3.10440   3.15742   3.18479   3.20428   3.23253
 Alpha virt. eigenvalues --    3.29681   3.32334   3.34178   3.36911   3.38726
 Alpha virt. eigenvalues --    3.41942   3.49266   3.50150   3.51206   3.55140
 Alpha virt. eigenvalues --    3.57392   4.05660   4.06588   4.07732   4.08460
 Alpha virt. eigenvalues --    4.08902   4.09079   4.09241   4.09309   4.10152
 Alpha virt. eigenvalues --    4.10578   4.11195   4.11450   4.11578   4.12053
 Alpha virt. eigenvalues --    4.12613   4.12848   4.12858   4.13580   4.14188
 Alpha virt. eigenvalues --    4.16294   4.17408   4.18050   4.19587   4.24334
 Alpha virt. eigenvalues --    4.25232   4.25241   4.26860   4.30953   4.32564
 Alpha virt. eigenvalues --    4.33369   4.33522   4.33947   4.35167   4.35280
 Alpha virt. eigenvalues --    4.38902   4.40534   4.41304   4.42690   4.43776
 Alpha virt. eigenvalues --    4.45910   4.49143   4.52921   4.56831   4.59291
 Alpha virt. eigenvalues --    4.68275   4.69427   4.71380   4.75025   4.77234
 Alpha virt. eigenvalues --    4.92882   4.95395
          Condensed to atoms (all electrons):
 Mulliken charges:
               1
     1  C   -0.119831
     2  C   -0.139112
     3  C   -0.173298
     4  C    0.092824
     5  C    0.274549
     6  C   -0.215680
     7  C    0.275425
     8  C    0.116697
     9  C   -0.293602
    10  C    0.165417
    11  C   -0.193790
    12  C   -0.196359
    13  C    0.174225
    14  C   -0.285100
    15  C    0.088447
    16  C    0.012574
    17  C   -0.182489
    18  C   -0.205016
    19  C    0.313755
    20  C    0.000663
    21  C    0.140333
    22  C   -0.219811
    23  C   -0.128867
    24  C   -0.210093
    25  C    0.095026
    26  C    0.076598
    27  C   -0.198710
    28  C   -0.134415
    29  C   -0.131474
    30  C   -0.185612
    31  C    0.298552
    32  O   -0.570028
    33  C   -0.289057
    34  C    0.174569
    35  C   -0.197168
    36  C   -0.190801
    37  C    0.170356
    38  C   -0.279492
    39  C   -0.001570
    40  C   -0.016270
    41  N   -0.556287
    42  C    0.443052
    43  C    0.076095
    44  C   -0.161489
    45  C   -0.138965
    46  C   -0.119147
    47  C   -0.139035
    48  C   -0.161565
    49  N   -0.554402
    50  C   -0.155148
    51  C   -0.136461
    52  H    0.133844
    53  H    0.133594
    54  H    0.134432
    55  H    0.147981
    56  H    0.133463
    57  H    0.130978
    58  H    0.133225
    59  H    0.133858
    60  H    0.138200
    61  H    0.141506
    62  H    0.131742
    63  H    0.132487
    64  H    0.146585
    65  H    0.138922
    66  H    0.133141
    67  H    0.136930
    68  H    0.146742
    69  H    0.140551
    70  H    0.133797
    71  H    0.135721
    72  H    0.159007
    73  H    0.155791
    74  H    0.129393
    75  H    0.129243
    76  H    0.129326
    77  H    0.155576
    78  H    0.159981
    79  H    0.134965
 Sum of Mulliken charges =  -0.00000
 Mulliken charges with hydrogens summed into heavy atoms:
               1
     1  C    0.014013
     2  C   -0.005517
     3  C   -0.038866
     4  C    0.092824
     5  C    0.274549
     6  C   -0.067699
     7  C    0.275425
     8  C    0.116697
     9  C   -0.160138
    10  C    0.165417
    11  C   -0.062812
    12  C   -0.063134
    13  C    0.174225
    14  C   -0.151241
    15  C    0.088447
    16  C    0.012574
    17  C   -0.044289
    18  C   -0.063510
    19  C    0.313755
    20  C    0.000663
    21  C    0.140333
    22  C   -0.088069
    23  C    0.003621
    24  C   -0.063508
    25  C    0.095026
    26  C    0.076598
    27  C   -0.059788
    28  C   -0.001274
    29  C    0.005456
    30  C   -0.038870
    31  C    0.298552
    32  O   -0.570028
    33  C   -0.148506
    34  C    0.174569
    35  C   -0.063371
    36  C   -0.055080
    37  C    0.170356
    38  C   -0.120485
    39  C   -0.001570
    40  C   -0.016270
    41  N   -0.556287
    42  C    0.443052
    43  C    0.076095
    44  C   -0.005698
    45  C   -0.009572
    46  C    0.010097
    47  C   -0.009709
    48  C   -0.005989
    49  N   -0.554402
    50  C    0.004833
    51  C   -0.001496
 Electronic spatial extent (au):  <R**2>=          67368.5633
 Charge=             -0.0000 electrons
 Dipole moment (field-independent basis, Debye):
    X=             -1.6924    Y=             -1.3684    Z=              0.8721  Tot=              2.3446
 Quadrupole moment (field-independent basis, Debye-Ang):
   XX=           -247.1238   YY=           -264.9945   ZZ=           -284.3460
   XY=            -14.5596   XZ=             -4.7445   YZ=              4.5067
 Traceless Quadrupole moment (field-independent basis, Debye-Ang):
   XX=             18.3643   YY=              0.4936   ZZ=            -18.8579
   XY=            -14.5596   XZ=             -4.7445   YZ=              4.5067
 Octapole moment (field-independent basis, Debye-Ang**2):
  XXX=           -244.4851  YYY=             -1.7371  ZZZ=              9.0605  XYY=            154.7888
  XXY=            -45.4176  XXZ=             60.4808  XZZ=           -104.5403  YZZ=             -4.6119
  YYZ=              1.0025  XYZ=            -67.0704
 Hexadecapole moment (field-independent basis, Debye-Ang**3):
 XXXX=         -73507.3169 YYYY=          -7012.5205 ZZZZ=          -1900.3122 XXXY=          -1100.0228
 XXXZ=           -555.4144 YYYX=             61.4954 YYYZ=           -140.1250 ZZZX=            -58.4733
 ZZZY=             75.1898 XXYY=         -14498.6859 XXZZ=         -14216.1309 YYZZ=          -1655.6540
 XXYZ=            181.3300 YYXZ=            133.9747 ZZXY=            -87.5403
 N-N= 5.258002624514D+03 E-N=-1.522305956108D+04  KE= 2.011380511942D+03
 No NMR shielding tensors so no spin-rotation constants.
 Leave Link  601 at Sat Nov  5 02:16:19 2022, MaxMem=   805306368 cpu:               2.9 elap:               1.0
 (Enter /home/wykgroup/appl/g16/l9999.exe)
 1\1\GINC-NODE02\FOpt\RB3LYP\6-31G(d)\C48H28N2O1\WYKGROUP\05-Nov-2022\0
 \\#p b3lyp/6-31g(d) opt SCF=XQC\\Gaussian input prepared by ASE\\0,1\C
 ,-9.3971521629,5.0695935967,0.3015487854\C,-8.0462985024,5.1600688384,
 0.6420067992\C,-7.2377456628,4.0253082957,0.6069918203\C,-7.7673809255
 ,2.7794592307,0.2340461256\C,-6.9249305393,1.5560353539,0.1827023501\C
 ,-5.5329453542,1.611051317,0.0448680121\C,-4.8286819965,0.4019897646,0
 .0072942644\C,-3.3499771271,0.3474926697,-0.1366386779\C,-2.6294424799
 ,1.4129713419,-0.6944530363\C,-1.235021611,1.3639569508,-0.8246216235\
 C,-0.4760740295,2.4417499112,-1.4008240026\C,0.8792098942,2.372673788,
 -1.5132737679\C,1.6098250058,1.217973323,-1.0634239891\C,3.0054029277,
 1.1238139684,-1.1651242374\C,3.7032596,-0.0075242541,-0.7181061194\C,5
 .1805386731,-0.0891149925,-0.8947110251\C,5.7151054804,0.0912904153,-2
 .1620353281\C,7.0938709947,-0.0026248461,-2.4177205741\C,7.9533405472,
 -0.2858632121,-1.3778335249\C,7.4806378468,-0.461900277,-0.0523022638\
 C,8.4023823886,-0.7282867509,1.0087674816\C,7.9151478544,-0.8613891979
 ,2.299162783\C,6.5380441861,-0.7235717677,2.5609968202\C,5.6380779298,
 -0.4744773848,1.5479712042\C,6.0720478355,-0.3515704399,0.1994075333\C
 ,9.825234764,-0.8380095597,0.6495804478\C,10.8529274417,-1.1144376616,
 1.5690588056\C,12.1817985177,-1.2068701811,1.1707217273\C,12.522422037
 1,-1.0232849813,-0.1738050637\C,11.5302920594,-0.7494276831,-1.1085540
 619\C,10.2008162088,-0.6597573351,-0.6935494479\O,9.2878127988,-0.3854
 622659,-1.6796970076\C,2.9767923229,-1.0709333901,-0.1594778523\C,1.58
 13209127,-1.0243003024,-0.0353001624\C,0.8204171988,-2.1089291353,0.52
 70106942\C,-0.5350355007,-2.0428826706,0.6345873161\C,-1.2657908417,-0
 .8852471498,0.190204536\C,-2.658991014,-0.7951726746,0.2912266621\C,-0
 .5357717666,0.2047558662,-0.3730285253\C,0.8814107237,0.1337776967,-0.
 489546555\N,-5.4741153012,-0.7708995415,0.1165081075\C,-6.8105989205,-
 0.7382310338,0.2317239748\C,-7.5195401442,-2.0414617059,0.3353776722\C
 ,-8.8998648948,-2.0830817421,0.586635918\C,-9.5623563938,-3.3045663609
 ,0.6851307901\C,-8.8578685401,-4.500950456,0.5315077143\C,-7.484302912
 6,-4.4676975384,0.2796161985\C,-6.8184061325,-3.2478848285,0.183346119
 4\N,-7.5595151806,0.3747722626,0.2610531618\C,-9.1305046694,2.69826173
 4,-0.0935594137\C,-9.9357876246,3.8340940659,-0.0652984554\H,-10.02668
 21566,5.9550362246,0.3265682773\H,-7.6217243365,6.114171338,0.94238175
 61\H,-6.1953903726,4.109217038,0.8998955188\H,-5.017040399,2.559272502
 4,-0.0300214351\H,-3.1510939651,2.2904735102,-1.0660138103\H,-1.011612
 1942,3.3224974761,-1.7471649019\H,1.4368874483,3.1977528162,-1.9496759
 885\H,3.5622243188,1.9559493745,-1.5886117329\H,5.0425155835,0.2851936
 625,-2.9928187733\H,7.4922423776,0.1272477123,-3.4182922908\H,8.589096
 0519,-1.0605215561,3.1255214035\H,6.1834768855,-0.8098552334,3.5846715
 171\H,4.5854132396,-0.3557221083,1.7771053598\H,10.6056001782,-1.26121
 43393,2.6153406701\H,12.9517220391,-1.4220220176,1.9057605937\H,13.558
 3311359,-1.0939314971,-0.4927379308\H,11.7577215155,-0.6017995977,-2.1
 59350617\H,3.5045936702,-1.9631496473,0.1671642143\H,1.356292013,-2.99
 15916949,0.8676093838\H,-1.0944677103,-2.8712115622,1.0620547229\H,-3.
 2269011287,-1.6180100691,0.7123674256\H,-9.4374138694,-1.149323474,0.7
 066898367\H,-10.6308548248,-3.3233667639,0.8833087318\H,-9.3761324022,
 -5.4533834204,0.6074492594\H,-6.9306319159,-5.3948492648,0.1564810009\
 H,-5.7531752438,-3.2117328076,-0.0148049575\H,-9.5402458783,1.73410800
 94,-0.3732884779\H,-10.9867909808,3.7554843199,-0.3303068662\\Version=
 ES64L-G16RevB.01\State=1-A\HF=-2030.8132916\RMSD=6.996e-09\RMSF=2.510e
 -06\Dipole=0.7081671,0.5398485,0.2407826\Quadrupole=12.3559446,0.37272
 49,-12.7286695,-11.1127869,4.4468132,-5.6323187\PG=C01 [X(C48H28N2O1)]
 \\@


 THERE IS AN OLD, OLD RECIPE IN MAINE FOR STEWING COOT. PLACE THE
 BIRD IN A KETTLE OF WATER WITH A RED BUILDING BRICK FREE OF MORTAR AND
 BLEMISHES. PARBOIL THE COOT AND BRICK TOGETHER FOR THREE HOURS.
 POUR OFF THE WATER, REFILL THE KETTLE, AND AGAIN PARBOIL FOR THREE HOURS.
 ONCE AGAIN POUR OFF THE WATER, FOR THE LAST TIME ADD FRESH WATER,
 AND LET THE COOT AND BRICK SIMMER TOGETHER OVERNIGHT. IN THE MORNING,
 THROW AWAY THE COOT AND EAT THE BRICK.
 Job cpu time:       0 days  3 hours 27 minutes 33.6 seconds.
 Elapsed time:       0 days  0 hours 44 minutes 35.8 seconds.
 File lengths (MBytes):  RWF=    419 Int=      0 D2E=      0 Chk=     54 Scr=      1
 Normal termination of Gaussian 16 at Sat Nov  5 02:16:20 2022.
