 Entering Gaussian System, Link 0=/home/wykgroup/appl/g16/g16
 Input=calculation/no_transfer_pubchem_sampling_9_b3lyp/89502054_rwf.com
 Output=calculation/no_transfer_pubchem_sampling_9_b3lyp/89502054_rwf.log
 Initial command:
 /home/wykgroup/appl/g16/l1.exe "/userdata/scratch/wykgroup/khs/calculation/no_transfer_pubchem_sampling_9_b3lyp/89502054_rwf/Gau-27835.inp" -scrdir="/userdata/scratch/wykgroup/khs/calculation/no_transfer_pubchem_sampling_9_b3lyp/89502054_rwf/"
 Entering Link 1 = /home/wykgroup/appl/g16/l1.exe PID=     27836.
  
 Copyright (c) 1988-2017, Gaussian, Inc.  All Rights Reserved.
  
 This is part of the Gaussian(R) 16 program.  It is based on
 the Gaussian(R) 09 system (copyright 2009, Gaussian, Inc.),
 the Gaussian(R) 03 system (copyright 2003, Gaussian, Inc.),
 the Gaussian(R) 98 system (copyright 1998, Gaussian, Inc.),
 the Gaussian(R) 94 system (copyright 1995, Gaussian, Inc.),
 the Gaussian 92(TM) system (copyright 1992, Gaussian, Inc.),
 the Gaussian 90(TM) system (copyright 1990, Gaussian, Inc.),
 the Gaussian 88(TM) system (copyright 1988, Gaussian, Inc.),
 the Gaussian 86(TM) system (copyright 1986, Carnegie Mellon
 University), and the Gaussian 82(TM) system (copyright 1983,
 Carnegie Mellon University). Gaussian is a federally registered
 trademark of Gaussian, Inc.
  
 This software contains proprietary and confidential information,
 including trade secrets, belonging to Gaussian, Inc.
  
 This software is provided under written license and may be
 used, copied, transmitted, or stored only in accord with that
 written license.
  
 The following legend is applicable only to US Government
 contracts under FAR:
  
                    RESTRICTED RIGHTS LEGEND
  
 Use, reproduction and disclosure by the US Government is
 subject to restrictions as set forth in subparagraphs (a)
 and (c) of the Commercial Computer Software - Restricted
 Rights clause in FAR 52.227-19.
  
 Gaussian, Inc.
 340 Quinnipiac St., Bldg. 40, Wallingford CT 06492
  
  
 ---------------------------------------------------------------
 Warning -- This program may not be used in any manner that
 competes with the business of Gaussian, Inc. or will provide
 assistance to any competitor of Gaussian, Inc.  The licensee
 of this program is prohibited from giving any competitor of
 Gaussian, Inc. access to this program.  By using this program,
 the user acknowledges that Gaussian, Inc. is engaged in the
 business of creating and licensing software in the field of
 computational chemistry and represents and warrants to the
 licensee that it is not a competitor of Gaussian, Inc. and that
 it will not use this program in any manner prohibited above.
 ---------------------------------------------------------------
  

 Cite this work as:
 Gaussian 16, Revision B.01,
 M. J. Frisch, G. W. Trucks, H. B. Schlegel, G. E. Scuseria, 
 M. A. Robb, J. R. Cheeseman, G. Scalmani, V. Barone, 
 G. A. Petersson, H. Nakatsuji, X. Li, M. Caricato, A. V. Marenich, 
 J. Bloino, B. G. Janesko, R. Gomperts, B. Mennucci, H. P. Hratchian, 
 J. V. Ortiz, A. F. Izmaylov, J. L. Sonnenberg, D. Williams-Young, 
 F. Ding, F. Lipparini, F. Egidi, J. Goings, B. Peng, A. Petrone, 
 T. Henderson, D. Ranasinghe, V. G. Zakrzewski, J. Gao, N. Rega, 
 G. Zheng, W. Liang, M. Hada, M. Ehara, K. Toyota, R. Fukuda, 
 J. Hasegawa, M. Ishida, T. Nakajima, Y. Honda, O. Kitao, H. Nakai, 
 T. Vreven, K. Throssell, J. A. Montgomery, Jr., J. E. Peralta, 
 F. Ogliaro, M. J. Bearpark, J. J. Heyd, E. N. Brothers, K. N. Kudin, 
 V. N. Staroverov, T. A. Keith, R. Kobayashi, J. Normand, 
 K. Raghavachari, A. P. Rendell, J. C. Burant, S. S. Iyengar, 
 J. Tomasi, M. Cossi, J. M. Millam, M. Klene, C. Adamo, R. Cammi, 
 J. W. Ochterski, R. L. Martin, K. Morokuma, O. Farkas, 
 J. B. Foresman, and D. J. Fox, Gaussian, Inc., Wallingford CT, 2016.
 
 ******************************************
 Gaussian 16:  ES64L-G16RevB.01 20-Dec-2017
                 5-Nov-2022 
 ******************************************
 %chk=calculation/no_transfer_pubchem_sampling_9_b3lyp/89502054_rwf.chk
 %rwf=calculation/no_transfer_pubchem_sampling_9_b3lyp/89502054_rwf.rwf
 %nprocshared=14
 Will use up to   14 processors via shared memory.
 %mem=3GB
 -------------------------------------------------------------------
 #p b3lyp/6-31g(d) 6D 10F nosymm GFInput td=(50-50,nstate=2) SCF=XQC
 -------------------------------------------------------------------
 1/38=1,172=1/1;
 2/12=2,15=1,17=6,18=5,40=1/2;
 3/5=1,6=6,7=1,8=22,11=9,24=10,25=1,30=1,74=-5/1,2,3,8;
 4//1;
 5/5=2,8=3,13=1,38=5/2,8;
 8/6=1,10=2,108=2/1;
 9/41=2,42=1,48=2,70=2/14;
 6/7=2,8=2,9=2,10=2/1;
 99/5=1,9=1/99;
 Leave Link    1 at Sat Nov  5 10:12:56 2022, MaxMem=   402653184 cpu:               4.9 elap:               0.4
 (Enter /home/wykgroup/appl/g16/l101.exe)
 ------------------------------
 Gaussian input prepared by ASE
 ------------------------------
 Symbolic Z-matrix:
 Charge =  0 Multiplicity = 1
 C                     6.46349  -2.73999   0.47818 
 C                     6.43449  -1.95676   1.79524 
 C                     6.23707  -0.41587   1.67211 
 C                     7.43603   0.19371   0.9195 
 C                     6.23157   0.18459   3.09952 
 C                     4.8941   -0.09865   0.98716 
 C                     3.69044  -0.57224   1.56181 
 C                     2.43731  -0.32496   1.01094 
 C                     2.37684   0.42338  -0.16699 
 C                     3.55473   0.92896  -0.76018 
 C                     4.80195   0.65998  -0.18194 
 C                     3.14834   1.68846  -1.92469 
 C                     3.85152   2.39844  -2.90441 
 C                     3.14589   3.01901  -3.93113 
 C                     1.74525   2.92913  -3.9898 
 C                     1.02124   2.22836  -3.02698 
 C                     1.7335    1.61894  -1.99087 
 N                     1.2674    0.84346  -0.91818 
 C                    -0.08564   0.53351  -0.64001 
 C                    -0.46264  -0.79485  -0.4079 
 C                    -1.79396  -1.10367  -0.10563 
 N                    -2.17464  -2.45266   0.10217 
 C                    -2.88131  -2.94693   1.20849 
 C                    -3.33968  -2.27608   2.34517 
 C                    -4.0024   -3.0226    3.31754 
 C                    -4.20137  -4.40544   3.17003 
 C                    -3.7309   -5.07079   2.04175 
 C                    -3.06219  -4.34398   1.05026 
 C                    -2.44467  -4.71011  -0.20736 
 C                    -2.31803  -5.91894  -0.90129 
 C                    -1.67122  -5.92908  -2.13345 
 C                    -1.15889  -4.7406   -2.68025 
 C                    -1.2709   -3.52417  -2.00959 
 C                    -1.90706  -3.52328  -0.76524 
 C                    -2.75392  -0.08625  -0.04568 
 C                    -2.36975   1.23966  -0.26794 
 N                    -3.34      2.27548  -0.1971 
 C                    -3.72804   3.10617  -1.25474 
 C                    -3.30727   3.0998   -2.58667 
 C                    -3.87455   4.03526  -3.44965 
 C                    -4.84187   4.95138  -3.00222 
 C                    -5.2678    4.94188  -1.67705 
 C                    -4.7144    4.0122   -0.78888 
 C                    -4.92985   3.71506   0.61246 
 C                    -5.75494   4.26248   1.60187 
 C                    -5.7044    3.74238   2.89205 
 C                    -4.83139   2.68618   3.20421 
 C                    -3.99988   2.12271   2.23847 
 C                    -4.06678   2.63939   0.94247 
 C                    -1.0393    1.5558   -0.55904 
 H                     5.54433  -2.58677  -0.09741 
 H                     6.56021  -3.81385   0.67498 
 H                     7.30809  -2.44776  -0.15545 
 H                     5.63819  -2.36446   2.43124 
 H                     7.37197  -2.13064   2.34229 
 H                     8.36744  -0.07409   1.43168 
 H                     7.51166  -0.16364  -0.11231 
 H                     7.37772   1.28778   0.89363 
 H                     5.42981  -0.23515   3.7163 
 H                     7.18289  -0.02131   3.60573 
 H                     6.0925    1.2711    3.06581 
 H                     3.7326   -1.15499   2.47725 
 H                     1.54143  -0.69937   1.49481 
 H                     5.69357   1.05731  -0.65443 
 H                     4.93592   2.45992  -2.86494 
 H                     3.6807    3.57472  -4.69597 
 H                     1.21094   3.41404  -4.80216 
 H                    -0.05951   2.16076  -3.08813 
 H                     0.27683  -1.585    -0.46322 
 H                    -3.18604  -1.21014   2.47401 
 H                    -4.37071  -2.52064   4.20801 
 H                    -4.72383  -4.95835   3.94533 
 H                    -3.87667  -6.14223   1.93229 
 H                    -2.72523  -6.83628  -0.48424 
 H                    -1.56527  -6.86122  -2.68087 
 H                    -0.66607  -4.76538  -3.64825 
 H                    -0.88166  -2.61144  -2.44781 
 H                    -3.79438  -0.32486   0.14312 
 H                    -2.57406   2.38295  -2.94224 
 H                    -3.56315   4.05178  -4.49053 
 H                    -5.2637    5.66907  -3.69993 
 H                    -6.02416   5.64405  -1.33623 
 H                    -6.42299   5.08662   1.36567 
 H                    -6.34091   4.15873   3.66749 
 H                    -4.79928   2.30109   4.21976 
 H                    -3.31517   1.319     2.48963 
 H                    -0.74554   2.59079  -0.69147 
 
 ITRead=  0  0  0  0  0  0  0  0  0  0  0  0  0  0  0  0  0  0  0  0
 ITRead=  0  0  0  0  0  0  0  0  0  0  0  0  0  0  0  0  0  0  0  0
 ITRead=  0  0  0  0  0  0  0  0  0  0  0  0  0  0  0  0  0  0  0  0
 ITRead=  0  0  0  0  0  0  0  0  0  0  0  0  0  0  0  0  0  0  0  0
 ITRead=  0  0  0  0  0  0  0
 MicOpt= -1 -1 -1 -1 -1 -1 -1 -1 -1 -1 -1 -1 -1 -1 -1 -1 -1 -1 -1 -1
 MicOpt= -1 -1 -1 -1 -1 -1 -1 -1 -1 -1 -1 -1 -1 -1 -1 -1 -1 -1 -1 -1
 MicOpt= -1 -1 -1 -1 -1 -1 -1 -1 -1 -1 -1 -1 -1 -1 -1 -1 -1 -1 -1 -1
 MicOpt= -1 -1 -1 -1 -1 -1 -1 -1 -1 -1 -1 -1 -1 -1 -1 -1 -1 -1 -1 -1
 MicOpt= -1 -1 -1 -1 -1 -1 -1
 NAtoms=     87 NQM=       87 NQMF=       0 NMMI=      0 NMMIF=      0
                NMic=       0 NMicF=      0.
                    Isotopes and Nuclear Properties:
 (Nuclear quadrupole moments (NQMom) in fm**2, nuclear magnetic moments (NMagM)
  in nuclear magnetons)

  Atom         1           2           3           4           5           6           7           8           9          10
 IAtWgt=          12          12          12          12          12          12          12          12          12          12
 AtmWgt=  12.0000000  12.0000000  12.0000000  12.0000000  12.0000000  12.0000000  12.0000000  12.0000000  12.0000000  12.0000000
 NucSpn=           0           0           0           0           0           0           0           0           0           0
 AtZEff=  -0.0000000  -0.0000000  -0.0000000  -0.0000000  -0.0000000  -0.0000000  -0.0000000  -0.0000000  -0.0000000  -0.0000000
 NQMom=    0.0000000   0.0000000   0.0000000   0.0000000   0.0000000   0.0000000   0.0000000   0.0000000   0.0000000   0.0000000
 NMagM=    0.0000000   0.0000000   0.0000000   0.0000000   0.0000000   0.0000000   0.0000000   0.0000000   0.0000000   0.0000000
 AtZNuc=   6.0000000   6.0000000   6.0000000   6.0000000   6.0000000   6.0000000   6.0000000   6.0000000   6.0000000   6.0000000

  Atom        11          12          13          14          15          16          17          18          19          20
 IAtWgt=          12          12          12          12          12          12          12          14          12          12
 AtmWgt=  12.0000000  12.0000000  12.0000000  12.0000000  12.0000000  12.0000000  12.0000000  14.0030740  12.0000000  12.0000000
 NucSpn=           0           0           0           0           0           0           0           2           0           0
 AtZEff=  -0.0000000  -0.0000000  -0.0000000  -0.0000000  -0.0000000  -0.0000000  -0.0000000  -0.0000000  -0.0000000  -0.0000000
 NQMom=    0.0000000   0.0000000   0.0000000   0.0000000   0.0000000   0.0000000   0.0000000   2.0440000   0.0000000   0.0000000
 NMagM=    0.0000000   0.0000000   0.0000000   0.0000000   0.0000000   0.0000000   0.0000000   0.4037610   0.0000000   0.0000000
 AtZNuc=   6.0000000   6.0000000   6.0000000   6.0000000   6.0000000   6.0000000   6.0000000   7.0000000   6.0000000   6.0000000

  Atom        21          22          23          24          25          26          27          28          29          30
 IAtWgt=          12          14          12          12          12          12          12          12          12          12
 AtmWgt=  12.0000000  14.0030740  12.0000000  12.0000000  12.0000000  12.0000000  12.0000000  12.0000000  12.0000000  12.0000000
 NucSpn=           0           2           0           0           0           0           0           0           0           0
 AtZEff=  -0.0000000  -0.0000000  -0.0000000  -0.0000000  -0.0000000  -0.0000000  -0.0000000  -0.0000000  -0.0000000  -0.0000000
 NQMom=    0.0000000   2.0440000   0.0000000   0.0000000   0.0000000   0.0000000   0.0000000   0.0000000   0.0000000   0.0000000
 NMagM=    0.0000000   0.4037610   0.0000000   0.0000000   0.0000000   0.0000000   0.0000000   0.0000000   0.0000000   0.0000000
 AtZNuc=   6.0000000   7.0000000   6.0000000   6.0000000   6.0000000   6.0000000   6.0000000   6.0000000   6.0000000   6.0000000

  Atom        31          32          33          34          35          36          37          38          39          40
 IAtWgt=          12          12          12          12          12          12          14          12          12          12
 AtmWgt=  12.0000000  12.0000000  12.0000000  12.0000000  12.0000000  12.0000000  14.0030740  12.0000000  12.0000000  12.0000000
 NucSpn=           0           0           0           0           0           0           2           0           0           0
 AtZEff=  -0.0000000  -0.0000000  -0.0000000  -0.0000000  -0.0000000  -0.0000000  -0.0000000  -0.0000000  -0.0000000  -0.0000000
 NQMom=    0.0000000   0.0000000   0.0000000   0.0000000   0.0000000   0.0000000   2.0440000   0.0000000   0.0000000   0.0000000
 NMagM=    0.0000000   0.0000000   0.0000000   0.0000000   0.0000000   0.0000000   0.4037610   0.0000000   0.0000000   0.0000000
 AtZNuc=   6.0000000   6.0000000   6.0000000   6.0000000   6.0000000   6.0000000   7.0000000   6.0000000   6.0000000   6.0000000

  Atom        41          42          43          44          45          46          47          48          49          50
 IAtWgt=          12          12          12          12          12          12          12          12          12          12
 AtmWgt=  12.0000000  12.0000000  12.0000000  12.0000000  12.0000000  12.0000000  12.0000000  12.0000000  12.0000000  12.0000000
 NucSpn=           0           0           0           0           0           0           0           0           0           0
 AtZEff=  -0.0000000  -0.0000000  -0.0000000  -0.0000000  -0.0000000  -0.0000000  -0.0000000  -0.0000000  -0.0000000  -0.0000000
 NQMom=    0.0000000   0.0000000   0.0000000   0.0000000   0.0000000   0.0000000   0.0000000   0.0000000   0.0000000   0.0000000
 NMagM=    0.0000000   0.0000000   0.0000000   0.0000000   0.0000000   0.0000000   0.0000000   0.0000000   0.0000000   0.0000000
 AtZNuc=   6.0000000   6.0000000   6.0000000   6.0000000   6.0000000   6.0000000   6.0000000   6.0000000   6.0000000   6.0000000

  Atom        51          52          53          54          55          56          57          58          59          60
 IAtWgt=           1           1           1           1           1           1           1           1           1           1
 AtmWgt=   1.0078250   1.0078250   1.0078250   1.0078250   1.0078250   1.0078250   1.0078250   1.0078250   1.0078250   1.0078250
 NucSpn=           1           1           1           1           1           1           1           1           1           1
 AtZEff=  -0.0000000  -0.0000000  -0.0000000  -0.0000000  -0.0000000  -0.0000000  -0.0000000  -0.0000000  -0.0000000  -0.0000000
 NQMom=    0.0000000   0.0000000   0.0000000   0.0000000   0.0000000   0.0000000   0.0000000   0.0000000   0.0000000   0.0000000
 NMagM=    2.7928460   2.7928460   2.7928460   2.7928460   2.7928460   2.7928460   2.7928460   2.7928460   2.7928460   2.7928460
 AtZNuc=   1.0000000   1.0000000   1.0000000   1.0000000   1.0000000   1.0000000   1.0000000   1.0000000   1.0000000   1.0000000

  Atom        61          62          63          64          65          66          67          68          69          70
 IAtWgt=           1           1           1           1           1           1           1           1           1           1
 AtmWgt=   1.0078250   1.0078250   1.0078250   1.0078250   1.0078250   1.0078250   1.0078250   1.0078250   1.0078250   1.0078250
 NucSpn=           1           1           1           1           1           1           1           1           1           1
 AtZEff=  -0.0000000  -0.0000000  -0.0000000  -0.0000000  -0.0000000  -0.0000000  -0.0000000  -0.0000000  -0.0000000  -0.0000000
 NQMom=    0.0000000   0.0000000   0.0000000   0.0000000   0.0000000   0.0000000   0.0000000   0.0000000   0.0000000   0.0000000
 NMagM=    2.7928460   2.7928460   2.7928460   2.7928460   2.7928460   2.7928460   2.7928460   2.7928460   2.7928460   2.7928460
 AtZNuc=   1.0000000   1.0000000   1.0000000   1.0000000   1.0000000   1.0000000   1.0000000   1.0000000   1.0000000   1.0000000

  Atom        71          72          73          74          75          76          77          78          79          80
 IAtWgt=           1           1           1           1           1           1           1           1           1           1
 AtmWgt=   1.0078250   1.0078250   1.0078250   1.0078250   1.0078250   1.0078250   1.0078250   1.0078250   1.0078250   1.0078250
 NucSpn=           1           1           1           1           1           1           1           1           1           1
 AtZEff=  -0.0000000  -0.0000000  -0.0000000  -0.0000000  -0.0000000  -0.0000000  -0.0000000  -0.0000000  -0.0000000  -0.0000000
 NQMom=    0.0000000   0.0000000   0.0000000   0.0000000   0.0000000   0.0000000   0.0000000   0.0000000   0.0000000   0.0000000
 NMagM=    2.7928460   2.7928460   2.7928460   2.7928460   2.7928460   2.7928460   2.7928460   2.7928460   2.7928460   2.7928460
 AtZNuc=   1.0000000   1.0000000   1.0000000   1.0000000   1.0000000   1.0000000   1.0000000   1.0000000   1.0000000   1.0000000

  Atom        81          82          83          84          85          86          87
 IAtWgt=           1           1           1           1           1           1           1
 AtmWgt=   1.0078250   1.0078250   1.0078250   1.0078250   1.0078250   1.0078250   1.0078250
 NucSpn=           1           1           1           1           1           1           1
 AtZEff=  -0.0000000  -0.0000000  -0.0000000  -0.0000000  -0.0000000  -0.0000000  -0.0000000
 NQMom=    0.0000000   0.0000000   0.0000000   0.0000000   0.0000000   0.0000000   0.0000000
 NMagM=    2.7928460   2.7928460   2.7928460   2.7928460   2.7928460   2.7928460   2.7928460
 AtZNuc=   1.0000000   1.0000000   1.0000000   1.0000000   1.0000000   1.0000000   1.0000000
 Leave Link  101 at Sat Nov  5 10:12:56 2022, MaxMem=   402653184 cpu:               1.4 elap:               0.1
 (Enter /home/wykgroup/appl/g16/l202.exe)
 Symmetry turned off by external request.
 Stoichiometry    C47H37N3
 Framework group  C1[X(C47H37N3)]
 Deg. of freedom   255
 Full point group                 C1      NOp   1
                          Input orientation:                          
 ---------------------------------------------------------------------
 Center     Atomic      Atomic             Coordinates (Angstroms)
 Number     Number       Type             X           Y           Z
 ---------------------------------------------------------------------
      1          6           0        6.463495   -2.739993    0.478179
      2          6           0        6.434490   -1.956757    1.795244
      3          6           0        6.237073   -0.415867    1.672106
      4          6           0        7.436035    0.193706    0.919500
      5          6           0        6.231568    0.184594    3.099519
      6          6           0        4.894099   -0.098652    0.987164
      7          6           0        3.690441   -0.572243    1.561812
      8          6           0        2.437315   -0.324959    1.010936
      9          6           0        2.376840    0.423376   -0.166992
     10          6           0        3.554733    0.928963   -0.760175
     11          6           0        4.801953    0.659983   -0.181940
     12          6           0        3.148342    1.688456   -1.924691
     13          6           0        3.851524    2.398437   -2.904408
     14          6           0        3.145890    3.019006   -3.931129
     15          6           0        1.745247    2.929132   -3.989801
     16          6           0        1.021244    2.228365   -3.026983
     17          6           0        1.733501    1.618935   -1.990866
     18          7           0        1.267401    0.843463   -0.918185
     19          6           0       -0.085640    0.533514   -0.640013
     20          6           0       -0.462643   -0.794846   -0.407898
     21          6           0       -1.793963   -1.103670   -0.105626
     22          7           0       -2.174642   -2.452661    0.102175
     23          6           0       -2.881306   -2.946928    1.208495
     24          6           0       -3.339685   -2.276077    2.345174
     25          6           0       -4.002399   -3.022604    3.317542
     26          6           0       -4.201368   -4.405439    3.170027
     27          6           0       -3.730903   -5.070791    2.041748
     28          6           0       -3.062186   -4.343975    1.050255
     29          6           0       -2.444674   -4.710107   -0.207355
     30          6           0       -2.318033   -5.918945   -0.901288
     31          6           0       -1.671223   -5.929081   -2.133447
     32          6           0       -1.158894   -4.740598   -2.680249
     33          6           0       -1.270897   -3.524170   -2.009592
     34          6           0       -1.907057   -3.523275   -0.765244
     35          6           0       -2.753916   -0.086252   -0.045680
     36          6           0       -2.369752    1.239664   -0.267943
     37          7           0       -3.339998    2.275477   -0.197096
     38          6           0       -3.728043    3.106171   -1.254736
     39          6           0       -3.307273    3.099802   -2.586674
     40          6           0       -3.874554    4.035258   -3.449651
     41          6           0       -4.841867    4.951381   -3.002224
     42          6           0       -5.267800    4.941877   -1.677049
     43          6           0       -4.714396    4.012197   -0.788881
     44          6           0       -4.929846    3.715062    0.612461
     45          6           0       -5.754944    4.262477    1.601874
     46          6           0       -5.704405    3.742382    2.892046
     47          6           0       -4.831394    2.686175    3.204210
     48          6           0       -3.999881    2.122707    2.238468
     49          6           0       -4.066776    2.639393    0.942474
     50          6           0       -1.039301    1.555803   -0.559040
     51          1           0        5.544334   -2.586769   -0.097408
     52          1           0        6.560211   -3.813847    0.674982
     53          1           0        7.308093   -2.447758   -0.155452
     54          1           0        5.638189   -2.364463    2.431244
     55          1           0        7.371966   -2.130638    2.342290
     56          1           0        8.367435   -0.074090    1.431682
     57          1           0        7.511662   -0.163643   -0.112308
     58          1           0        7.377722    1.287778    0.893631
     59          1           0        5.429809   -0.235149    3.716297
     60          1           0        7.182887   -0.021306    3.605727
     61          1           0        6.092501    1.271099    3.065806
     62          1           0        3.732602   -1.154994    2.477254
     63          1           0        1.541428   -0.699369    1.494808
     64          1           0        5.693566    1.057309   -0.654428
     65          1           0        4.935924    2.459921   -2.864942
     66          1           0        3.680697    3.574723   -4.695975
     67          1           0        1.210944    3.414044   -4.802162
     68          1           0       -0.059514    2.160757   -3.088128
     69          1           0        0.276829   -1.584995   -0.463215
     70          1           0       -3.186043   -1.210142    2.474011
     71          1           0       -4.370705   -2.520636    4.208005
     72          1           0       -4.723829   -4.958348    3.945327
     73          1           0       -3.876673   -6.142230    1.932292
     74          1           0       -2.725227   -6.836275   -0.484244
     75          1           0       -1.565269   -6.861224   -2.680868
     76          1           0       -0.666068   -4.765385   -3.648249
     77          1           0       -0.881661   -2.611441   -2.447806
     78          1           0       -3.794380   -0.324860    0.143124
     79          1           0       -2.574060    2.382954   -2.942240
     80          1           0       -3.563152    4.051777   -4.490527
     81          1           0       -5.263696    5.669065   -3.699927
     82          1           0       -6.024164    5.644048   -1.336230
     83          1           0       -6.422992    5.086616    1.365666
     84          1           0       -6.340911    4.158732    3.667491
     85          1           0       -4.799280    2.301090    4.219764
     86          1           0       -3.315169    1.318998    2.489628
     87          1           0       -0.745540    2.590788   -0.691467
 ---------------------------------------------------------------------
 Rotational constants (GHZ):           0.0610039           0.0420269           0.0320076
 Leave Link  202 at Sat Nov  5 10:12:56 2022, MaxMem=   402653184 cpu:               0.4 elap:               0.1
 (Enter /home/wykgroup/appl/g16/l301.exe)
 Standard basis: 6-31G(d) (6D, 10F)
 Ernie: Thresh=  0.10000D-02 Tol=  0.10000D-05 Strict=F.
 AO basis set in the form of general basis input (Overlap normalization):
      1 0
 S   6 1.00       0.000000000000
      0.3047524880D+04  0.1834737132D-02
      0.4573695180D+03  0.1403732281D-01
      0.1039486850D+03  0.6884262226D-01
      0.2921015530D+02  0.2321844432D+00
      0.9286662960D+01  0.4679413484D+00
      0.3163926960D+01  0.3623119853D+00
 SP   3 1.00       0.000000000000
      0.7868272350D+01 -0.1193324198D+00  0.6899906659D-01
      0.1881288540D+01 -0.1608541517D+00  0.3164239610D+00
      0.5442492580D+00  0.1143456438D+01  0.7443082909D+00
 SP   1 1.00       0.000000000000
      0.1687144782D+00  0.1000000000D+01  0.1000000000D+01
 D   1 1.00       0.000000000000
      0.8000000000D+00  0.1000000000D+01
 ****
      2 0
 S   6 1.00       0.000000000000
      0.3047524880D+04  0.1834737132D-02
      0.4573695180D+03  0.1403732281D-01
      0.1039486850D+03  0.6884262226D-01
      0.2921015530D+02  0.2321844432D+00
      0.9286662960D+01  0.4679413484D+00
      0.3163926960D+01  0.3623119853D+00
 SP   3 1.00       0.000000000000
      0.7868272350D+01 -0.1193324198D+00  0.6899906659D-01
      0.1881288540D+01 -0.1608541517D+00  0.3164239610D+00
      0.5442492580D+00  0.1143456438D+01  0.7443082909D+00
 SP   1 1.00       0.000000000000
      0.1687144782D+00  0.1000000000D+01  0.1000000000D+01
 D   1 1.00       0.000000000000
      0.8000000000D+00  0.1000000000D+01
 ****
      3 0
 S   6 1.00       0.000000000000
      0.3047524880D+04  0.1834737132D-02
      0.4573695180D+03  0.1403732281D-01
      0.1039486850D+03  0.6884262226D-01
      0.2921015530D+02  0.2321844432D+00
      0.9286662960D+01  0.4679413484D+00
      0.3163926960D+01  0.3623119853D+00
 SP   3 1.00       0.000000000000
      0.7868272350D+01 -0.1193324198D+00  0.6899906659D-01
      0.1881288540D+01 -0.1608541517D+00  0.3164239610D+00
      0.5442492580D+00  0.1143456438D+01  0.7443082909D+00
 SP   1 1.00       0.000000000000
      0.1687144782D+00  0.1000000000D+01  0.1000000000D+01
 D   1 1.00       0.000000000000
      0.8000000000D+00  0.1000000000D+01
 ****
      4 0
 S   6 1.00       0.000000000000
      0.3047524880D+04  0.1834737132D-02
      0.4573695180D+03  0.1403732281D-01
      0.1039486850D+03  0.6884262226D-01
      0.2921015530D+02  0.2321844432D+00
      0.9286662960D+01  0.4679413484D+00
      0.3163926960D+01  0.3623119853D+00
 SP   3 1.00       0.000000000000
      0.7868272350D+01 -0.1193324198D+00  0.6899906659D-01
      0.1881288540D+01 -0.1608541517D+00  0.3164239610D+00
      0.5442492580D+00  0.1143456438D+01  0.7443082909D+00
 SP   1 1.00       0.000000000000
      0.1687144782D+00  0.1000000000D+01  0.1000000000D+01
 D   1 1.00       0.000000000000
      0.8000000000D+00  0.1000000000D+01
 ****
      5 0
 S   6 1.00       0.000000000000
      0.3047524880D+04  0.1834737132D-02
      0.4573695180D+03  0.1403732281D-01
      0.1039486850D+03  0.6884262226D-01
      0.2921015530D+02  0.2321844432D+00
      0.9286662960D+01  0.4679413484D+00
      0.3163926960D+01  0.3623119853D+00
 SP   3 1.00       0.000000000000
      0.7868272350D+01 -0.1193324198D+00  0.6899906659D-01
      0.1881288540D+01 -0.1608541517D+00  0.3164239610D+00
      0.5442492580D+00  0.1143456438D+01  0.7443082909D+00
 SP   1 1.00       0.000000000000
      0.1687144782D+00  0.1000000000D+01  0.1000000000D+01
 D   1 1.00       0.000000000000
      0.8000000000D+00  0.1000000000D+01
 ****
      6 0
 S   6 1.00       0.000000000000
      0.3047524880D+04  0.1834737132D-02
      0.4573695180D+03  0.1403732281D-01
      0.1039486850D+03  0.6884262226D-01
      0.2921015530D+02  0.2321844432D+00
      0.9286662960D+01  0.4679413484D+00
      0.3163926960D+01  0.3623119853D+00
 SP   3 1.00       0.000000000000
      0.7868272350D+01 -0.1193324198D+00  0.6899906659D-01
      0.1881288540D+01 -0.1608541517D+00  0.3164239610D+00
      0.5442492580D+00  0.1143456438D+01  0.7443082909D+00
 SP   1 1.00       0.000000000000
      0.1687144782D+00  0.1000000000D+01  0.1000000000D+01
 D   1 1.00       0.000000000000
      0.8000000000D+00  0.1000000000D+01
 ****
      7 0
 S   6 1.00       0.000000000000
      0.3047524880D+04  0.1834737132D-02
      0.4573695180D+03  0.1403732281D-01
      0.1039486850D+03  0.6884262226D-01
      0.2921015530D+02  0.2321844432D+00
      0.9286662960D+01  0.4679413484D+00
      0.3163926960D+01  0.3623119853D+00
 SP   3 1.00       0.000000000000
      0.7868272350D+01 -0.1193324198D+00  0.6899906659D-01
      0.1881288540D+01 -0.1608541517D+00  0.3164239610D+00
      0.5442492580D+00  0.1143456438D+01  0.7443082909D+00
 SP   1 1.00       0.000000000000
      0.1687144782D+00  0.1000000000D+01  0.1000000000D+01
 D   1 1.00       0.000000000000
      0.8000000000D+00  0.1000000000D+01
 ****
      8 0
 S   6 1.00       0.000000000000
      0.3047524880D+04  0.1834737132D-02
      0.4573695180D+03  0.1403732281D-01
      0.1039486850D+03  0.6884262226D-01
      0.2921015530D+02  0.2321844432D+00
      0.9286662960D+01  0.4679413484D+00
      0.3163926960D+01  0.3623119853D+00
 SP   3 1.00       0.000000000000
      0.7868272350D+01 -0.1193324198D+00  0.6899906659D-01
      0.1881288540D+01 -0.1608541517D+00  0.3164239610D+00
      0.5442492580D+00  0.1143456438D+01  0.7443082909D+00
 SP   1 1.00       0.000000000000
      0.1687144782D+00  0.1000000000D+01  0.1000000000D+01
 D   1 1.00       0.000000000000
      0.8000000000D+00  0.1000000000D+01
 ****
      9 0
 S   6 1.00       0.000000000000
      0.3047524880D+04  0.1834737132D-02
      0.4573695180D+03  0.1403732281D-01
      0.1039486850D+03  0.6884262226D-01
      0.2921015530D+02  0.2321844432D+00
      0.9286662960D+01  0.4679413484D+00
      0.3163926960D+01  0.3623119853D+00
 SP   3 1.00       0.000000000000
      0.7868272350D+01 -0.1193324198D+00  0.6899906659D-01
      0.1881288540D+01 -0.1608541517D+00  0.3164239610D+00
      0.5442492580D+00  0.1143456438D+01  0.7443082909D+00
 SP   1 1.00       0.000000000000
      0.1687144782D+00  0.1000000000D+01  0.1000000000D+01
 D   1 1.00       0.000000000000
      0.8000000000D+00  0.1000000000D+01
 ****
     10 0
 S   6 1.00       0.000000000000
      0.3047524880D+04  0.1834737132D-02
      0.4573695180D+03  0.1403732281D-01
      0.1039486850D+03  0.6884262226D-01
      0.2921015530D+02  0.2321844432D+00
      0.9286662960D+01  0.4679413484D+00
      0.3163926960D+01  0.3623119853D+00
 SP   3 1.00       0.000000000000
      0.7868272350D+01 -0.1193324198D+00  0.6899906659D-01
      0.1881288540D+01 -0.1608541517D+00  0.3164239610D+00
      0.5442492580D+00  0.1143456438D+01  0.7443082909D+00
 SP   1 1.00       0.000000000000
      0.1687144782D+00  0.1000000000D+01  0.1000000000D+01
 D   1 1.00       0.000000000000
      0.8000000000D+00  0.1000000000D+01
 ****
     11 0
 S   6 1.00       0.000000000000
      0.3047524880D+04  0.1834737132D-02
      0.4573695180D+03  0.1403732281D-01
      0.1039486850D+03  0.6884262226D-01
      0.2921015530D+02  0.2321844432D+00
      0.9286662960D+01  0.4679413484D+00
      0.3163926960D+01  0.3623119853D+00
 SP   3 1.00       0.000000000000
      0.7868272350D+01 -0.1193324198D+00  0.6899906659D-01
      0.1881288540D+01 -0.1608541517D+00  0.3164239610D+00
      0.5442492580D+00  0.1143456438D+01  0.7443082909D+00
 SP   1 1.00       0.000000000000
      0.1687144782D+00  0.1000000000D+01  0.1000000000D+01
 D   1 1.00       0.000000000000
      0.8000000000D+00  0.1000000000D+01
 ****
     12 0
 S   6 1.00       0.000000000000
      0.3047524880D+04  0.1834737132D-02
      0.4573695180D+03  0.1403732281D-01
      0.1039486850D+03  0.6884262226D-01
      0.2921015530D+02  0.2321844432D+00
      0.9286662960D+01  0.4679413484D+00
      0.3163926960D+01  0.3623119853D+00
 SP   3 1.00       0.000000000000
      0.7868272350D+01 -0.1193324198D+00  0.6899906659D-01
      0.1881288540D+01 -0.1608541517D+00  0.3164239610D+00
      0.5442492580D+00  0.1143456438D+01  0.7443082909D+00
 SP   1 1.00       0.000000000000
      0.1687144782D+00  0.1000000000D+01  0.1000000000D+01
 D   1 1.00       0.000000000000
      0.8000000000D+00  0.1000000000D+01
 ****
     13 0
 S   6 1.00       0.000000000000
      0.3047524880D+04  0.1834737132D-02
      0.4573695180D+03  0.1403732281D-01
      0.1039486850D+03  0.6884262226D-01
      0.2921015530D+02  0.2321844432D+00
      0.9286662960D+01  0.4679413484D+00
      0.3163926960D+01  0.3623119853D+00
 SP   3 1.00       0.000000000000
      0.7868272350D+01 -0.1193324198D+00  0.6899906659D-01
      0.1881288540D+01 -0.1608541517D+00  0.3164239610D+00
      0.5442492580D+00  0.1143456438D+01  0.7443082909D+00
 SP   1 1.00       0.000000000000
      0.1687144782D+00  0.1000000000D+01  0.1000000000D+01
 D   1 1.00       0.000000000000
      0.8000000000D+00  0.1000000000D+01
 ****
     14 0
 S   6 1.00       0.000000000000
      0.3047524880D+04  0.1834737132D-02
      0.4573695180D+03  0.1403732281D-01
      0.1039486850D+03  0.6884262226D-01
      0.2921015530D+02  0.2321844432D+00
      0.9286662960D+01  0.4679413484D+00
      0.3163926960D+01  0.3623119853D+00
 SP   3 1.00       0.000000000000
      0.7868272350D+01 -0.1193324198D+00  0.6899906659D-01
      0.1881288540D+01 -0.1608541517D+00  0.3164239610D+00
      0.5442492580D+00  0.1143456438D+01  0.7443082909D+00
 SP   1 1.00       0.000000000000
      0.1687144782D+00  0.1000000000D+01  0.1000000000D+01
 D   1 1.00       0.000000000000
      0.8000000000D+00  0.1000000000D+01
 ****
     15 0
 S   6 1.00       0.000000000000
      0.3047524880D+04  0.1834737132D-02
      0.4573695180D+03  0.1403732281D-01
      0.1039486850D+03  0.6884262226D-01
      0.2921015530D+02  0.2321844432D+00
      0.9286662960D+01  0.4679413484D+00
      0.3163926960D+01  0.3623119853D+00
 SP   3 1.00       0.000000000000
      0.7868272350D+01 -0.1193324198D+00  0.6899906659D-01
      0.1881288540D+01 -0.1608541517D+00  0.3164239610D+00
      0.5442492580D+00  0.1143456438D+01  0.7443082909D+00
 SP   1 1.00       0.000000000000
      0.1687144782D+00  0.1000000000D+01  0.1000000000D+01
 D   1 1.00       0.000000000000
      0.8000000000D+00  0.1000000000D+01
 ****
     16 0
 S   6 1.00       0.000000000000
      0.3047524880D+04  0.1834737132D-02
      0.4573695180D+03  0.1403732281D-01
      0.1039486850D+03  0.6884262226D-01
      0.2921015530D+02  0.2321844432D+00
      0.9286662960D+01  0.4679413484D+00
      0.3163926960D+01  0.3623119853D+00
 SP   3 1.00       0.000000000000
      0.7868272350D+01 -0.1193324198D+00  0.6899906659D-01
      0.1881288540D+01 -0.1608541517D+00  0.3164239610D+00
      0.5442492580D+00  0.1143456438D+01  0.7443082909D+00
 SP   1 1.00       0.000000000000
      0.1687144782D+00  0.1000000000D+01  0.1000000000D+01
 D   1 1.00       0.000000000000
      0.8000000000D+00  0.1000000000D+01
 ****
     17 0
 S   6 1.00       0.000000000000
      0.3047524880D+04  0.1834737132D-02
      0.4573695180D+03  0.1403732281D-01
      0.1039486850D+03  0.6884262226D-01
      0.2921015530D+02  0.2321844432D+00
      0.9286662960D+01  0.4679413484D+00
      0.3163926960D+01  0.3623119853D+00
 SP   3 1.00       0.000000000000
      0.7868272350D+01 -0.1193324198D+00  0.6899906659D-01
      0.1881288540D+01 -0.1608541517D+00  0.3164239610D+00
      0.5442492580D+00  0.1143456438D+01  0.7443082909D+00
 SP   1 1.00       0.000000000000
      0.1687144782D+00  0.1000000000D+01  0.1000000000D+01
 D   1 1.00       0.000000000000
      0.8000000000D+00  0.1000000000D+01
 ****
     18 0
 S   6 1.00       0.000000000000
      0.4173511460D+04  0.1834772160D-02
      0.6274579110D+03  0.1399462700D-01
      0.1429020930D+03  0.6858655181D-01
      0.4023432930D+02  0.2322408730D+00
      0.1282021290D+02  0.4690699481D+00
      0.4390437010D+01  0.3604551991D+00
 SP   3 1.00       0.000000000000
      0.1162636186D+02 -0.1149611817D+00  0.6757974388D-01
      0.2716279807D+01 -0.1691174786D+00  0.3239072959D+00
      0.7722183966D+00  0.1145851947D+01  0.7408951398D+00
 SP   1 1.00       0.000000000000
      0.2120314975D+00  0.1000000000D+01  0.1000000000D+01
 D   1 1.00       0.000000000000
      0.8000000000D+00  0.1000000000D+01
 ****
     19 0
 S   6 1.00       0.000000000000
      0.3047524880D+04  0.1834737132D-02
      0.4573695180D+03  0.1403732281D-01
      0.1039486850D+03  0.6884262226D-01
      0.2921015530D+02  0.2321844432D+00
      0.9286662960D+01  0.4679413484D+00
      0.3163926960D+01  0.3623119853D+00
 SP   3 1.00       0.000000000000
      0.7868272350D+01 -0.1193324198D+00  0.6899906659D-01
      0.1881288540D+01 -0.1608541517D+00  0.3164239610D+00
      0.5442492580D+00  0.1143456438D+01  0.7443082909D+00
 SP   1 1.00       0.000000000000
      0.1687144782D+00  0.1000000000D+01  0.1000000000D+01
 D   1 1.00       0.000000000000
      0.8000000000D+00  0.1000000000D+01
 ****
     20 0
 S   6 1.00       0.000000000000
      0.3047524880D+04  0.1834737132D-02
      0.4573695180D+03  0.1403732281D-01
      0.1039486850D+03  0.6884262226D-01
      0.2921015530D+02  0.2321844432D+00
      0.9286662960D+01  0.4679413484D+00
      0.3163926960D+01  0.3623119853D+00
 SP   3 1.00       0.000000000000
      0.7868272350D+01 -0.1193324198D+00  0.6899906659D-01
      0.1881288540D+01 -0.1608541517D+00  0.3164239610D+00
      0.5442492580D+00  0.1143456438D+01  0.7443082909D+00
 SP   1 1.00       0.000000000000
      0.1687144782D+00  0.1000000000D+01  0.1000000000D+01
 D   1 1.00       0.000000000000
      0.8000000000D+00  0.1000000000D+01
 ****
     21 0
 S   6 1.00       0.000000000000
      0.3047524880D+04  0.1834737132D-02
      0.4573695180D+03  0.1403732281D-01
      0.1039486850D+03  0.6884262226D-01
      0.2921015530D+02  0.2321844432D+00
      0.9286662960D+01  0.4679413484D+00
      0.3163926960D+01  0.3623119853D+00
 SP   3 1.00       0.000000000000
      0.7868272350D+01 -0.1193324198D+00  0.6899906659D-01
      0.1881288540D+01 -0.1608541517D+00  0.3164239610D+00
      0.5442492580D+00  0.1143456438D+01  0.7443082909D+00
 SP   1 1.00       0.000000000000
      0.1687144782D+00  0.1000000000D+01  0.1000000000D+01
 D   1 1.00       0.000000000000
      0.8000000000D+00  0.1000000000D+01
 ****
     22 0
 S   6 1.00       0.000000000000
      0.4173511460D+04  0.1834772160D-02
      0.6274579110D+03  0.1399462700D-01
      0.1429020930D+03  0.6858655181D-01
      0.4023432930D+02  0.2322408730D+00
      0.1282021290D+02  0.4690699481D+00
      0.4390437010D+01  0.3604551991D+00
 SP   3 1.00       0.000000000000
      0.1162636186D+02 -0.1149611817D+00  0.6757974388D-01
      0.2716279807D+01 -0.1691174786D+00  0.3239072959D+00
      0.7722183966D+00  0.1145851947D+01  0.7408951398D+00
 SP   1 1.00       0.000000000000
      0.2120314975D+00  0.1000000000D+01  0.1000000000D+01
 D   1 1.00       0.000000000000
      0.8000000000D+00  0.1000000000D+01
 ****
     23 0
 S   6 1.00       0.000000000000
      0.3047524880D+04  0.1834737132D-02
      0.4573695180D+03  0.1403732281D-01
      0.1039486850D+03  0.6884262226D-01
      0.2921015530D+02  0.2321844432D+00
      0.9286662960D+01  0.4679413484D+00
      0.3163926960D+01  0.3623119853D+00
 SP   3 1.00       0.000000000000
      0.7868272350D+01 -0.1193324198D+00  0.6899906659D-01
      0.1881288540D+01 -0.1608541517D+00  0.3164239610D+00
      0.5442492580D+00  0.1143456438D+01  0.7443082909D+00
 SP   1 1.00       0.000000000000
      0.1687144782D+00  0.1000000000D+01  0.1000000000D+01
 D   1 1.00       0.000000000000
      0.8000000000D+00  0.1000000000D+01
 ****
     24 0
 S   6 1.00       0.000000000000
      0.3047524880D+04  0.1834737132D-02
      0.4573695180D+03  0.1403732281D-01
      0.1039486850D+03  0.6884262226D-01
      0.2921015530D+02  0.2321844432D+00
      0.9286662960D+01  0.4679413484D+00
      0.3163926960D+01  0.3623119853D+00
 SP   3 1.00       0.000000000000
      0.7868272350D+01 -0.1193324198D+00  0.6899906659D-01
      0.1881288540D+01 -0.1608541517D+00  0.3164239610D+00
      0.5442492580D+00  0.1143456438D+01  0.7443082909D+00
 SP   1 1.00       0.000000000000
      0.1687144782D+00  0.1000000000D+01  0.1000000000D+01
 D   1 1.00       0.000000000000
      0.8000000000D+00  0.1000000000D+01
 ****
     25 0
 S   6 1.00       0.000000000000
      0.3047524880D+04  0.1834737132D-02
      0.4573695180D+03  0.1403732281D-01
      0.1039486850D+03  0.6884262226D-01
      0.2921015530D+02  0.2321844432D+00
      0.9286662960D+01  0.4679413484D+00
      0.3163926960D+01  0.3623119853D+00
 SP   3 1.00       0.000000000000
      0.7868272350D+01 -0.1193324198D+00  0.6899906659D-01
      0.1881288540D+01 -0.1608541517D+00  0.3164239610D+00
      0.5442492580D+00  0.1143456438D+01  0.7443082909D+00
 SP   1 1.00       0.000000000000
      0.1687144782D+00  0.1000000000D+01  0.1000000000D+01
 D   1 1.00       0.000000000000
      0.8000000000D+00  0.1000000000D+01
 ****
     26 0
 S   6 1.00       0.000000000000
      0.3047524880D+04  0.1834737132D-02
      0.4573695180D+03  0.1403732281D-01
      0.1039486850D+03  0.6884262226D-01
      0.2921015530D+02  0.2321844432D+00
      0.9286662960D+01  0.4679413484D+00
      0.3163926960D+01  0.3623119853D+00
 SP   3 1.00       0.000000000000
      0.7868272350D+01 -0.1193324198D+00  0.6899906659D-01
      0.1881288540D+01 -0.1608541517D+00  0.3164239610D+00
      0.5442492580D+00  0.1143456438D+01  0.7443082909D+00
 SP   1 1.00       0.000000000000
      0.1687144782D+00  0.1000000000D+01  0.1000000000D+01
 D   1 1.00       0.000000000000
      0.8000000000D+00  0.1000000000D+01
 ****
     27 0
 S   6 1.00       0.000000000000
      0.3047524880D+04  0.1834737132D-02
      0.4573695180D+03  0.1403732281D-01
      0.1039486850D+03  0.6884262226D-01
      0.2921015530D+02  0.2321844432D+00
      0.9286662960D+01  0.4679413484D+00
      0.3163926960D+01  0.3623119853D+00
 SP   3 1.00       0.000000000000
      0.7868272350D+01 -0.1193324198D+00  0.6899906659D-01
      0.1881288540D+01 -0.1608541517D+00  0.3164239610D+00
      0.5442492580D+00  0.1143456438D+01  0.7443082909D+00
 SP   1 1.00       0.000000000000
      0.1687144782D+00  0.1000000000D+01  0.1000000000D+01
 D   1 1.00       0.000000000000
      0.8000000000D+00  0.1000000000D+01
 ****
     28 0
 S   6 1.00       0.000000000000
      0.3047524880D+04  0.1834737132D-02
      0.4573695180D+03  0.1403732281D-01
      0.1039486850D+03  0.6884262226D-01
      0.2921015530D+02  0.2321844432D+00
      0.9286662960D+01  0.4679413484D+00
      0.3163926960D+01  0.3623119853D+00
 SP   3 1.00       0.000000000000
      0.7868272350D+01 -0.1193324198D+00  0.6899906659D-01
      0.1881288540D+01 -0.1608541517D+00  0.3164239610D+00
      0.5442492580D+00  0.1143456438D+01  0.7443082909D+00
 SP   1 1.00       0.000000000000
      0.1687144782D+00  0.1000000000D+01  0.1000000000D+01
 D   1 1.00       0.000000000000
      0.8000000000D+00  0.1000000000D+01
 ****
     29 0
 S   6 1.00       0.000000000000
      0.3047524880D+04  0.1834737132D-02
      0.4573695180D+03  0.1403732281D-01
      0.1039486850D+03  0.6884262226D-01
      0.2921015530D+02  0.2321844432D+00
      0.9286662960D+01  0.4679413484D+00
      0.3163926960D+01  0.3623119853D+00
 SP   3 1.00       0.000000000000
      0.7868272350D+01 -0.1193324198D+00  0.6899906659D-01
      0.1881288540D+01 -0.1608541517D+00  0.3164239610D+00
      0.5442492580D+00  0.1143456438D+01  0.7443082909D+00
 SP   1 1.00       0.000000000000
      0.1687144782D+00  0.1000000000D+01  0.1000000000D+01
 D   1 1.00       0.000000000000
      0.8000000000D+00  0.1000000000D+01
 ****
     30 0
 S   6 1.00       0.000000000000
      0.3047524880D+04  0.1834737132D-02
      0.4573695180D+03  0.1403732281D-01
      0.1039486850D+03  0.6884262226D-01
      0.2921015530D+02  0.2321844432D+00
      0.9286662960D+01  0.4679413484D+00
      0.3163926960D+01  0.3623119853D+00
 SP   3 1.00       0.000000000000
      0.7868272350D+01 -0.1193324198D+00  0.6899906659D-01
      0.1881288540D+01 -0.1608541517D+00  0.3164239610D+00
      0.5442492580D+00  0.1143456438D+01  0.7443082909D+00
 SP   1 1.00       0.000000000000
      0.1687144782D+00  0.1000000000D+01  0.1000000000D+01
 D   1 1.00       0.000000000000
      0.8000000000D+00  0.1000000000D+01
 ****
     31 0
 S   6 1.00       0.000000000000
      0.3047524880D+04  0.1834737132D-02
      0.4573695180D+03  0.1403732281D-01
      0.1039486850D+03  0.6884262226D-01
      0.2921015530D+02  0.2321844432D+00
      0.9286662960D+01  0.4679413484D+00
      0.3163926960D+01  0.3623119853D+00
 SP   3 1.00       0.000000000000
      0.7868272350D+01 -0.1193324198D+00  0.6899906659D-01
      0.1881288540D+01 -0.1608541517D+00  0.3164239610D+00
      0.5442492580D+00  0.1143456438D+01  0.7443082909D+00
 SP   1 1.00       0.000000000000
      0.1687144782D+00  0.1000000000D+01  0.1000000000D+01
 D   1 1.00       0.000000000000
      0.8000000000D+00  0.1000000000D+01
 ****
     32 0
 S   6 1.00       0.000000000000
      0.3047524880D+04  0.1834737132D-02
      0.4573695180D+03  0.1403732281D-01
      0.1039486850D+03  0.6884262226D-01
      0.2921015530D+02  0.2321844432D+00
      0.9286662960D+01  0.4679413484D+00
      0.3163926960D+01  0.3623119853D+00
 SP   3 1.00       0.000000000000
      0.7868272350D+01 -0.1193324198D+00  0.6899906659D-01
      0.1881288540D+01 -0.1608541517D+00  0.3164239610D+00
      0.5442492580D+00  0.1143456438D+01  0.7443082909D+00
 SP   1 1.00       0.000000000000
      0.1687144782D+00  0.1000000000D+01  0.1000000000D+01
 D   1 1.00       0.000000000000
      0.8000000000D+00  0.1000000000D+01
 ****
     33 0
 S   6 1.00       0.000000000000
      0.3047524880D+04  0.1834737132D-02
      0.4573695180D+03  0.1403732281D-01
      0.1039486850D+03  0.6884262226D-01
      0.2921015530D+02  0.2321844432D+00
      0.9286662960D+01  0.4679413484D+00
      0.3163926960D+01  0.3623119853D+00
 SP   3 1.00       0.000000000000
      0.7868272350D+01 -0.1193324198D+00  0.6899906659D-01
      0.1881288540D+01 -0.1608541517D+00  0.3164239610D+00
      0.5442492580D+00  0.1143456438D+01  0.7443082909D+00
 SP   1 1.00       0.000000000000
      0.1687144782D+00  0.1000000000D+01  0.1000000000D+01
 D   1 1.00       0.000000000000
      0.8000000000D+00  0.1000000000D+01
 ****
     34 0
 S   6 1.00       0.000000000000
      0.3047524880D+04  0.1834737132D-02
      0.4573695180D+03  0.1403732281D-01
      0.1039486850D+03  0.6884262226D-01
      0.2921015530D+02  0.2321844432D+00
      0.9286662960D+01  0.4679413484D+00
      0.3163926960D+01  0.3623119853D+00
 SP   3 1.00       0.000000000000
      0.7868272350D+01 -0.1193324198D+00  0.6899906659D-01
      0.1881288540D+01 -0.1608541517D+00  0.3164239610D+00
      0.5442492580D+00  0.1143456438D+01  0.7443082909D+00
 SP   1 1.00       0.000000000000
      0.1687144782D+00  0.1000000000D+01  0.1000000000D+01
 D   1 1.00       0.000000000000
      0.8000000000D+00  0.1000000000D+01
 ****
     35 0
 S   6 1.00       0.000000000000
      0.3047524880D+04  0.1834737132D-02
      0.4573695180D+03  0.1403732281D-01
      0.1039486850D+03  0.6884262226D-01
      0.2921015530D+02  0.2321844432D+00
      0.9286662960D+01  0.4679413484D+00
      0.3163926960D+01  0.3623119853D+00
 SP   3 1.00       0.000000000000
      0.7868272350D+01 -0.1193324198D+00  0.6899906659D-01
      0.1881288540D+01 -0.1608541517D+00  0.3164239610D+00
      0.5442492580D+00  0.1143456438D+01  0.7443082909D+00
 SP   1 1.00       0.000000000000
      0.1687144782D+00  0.1000000000D+01  0.1000000000D+01
 D   1 1.00       0.000000000000
      0.8000000000D+00  0.1000000000D+01
 ****
     36 0
 S   6 1.00       0.000000000000
      0.3047524880D+04  0.1834737132D-02
      0.4573695180D+03  0.1403732281D-01
      0.1039486850D+03  0.6884262226D-01
      0.2921015530D+02  0.2321844432D+00
      0.9286662960D+01  0.4679413484D+00
      0.3163926960D+01  0.3623119853D+00
 SP   3 1.00       0.000000000000
      0.7868272350D+01 -0.1193324198D+00  0.6899906659D-01
      0.1881288540D+01 -0.1608541517D+00  0.3164239610D+00
      0.5442492580D+00  0.1143456438D+01  0.7443082909D+00
 SP   1 1.00       0.000000000000
      0.1687144782D+00  0.1000000000D+01  0.1000000000D+01
 D   1 1.00       0.000000000000
      0.8000000000D+00  0.1000000000D+01
 ****
     37 0
 S   6 1.00       0.000000000000
      0.4173511460D+04  0.1834772160D-02
      0.6274579110D+03  0.1399462700D-01
      0.1429020930D+03  0.6858655181D-01
      0.4023432930D+02  0.2322408730D+00
      0.1282021290D+02  0.4690699481D+00
      0.4390437010D+01  0.3604551991D+00
 SP   3 1.00       0.000000000000
      0.1162636186D+02 -0.1149611817D+00  0.6757974388D-01
      0.2716279807D+01 -0.1691174786D+00  0.3239072959D+00
      0.7722183966D+00  0.1145851947D+01  0.7408951398D+00
 SP   1 1.00       0.000000000000
      0.2120314975D+00  0.1000000000D+01  0.1000000000D+01
 D   1 1.00       0.000000000000
      0.8000000000D+00  0.1000000000D+01
 ****
     38 0
 S   6 1.00       0.000000000000
      0.3047524880D+04  0.1834737132D-02
      0.4573695180D+03  0.1403732281D-01
      0.1039486850D+03  0.6884262226D-01
      0.2921015530D+02  0.2321844432D+00
      0.9286662960D+01  0.4679413484D+00
      0.3163926960D+01  0.3623119853D+00
 SP   3 1.00       0.000000000000
      0.7868272350D+01 -0.1193324198D+00  0.6899906659D-01
      0.1881288540D+01 -0.1608541517D+00  0.3164239610D+00
      0.5442492580D+00  0.1143456438D+01  0.7443082909D+00
 SP   1 1.00       0.000000000000
      0.1687144782D+00  0.1000000000D+01  0.1000000000D+01
 D   1 1.00       0.000000000000
      0.8000000000D+00  0.1000000000D+01
 ****
     39 0
 S   6 1.00       0.000000000000
      0.3047524880D+04  0.1834737132D-02
      0.4573695180D+03  0.1403732281D-01
      0.1039486850D+03  0.6884262226D-01
      0.2921015530D+02  0.2321844432D+00
      0.9286662960D+01  0.4679413484D+00
      0.3163926960D+01  0.3623119853D+00
 SP   3 1.00       0.000000000000
      0.7868272350D+01 -0.1193324198D+00  0.6899906659D-01
      0.1881288540D+01 -0.1608541517D+00  0.3164239610D+00
      0.5442492580D+00  0.1143456438D+01  0.7443082909D+00
 SP   1 1.00       0.000000000000
      0.1687144782D+00  0.1000000000D+01  0.1000000000D+01
 D   1 1.00       0.000000000000
      0.8000000000D+00  0.1000000000D+01
 ****
     40 0
 S   6 1.00       0.000000000000
      0.3047524880D+04  0.1834737132D-02
      0.4573695180D+03  0.1403732281D-01
      0.1039486850D+03  0.6884262226D-01
      0.2921015530D+02  0.2321844432D+00
      0.9286662960D+01  0.4679413484D+00
      0.3163926960D+01  0.3623119853D+00
 SP   3 1.00       0.000000000000
      0.7868272350D+01 -0.1193324198D+00  0.6899906659D-01
      0.1881288540D+01 -0.1608541517D+00  0.3164239610D+00
      0.5442492580D+00  0.1143456438D+01  0.7443082909D+00
 SP   1 1.00       0.000000000000
      0.1687144782D+00  0.1000000000D+01  0.1000000000D+01
 D   1 1.00       0.000000000000
      0.8000000000D+00  0.1000000000D+01
 ****
     41 0
 S   6 1.00       0.000000000000
      0.3047524880D+04  0.1834737132D-02
      0.4573695180D+03  0.1403732281D-01
      0.1039486850D+03  0.6884262226D-01
      0.2921015530D+02  0.2321844432D+00
      0.9286662960D+01  0.4679413484D+00
      0.3163926960D+01  0.3623119853D+00
 SP   3 1.00       0.000000000000
      0.7868272350D+01 -0.1193324198D+00  0.6899906659D-01
      0.1881288540D+01 -0.1608541517D+00  0.3164239610D+00
      0.5442492580D+00  0.1143456438D+01  0.7443082909D+00
 SP   1 1.00       0.000000000000
      0.1687144782D+00  0.1000000000D+01  0.1000000000D+01
 D   1 1.00       0.000000000000
      0.8000000000D+00  0.1000000000D+01
 ****
     42 0
 S   6 1.00       0.000000000000
      0.3047524880D+04  0.1834737132D-02
      0.4573695180D+03  0.1403732281D-01
      0.1039486850D+03  0.6884262226D-01
      0.2921015530D+02  0.2321844432D+00
      0.9286662960D+01  0.4679413484D+00
      0.3163926960D+01  0.3623119853D+00
 SP   3 1.00       0.000000000000
      0.7868272350D+01 -0.1193324198D+00  0.6899906659D-01
      0.1881288540D+01 -0.1608541517D+00  0.3164239610D+00
      0.5442492580D+00  0.1143456438D+01  0.7443082909D+00
 SP   1 1.00       0.000000000000
      0.1687144782D+00  0.1000000000D+01  0.1000000000D+01
 D   1 1.00       0.000000000000
      0.8000000000D+00  0.1000000000D+01
 ****
     43 0
 S   6 1.00       0.000000000000
      0.3047524880D+04  0.1834737132D-02
      0.4573695180D+03  0.1403732281D-01
      0.1039486850D+03  0.6884262226D-01
      0.2921015530D+02  0.2321844432D+00
      0.9286662960D+01  0.4679413484D+00
      0.3163926960D+01  0.3623119853D+00
 SP   3 1.00       0.000000000000
      0.7868272350D+01 -0.1193324198D+00  0.6899906659D-01
      0.1881288540D+01 -0.1608541517D+00  0.3164239610D+00
      0.5442492580D+00  0.1143456438D+01  0.7443082909D+00
 SP   1 1.00       0.000000000000
      0.1687144782D+00  0.1000000000D+01  0.1000000000D+01
 D   1 1.00       0.000000000000
      0.8000000000D+00  0.1000000000D+01
 ****
     44 0
 S   6 1.00       0.000000000000
      0.3047524880D+04  0.1834737132D-02
      0.4573695180D+03  0.1403732281D-01
      0.1039486850D+03  0.6884262226D-01
      0.2921015530D+02  0.2321844432D+00
      0.9286662960D+01  0.4679413484D+00
      0.3163926960D+01  0.3623119853D+00
 SP   3 1.00       0.000000000000
      0.7868272350D+01 -0.1193324198D+00  0.6899906659D-01
      0.1881288540D+01 -0.1608541517D+00  0.3164239610D+00
      0.5442492580D+00  0.1143456438D+01  0.7443082909D+00
 SP   1 1.00       0.000000000000
      0.1687144782D+00  0.1000000000D+01  0.1000000000D+01
 D   1 1.00       0.000000000000
      0.8000000000D+00  0.1000000000D+01
 ****
     45 0
 S   6 1.00       0.000000000000
      0.3047524880D+04  0.1834737132D-02
      0.4573695180D+03  0.1403732281D-01
      0.1039486850D+03  0.6884262226D-01
      0.2921015530D+02  0.2321844432D+00
      0.9286662960D+01  0.4679413484D+00
      0.3163926960D+01  0.3623119853D+00
 SP   3 1.00       0.000000000000
      0.7868272350D+01 -0.1193324198D+00  0.6899906659D-01
      0.1881288540D+01 -0.1608541517D+00  0.3164239610D+00
      0.5442492580D+00  0.1143456438D+01  0.7443082909D+00
 SP   1 1.00       0.000000000000
      0.1687144782D+00  0.1000000000D+01  0.1000000000D+01
 D   1 1.00       0.000000000000
      0.8000000000D+00  0.1000000000D+01
 ****
     46 0
 S   6 1.00       0.000000000000
      0.3047524880D+04  0.1834737132D-02
      0.4573695180D+03  0.1403732281D-01
      0.1039486850D+03  0.6884262226D-01
      0.2921015530D+02  0.2321844432D+00
      0.9286662960D+01  0.4679413484D+00
      0.3163926960D+01  0.3623119853D+00
 SP   3 1.00       0.000000000000
      0.7868272350D+01 -0.1193324198D+00  0.6899906659D-01
      0.1881288540D+01 -0.1608541517D+00  0.3164239610D+00
      0.5442492580D+00  0.1143456438D+01  0.7443082909D+00
 SP   1 1.00       0.000000000000
      0.1687144782D+00  0.1000000000D+01  0.1000000000D+01
 D   1 1.00       0.000000000000
      0.8000000000D+00  0.1000000000D+01
 ****
     47 0
 S   6 1.00       0.000000000000
      0.3047524880D+04  0.1834737132D-02
      0.4573695180D+03  0.1403732281D-01
      0.1039486850D+03  0.6884262226D-01
      0.2921015530D+02  0.2321844432D+00
      0.9286662960D+01  0.4679413484D+00
      0.3163926960D+01  0.3623119853D+00
 SP   3 1.00       0.000000000000
      0.7868272350D+01 -0.1193324198D+00  0.6899906659D-01
      0.1881288540D+01 -0.1608541517D+00  0.3164239610D+00
      0.5442492580D+00  0.1143456438D+01  0.7443082909D+00
 SP   1 1.00       0.000000000000
      0.1687144782D+00  0.1000000000D+01  0.1000000000D+01
 D   1 1.00       0.000000000000
      0.8000000000D+00  0.1000000000D+01
 ****
     48 0
 S   6 1.00       0.000000000000
      0.3047524880D+04  0.1834737132D-02
      0.4573695180D+03  0.1403732281D-01
      0.1039486850D+03  0.6884262226D-01
      0.2921015530D+02  0.2321844432D+00
      0.9286662960D+01  0.4679413484D+00
      0.3163926960D+01  0.3623119853D+00
 SP   3 1.00       0.000000000000
      0.7868272350D+01 -0.1193324198D+00  0.6899906659D-01
      0.1881288540D+01 -0.1608541517D+00  0.3164239610D+00
      0.5442492580D+00  0.1143456438D+01  0.7443082909D+00
 SP   1 1.00       0.000000000000
      0.1687144782D+00  0.1000000000D+01  0.1000000000D+01
 D   1 1.00       0.000000000000
      0.8000000000D+00  0.1000000000D+01
 ****
     49 0
 S   6 1.00       0.000000000000
      0.3047524880D+04  0.1834737132D-02
      0.4573695180D+03  0.1403732281D-01
      0.1039486850D+03  0.6884262226D-01
      0.2921015530D+02  0.2321844432D+00
      0.9286662960D+01  0.4679413484D+00
      0.3163926960D+01  0.3623119853D+00
 SP   3 1.00       0.000000000000
      0.7868272350D+01 -0.1193324198D+00  0.6899906659D-01
      0.1881288540D+01 -0.1608541517D+00  0.3164239610D+00
      0.5442492580D+00  0.1143456438D+01  0.7443082909D+00
 SP   1 1.00       0.000000000000
      0.1687144782D+00  0.1000000000D+01  0.1000000000D+01
 D   1 1.00       0.000000000000
      0.8000000000D+00  0.1000000000D+01
 ****
     50 0
 S   6 1.00       0.000000000000
      0.3047524880D+04  0.1834737132D-02
      0.4573695180D+03  0.1403732281D-01
      0.1039486850D+03  0.6884262226D-01
      0.2921015530D+02  0.2321844432D+00
      0.9286662960D+01  0.4679413484D+00
      0.3163926960D+01  0.3623119853D+00
 SP   3 1.00       0.000000000000
      0.7868272350D+01 -0.1193324198D+00  0.6899906659D-01
      0.1881288540D+01 -0.1608541517D+00  0.3164239610D+00
      0.5442492580D+00  0.1143456438D+01  0.7443082909D+00
 SP   1 1.00       0.000000000000
      0.1687144782D+00  0.1000000000D+01  0.1000000000D+01
 D   1 1.00       0.000000000000
      0.8000000000D+00  0.1000000000D+01
 ****
     51 0
 S   3 1.00       0.000000000000
      0.1873113696D+02  0.3349460434D-01
      0.2825394365D+01  0.2347269535D+00
      0.6401216923D+00  0.8137573261D+00
 S   1 1.00       0.000000000000
      0.1612777588D+00  0.1000000000D+01
 ****
     52 0
 S   3 1.00       0.000000000000
      0.1873113696D+02  0.3349460434D-01
      0.2825394365D+01  0.2347269535D+00
      0.6401216923D+00  0.8137573261D+00
 S   1 1.00       0.000000000000
      0.1612777588D+00  0.1000000000D+01
 ****
     53 0
 S   3 1.00       0.000000000000
      0.1873113696D+02  0.3349460434D-01
      0.2825394365D+01  0.2347269535D+00
      0.6401216923D+00  0.8137573261D+00
 S   1 1.00       0.000000000000
      0.1612777588D+00  0.1000000000D+01
 ****
     54 0
 S   3 1.00       0.000000000000
      0.1873113696D+02  0.3349460434D-01
      0.2825394365D+01  0.2347269535D+00
      0.6401216923D+00  0.8137573261D+00
 S   1 1.00       0.000000000000
      0.1612777588D+00  0.1000000000D+01
 ****
     55 0
 S   3 1.00       0.000000000000
      0.1873113696D+02  0.3349460434D-01
      0.2825394365D+01  0.2347269535D+00
      0.6401216923D+00  0.8137573261D+00
 S   1 1.00       0.000000000000
      0.1612777588D+00  0.1000000000D+01
 ****
     56 0
 S   3 1.00       0.000000000000
      0.1873113696D+02  0.3349460434D-01
      0.2825394365D+01  0.2347269535D+00
      0.6401216923D+00  0.8137573261D+00
 S   1 1.00       0.000000000000
      0.1612777588D+00  0.1000000000D+01
 ****
     57 0
 S   3 1.00       0.000000000000
      0.1873113696D+02  0.3349460434D-01
      0.2825394365D+01  0.2347269535D+00
      0.6401216923D+00  0.8137573261D+00
 S   1 1.00       0.000000000000
      0.1612777588D+00  0.1000000000D+01
 ****
     58 0
 S   3 1.00       0.000000000000
      0.1873113696D+02  0.3349460434D-01
      0.2825394365D+01  0.2347269535D+00
      0.6401216923D+00  0.8137573261D+00
 S   1 1.00       0.000000000000
      0.1612777588D+00  0.1000000000D+01
 ****
     59 0
 S   3 1.00       0.000000000000
      0.1873113696D+02  0.3349460434D-01
      0.2825394365D+01  0.2347269535D+00
      0.6401216923D+00  0.8137573261D+00
 S   1 1.00       0.000000000000
      0.1612777588D+00  0.1000000000D+01
 ****
     60 0
 S   3 1.00       0.000000000000
      0.1873113696D+02  0.3349460434D-01
      0.2825394365D+01  0.2347269535D+00
      0.6401216923D+00  0.8137573261D+00
 S   1 1.00       0.000000000000
      0.1612777588D+00  0.1000000000D+01
 ****
     61 0
 S   3 1.00       0.000000000000
      0.1873113696D+02  0.3349460434D-01
      0.2825394365D+01  0.2347269535D+00
      0.6401216923D+00  0.8137573261D+00
 S   1 1.00       0.000000000000
      0.1612777588D+00  0.1000000000D+01
 ****
     62 0
 S   3 1.00       0.000000000000
      0.1873113696D+02  0.3349460434D-01
      0.2825394365D+01  0.2347269535D+00
      0.6401216923D+00  0.8137573261D+00
 S   1 1.00       0.000000000000
      0.1612777588D+00  0.1000000000D+01
 ****
     63 0
 S   3 1.00       0.000000000000
      0.1873113696D+02  0.3349460434D-01
      0.2825394365D+01  0.2347269535D+00
      0.6401216923D+00  0.8137573261D+00
 S   1 1.00       0.000000000000
      0.1612777588D+00  0.1000000000D+01
 ****
     64 0
 S   3 1.00       0.000000000000
      0.1873113696D+02  0.3349460434D-01
      0.2825394365D+01  0.2347269535D+00
      0.6401216923D+00  0.8137573261D+00
 S   1 1.00       0.000000000000
      0.1612777588D+00  0.1000000000D+01
 ****
     65 0
 S   3 1.00       0.000000000000
      0.1873113696D+02  0.3349460434D-01
      0.2825394365D+01  0.2347269535D+00
      0.6401216923D+00  0.8137573261D+00
 S   1 1.00       0.000000000000
      0.1612777588D+00  0.1000000000D+01
 ****
     66 0
 S   3 1.00       0.000000000000
      0.1873113696D+02  0.3349460434D-01
      0.2825394365D+01  0.2347269535D+00
      0.6401216923D+00  0.8137573261D+00
 S   1 1.00       0.000000000000
      0.1612777588D+00  0.1000000000D+01
 ****
     67 0
 S   3 1.00       0.000000000000
      0.1873113696D+02  0.3349460434D-01
      0.2825394365D+01  0.2347269535D+00
      0.6401216923D+00  0.8137573261D+00
 S   1 1.00       0.000000000000
      0.1612777588D+00  0.1000000000D+01
 ****
     68 0
 S   3 1.00       0.000000000000
      0.1873113696D+02  0.3349460434D-01
      0.2825394365D+01  0.2347269535D+00
      0.6401216923D+00  0.8137573261D+00
 S   1 1.00       0.000000000000
      0.1612777588D+00  0.1000000000D+01
 ****
     69 0
 S   3 1.00       0.000000000000
      0.1873113696D+02  0.3349460434D-01
      0.2825394365D+01  0.2347269535D+00
      0.6401216923D+00  0.8137573261D+00
 S   1 1.00       0.000000000000
      0.1612777588D+00  0.1000000000D+01
 ****
     70 0
 S   3 1.00       0.000000000000
      0.1873113696D+02  0.3349460434D-01
      0.2825394365D+01  0.2347269535D+00
      0.6401216923D+00  0.8137573261D+00
 S   1 1.00       0.000000000000
      0.1612777588D+00  0.1000000000D+01
 ****
     71 0
 S   3 1.00       0.000000000000
      0.1873113696D+02  0.3349460434D-01
      0.2825394365D+01  0.2347269535D+00
      0.6401216923D+00  0.8137573261D+00
 S   1 1.00       0.000000000000
      0.1612777588D+00  0.1000000000D+01
 ****
     72 0
 S   3 1.00       0.000000000000
      0.1873113696D+02  0.3349460434D-01
      0.2825394365D+01  0.2347269535D+00
      0.6401216923D+00  0.8137573261D+00
 S   1 1.00       0.000000000000
      0.1612777588D+00  0.1000000000D+01
 ****
     73 0
 S   3 1.00       0.000000000000
      0.1873113696D+02  0.3349460434D-01
      0.2825394365D+01  0.2347269535D+00
      0.6401216923D+00  0.8137573261D+00
 S   1 1.00       0.000000000000
      0.1612777588D+00  0.1000000000D+01
 ****
     74 0
 S   3 1.00       0.000000000000
      0.1873113696D+02  0.3349460434D-01
      0.2825394365D+01  0.2347269535D+00
      0.6401216923D+00  0.8137573261D+00
 S   1 1.00       0.000000000000
      0.1612777588D+00  0.1000000000D+01
 ****
     75 0
 S   3 1.00       0.000000000000
      0.1873113696D+02  0.3349460434D-01
      0.2825394365D+01  0.2347269535D+00
      0.6401216923D+00  0.8137573261D+00
 S   1 1.00       0.000000000000
      0.1612777588D+00  0.1000000000D+01
 ****
     76 0
 S   3 1.00       0.000000000000
      0.1873113696D+02  0.3349460434D-01
      0.2825394365D+01  0.2347269535D+00
      0.6401216923D+00  0.8137573261D+00
 S   1 1.00       0.000000000000
      0.1612777588D+00  0.1000000000D+01
 ****
     77 0
 S   3 1.00       0.000000000000
      0.1873113696D+02  0.3349460434D-01
      0.2825394365D+01  0.2347269535D+00
      0.6401216923D+00  0.8137573261D+00
 S   1 1.00       0.000000000000
      0.1612777588D+00  0.1000000000D+01
 ****
     78 0
 S   3 1.00       0.000000000000
      0.1873113696D+02  0.3349460434D-01
      0.2825394365D+01  0.2347269535D+00
      0.6401216923D+00  0.8137573261D+00
 S   1 1.00       0.000000000000
      0.1612777588D+00  0.1000000000D+01
 ****
     79 0
 S   3 1.00       0.000000000000
      0.1873113696D+02  0.3349460434D-01
      0.2825394365D+01  0.2347269535D+00
      0.6401216923D+00  0.8137573261D+00
 S   1 1.00       0.000000000000
      0.1612777588D+00  0.1000000000D+01
 ****
     80 0
 S   3 1.00       0.000000000000
      0.1873113696D+02  0.3349460434D-01
      0.2825394365D+01  0.2347269535D+00
      0.6401216923D+00  0.8137573261D+00
 S   1 1.00       0.000000000000
      0.1612777588D+00  0.1000000000D+01
 ****
     81 0
 S   3 1.00       0.000000000000
      0.1873113696D+02  0.3349460434D-01
      0.2825394365D+01  0.2347269535D+00
      0.6401216923D+00  0.8137573261D+00
 S   1 1.00       0.000000000000
      0.1612777588D+00  0.1000000000D+01
 ****
     82 0
 S   3 1.00       0.000000000000
      0.1873113696D+02  0.3349460434D-01
      0.2825394365D+01  0.2347269535D+00
      0.6401216923D+00  0.8137573261D+00
 S   1 1.00       0.000000000000
      0.1612777588D+00  0.1000000000D+01
 ****
     83 0
 S   3 1.00       0.000000000000
      0.1873113696D+02  0.3349460434D-01
      0.2825394365D+01  0.2347269535D+00
      0.6401216923D+00  0.8137573261D+00
 S   1 1.00       0.000000000000
      0.1612777588D+00  0.1000000000D+01
 ****
     84 0
 S   3 1.00       0.000000000000
      0.1873113696D+02  0.3349460434D-01
      0.2825394365D+01  0.2347269535D+00
      0.6401216923D+00  0.8137573261D+00
 S   1 1.00       0.000000000000
      0.1612777588D+00  0.1000000000D+01
 ****
     85 0
 S   3 1.00       0.000000000000
      0.1873113696D+02  0.3349460434D-01
      0.2825394365D+01  0.2347269535D+00
      0.6401216923D+00  0.8137573261D+00
 S   1 1.00       0.000000000000
      0.1612777588D+00  0.1000000000D+01
 ****
     86 0
 S   3 1.00       0.000000000000
      0.1873113696D+02  0.3349460434D-01
      0.2825394365D+01  0.2347269535D+00
      0.6401216923D+00  0.8137573261D+00
 S   1 1.00       0.000000000000
      0.1612777588D+00  0.1000000000D+01
 ****
     87 0
 S   3 1.00       0.000000000000
      0.1873113696D+02  0.3349460434D-01
      0.2825394365D+01  0.2347269535D+00
      0.6401216923D+00  0.8137573261D+00
 S   1 1.00       0.000000000000
      0.1612777588D+00  0.1000000000D+01
 ****

   824 basis functions,  1548 primitive gaussians,   824 cartesian basis functions
   170 alpha electrons      170 beta electrons
       nuclear repulsion energy      5835.3982585949 Hartrees.
 IExCor=  402 DFT=T Ex+Corr=B3LYP ExCW=0 ScaHFX=  0.200000
 ScaDFX=  0.800000  0.720000  1.000000  0.810000 ScalE2=  1.000000  1.000000
 IRadAn=      5 IRanWt=     -1 IRanGd=            0 ICorTp=0 IEmpDi=  4
 NAtoms=   87 NActive=   87 NUniq=   87 SFac= 1.00D+00 NAtFMM=   60 NAOKFM=T Big=T
 Integral buffers will be    131072 words long.
 Regular integral format.
 Two-electron integral symmetry is turned off.
 Leave Link  301 at Sat Nov  5 10:12:56 2022, MaxMem=   402653184 cpu:               1.4 elap:               0.1
 (Enter /home/wykgroup/appl/g16/l302.exe)
 NPDir=0 NMtPBC=     1 NCelOv=     1 NCel=       1 NClECP=     1 NCelD=      1
         NCelK=      1 NCelE2=     1 NClLst=     1 CellRange=     0.0.
 One-electron integrals computed using PRISM.
 NBasis=   824 RedAO= T EigKep=  2.66D-04  NBF=   824
 NBsUse=   824 1.00D-06 EigRej= -1.00D+00 NBFU=   824
 Precomputing XC quadrature grid using
 IXCGrd= 4 IRadAn=           5 IRanWt=          -1 IRanGd=           0 AccXCQ= 0.00D+00.
 Generated NRdTot=       0 NPtTot=           0 NUsed=           0 NTot=          32
 NSgBfM=   797   797   797   797   797 MxSgAt=    87 MxSgA2=    87.
 Leave Link  302 at Sat Nov  5 10:12:58 2022, MaxMem=   402653184 cpu:              27.7 elap:               2.1
 (Enter /home/wykgroup/appl/g16/l303.exe)
 DipDrv:  MaxL=1.
 Leave Link  303 at Sat Nov  5 10:12:59 2022, MaxMem=   402653184 cpu:               1.7 elap:               0.2
 (Enter /home/wykgroup/appl/g16/l308.exe)
 Leave Link  308 at Sat Nov  5 10:12:59 2022, MaxMem=   402653184 cpu:               2.2 elap:               0.2
 (Enter /home/wykgroup/appl/g16/l401.exe)
 ExpMin= 1.61D-01 ExpMax= 4.17D+03 ExpMxC= 6.27D+02 IAcc=3 IRadAn=         5 AccDes= 0.00D+00
 Harris functional with IExCor=  402 and IRadAn=       5 diagonalized for initial guess.
 HarFok:  IExCor=  402 AccDes= 0.00D+00 IRadAn=         5 IDoV= 1 UseB2=F ITyADJ=14
 ICtDFT=  3500011 ScaDFX=  1.000000  1.000000  1.000000  1.000000
 FoFCou: FMM=F IPFlag=           0 FMFlag=      100000 FMFlg1=        2001
         NFxFlg=           0 DoJE=T BraDBF=F KetDBF=T FulRan=T
         wScrn=  0.000000 ICntrl=       500 IOpCl=  0 I1Cent=   200000004 NGrid=           0
         NMat0=    1 NMatS0=      1 NMatT0=    0 NMatD0=    1 NMtDS0=    0 NMtDT0=    0
 Symmetry not used in FoFCou.
 Harris En= -1977.62752644600    
 JPrj=0 DoOrth=F DoCkMO=F.
 Leave Link  401 at Sat Nov  5 10:13:04 2022, MaxMem=   402653184 cpu:              62.9 elap:               4.8
 (Enter /home/wykgroup/appl/g16/l502.exe)
 Two-electron integral symmetry not used.
 Closed shell SCF:
 Using DIIS extrapolation, IDIIS=  1040.
 NGot=   402653184 LenX=   401276713 LenY=   400596913
 Requested convergence on RMS density matrix=1.00D-08 within  32 cycles.
 Requested convergence on MAX density matrix=1.00D-06.
 Requested convergence on             energy=1.00D-06.
 No special actions if energy rises.
 Fock matrices will be formed incrementally for  20 cycles.
 Integral accuracy reduced to 1.0D-05 until final iterations.

 Cycle   1  Pass 0  IDiag  1:
 FoFJK:  IHMeth= 1 ICntrl=       0 DoSepK=F KAlg= 0 I1Cent=           0 FoldK=F
 IRaf= 710000000 NMat=       1 IRICut=       1 DoRegI=T DoRafI=F ISym2E= 0 IDoP0=0 IntGTp=1.
 FoFCou: FMM=T IPFlag=           0 FMFlag=      100000 FMFlg1=        2001
         NFxFlg=           0 DoJE=F BraDBF=F KetDBF=F FulRan=T
         wScrn=  0.000000 ICntrl=         0 IOpCl=  0 I1Cent=           0 NGrid=           0
         NMat0=    1 NMatS0=      1 NMatT0=    0 NMatD0=    1 NMtDS0=    0 NMtDT0=    0
 Symmetry not used in FoFCou.
 FMM levels:  10  Number of levels for PrismC:   9
 E= -1976.50285743109    
 DIIS: error= 3.31D-02 at cycle   1 NSaved=   1.
 NSaved= 1 IEnMin= 1 EnMin= -1976.50285743109     IErMin= 1 ErrMin= 3.31D-02
 ErrMax= 3.31D-02  0.00D+00 EMaxC= 1.00D-01 BMatC= 1.04D+00 BMatP= 1.04D+00
 IDIUse=3 WtCom= 6.69D-01 WtEn= 3.31D-01
 Coeff-Com:  0.100D+01
 Coeff-En:   0.100D+01
 Coeff:      0.100D+01
 Gap=     0.232 Goal=   None    Shift=    0.000
 GapD=    0.232 DampG=1.000 DampE=0.500 DampFc=0.5000 IDamp=-1.
 Damping current iteration by 5.00D-01
 RMSDP=3.31D-03 MaxDP=1.38D-01              OVMax= 2.55D-01

 Cycle   2  Pass 0  IDiag  1:
 RMSU=  1.60D-03    CP:  9.65D-01
 E= -1976.95933892300     Delta-E=       -0.456481491913 Rises=F Damp=T
 DIIS: error= 7.75D-03 at cycle   2 NSaved=   2.
 NSaved= 2 IEnMin= 2 EnMin= -1976.95933892300     IErMin= 2 ErrMin= 7.75D-03
 ErrMax= 7.75D-03  0.00D+00 EMaxC= 1.00D-01 BMatC= 1.10D-01 BMatP= 1.04D+00
 IDIUse=3 WtCom= 9.23D-01 WtEn= 7.75D-02
 Coeff-Com:  0.939D-01 0.906D+00
 Coeff-En:   0.164D+00 0.836D+00
 Coeff:      0.993D-01 0.901D+00
 Gap=     0.213 Goal=   None    Shift=    0.000
 RMSDP=1.26D-03 MaxDP=1.02D-01 DE=-4.56D-01 OVMax= 2.76D-01

 Cycle   3  Pass 0  IDiag  1:
 RMSU=  1.20D-03    CP:  9.42D-01  8.20D-01
 E= -1977.43815756228     Delta-E=       -0.478818639280 Rises=F Damp=F
 DIIS: error= 1.12D-02 at cycle   3 NSaved=   3.
 NSaved= 3 IEnMin= 3 EnMin= -1977.43815756228     IErMin= 2 ErrMin= 7.75D-03
 ErrMax= 1.12D-02  0.00D+00 EMaxC= 1.00D-01 BMatC= 1.70D-01 BMatP= 1.10D-01
 IDIUse=2 WtCom= 0.00D+00 WtEn= 1.00D+00
 Coeff-En:   0.000D+00 0.000D+00 0.100D+01
 Coeff:      0.000D+00 0.000D+00 0.100D+01
 Gap=     0.239 Goal=   None    Shift=    0.000
 RMSDP=1.95D-03 MaxDP=1.23D-01 DE=-4.79D-01 OVMax= 2.95D-01

 Cycle   4  Pass 0  IDiag  1:
 RMSU=  1.07D-03    CP:  9.44D-01  1.35D+00 -1.65D-01
 E= -1976.61730191299     Delta-E=        0.820855649293 Rises=F Damp=F
 DIIS: error= 3.00D-02 at cycle   4 NSaved=   4.
 NSaved= 4 IEnMin= 3 EnMin= -1977.43815756228     IErMin= 2 ErrMin= 7.75D-03
 ErrMax= 3.00D-02  0.00D+00 EMaxC= 1.00D-01 BMatC= 9.14D-01 BMatP= 1.10D-01
 IDIUse=2 WtCom= 0.00D+00 WtEn= 1.00D+00
 Coeff-En:   0.000D+00 0.000D+00 0.785D+00 0.215D+00
 Coeff:      0.000D+00 0.000D+00 0.785D+00 0.215D+00
 Gap=     0.161 Goal=   None    Shift=    0.000
 RMSDP=9.99D-04 MaxDP=6.12D-02 DE= 8.21D-01 OVMax= 1.81D-01

 Cycle   5  Pass 0  IDiag  1:
 RMSU=  1.82D-04    CP:  9.45D-01  1.06D+00  4.12D-01  5.08D-01
 E= -1977.55096542035     Delta-E=       -0.933663507360 Rises=F Damp=F
 DIIS: error= 7.94D-03 at cycle   5 NSaved=   5.
 NSaved= 5 IEnMin= 5 EnMin= -1977.55096542035     IErMin= 2 ErrMin= 7.75D-03
 ErrMax= 7.94D-03  0.00D+00 EMaxC= 1.00D-01 BMatC= 7.03D-02 BMatP= 1.10D-01
 IDIUse=3 WtCom= 9.21D-01 WtEn= 7.94D-02
 Coeff-Com:  0.135D-02 0.973D-02 0.313D+00-0.781D-01 0.754D+00
 Coeff-En:   0.000D+00 0.000D+00 0.339D+00 0.000D+00 0.661D+00
 Coeff:      0.125D-02 0.896D-02 0.315D+00-0.719D-01 0.747D+00
 Gap=     0.169 Goal=   None    Shift=    0.000
 RMSDP=3.93D-04 MaxDP=2.93D-02 DE=-9.34D-01 OVMax= 6.71D-02

 Cycle   6  Pass 0  IDiag  1:
 RMSU=  6.04D-05    CP:  9.44D-01  9.60D-01  6.43D-01  3.08D-01  7.86D-01
 E= -1977.62774100070     Delta-E=       -0.076775580351 Rises=F Damp=F
 DIIS: error= 6.74D-04 at cycle   6 NSaved=   6.
 NSaved= 6 IEnMin= 6 EnMin= -1977.62774100070     IErMin= 6 ErrMin= 6.74D-04
 ErrMax= 6.74D-04  0.00D+00 EMaxC= 1.00D-01 BMatC= 5.74D-04 BMatP= 7.03D-02
 IDIUse=3 WtCom= 9.93D-01 WtEn= 6.74D-03
 Coeff-Com: -0.185D-02 0.728D-02 0.132D+00-0.668D-01 0.436D+00 0.493D+00
 Coeff-En:   0.000D+00 0.000D+00 0.000D+00 0.000D+00 0.000D+00 0.100D+01
 Coeff:     -0.184D-02 0.723D-02 0.131D+00-0.664D-01 0.433D+00 0.497D+00
 Gap=     0.165 Goal=   None    Shift=    0.000
 RMSDP=3.35D-05 MaxDP=3.44D-03 DE=-7.68D-02 OVMax= 5.69D-03

 Cycle   7  Pass 0  IDiag  1:
 RMSU=  1.67D-05    CP:  9.44D-01  9.61D-01  6.43D-01  3.06D-01  8.42D-01
                    CP:  5.54D-01
 E= -1977.62824496374     Delta-E=       -0.000503963041 Rises=F Damp=F
 DIIS: error= 1.93D-04 at cycle   7 NSaved=   7.
 NSaved= 7 IEnMin= 7 EnMin= -1977.62824496374     IErMin= 7 ErrMin= 1.93D-04
 ErrMax= 1.93D-04  0.00D+00 EMaxC= 1.00D-01 BMatC= 3.26D-05 BMatP= 5.74D-04
 IDIUse=3 WtCom= 9.98D-01 WtEn= 1.93D-03
 Coeff-Com: -0.727D-03 0.235D-02 0.537D-01-0.293D-01 0.182D+00 0.270D+00
 Coeff-Com:  0.522D+00
 Coeff-En:   0.000D+00 0.000D+00 0.000D+00 0.000D+00 0.000D+00 0.000D+00
 Coeff-En:   0.100D+01
 Coeff:     -0.726D-03 0.234D-02 0.536D-01-0.293D-01 0.182D+00 0.269D+00
 Coeff:      0.523D+00
 Gap=     0.165 Goal=   None    Shift=    0.000
 RMSDP=1.17D-05 MaxDP=7.76D-04 DE=-5.04D-04 OVMax= 1.73D-03

 Cycle   8  Pass 0  IDiag  1:
 RMSU=  7.68D-06    CP:  9.44D-01  9.61D-01  6.43D-01  3.06D-01  8.41D-01
                    CP:  5.99D-01  5.01D-01
 E= -1977.62827023085     Delta-E=       -0.000025267109 Rises=F Damp=F
 DIIS: error= 7.79D-05 at cycle   8 NSaved=   8.
 NSaved= 8 IEnMin= 8 EnMin= -1977.62827023085     IErMin= 8 ErrMin= 7.79D-05
 ErrMax= 7.79D-05  0.00D+00 EMaxC= 1.00D-01 BMatC= 9.66D-06 BMatP= 3.26D-05
 IDIUse=1 WtCom= 1.00D+00 WtEn= 0.00D+00
 Coeff-Com:  0.117D-04-0.309D-03 0.107D-01-0.597D-02 0.343D-01 0.910D-01
 Coeff-Com:  0.378D+00 0.493D+00
 Coeff:      0.117D-04-0.309D-03 0.107D-01-0.597D-02 0.343D-01 0.910D-01
 Coeff:      0.378D+00 0.493D+00
 Gap=     0.165 Goal=   None    Shift=    0.000
 RMSDP=5.42D-06 MaxDP=4.93D-04 DE=-2.53D-05 OVMax= 8.79D-04

 Initial convergence to 1.0D-05 achieved.  Increase integral accuracy.
 Cycle   9  Pass 1  IDiag  1:
 E= -1977.62821583440     Delta-E=        0.000054396445 Rises=F Damp=F
 DIIS: error= 2.47D-04 at cycle   1 NSaved=   1.
 NSaved= 1 IEnMin= 1 EnMin= -1977.62821583440     IErMin= 1 ErrMin= 2.47D-04
 ErrMax= 2.47D-04  0.00D+00 EMaxC= 1.00D-01 BMatC= 2.82D-05 BMatP= 2.82D-05
 IDIUse=3 WtCom= 9.98D-01 WtEn= 2.47D-03
 Coeff-Com:  0.100D+01
 Coeff-En:   0.100D+01
 Coeff:      0.100D+01
 Gap=     0.165 Goal=   None    Shift=    0.000
 RMSDP=5.42D-06 MaxDP=4.93D-04 DE= 5.44D-05 OVMax= 7.54D-04

 Cycle  10  Pass 1  IDiag  1:
 RMSU=  1.18D-04    CP:  1.00D+00
 E= -1977.62823853074     Delta-E=       -0.000022696333 Rises=F Damp=F
 DIIS: error= 5.05D-05 at cycle   2 NSaved=   2.
 NSaved= 2 IEnMin= 2 EnMin= -1977.62823853074     IErMin= 2 ErrMin= 5.05D-05
 ErrMax= 5.05D-05  0.00D+00 EMaxC= 1.00D-01 BMatC= 3.39D-06 BMatP= 2.82D-05
 IDIUse=1 WtCom= 1.00D+00 WtEn= 0.00D+00
 Coeff-Com:  0.138D+00 0.862D+00
 Coeff:      0.138D+00 0.862D+00
 Gap=     0.164 Goal=   None    Shift=    0.000
 RMSDP=7.94D-06 MaxDP=4.14D-04 DE=-2.27D-05 OVMax= 1.17D-03

 Cycle  11  Pass 1  IDiag  1:
 RMSU=  7.87D-06    CP:  1.00D+00  1.01D+00
 E= -1977.62822922038     Delta-E=        0.000009310360 Rises=F Damp=F
[...]
 Alpha virt. eigenvalues --    0.24897   0.25186   0.25358   0.25453   0.25972
 Alpha virt. eigenvalues --    0.26066   0.26263   0.26464   0.27067   0.27112
 Alpha virt. eigenvalues --    0.27205   0.27699   0.27832   0.28346   0.29546
 Alpha virt. eigenvalues --    0.29851   0.30913   0.31424   0.31630   0.32052
 Alpha virt. eigenvalues --    0.32942   0.33250   0.33817   0.34727   0.35023
 Alpha virt. eigenvalues --    0.35851   0.36799   0.37922   0.38216   0.38462
 Alpha virt. eigenvalues --    0.38554   0.38628   0.39677   0.40483   0.40750
 Alpha virt. eigenvalues --    0.41034   0.42534   0.43602   0.43944   0.44245
 Alpha virt. eigenvalues --    0.46274   0.46711   0.47951   0.48779   0.49298
 Alpha virt. eigenvalues --    0.49481   0.49703   0.49839   0.50303   0.50963
 Alpha virt. eigenvalues --    0.51372   0.51624   0.52113   0.52396   0.52546
 Alpha virt. eigenvalues --    0.52885   0.52944   0.53247   0.53415   0.53953
 Alpha virt. eigenvalues --    0.54003   0.54294   0.54370   0.54495   0.54625
 Alpha virt. eigenvalues --    0.54920   0.55114   0.55521   0.55876   0.56134
 Alpha virt. eigenvalues --    0.56224   0.56699   0.56921   0.57075   0.57163
 Alpha virt. eigenvalues --    0.57191   0.57401   0.57584   0.58020   0.58285
 Alpha virt. eigenvalues --    0.58427   0.58561   0.58955   0.59366   0.59394
 Alpha virt. eigenvalues --    0.59528   0.59622   0.59859   0.60059   0.60159
 Alpha virt. eigenvalues --    0.60533   0.60899   0.61127   0.61179   0.61339
 Alpha virt. eigenvalues --    0.61397   0.61434   0.61663   0.61825   0.61999
 Alpha virt. eigenvalues --    0.62208   0.62229   0.62276   0.62437   0.62511
 Alpha virt. eigenvalues --    0.63194   0.63333   0.63518   0.63667   0.63816
 Alpha virt. eigenvalues --    0.63862   0.64167   0.64349   0.64569   0.64627
 Alpha virt. eigenvalues --    0.65006   0.65291   0.65626   0.66261   0.68280
 Alpha virt. eigenvalues --    0.68515   0.69312   0.69716   0.70345   0.70810
 Alpha virt. eigenvalues --    0.71465   0.71806   0.72541   0.73122   0.73381
 Alpha virt. eigenvalues --    0.73835   0.73895   0.74308   0.75570   0.77397
 Alpha virt. eigenvalues --    0.78086   0.78923   0.79111   0.79484   0.80012
 Alpha virt. eigenvalues --    0.80117   0.80670   0.80872   0.81147   0.81300
 Alpha virt. eigenvalues --    0.81764   0.82078   0.82373   0.82771   0.83352
 Alpha virt. eigenvalues --    0.83660   0.83753   0.83886   0.84036   0.84210
 Alpha virt. eigenvalues --    0.84553   0.84657   0.84885   0.85066   0.85511
 Alpha virt. eigenvalues --    0.85717   0.85918   0.86163   0.86573   0.87003
 Alpha virt. eigenvalues --    0.87500   0.87543   0.87807   0.88348   0.88860
 Alpha virt. eigenvalues --    0.89260   0.89492   0.89803   0.90169   0.90272
 Alpha virt. eigenvalues --    0.90454   0.90726   0.90966   0.91099   0.91776
 Alpha virt. eigenvalues --    0.91952   0.92470   0.92691   0.92820   0.93479
 Alpha virt. eigenvalues --    0.93949   0.94814   0.95270   0.95571   0.96138
 Alpha virt. eigenvalues --    0.96239   0.96284   0.96943   0.97317   0.97438
 Alpha virt. eigenvalues --    0.97821   0.98041   0.98415   0.98654   0.98956
 Alpha virt. eigenvalues --    0.99251   0.99385   0.99566   0.99711   0.99835
 Alpha virt. eigenvalues --    1.00225   1.00275   1.01438   1.01940   1.02243
 Alpha virt. eigenvalues --    1.02839   1.03583   1.03995   1.04959   1.06273
 Alpha virt. eigenvalues --    1.06309   1.06612   1.07730   1.08379   1.09258
 Alpha virt. eigenvalues --    1.09922   1.10420   1.11123   1.11536   1.12521
 Alpha virt. eigenvalues --    1.13510   1.13936   1.14423   1.14778   1.15094
 Alpha virt. eigenvalues --    1.15352   1.15858   1.16107   1.16389   1.17836
 Alpha virt. eigenvalues --    1.18690   1.18829   1.19032   1.19501   1.20025
 Alpha virt. eigenvalues --    1.20367   1.20656   1.20790   1.21192   1.21492
 Alpha virt. eigenvalues --    1.22887   1.23571   1.25253   1.25775   1.26551
 Alpha virt. eigenvalues --    1.27436   1.27592   1.27726   1.28614   1.31065
 Alpha virt. eigenvalues --    1.32214   1.32425   1.32549   1.32970   1.33478
 Alpha virt. eigenvalues --    1.33554   1.33946   1.34660   1.34987   1.35783
 Alpha virt. eigenvalues --    1.36566   1.38117   1.38412   1.38579   1.39312
 Alpha virt. eigenvalues --    1.40241   1.41127   1.42257   1.43211   1.43713
 Alpha virt. eigenvalues --    1.43970   1.44600   1.44899   1.44937   1.45025
 Alpha virt. eigenvalues --    1.45261   1.45276   1.45517   1.45828   1.46166
 Alpha virt. eigenvalues --    1.46321   1.46625   1.47207   1.47569   1.47882
 Alpha virt. eigenvalues --    1.48545   1.49264   1.49499   1.49684   1.49885
 Alpha virt. eigenvalues --    1.49965   1.49996   1.50101   1.50174   1.52074
 Alpha virt. eigenvalues --    1.54651   1.56969   1.58011   1.58333   1.59294
 Alpha virt. eigenvalues --    1.60118   1.60368   1.60644   1.60747   1.61915
 Alpha virt. eigenvalues --    1.62289   1.63097   1.63856   1.64967   1.66736
 Alpha virt. eigenvalues --    1.69130   1.69957   1.70333   1.71115   1.73480
 Alpha virt. eigenvalues --    1.73705   1.74248   1.75062   1.76292   1.76730
 Alpha virt. eigenvalues --    1.76904   1.77200   1.77686   1.77853   1.77956
 Alpha virt. eigenvalues --    1.78157   1.78375   1.79638   1.79954   1.80597
 Alpha virt. eigenvalues --    1.81525   1.82161   1.82316   1.83055   1.83484
 Alpha virt. eigenvalues --    1.83880   1.85129   1.85584   1.85638   1.86928
 Alpha virt. eigenvalues --    1.87375   1.87834   1.88146   1.88928   1.89248
 Alpha virt. eigenvalues --    1.89676   1.89959   1.90394   1.90841   1.91009
 Alpha virt. eigenvalues --    1.91408   1.91884   1.91953   1.92480   1.93032
 Alpha virt. eigenvalues --    1.93342   1.93904   1.94284   1.94726   1.95151
 Alpha virt. eigenvalues --    1.95532   1.95854   1.96068   1.96435   1.96778
 Alpha virt. eigenvalues --    1.96989   1.97910   1.98067   1.98434   1.98821
 Alpha virt. eigenvalues --    1.99777   2.00211   2.02751   2.03046   2.03286
 Alpha virt. eigenvalues --    2.03666   2.06123   2.06765   2.07086   2.07552
 Alpha virt. eigenvalues --    2.07770   2.08142   2.08941   2.09382   2.09483
 Alpha virt. eigenvalues --    2.09946   2.10887   2.11178   2.11537   2.11971
 Alpha virt. eigenvalues --    2.12233   2.12582   2.13244   2.13955   2.14093
 Alpha virt. eigenvalues --    2.15335   2.15606   2.16413   2.17700   2.18160
 Alpha virt. eigenvalues --    2.18503   2.18733   2.19168   2.20163   2.20461
 Alpha virt. eigenvalues --    2.21001   2.21408   2.21509   2.21620   2.22570
 Alpha virt. eigenvalues --    2.23099   2.23349   2.23602   2.24594   2.24973
 Alpha virt. eigenvalues --    2.25435   2.25583   2.26259   2.26287   2.26934
 Alpha virt. eigenvalues --    2.27250   2.27342   2.27518   2.27717   2.27765
 Alpha virt. eigenvalues --    2.28174   2.28257   2.29771   2.30224   2.30425
 Alpha virt. eigenvalues --    2.30856   2.31081   2.31779   2.32166   2.33420
 Alpha virt. eigenvalues --    2.35267   2.35775   2.36102   2.36784   2.37921
 Alpha virt. eigenvalues --    2.38433   2.38641   2.38947   2.40755   2.40893
 Alpha virt. eigenvalues --    2.40940   2.44382   2.44741   2.45021   2.45941
 Alpha virt. eigenvalues --    2.47711   2.49101   2.50117   2.51341   2.52277
 Alpha virt. eigenvalues --    2.53154   2.53862   2.54621   2.55199   2.55901
 Alpha virt. eigenvalues --    2.56481   2.56944   2.58084   2.59610   2.60372
 Alpha virt. eigenvalues --    2.60489   2.61385   2.62561   2.62770   2.63045
 Alpha virt. eigenvalues --    2.64071   2.65613   2.65690   2.65875   2.66189
 Alpha virt. eigenvalues --    2.66501   2.67269   2.67471   2.67642   2.67967
 Alpha virt. eigenvalues --    2.69101   2.69288   2.69900   2.70003   2.70131
 Alpha virt. eigenvalues --    2.70930   2.71647   2.72596   2.72907   2.72917
 Alpha virt. eigenvalues --    2.76017   2.76533   2.76875   2.77023   2.78036
 Alpha virt. eigenvalues --    2.78432   2.79103   2.79700   2.82625   2.83125
 Alpha virt. eigenvalues --    2.83758   2.85106   2.85278   2.85761   2.86073
 Alpha virt. eigenvalues --    2.87455   2.88965   2.89401   2.90108   2.90772
 Alpha virt. eigenvalues --    2.92290   2.93574   2.95892   2.97920   2.98484
 Alpha virt. eigenvalues --    2.98621   2.99098   3.04372   3.09299   3.10477
 Alpha virt. eigenvalues --    3.19505   3.19757   3.23780   3.24102   3.32268
 Alpha virt. eigenvalues --    3.33181   3.34144   3.35744   3.38017   3.38196
 Alpha virt. eigenvalues --    3.46769   3.51891   3.52137   3.52731   4.07588
 Alpha virt. eigenvalues --    4.08223   4.08513   4.09210   4.09264   4.09575
 Alpha virt. eigenvalues --    4.10207   4.10320   4.12150   4.12986   4.13646
 Alpha virt. eigenvalues --    4.14426   4.14956   4.15350   4.15519   4.16146
 Alpha virt. eigenvalues --    4.17697   4.18176   4.18535   4.18931   4.19807
 Alpha virt. eigenvalues --    4.21813   4.27282   4.28189   4.29756   4.30581
 Alpha virt. eigenvalues --    4.32582   4.35971   4.36275   4.38099   4.38652
 Alpha virt. eigenvalues --    4.43046   4.43699   4.44035   4.44129   4.44560
 Alpha virt. eigenvalues --    4.45031   4.45626   4.45779   4.50324   4.51001
 Alpha virt. eigenvalues --    4.51666   4.70363   4.71778   4.73730   4.75135
 Alpha virt. eigenvalues --    4.82845   4.84808   4.84944   4.86458
          Condensed to atoms (all electrons):
 Mulliken charges:
               1
     1  C   -0.451519
     2  C   -0.246355
     3  C    0.016208
     4  C   -0.463533
     5  C   -0.442276
     6  C    0.170423
     7  C   -0.203056
     8  C   -0.175905
     9  C    0.314797
    10  C    0.069515
    11  C   -0.279074
    12  C    0.063587
    13  C   -0.198336
    14  C   -0.143313
    15  C   -0.145925
    16  C   -0.172891
    17  C    0.305194
    18  N   -0.756306
    19  C    0.284978
    20  C   -0.199368
    21  C    0.280401
    22  N   -0.749947
    23  C    0.307626
    24  C   -0.172810
    25  C   -0.145509
    26  C   -0.143305
    27  C   -0.196720
    28  C    0.062243
    29  C    0.059312
    30  C   -0.196254
    31  C   -0.143616
    32  C   -0.141122
    33  C   -0.175491
    34  C    0.312715
    35  C   -0.184415
    36  C    0.251331
    37  N   -0.739468
    38  C    0.312161
    39  C   -0.178493
    40  C   -0.142845
    41  C   -0.144048
    42  C   -0.196006
    43  C    0.061340
    44  C    0.061534
    45  C   -0.196058
    46  C   -0.144021
    47  C   -0.143093
    48  C   -0.177915
    49  C    0.311871
    50  C   -0.185480
    51  H    0.155879
    52  H    0.141049
    53  H    0.143129
    54  H    0.129394
    55  H    0.126970
    56  H    0.140592
    57  H    0.149462
    58  H    0.145091
    59  H    0.140932
    60  H    0.137435
    61  H    0.146659
    62  H    0.127575
    63  H    0.140863
    64  H    0.128615
    65  H    0.131900
    66  H    0.126484
    67  H    0.128721
    68  H    0.143131
    69  H    0.175871
    70  H    0.143737
    71  H    0.129155
    72  H    0.127009
    73  H    0.132132
    74  H    0.132003
    75  H    0.127022
    76  H    0.130682
    77  H    0.141990
    78  H    0.173723
    79  H    0.143241
    80  H    0.127899
    81  H    0.126241
    82  H    0.131738
    83  H    0.131726
    84  H    0.126210
    85  H    0.127752
    86  H    0.143076
    87  H    0.174153
 Sum of Mulliken charges =  -0.00000
 Mulliken charges with hydrogens summed into heavy atoms:
               1
     1  C   -0.011462
     2  C    0.010008
     3  C    0.016208
     4  C   -0.028388
     5  C   -0.017250
     6  C    0.170423
     7  C   -0.075481
     8  C   -0.035042
     9  C    0.314797
    10  C    0.069515
    11  C   -0.150459
    12  C    0.063587
    13  C   -0.066435
    14  C   -0.016829
    15  C   -0.017204
    16  C   -0.029760
    17  C    0.305194
    18  N   -0.756306
    19  C    0.284978
    20  C   -0.023498
    21  C    0.280401
    22  N   -0.749947
    23  C    0.307626
    24  C   -0.029073
    25  C   -0.016354
    26  C   -0.016296
    27  C   -0.064588
    28  C    0.062243
    29  C    0.059312
    30  C   -0.064251
    31  C   -0.016594
    32  C   -0.010440
    33  C   -0.033501
    34  C    0.312715
    35  C   -0.010692
    36  C    0.251331
    37  N   -0.739468
    38  C    0.312161
    39  C   -0.035253
    40  C   -0.014946
    41  C   -0.017807
    42  C   -0.064268
    43  C    0.061340
    44  C    0.061534
    45  C   -0.064333
    46  C   -0.017811
    47  C   -0.015342
    48  C   -0.034839
    49  C    0.311871
    50  C   -0.011327
 Electronic spatial extent (au):  <R**2>=          36016.5711
 Charge=             -0.0000 electrons
 Dipole moment (field-independent basis, Debye):
    X=              0.5384    Y=             -0.3102    Z=              0.1778  Tot=              0.6463
 Quadrupole moment (field-independent basis, Debye-Ang):
   XX=           -281.0011   YY=           -280.8956   ZZ=           -273.6752
   XY=             -2.8537   XZ=             -5.1836   YZ=             -6.0003
 Traceless Quadrupole moment (field-independent basis, Debye-Ang):
   XX=             -2.4771   YY=             -2.3717   ZZ=              4.8488
   XY=             -2.8537   XZ=             -5.1836   YZ=             -6.0003
 Octapole moment (field-independent basis, Debye-Ang**2):
  XXX=            500.3511  YYY=           -137.3174  ZZZ=             86.8460  XYY=             62.9540
  XXY=             32.7390  XXZ=             79.1088  XZZ=            103.2636  YZZ=             -1.4797
  YYZ=              0.9684  XYZ=              3.4382
 Hexadecapole moment (field-independent basis, Debye-Ang**3):
 XXXX=         -26516.8585 YYYY=         -15456.2494 ZZZZ=          -7022.3952 XXXY=            934.4298
 XXXZ=             13.7620 YYYX=           1278.8775 YYYZ=           1282.1721 ZZZX=             58.6611
 ZZZY=           1170.3335 XXYY=          -6713.6912 XXZZ=          -5468.8770 YYZZ=          -3666.3028
 XXYZ=            282.2645 YYXZ=              4.1903 ZZXY=            391.1995
 N-N= 5.835398258595D+03 E-N=-1.624927900316D+04  KE= 1.958469518083D+03
 Leave Link  601 at Sat Nov  5 10:34:58 2022, MaxMem=   402653184 cpu:               2.1 elap:               0.2
 (Enter /home/wykgroup/appl/g16/l9999.exe)
 Electronic transition elements 
                 1             2             3             4 
      1  -0.197751D+04 -0.197751D+04 -0.197749D+04 -0.197748D+04
      2   0.000000D+00  0.000000D+00  0.370234D+00 -0.858996D+00
      3   0.000000D+00  0.000000D+00  0.246904D+00  0.976512D+00
      4   0.000000D+00  0.000000D+00 -0.139197D+00  0.745481D-01
      5   0.000000D+00  0.000000D+00 -0.472284D-01  0.115401D+00
      6   0.000000D+00  0.000000D+00 -0.323168D-01 -0.131425D+00
      7   0.000000D+00  0.000000D+00  0.189299D-01 -0.874273D-02
      8   0.000000D+00  0.000000D+00 -0.189067D+00 -0.132859D+00
      9   0.000000D+00  0.000000D+00 -0.616044D-01 -0.246157D-01
     10   0.000000D+00  0.000000D+00 -0.358599D+00  0.334091D+00
     11   0.000000D+00  0.000000D+00  0.467681D-02 -0.672248D+00
     12   0.000000D+00  0.000000D+00  0.216192D+00 -0.144742D+00
     13   0.000000D+00  0.000000D+00 -0.137556D-01 -0.199853D+00
     14   0.000000D+00  0.000000D+00  0.971492D-01  0.107301D+01
     15   0.000000D+00  0.000000D+00 -0.140696D+00 -0.761129D-01
     16   0.000000D+00  0.000000D+00  0.156399D+00  0.453702D-02
 1\1\GINC-NODE77\SP\RB3LYP TD-FC\6-31G(d)\C47H37N3\WYKGROUP\05-Nov-2022
 \0\\#p b3lyp/6-31g(d) 6D 10F nosymm GFInput td=(50-50,nstate=2) SCF=XQ
 C\\Gaussian input prepared by ASE\\0,1\C,0,6.4634947376,-2.7399932811,
 0.4781788667\C,0,6.4344903566,-1.9567567123,1.7952437836\C,0,6.2370733
 402,-0.4158667969,1.6721056267\C,0,7.4360348888,0.1937058679,0.9194998
 853\C,0,6.2315680788,0.1845935196,3.099519325\C,0,4.8940992637,-0.0986
 519727,0.9871640405\C,0,3.6904411027,-0.5722430924,1.5618120708\C,0,2.
 4373149541,-0.3249588968,1.010936035\C,0,2.3768401171,0.4233764516,-0.
 1669916389\C,0,3.5547326232,0.9289629135,-0.76017509\C,0,4.8019526166,
 0.6599834571,-0.1819398522\C,0,3.1483418128,1.6884559865,-1.9246913518
 \C,0,3.8515241184,2.398437179,-2.9044083612\C,0,3.1458902456,3.0190062
 009,-3.9311286111\C,0,1.7452466325,2.9291322263,-3.9898013784\C,0,1.02
 12444163,2.2283649813,-3.0269825995\C,0,1.7335007658,1.6189353548,-1.9
 908663915\N,0,1.2674013848,0.8434628495,-0.9181849392\C,0,-0.085640336
 5,0.5335144595,-0.6400131298\C,0,-0.4626432143,-0.7948463153,-0.407898
 4435\C,0,-1.7939632871,-1.1036698027,-0.1056256456\N,0,-2.17464237,-2.
 4526614051,0.1021747032\C,0,-2.8813061469,-2.9469282589,1.208494636\C,
 0,-3.3396847435,-2.2760769879,2.3451744531\C,0,-4.0023993121,-3.022604
 48,3.3175422333\C,0,-4.2013683463,-4.4054386592,3.1700273928\C,0,-3.73
 09034064,-5.0707912129,2.0417475174\C,0,-3.0621859732,-4.3439754297,1.
 050255171\C,0,-2.4446740445,-4.7101071124,-0.2073553783\C,0,-2.3180329
 642,-5.9189446793,-0.9012882415\C,0,-1.6712233577,-5.9290811287,-2.133
 4469967\C,0,-1.1588943187,-4.7405976413,-2.6802494529\C,0,-1.270897302
 7,-3.5241700398,-2.0095920111\C,0,-1.9070571014,-3.523275249,-0.765244
 4299\C,0,-2.7539161567,-0.0862516784,-0.0456802571\C,0,-2.3697520261,1
 .2396640799,-0.2679430311\N,0,-3.339997567,2.2754765882,-0.1970962383\
 C,0,-3.7280426556,3.1061712584,-1.2547363429\C,0,-3.3072726588,3.09980
 18247,-2.5866738606\C,0,-3.8745539034,4.0352577129,-3.4496508836\C,0,-
 4.841867049,4.9513809508,-3.0022239973\C,0,-5.2677995882,4.9418769939,
 -1.6770491977\C,0,-4.7143956849,4.012197372,-0.7888814117\C,0,-4.92984
 62512,3.7150616998,0.6124614745\C,0,-5.7549439795,4.2624766739,1.60187
 38649\C,0,-5.7044049192,3.7423816121,2.8920462537\C,0,-4.8313944524,2.
 6861752157,3.2042095402\C,0,-3.9998814546,2.122707273,2.2384682579\C,0
 ,-4.0667759868,2.6393927724,0.9424740473\C,0,-1.0393009088,1.555803058
 4,-0.5590404398\H,0,5.54433442,-2.5867694816,-0.0974075519\H,0,6.56021
 1075,-3.8138471369,0.6749818671\H,0,7.3080929398,-2.4477581499,-0.1554
 518414\H,0,5.6381894253,-2.3644629355,2.4312440292\H,0,7.3719664563,-2
 .1306382672,2.3422904408\H,0,8.3674353774,-0.0740904404,1.4316815105\H
 ,0,7.5116619242,-0.1636426129,-0.1123082075\H,0,7.3777222626,1.2877783
 137,0.8936308579\H,0,5.4298091325,-0.2351494122,3.7162971224\H,0,7.182
 8871395,-0.0213060709,3.6057266444\H,0,6.092501187,1.2710990077,3.0658
 060896\H,0,3.7326019849,-1.1549939839,2.4772540533\H,0,1.5414284672,-0
 .6993692654,1.4948080512\H,0,5.6935663126,1.0573089067,-0.6544281053\H
 ,0,4.9359239538,2.4599214,-2.8649415839\H,0,3.6806968038,3.5747227753,
 -4.6959747553\H,0,1.2109440101,3.4140443143,-4.8021618209\H,0,-0.05951
 39219,2.1607568427,-3.088128022\H,0,0.2768285385,-1.5849954316,-0.4632
 150115\H,0,-3.1860434118,-1.2101419066,2.4740114259\H,0,-4.3707051912,
 -2.5206363724,4.2080054182\H,0,-4.7238289637,-4.9583480282,3.945326507
 4\H,0,-3.876673104,-6.1422299216,1.932292031\H,0,-2.7252267014,-6.8362
 751741,-0.4842444241\H,0,-1.5652688069,-6.8612235304,-2.6808681313\H,0
 ,-0.666068202,-4.7653846966,-3.6482494443\H,0,-0.8816612218,-2.6114410
 716,-2.4478059718\H,0,-3.7943796853,-0.3248604284,0.143123657\H,0,-2.5
 740602951,2.3829543419,-2.9422403208\H,0,-3.5631524012,4.0517772107,-4
 .4905269763\H,0,-5.2636957491,5.669065484,-3.6999266799\H,0,-6.0241636
 612,5.6440475661,-1.3362298683\H,0,-6.42299166,5.0866157287,1.36566617
 48\H,0,-6.3409108244,4.1587318897,3.6674908223\H,0,-4.7992799985,2.301
 0900061,4.2197643166\H,0,-3.3151686975,1.318997547,2.4896277421\H,0,-0
 .7455399009,2.5907882829,-0.6914666206\\Version=ES64L-G16RevB.01\HF=-1
 977.6282424\RMSD=2.656e-09\PG=C01 [X(C47H37N3)]\\@


 BLESSED ARE THOSE WHO NOUGHT EXPECT,
 FOR THEY SHALL NOT BE DISAPPOINTED..  WALCOT - ODE TO PITT
 Job cpu time:       0 days  4 hours 52 minutes  1.0 seconds.
 Elapsed time:       0 days  0 hours 22 minutes  2.0 seconds.
 File lengths (MBytes):  RWF=   3669 Int=      0 D2E=      0 Chk=    139 Scr=      1
 Normal termination of Gaussian 16 at Sat Nov  5 10:34:59 2022.
