 Entering Gaussian System, Link 0=/home/wykgroup/appl/g16/g16
 Input=./calculation/no_transfer_pubchem_sampling_9_b3lyp/89987191.com
 Output=./calculation/no_transfer_pubchem_sampling_9_b3lyp/89987191.log
 Initial command:
 /home/wykgroup/appl/g16/l1.exe "/userdata/scratch/wykgroup/khs/./calculation/no_transfer_pubchem_sampling_9_b3lyp/89987191/Gau-21354.inp" -scrdir="/userdata/scratch/wykgroup/khs/./calculation/no_transfer_pubchem_sampling_9_b3lyp/89987191/"
 Entering Link 1 = /home/wykgroup/appl/g16/l1.exe PID=     21355.
  
 Copyright (c) 1988-2017, Gaussian, Inc.  All Rights Reserved.
  
 This is part of the Gaussian(R) 16 program.  It is based on
 the Gaussian(R) 09 system (copyright 2009, Gaussian, Inc.),
 the Gaussian(R) 03 system (copyright 2003, Gaussian, Inc.),
 the Gaussian(R) 98 system (copyright 1998, Gaussian, Inc.),
 the Gaussian(R) 94 system (copyright 1995, Gaussian, Inc.),
 the Gaussian 92(TM) system (copyright 1992, Gaussian, Inc.),
 the Gaussian 90(TM) system (copyright 1990, Gaussian, Inc.),
 the Gaussian 88(TM) system (copyright 1988, Gaussian, Inc.),
 the Gaussian 86(TM) system (copyright 1986, Carnegie Mellon
 University), and the Gaussian 82(TM) system (copyright 1983,
 Carnegie Mellon University). Gaussian is a federally registered
 trademark of Gaussian, Inc.
  
 This software contains proprietary and confidential information,
 including trade secrets, belonging to Gaussian, Inc.
  
 This software is provided under written license and may be
 used, copied, transmitted, or stored only in accord with that
 written license.
  
 The following legend is applicable only to US Government
 contracts under FAR:
  
                    RESTRICTED RIGHTS LEGEND
  
 Use, reproduction and disclosure by the US Government is
 subject to restrictions as set forth in subparagraphs (a)
 and (c) of the Commercial Computer Software - Restricted
 Rights clause in FAR 52.227-19.
  
 Gaussian, Inc.
 340 Quinnipiac St., Bldg. 40, Wallingford CT 06492
  
  
 ---------------------------------------------------------------
 Warning -- This program may not be used in any manner that
 competes with the business of Gaussian, Inc. or will provide
 assistance to any competitor of Gaussian, Inc.  The licensee
 of this program is prohibited from giving any competitor of
 Gaussian, Inc. access to this program.  By using this program,
 the user acknowledges that Gaussian, Inc. is engaged in the
 business of creating and licensing software in the field of
 computational chemistry and represents and warrants to the
 licensee that it is not a competitor of Gaussian, Inc. and that
 it will not use this program in any manner prohibited above.
 ---------------------------------------------------------------
  

 Cite this work as:
 Gaussian 16, Revision B.01,
 M. J. Frisch, G. W. Trucks, H. B. Schlegel, G. E. Scuseria, 
 M. A. Robb, J. R. Cheeseman, G. Scalmani, V. Barone, 
 G. A. Petersson, H. Nakatsuji, X. Li, M. Caricato, A. V. Marenich, 
 J. Bloino, B. G. Janesko, R. Gomperts, B. Mennucci, H. P. Hratchian, 
 J. V. Ortiz, A. F. Izmaylov, J. L. Sonnenberg, D. Williams-Young, 
 F. Ding, F. Lipparini, F. Egidi, J. Goings, B. Peng, A. Petrone, 
 T. Henderson, D. Ranasinghe, V. G. Zakrzewski, J. Gao, N. Rega, 
 G. Zheng, W. Liang, M. Hada, M. Ehara, K. Toyota, R. Fukuda, 
 J. Hasegawa, M. Ishida, T. Nakajima, Y. Honda, O. Kitao, H. Nakai, 
 T. Vreven, K. Throssell, J. A. Montgomery, Jr., J. E. Peralta, 
 F. Ogliaro, M. J. Bearpark, J. J. Heyd, E. N. Brothers, K. N. Kudin, 
 V. N. Staroverov, T. A. Keith, R. Kobayashi, J. Normand, 
 K. Raghavachari, A. P. Rendell, J. C. Burant, S. S. Iyengar, 
 J. Tomasi, M. Cossi, J. M. Millam, M. Klene, C. Adamo, R. Cammi, 
 J. W. Ochterski, R. L. Martin, K. Morokuma, O. Farkas, 
 J. B. Foresman, and D. J. Fox, Gaussian, Inc., Wallingford CT, 2016.
 
 ******************************************
 Gaussian 16:  ES64L-G16RevB.01 20-Dec-2017
                 5-Nov-2022 
 ******************************************
 %chk=./calculation/no_transfer_pubchem_sampling_9_b3lyp/89987191.chk
 %nprocshared=7
 Will use up to    7 processors via shared memory.
 %mem=6GB
 -----------------------------
 #p b3lyp/6-31g(d) opt SCF=XQC
 -----------------------------
 1/18=20,19=15,26=3,38=1/1,3;
 2/9=110,12=2,17=6,18=5,40=1/2;
 3/5=1,6=6,7=1,11=2,25=1,30=1,71=1,74=-5/1,2,3;
 4//1;
 5/5=2,8=3,13=1,38=5/2,8;
 6/7=2,8=2,9=2,10=2,28=1/1;
 7//1,2,3,16;
 1/18=20,19=15,26=3/3(2);
 2/9=110/2;
 99//99;
 2/9=110/2;
 3/5=1,6=6,7=1,11=2,25=1,30=1,71=1,74=-5/1,2,3;
 4/5=5,16=3,69=1/1;
 5/5=2,8=3,13=1,38=5/2,8;
 7//1,2,3,16;
 1/18=20,19=15,26=3/3(-5);
 2/9=110/2;
 6/7=2,8=2,9=2,10=2,19=2,28=1/1;
 99/9=1/99;
 Leave Link    1 at Sat Nov  5 00:26:33 2022, MaxMem=   805306368 cpu:               1.0 elap:               0.2
 (Enter /home/wykgroup/appl/g16/l101.exe)
 ------------------------------
 Gaussian input prepared by ASE
 ------------------------------
 Symbolic Z-matrix:
 Charge =  0 Multiplicity = 1
 C                     0.40095  -1.17941  -2.50228 
 C                     0.44267  -1.55039  -1.01766 
 C                     0.30747  -0.29694  -0.14725 
 C                    -0.62418  -2.56468  -0.6717 
 C                    -1.98724  -2.43925  -0.78364 
 C                    -2.80297  -3.5058   -0.3909 
 N                    -4.19512  -3.39061  -0.48298 
 C                    -4.96411  -4.49623  -0.86178 
 C                    -4.49312  -5.38709  -1.82624 
 C                    -5.25231  -6.48076  -2.19336 
 C                    -6.49183  -6.70129  -1.61537 
 C                    -6.96591  -5.81775  -0.65949 
 C                    -6.21062  -4.72576  -0.27938 
 C                    -4.81302  -2.17155  -0.19358 
 C                    -5.93696  -1.75487  -0.90802 
 C                    -6.54163  -0.54982  -0.62043 
 C                    -6.05018   0.28196   0.38477 
 C                    -6.6985    1.5629    0.68855 
 C                    -7.18432   2.3791   -0.33163 
 C                    -7.79062   3.58508  -0.04589 
 C                    -7.94446   4.01301   1.2711 
 C                    -8.59712   5.29383   1.57579 
 C                    -8.32967   6.42734   0.81127 
 C                    -8.94224   7.63235   1.10005 
 C                    -9.83638   7.7246    2.15352 
 C                    -10.11195   6.60372   2.9187 
 C                    -9.49607   5.39923   2.63481 
 C                    -7.46414   3.19525   2.29181 
 C                    -6.84674   1.99506   2.00544 
 C                    -4.92601  -0.13923   1.09402 
 C                    -4.31582  -1.34297   0.81355 
 C                    -2.22489  -4.67989   0.09596 
 C                    -0.85275  -4.80998   0.19459 
 C                    -0.0466   -3.74854  -0.186 
 C                     1.39452  -3.59181  -0.18707 
 C                     2.41069  -4.45493   0.19222 
 C                     3.72259  -4.03236   0.09262 
 C                     4.03368  -2.7611   -0.39381 
 N                     5.36811  -2.34714  -0.4848 
 C                     6.3585   -3.25852  -0.86601 
 C                     7.62604  -3.21189  -0.2857 
 C                     8.60026  -4.11292  -0.66841 
 C                     8.32835  -5.07737  -1.62495 
 C                     7.06955  -5.13132  -2.20083 
 C                     6.09113  -4.22953  -1.83106 
 C                     5.70589  -1.02424  -0.19135 
 C                     5.03744  -0.32627   0.81574 
 C                     5.36275   0.98394   1.09345 
 C                     6.37391   1.63952   0.39197 
 C                     6.72516   3.03139   0.69746 
 C                     5.70976   3.9703    0.98748 
 C                     6.01432   5.26921   1.27123 
 C                     7.35331   5.71358   1.2899 
 C                     7.70177   7.04744   1.58235 
 C                     9.01086   7.44093   1.59187 
 C                     10.03     6.51776   1.30918 
 C                     9.72406   5.21759   1.02124 
 C                     8.3827    4.77944   1.00192 
 C                     8.03624   3.44729   0.70767 
 C                     7.04371   0.93445  -0.60728 
 C                     6.71359  -0.37084  -0.9023 
 C                     3.00717  -1.89551  -0.78626 
 C                     1.70321  -2.31152  -0.67351 
 H                     0.49433  -2.07329  -3.11543 
 H                     1.21773  -0.50394  -2.74581 
 H                    -0.53978  -0.68958  -2.74259 
 H                    -0.63762   0.20246  -0.34828 
 H                     0.34049  -0.56689   0.90634 
 H                     1.12047   0.39534  -0.35405 
 H                    -2.43828  -1.53598  -1.16798 
 H                    -3.53081  -5.21219  -2.28477 
 H                    -4.87638  -7.16152  -2.94306 
 H                    -7.08371  -7.55547  -1.90725 
 H                    -7.92856  -5.98477  -0.19882 
 H                    -6.57806  -4.04445   0.47413 
 H                    -6.3307   -2.38441  -1.69269 
 H                    -7.41972  -0.25362  -1.17539 
 H                    -7.06674   2.07143  -1.36075 
 H                    -8.16892   4.19786  -0.85156 
 H                    -7.62031   6.36543  -0.00146 
 H                    -8.72028   8.50457   0.50211 
 H                    -10.31638   8.66593   2.37722 
 H                    -10.81179   6.66879   3.73938 
 H                    -9.72771   4.52415   3.22483 
 H                    -7.56054   3.51545   3.31937 
 H                    -6.49111   1.37157   2.81309 
 H                    -4.51629   0.49328   1.86796 
 H                    -3.44729  -1.65392   1.37568 
 H                    -2.86797  -5.49193   0.40255 
 H                    -0.42082  -5.72344   0.57501 
 H                     2.186    -5.44007   0.57259 
 H                     4.52574  -4.68691   0.39838 
 H                     7.83745  -2.46821   0.46877 
 H                     9.57687  -4.06704  -0.20914 
 H                     9.09146  -5.78192  -1.91888 
 H                     6.84948  -5.87673  -2.95097 
 H                     5.11307  -4.26781  -2.28801 
 H                     4.26409  -0.82423   1.38226 
 H                     4.84673   1.49841   1.89094 
 H                     4.67869   3.64884   0.95969 
 H                     5.2292    5.98138   1.48407 
 H                     6.91302   7.75408   1.79964 
 H                     9.27161   8.46481   1.81734 
 H                     11.05927   6.84608   1.32177 
 H                     10.50581   4.50362   0.80276 
 H                     8.82982   2.74078   0.50836 
 H                     7.81273   1.42902  -1.18236 
 H                     7.22986  -0.89478  -1.69349 
 H                     3.25297  -0.91642  -1.17102 
 
 ITRead=  0  0  0  0  0  0  0  0  0  0  0  0  0  0  0  0  0  0  0  0
 ITRead=  0  0  0  0  0  0  0  0  0  0  0  0  0  0  0  0  0  0  0  0
 ITRead=  0  0  0  0  0  0  0  0  0  0  0  0  0  0  0  0  0  0  0  0
 ITRead=  0  0  0  0  0  0  0  0  0  0  0  0  0  0  0  0  0  0  0  0
 ITRead=  0  0  0  0  0  0  0  0  0  0  0  0  0  0  0  0  0  0  0  0
 ITRead=  0  0  0  0  0  0  0  0  0
 MicOpt= -1 -1 -1 -1 -1 -1 -1 -1 -1 -1 -1 -1 -1 -1 -1 -1 -1 -1 -1 -1
 MicOpt= -1 -1 -1 -1 -1 -1 -1 -1 -1 -1 -1 -1 -1 -1 -1 -1 -1 -1 -1 -1
 MicOpt= -1 -1 -1 -1 -1 -1 -1 -1 -1 -1 -1 -1 -1 -1 -1 -1 -1 -1 -1 -1
 MicOpt= -1 -1 -1 -1 -1 -1 -1 -1 -1 -1 -1 -1 -1 -1 -1 -1 -1 -1 -1 -1
 MicOpt= -1 -1 -1 -1 -1 -1 -1 -1 -1 -1 -1 -1 -1 -1 -1 -1 -1 -1 -1 -1
 MicOpt= -1 -1 -1 -1 -1 -1 -1 -1 -1
 NAtoms=    109 NQM=      109 NQMF=       0 NMMI=      0 NMMIF=      0
                NMic=       0 NMicF=      0.
                    Isotopes and Nuclear Properties:
 (Nuclear quadrupole moments (NQMom) in fm**2, nuclear magnetic moments (NMagM)
  in nuclear magnetons)

  Atom         1           2           3           4           5           6           7           8           9          10
 IAtWgt=          12          12          12          12          12          12          14          12          12          12
 AtmWgt=  12.0000000  12.0000000  12.0000000  12.0000000  12.0000000  12.0000000  14.0030740  12.0000000  12.0000000  12.0000000
 NucSpn=           0           0           0           0           0           0           2           0           0           0
 AtZEff=  -0.0000000  -0.0000000  -0.0000000  -0.0000000  -0.0000000  -0.0000000  -0.0000000  -0.0000000  -0.0000000  -0.0000000
 NQMom=    0.0000000   0.0000000   0.0000000   0.0000000   0.0000000   0.0000000   2.0440000   0.0000000   0.0000000   0.0000000
 NMagM=    0.0000000   0.0000000   0.0000000   0.0000000   0.0000000   0.0000000   0.4037610   0.0000000   0.0000000   0.0000000
 AtZNuc=   6.0000000   6.0000000   6.0000000   6.0000000   6.0000000   6.0000000   7.0000000   6.0000000   6.0000000   6.0000000

  Atom        11          12          13          14          15          16          17          18          19          20
 IAtWgt=          12          12          12          12          12          12          12          12          12          12
 AtmWgt=  12.0000000  12.0000000  12.0000000  12.0000000  12.0000000  12.0000000  12.0000000  12.0000000  12.0000000  12.0000000
 NucSpn=           0           0           0           0           0           0           0           0           0           0
 AtZEff=  -0.0000000  -0.0000000  -0.0000000  -0.0000000  -0.0000000  -0.0000000  -0.0000000  -0.0000000  -0.0000000  -0.0000000
 NQMom=    0.0000000   0.0000000   0.0000000   0.0000000   0.0000000   0.0000000   0.0000000   0.0000000   0.0000000   0.0000000
 NMagM=    0.0000000   0.0000000   0.0000000   0.0000000   0.0000000   0.0000000   0.0000000   0.0000000   0.0000000   0.0000000
 AtZNuc=   6.0000000   6.0000000   6.0000000   6.0000000   6.0000000   6.0000000   6.0000000   6.0000000   6.0000000   6.0000000

  Atom        21          22          23          24          25          26          27          28          29          30
 IAtWgt=          12          12          12          12          12          12          12          12          12          12
 AtmWgt=  12.0000000  12.0000000  12.0000000  12.0000000  12.0000000  12.0000000  12.0000000  12.0000000  12.0000000  12.0000000
 NucSpn=           0           0           0           0           0           0           0           0           0           0
 AtZEff=  -0.0000000  -0.0000000  -0.0000000  -0.0000000  -0.0000000  -0.0000000  -0.0000000  -0.0000000  -0.0000000  -0.0000000
 NQMom=    0.0000000   0.0000000   0.0000000   0.0000000   0.0000000   0.0000000   0.0000000   0.0000000   0.0000000   0.0000000
 NMagM=    0.0000000   0.0000000   0.0000000   0.0000000   0.0000000   0.0000000   0.0000000   0.0000000   0.0000000   0.0000000
 AtZNuc=   6.0000000   6.0000000   6.0000000   6.0000000   6.0000000   6.0000000   6.0000000   6.0000000   6.0000000   6.0000000

  Atom        31          32          33          34          35          36          37          38          39          40
 IAtWgt=          12          12          12          12          12          12          12          12          14          12
 AtmWgt=  12.0000000  12.0000000  12.0000000  12.0000000  12.0000000  12.0000000  12.0000000  12.0000000  14.0030740  12.0000000
 NucSpn=           0           0           0           0           0           0           0           0           2           0
 AtZEff=  -0.0000000  -0.0000000  -0.0000000  -0.0000000  -0.0000000  -0.0000000  -0.0000000  -0.0000000  -0.0000000  -0.0000000
 NQMom=    0.0000000   0.0000000   0.0000000   0.0000000   0.0000000   0.0000000   0.0000000   0.0000000   2.0440000   0.0000000
 NMagM=    0.0000000   0.0000000   0.0000000   0.0000000   0.0000000   0.0000000   0.0000000   0.0000000   0.4037610   0.0000000
 AtZNuc=   6.0000000   6.0000000   6.0000000   6.0000000   6.0000000   6.0000000   6.0000000   6.0000000   7.0000000   6.0000000

  Atom        41          42          43          44          45          46          47          48          49          50
 IAtWgt=          12          12          12          12          12          12          12          12          12          12
 AtmWgt=  12.0000000  12.0000000  12.0000000  12.0000000  12.0000000  12.0000000  12.0000000  12.0000000  12.0000000  12.0000000
 NucSpn=           0           0           0           0           0           0           0           0           0           0
 AtZEff=  -0.0000000  -0.0000000  -0.0000000  -0.0000000  -0.0000000  -0.0000000  -0.0000000  -0.0000000  -0.0000000  -0.0000000
 NQMom=    0.0000000   0.0000000   0.0000000   0.0000000   0.0000000   0.0000000   0.0000000   0.0000000   0.0000000   0.0000000
 NMagM=    0.0000000   0.0000000   0.0000000   0.0000000   0.0000000   0.0000000   0.0000000   0.0000000   0.0000000   0.0000000
 AtZNuc=   6.0000000   6.0000000   6.0000000   6.0000000   6.0000000   6.0000000   6.0000000   6.0000000   6.0000000   6.0000000

  Atom        51          52          53          54          55          56          57          58          59          60
 IAtWgt=          12          12          12          12          12          12          12          12          12          12
 AtmWgt=  12.0000000  12.0000000  12.0000000  12.0000000  12.0000000  12.0000000  12.0000000  12.0000000  12.0000000  12.0000000
 NucSpn=           0           0           0           0           0           0           0           0           0           0
 AtZEff=  -0.0000000  -0.0000000  -0.0000000  -0.0000000  -0.0000000  -0.0000000  -0.0000000  -0.0000000  -0.0000000  -0.0000000
 NQMom=    0.0000000   0.0000000   0.0000000   0.0000000   0.0000000   0.0000000   0.0000000   0.0000000   0.0000000   0.0000000
 NMagM=    0.0000000   0.0000000   0.0000000   0.0000000   0.0000000   0.0000000   0.0000000   0.0000000   0.0000000   0.0000000
 AtZNuc=   6.0000000   6.0000000   6.0000000   6.0000000   6.0000000   6.0000000   6.0000000   6.0000000   6.0000000   6.0000000

  Atom        61          62          63          64          65          66          67          68          69          70
 IAtWgt=          12          12          12           1           1           1           1           1           1           1
 AtmWgt=  12.0000000  12.0000000  12.0000000   1.0078250   1.0078250   1.0078250   1.0078250   1.0078250   1.0078250   1.0078250
 NucSpn=           0           0           0           1           1           1           1           1           1           1
 AtZEff=  -0.0000000  -0.0000000  -0.0000000  -0.0000000  -0.0000000  -0.0000000  -0.0000000  -0.0000000  -0.0000000  -0.0000000
 NQMom=    0.0000000   0.0000000   0.0000000   0.0000000   0.0000000   0.0000000   0.0000000   0.0000000   0.0000000   0.0000000
 NMagM=    0.0000000   0.0000000   0.0000000   2.7928460   2.7928460   2.7928460   2.7928460   2.7928460   2.7928460   2.7928460
 AtZNuc=   6.0000000   6.0000000   6.0000000   1.0000000   1.0000000   1.0000000   1.0000000   1.0000000   1.0000000   1.0000000

  Atom        71          72          73          74          75          76          77          78          79          80
 IAtWgt=           1           1           1           1           1           1           1           1           1           1
 AtmWgt=   1.0078250   1.0078250   1.0078250   1.0078250   1.0078250   1.0078250   1.0078250   1.0078250   1.0078250   1.0078250
 NucSpn=           1           1           1           1           1           1           1           1           1           1
 AtZEff=  -0.0000000  -0.0000000  -0.0000000  -0.0000000  -0.0000000  -0.0000000  -0.0000000  -0.0000000  -0.0000000  -0.0000000
 NQMom=    0.0000000   0.0000000   0.0000000   0.0000000   0.0000000   0.0000000   0.0000000   0.0000000   0.0000000   0.0000000
 NMagM=    2.7928460   2.7928460   2.7928460   2.7928460   2.7928460   2.7928460   2.7928460   2.7928460   2.7928460   2.7928460
 AtZNuc=   1.0000000   1.0000000   1.0000000   1.0000000   1.0000000   1.0000000   1.0000000   1.0000000   1.0000000   1.0000000

  Atom        81          82          83          84          85          86          87          88          89          90
 IAtWgt=           1           1           1           1           1           1           1           1           1           1
 AtmWgt=   1.0078250   1.0078250   1.0078250   1.0078250   1.0078250   1.0078250   1.0078250   1.0078250   1.0078250   1.0078250
 NucSpn=           1           1           1           1           1           1           1           1           1           1
 AtZEff=  -0.0000000  -0.0000000  -0.0000000  -0.0000000  -0.0000000  -0.0000000  -0.0000000  -0.0000000  -0.0000000  -0.0000000
 NQMom=    0.0000000   0.0000000   0.0000000   0.0000000   0.0000000   0.0000000   0.0000000   0.0000000   0.0000000   0.0000000
 NMagM=    2.7928460   2.7928460   2.7928460   2.7928460   2.7928460   2.7928460   2.7928460   2.7928460   2.7928460   2.7928460
 AtZNuc=   1.0000000   1.0000000   1.0000000   1.0000000   1.0000000   1.0000000   1.0000000   1.0000000   1.0000000   1.0000000

  Atom        91          92          93          94          95          96          97          98          99         100
 IAtWgt=           1           1           1           1           1           1           1           1           1           1
 AtmWgt=   1.0078250   1.0078250   1.0078250   1.0078250   1.0078250   1.0078250   1.0078250   1.0078250   1.0078250   1.0078250
 NucSpn=           1           1           1           1           1           1           1           1           1           1
 AtZEff=  -0.0000000  -0.0000000  -0.0000000  -0.0000000  -0.0000000  -0.0000000  -0.0000000  -0.0000000  -0.0000000  -0.0000000
 NQMom=    0.0000000   0.0000000   0.0000000   0.0000000   0.0000000   0.0000000   0.0000000   0.0000000   0.0000000   0.0000000
 NMagM=    2.7928460   2.7928460   2.7928460   2.7928460   2.7928460   2.7928460   2.7928460   2.7928460   2.7928460   2.7928460
 AtZNuc=   1.0000000   1.0000000   1.0000000   1.0000000   1.0000000   1.0000000   1.0000000   1.0000000   1.0000000   1.0000000

  Atom       101         102         103         104         105         106         107         108         109
 IAtWgt=           1           1           1           1           1           1           1           1           1
 AtmWgt=   1.0078250   1.0078250   1.0078250   1.0078250   1.0078250   1.0078250   1.0078250   1.0078250   1.0078250
 NucSpn=           1           1           1           1           1           1           1           1           1
 AtZEff=  -0.0000000  -0.0000000  -0.0000000  -0.0000000  -0.0000000  -0.0000000  -0.0000000  -0.0000000  -0.0000000
 NQMom=    0.0000000   0.0000000   0.0000000   0.0000000   0.0000000   0.0000000   0.0000000   0.0000000   0.0000000
 NMagM=    2.7928460   2.7928460   2.7928460   2.7928460   2.7928460   2.7928460   2.7928460   2.7928460   2.7928460
 AtZNuc=   1.0000000   1.0000000   1.0000000   1.0000000   1.0000000   1.0000000   1.0000000   1.0000000   1.0000000
 Leave Link  101 at Sat Nov  5 00:26:34 2022, MaxMem=   805306368 cpu:               1.7 elap:               0.3
 (Enter /home/wykgroup/appl/g16/l103.exe)

 GradGradGradGradGradGradGradGradGradGradGradGradGradGradGradGradGradGrad
 Berny optimization.
 Initialization pass.
                           ----------------------------
                           !    Initial Parameters    !
                           ! (Angstroms and Degrees)  !
 --------------------------                            --------------------------
 ! Name  Definition              Value          Derivative Info.                !
 --------------------------------------------------------------------------------
 ! R1    R(1,2)                  1.5308         estimate D2E/DX2                !
 ! R2    R(1,64)                 1.088          estimate D2E/DX2                !
 ! R3    R(1,65)                 1.0875         estimate D2E/DX2                !
 ! R4    R(1,66)                 1.0875         estimate D2E/DX2                !
 ! R5    R(2,3)                  1.532          estimate D2E/DX2                !
 ! R6    R(2,4)                  1.5122         estimate D2E/DX2                !
 ! R7    R(2,63)                 1.5122         estimate D2E/DX2                !
 ! R8    R(3,67)                 1.0877         estimate D2E/DX2                !
 ! R9    R(3,68)                 1.0881         estimate D2E/DX2                !
 ! R10   R(3,69)                 1.0877         estimate D2E/DX2                !
 ! R11   R(4,5)                  1.3734         estimate D2E/DX2                !
 ! R12   R(4,34)                 1.4039         estimate D2E/DX2                !
 ! R13   R(5,6)                  1.399          estimate D2E/DX2                !
 ! R14   R(5,70)                 1.0803         estimate D2E/DX2                !
 ! R15   R(6,7)                  1.3999         estimate D2E/DX2                !
 ! R16   R(6,32)                 1.3963         estimate D2E/DX2                !
 ! R17   R(7,8)                  1.399          estimate D2E/DX2                !
 ! R18   R(7,14)                 1.397          estimate D2E/DX2                !
 ! R19   R(8,9)                  1.3949         estimate D2E/DX2                !
 ! R20   R(8,13)                 1.3949         estimate D2E/DX2                !
 ! R21   R(9,10)                 1.381          estimate D2E/DX2                !
 ! R22   R(9,71)                 1.0802         estimate D2E/DX2                !
 ! R23   R(10,11)                1.3853         estimate D2E/DX2                !
 ! R24   R(10,72)                1.0802         estimate D2E/DX2                !
 ! R25   R(11,12)                1.3853         estimate D2E/DX2                !
 ! R26   R(11,73)                1.0794         estimate D2E/DX2                !
 ! R27   R(12,13)                1.3811         estimate D2E/DX2                !
 ! R28   R(12,74)                1.0802         estimate D2E/DX2                !
 ! R29   R(13,75)                1.0803         estimate D2E/DX2                !
 ! R30   R(14,15)                1.3955         estimate D2E/DX2                !
 ! R31   R(14,31)                1.3957         estimate D2E/DX2                !
 ! R32   R(15,16)                1.3786         estimate D2E/DX2                !
 ! R33   R(15,76)                1.0803         estimate D2E/DX2                !
 ! R34   R(16,17)                1.3942         estimate D2E/DX2                !
 ! R35   R(16,77)                1.0802         estimate D2E/DX2                !
 ! R36   R(17,18)                1.4674         estimate D2E/DX2                !
 ! R37   R(17,30)                1.3943         estimate D2E/DX2                !
 ! R38   R(18,19)                1.3939         estimate D2E/DX2                !
 ! R39   R(18,29)                1.3939         estimate D2E/DX2                !
 ! R40   R(19,20)                1.3797         estimate D2E/DX2                !
 ! R41   R(19,78)                1.0805         estimate D2E/DX2                !
 ! R42   R(20,21)                1.3933         estimate D2E/DX2                !
 ! R43   R(20,79)                1.0806         estimate D2E/DX2                !
 ! R44   R(21,22)                1.4695         estimate D2E/DX2                !
 ! R45   R(21,28)                1.3933         estimate D2E/DX2                !
 ! R46   R(22,23)                1.3932         estimate D2E/DX2                !
 ! R47   R(22,27)                1.3931         estimate D2E/DX2                !
 ! R48   R(23,24)                1.3823         estimate D2E/DX2                !
 ! R49   R(23,80)                1.0805         estimate D2E/DX2                !
 ! R50   R(24,25)                1.3848         estimate D2E/DX2                !
 ! R51   R(24,81)                1.0805         estimate D2E/DX2                !
 ! R52   R(25,26)                1.3848         estimate D2E/DX2                !
 ! R53   R(25,82)                1.0801         estimate D2E/DX2                !
 ! R54   R(26,27)                1.3823         estimate D2E/DX2                !
 ! R55   R(26,83)                1.0805         estimate D2E/DX2                !
 ! R56   R(27,84)                1.0805         estimate D2E/DX2                !
 ! R57   R(28,29)                1.3797         estimate D2E/DX2                !
 ! R58   R(28,85)                1.0806         estimate D2E/DX2                !
 ! R59   R(29,86)                1.0805         estimate D2E/DX2                !
 ! R60   R(30,31)                1.3784         estimate D2E/DX2                !
 ! R61   R(30,87)                1.0802         estimate D2E/DX2                !
 ! R62   R(31,88)                1.0803         estimate D2E/DX2                !
 ! R63   R(32,33)                1.3818         estimate D2E/DX2                !
 ! R64   R(32,89)                1.0803         estimate D2E/DX2                !
 ! R65   R(33,34)                1.3861         estimate D2E/DX2                !
 ! R66   R(33,90)                1.0797         estimate D2E/DX2                !
 ! R67   R(34,35)                1.4496         estimate D2E/DX2                !
 ! R68   R(35,36)                1.3862         estimate D2E/DX2                !
 ! R69   R(35,63)                1.4039         estimate D2E/DX2                !
 ! R70   R(36,37)                1.3819         estimate D2E/DX2                !
 ! R71   R(36,91)                1.0797         estimate D2E/DX2                !
 ! R72   R(37,38)                1.3962         estimate D2E/DX2                !
 ! R73   R(37,92)                1.0803         estimate D2E/DX2                !
 ! R74   R(38,39)                1.4001         estimate D2E/DX2                !
 ! R75   R(38,62)                1.3989         estimate D2E/DX2                !
 ! R76   R(39,40)                1.3989         estimate D2E/DX2                !
 ! R77   R(39,46)                1.3965         estimate D2E/DX2                !
 ! R78   R(40,41)                1.3948         estimate D2E/DX2                !
 ! R79   R(40,45)                1.3949         estimate D2E/DX2                !
 ! R80   R(41,42)                1.3811         estimate D2E/DX2                !
 ! R81   R(41,93)                1.0803         estimate D2E/DX2                !
 ! R82   R(42,43)                1.3853         estimate D2E/DX2                !
 ! R83   R(42,94)                1.0802         estimate D2E/DX2                !
 ! R84   R(43,44)                1.3853         estimate D2E/DX2                !
 ! R85   R(43,95)                1.0794         estimate D2E/DX2                !
 ! R86   R(44,45)                1.381          estimate D2E/DX2                !
 ! R87   R(44,96)                1.0802         estimate D2E/DX2                !
 ! R88   R(45,97)                1.0802         estimate D2E/DX2                !
 ! R89   R(46,47)                1.3958         estimate D2E/DX2                !
 ! R90   R(46,61)                1.3956         estimate D2E/DX2                !
 ! R91   R(47,48)                1.3783         estimate D2E/DX2                !
 ! R92   R(47,98)                1.0803         estimate D2E/DX2                !
 ! R93   R(48,49)                1.3944         estimate D2E/DX2                !
 ! R94   R(48,99)                1.0803         estimate D2E/DX2                !
 ! R95   R(49,50)                1.4677         estimate D2E/DX2                !
 ! R96   R(49,60)                1.3944         estimate D2E/DX2                !
 ! R97   R(50,51)                1.413          estimate D2E/DX2                !
 ! R98   R(50,59)                1.3755         estimate D2E/DX2                !
 ! R99   R(51,52)                1.364          estimate D2E/DX2                !
 ! R100  R(51,100)               1.0804         estimate D2E/DX2                !
 ! R101  R(52,53)                1.4109         estimate D2E/DX2                !
 ! R102  R(52,101)               1.0812         estimate D2E/DX2                !
 ! R103  R(53,54)                1.4093         estimate D2E/DX2                !
 ! R104  R(53,58)                1.4196         estimate D2E/DX2                !
 ! R105  R(54,55)                1.367          estimate D2E/DX2                !
 ! R106  R(54,102)               1.0811         estimate D2E/DX2                !
 ! R107  R(55,56)                1.4039         estimate D2E/DX2                !
 ! R108  R(55,103)               1.0803         estimate D2E/DX2                !
 ! R109  R(56,57)                1.3664         estimate D2E/DX2                !
 ! R110  R(56,104)               1.0804         estimate D2E/DX2                !
 ! R111  R(57,58)                1.4112         estimate D2E/DX2                !
 ! R112  R(57,105)               1.081          estimate D2E/DX2                !
 ! R113  R(58,59)                1.4076         estimate D2E/DX2                !
 ! R114  R(59,106)               1.0811         estimate D2E/DX2                !
 ! R115  R(60,61)                1.3783         estimate D2E/DX2                !
 ! R116  R(60,107)               1.0801         estimate D2E/DX2                !
 ! R117  R(61,108)               1.0803         estimate D2E/DX2                !
 ! R118  R(62,63)                1.3734         estimate D2E/DX2                !
 ! R119  R(62,109)               1.0803         estimate D2E/DX2                !
 ! A1    A(2,1,64)             110.1886         estimate D2E/DX2                !
 ! A2    A(2,1,65)             110.3178         estimate D2E/DX2                !
 ! A3    A(2,1,66)             110.306          estimate D2E/DX2                !
 ! A4    A(64,1,65)            108.6413         estimate D2E/DX2                !
 ! A5    A(64,1,66)            108.6488         estimate D2E/DX2                !
 ! A6    A(65,1,66)            108.6897         estimate D2E/DX2                !
 ! A7    A(1,2,3)              110.5067         estimate D2E/DX2                !
 ! A8    A(1,2,4)              111.4199         estimate D2E/DX2                !
 ! A9    A(1,2,63)             111.4327         estimate D2E/DX2                !
 ! A10   A(3,2,4)              110.8884         estimate D2E/DX2                !
 ! A11   A(3,2,63)             110.8591         estimate D2E/DX2                !
 ! A12   A(4,2,63)             101.4453         estimate D2E/DX2                !
 ! A13   A(2,3,67)             110.3244         estimate D2E/DX2                !
 ! A14   A(2,3,68)             110.1492         estimate D2E/DX2                !
 ! A15   A(2,3,69)             110.2895         estimate D2E/DX2                !
 ! A16   A(67,3,68)            108.6168         estimate D2E/DX2                !
 ! A17   A(67,3,69)            108.7909         estimate D2E/DX2                !
 ! A18   A(68,3,69)            108.6225         estimate D2E/DX2                !
 ! A19   A(2,4,5)              128.3384         estimate D2E/DX2                !
 ! A20   A(2,4,34)             110.763          estimate D2E/DX2                !
 ! A21   A(5,4,34)             120.8986         estimate D2E/DX2                !
 ! A22   A(4,5,6)              119.0907         estimate D2E/DX2                !
 ! A23   A(4,5,70)             121.3144         estimate D2E/DX2                !
 ! A24   A(6,5,70)             119.5949         estimate D2E/DX2                !
 ! A25   A(5,6,7)              119.9106         estimate D2E/DX2                !
 ! A26   A(5,6,32)             119.836          estimate D2E/DX2                !
 ! A27   A(7,6,32)             120.253          estimate D2E/DX2                !
 ! A28   A(6,7,8)              119.9597         estimate D2E/DX2                !
 ! A29   A(6,7,14)             119.8683         estimate D2E/DX2                !
 ! A30   A(8,7,14)             120.1719         estimate D2E/DX2                !
 ! A31   A(7,8,9)              120.4207         estimate D2E/DX2                !
 ! A32   A(7,8,13)             120.5437         estimate D2E/DX2                !
 ! A33   A(9,8,13)             119.0354         estimate D2E/DX2                !
 ! A34   A(8,9,10)             120.2621         estimate D2E/DX2                !
 ! A35   A(8,9,71)             119.3999         estimate D2E/DX2                !
 ! A36   A(10,9,71)            120.3378         estimate D2E/DX2                !
 ! A37   A(9,10,11)            120.4656         estimate D2E/DX2                !
 ! A38   A(9,10,72)            119.4895         estimate D2E/DX2                !
 ! A39   A(11,10,72)           120.0428         estimate D2E/DX2                !
 ! A40   A(10,11,12)           119.5092         estimate D2E/DX2                !
 ! A41   A(10,11,73)           120.2503         estimate D2E/DX2                !
 ! A42   A(12,11,73)           120.2406         estimate D2E/DX2                !
 ! A43   A(11,12,13)           120.4667         estimate D2E/DX2                !
 ! A44   A(11,12,74)           120.0423         estimate D2E/DX2                !
 ! A45   A(13,12,74)           119.4886         estimate D2E/DX2                !
 ! A46   A(8,13,12)            120.2591         estimate D2E/DX2                !
 ! A47   A(8,13,75)            119.4333         estimate D2E/DX2                !
 ! A48   A(12,13,75)           120.3072         estimate D2E/DX2                !
 ! A49   A(7,14,15)            120.7131         estimate D2E/DX2                !
 ! A50   A(7,14,31)            120.6609         estimate D2E/DX2                !
 ! A51   A(15,14,31)           118.6257         estimate D2E/DX2                !
 ! A52   A(14,15,16)           120.4961         estimate D2E/DX2                !
 ! A53   A(14,15,76)           119.4339         estimate D2E/DX2                !
 ! A54   A(16,15,76)           120.0699         estimate D2E/DX2                !
 ! A55   A(15,16,17)           121.1514         estimate D2E/DX2                !
 ! A56   A(15,16,77)           119.2803         estimate D2E/DX2                !
 ! A57   A(17,16,77)           119.5625         estimate D2E/DX2                !
 ! A58   A(16,17,18)           120.95           estimate D2E/DX2                !
 ! A59   A(16,17,30)           118.0808         estimate D2E/DX2                !
 ! A60   A(18,17,30)           120.9692         estimate D2E/DX2                !
 ! A61   A(17,18,19)           120.9041         estimate D2E/DX2                !
 ! A62   A(17,18,29)           120.8766         estimate D2E/DX2                !
 ! A63   A(19,18,29)           118.2192         estimate D2E/DX2                !
 ! A64   A(18,19,20)           120.8901         estimate D2E/DX2                !
 ! A65   A(18,19,78)           119.4991         estimate D2E/DX2                !
 ! A66   A(20,19,78)           119.5998         estimate D2E/DX2                !
 ! A67   A(19,20,21)           120.8468         estimate D2E/DX2                !
 ! A68   A(19,20,79)           119.6754         estimate D2E/DX2                !
 ! A69   A(21,20,79)           119.4669         estimate D2E/DX2                !
 ! A70   A(20,21,22)           120.8469         estimate D2E/DX2                !
 ! A71   A(20,21,28)           118.303          estimate D2E/DX2                !
 ! A72   A(22,21,28)           120.8501         estimate D2E/DX2                !
 ! A73   A(21,22,23)           120.6725         estimate D2E/DX2                !
 ! A74   A(21,22,27)           120.6756         estimate D2E/DX2                !
 ! A75   A(23,22,27)           118.6519         estimate D2E/DX2                !
 ! A76   A(22,23,24)           120.6347         estimate D2E/DX2                !
 ! A77   A(22,23,80)           119.4838         estimate D2E/DX2                !
 ! A78   A(24,23,80)           119.8689         estimate D2E/DX2                !
 ! A79   A(23,24,25)           120.2076         estimate D2E/DX2                !
 ! A80   A(23,24,81)           119.8043         estimate D2E/DX2                !
 ! A81   A(25,24,81)           119.9881         estimate D2E/DX2                !
 ! A82   A(24,25,26)           119.6619         estimate D2E/DX2                !
 ! A83   A(24,25,82)           120.1695         estimate D2E/DX2                !
 ! A84   A(26,25,82)           120.1686         estimate D2E/DX2                !
 ! A85   A(25,26,27)           120.2085         estimate D2E/DX2                !
 ! A86   A(25,26,83)           119.987          estimate D2E/DX2                !
 ! A87   A(27,26,83)           119.8044         estimate D2E/DX2                !
 ! A88   A(22,27,26)           120.6347         estimate D2E/DX2                !
 ! A89   A(22,27,84)           119.4824         estimate D2E/DX2                !
 ! A90   A(26,27,84)           119.8701         estimate D2E/DX2                !
 ! A91   A(21,28,29)           120.8481         estimate D2E/DX2                !
 ! A92   A(21,28,85)           119.4693         estimate D2E/DX2                !
 ! A93   A(29,28,85)           119.6724         estimate D2E/DX2                !
 ! A94   A(18,29,28)           120.8886         estimate D2E/DX2                !
 ! A95   A(18,29,86)           119.4898         estimate D2E/DX2                !
 ! A96   A(28,29,86)           119.6097         estimate D2E/DX2                !
 ! A97   A(17,30,31)           121.1444         estimate D2E/DX2                !
 ! A98   A(17,30,87)           119.5609         estimate D2E/DX2                !
 ! A99   A(31,30,87)           119.2893         estimate D2E/DX2                !
 ! A100  A(14,31,30)           120.5016         estimate D2E/DX2                !
 ! A101  A(14,31,88)           119.4062         estimate D2E/DX2                !
 ! A102  A(30,31,88)           120.092          estimate D2E/DX2                !
 ! A103  A(6,32,33)            121.0078         estimate D2E/DX2                !
 ! A104  A(6,32,89)            118.9843         estimate D2E/DX2                !
 ! A105  A(33,32,89)           120.0071         estimate D2E/DX2                !
 ! A106  A(32,33,34)           119.066          estimate D2E/DX2                !
 ! A107  A(32,33,90)           120.1363         estimate D2E/DX2                !
 ! A108  A(34,33,90)           120.7934         estimate D2E/DX2                !
 ! A109  A(4,34,33)            120.0952         estimate D2E/DX2                !
 ! A110  A(4,34,35)            108.5162         estimate D2E/DX2                !
 ! A111  A(33,34,35)           131.3886         estimate D2E/DX2                !
 ! A112  A(34,35,36)           131.3967         estimate D2E/DX2                !
 ! A113  A(34,35,63)           108.5077         estimate D2E/DX2                !
 ! A114  A(36,35,63)           120.0956         estimate D2E/DX2                !
 ! A115  A(35,36,37)           119.0675         estimate D2E/DX2                !
 ! A116  A(35,36,91)           120.7963         estimate D2E/DX2                !
 ! A117  A(37,36,91)           120.1316         estimate D2E/DX2                !
 ! A118  A(36,37,38)           121.001          estimate D2E/DX2                !
 ! A119  A(36,37,92)           120.01           estimate D2E/DX2                !
 ! A120  A(38,37,92)           118.9882         estimate D2E/DX2                !
 ! A121  A(37,38,39)           120.2774         estimate D2E/DX2                !
 ! A122  A(37,38,62)           119.8423         estimate D2E/DX2                !
 ! A123  A(39,38,62)           119.8797         estimate D2E/DX2                !
 ! A124  A(38,39,40)           119.991          estimate D2E/DX2                !
 ! A125  A(38,39,46)           119.798          estimate D2E/DX2                !
 ! A126  A(40,39,46)           120.2109         estimate D2E/DX2                !
 ! A127  A(39,40,41)           120.5459         estimate D2E/DX2                !
 ! A128  A(39,40,45)           120.4224         estimate D2E/DX2                !
 ! A129  A(41,40,45)           119.0316         estimate D2E/DX2                !
 ! A130  A(40,41,42)           120.2598         estimate D2E/DX2                !
 ! A131  A(40,41,93)           119.4342         estimate D2E/DX2                !
 ! A132  A(42,41,93)           120.3053         estimate D2E/DX2                !
 ! A133  A(41,42,43)           120.4702         estimate D2E/DX2                !
 ! A134  A(41,42,94)           119.4872         estimate D2E/DX2                !
 ! A135  A(43,42,94)           120.0402         estimate D2E/DX2                !
 ! A136  A(42,43,44)           119.5048         estimate D2E/DX2                !
 ! A137  A(42,43,95)           120.2445         estimate D2E/DX2                !
 ! A138  A(44,43,95)           120.2506         estimate D2E/DX2                !
 ! A139  A(43,44,45)           120.4666         estimate D2E/DX2                !
 ! A140  A(43,44,96)           120.0451         estimate D2E/DX2                !
 ! A141  A(45,44,96)           119.4862         estimate D2E/DX2                !
 ! A142  A(40,45,44)           120.2651         estimate D2E/DX2                !
 ! A143  A(40,45,97)           119.3987         estimate D2E/DX2                !
 ! A144  A(44,45,97)           120.336          estimate D2E/DX2                !
 ! A145  A(39,46,47)           120.6286         estimate D2E/DX2                !
 ! A146  A(39,46,61)           120.7362         estimate D2E/DX2                !
 ! A147  A(47,46,61)           118.6345         estimate D2E/DX2                !
 ! A148  A(46,47,48)           120.5117         estimate D2E/DX2                !
 ! A149  A(46,47,98)           119.3879         estimate D2E/DX2                !
 ! A150  A(48,47,98)           120.0994         estimate D2E/DX2                !
 ! A151  A(47,48,49)           121.1135         estimate D2E/DX2                !
 ! A152  A(47,48,99)           119.2579         estimate D2E/DX2                !
 ! A153  A(49,48,99)           119.596          estimate D2E/DX2                !
 ! A154  A(48,49,50)           120.9783         estimate D2E/DX2                !
 ! A155  A(48,49,60)           118.1074         estimate D2E/DX2                !
 ! A156  A(50,49,60)           120.9142         estimate D2E/DX2                !
 ! A157  A(49,50,51)           120.0593         estimate D2E/DX2                !
 ! A158  A(49,50,59)           121.092          estimate D2E/DX2                !
 ! A159  A(51,50,59)           118.8487         estimate D2E/DX2                !
 ! A160  A(50,51,52)           120.9979         estimate D2E/DX2                !
 ! A161  A(50,51,100)          118.8691         estimate D2E/DX2                !
 ! A162  A(52,51,100)          120.1189         estimate D2E/DX2                !
 ! A163  A(51,52,53)           120.9696         estimate D2E/DX2                !
 ! A164  A(51,52,101)          120.4037         estimate D2E/DX2                !
 ! A165  A(53,52,101)          118.6265         estimate D2E/DX2                !
 ! A166  A(52,53,54)           122.3769         estimate D2E/DX2                !
 ! A167  A(52,53,58)           118.5702         estimate D2E/DX2                !
 ! A168  A(54,53,58)           119.0528         estimate D2E/DX2                !
 ! A169  A(53,54,55)           120.7091         estimate D2E/DX2                !
 ! A170  A(53,54,102)          118.6835         estimate D2E/DX2                !
 ! A171  A(55,54,102)          120.6074         estimate D2E/DX2                !
 ! A172  A(54,55,56)           120.2992         estimate D2E/DX2                !
 ! A173  A(54,55,103)          120.3576         estimate D2E/DX2                !
 ! A174  A(56,55,103)          119.3432         estimate D2E/DX2                !
 ! A175  A(55,56,57)           120.3729         estimate D2E/DX2                !
 ! A176  A(55,56,104)          119.3012         estimate D2E/DX2                !
 ! A177  A(57,56,104)          120.3259         estimate D2E/DX2                !
 ! A178  A(56,57,58)           120.7397         estimate D2E/DX2                !
 ! A179  A(56,57,105)          120.6055         estimate D2E/DX2                !
 ! A180  A(58,57,105)          118.6548         estimate D2E/DX2                !
 ! A181  A(53,58,57)           118.8262         estimate D2E/DX2                !
 ! A182  A(53,58,59)           119.1242         estimate D2E/DX2                !
 ! A183  A(57,58,59)           122.0496         estimate D2E/DX2                !
 ! A184  A(50,59,58)           121.4886         estimate D2E/DX2                !
 ! A185  A(50,59,106)          120.0482         estimate D2E/DX2                !
 ! A186  A(58,59,106)          118.4493         estimate D2E/DX2                !
 ! A187  A(49,60,61)           121.1447         estimate D2E/DX2                !
 ! A188  A(49,60,107)          119.4728         estimate D2E/DX2                !
 ! A189  A(61,60,107)          119.3522         estimate D2E/DX2                !
 ! A190  A(46,61,60)           120.4812         estimate D2E/DX2                !
 ! A191  A(46,61,108)          119.4114         estimate D2E/DX2                !
 ! A192  A(60,61,108)          120.1058         estimate D2E/DX2                !
 ! A193  A(38,62,63)           119.0941         estimate D2E/DX2                !
 ! A194  A(38,62,109)          119.5868         estimate D2E/DX2                !
 ! A195  A(63,62,109)          121.3191         estimate D2E/DX2                !
 ! A196  A(2,63,35)            110.767          estimate D2E/DX2                !
 ! A197  A(2,63,62)            128.3394         estimate D2E/DX2                !
 ! A198  A(35,63,62)           120.8936         estimate D2E/DX2                !
 ! D1    D(64,1,2,3)          -179.8302         estimate D2E/DX2                !
 ! D2    D(64,1,2,4)           -56.0752         estimate D2E/DX2                !
 ! D3    D(64,1,2,63)           56.4436         estimate D2E/DX2                !
 ! D4    D(65,1,2,3)            60.2156         estimate D2E/DX2                !
 ! D5    D(65,1,2,4)          -176.0295         estimate D2E/DX2                !
 ! D6    D(65,1,2,63)          -63.5106         estimate D2E/DX2                !
 ! D7    D(66,1,2,3)           -59.8741         estimate D2E/DX2                !
 ! D8    D(66,1,2,4)            63.8808         estimate D2E/DX2                !
 ! D9    D(66,1,2,63)          176.3997         estimate D2E/DX2                !
 ! D10   D(1,2,3,67)            60.247          estimate D2E/DX2                !
 ! D11   D(1,2,3,68)          -179.8502         estimate D2E/DX2                !
 ! D12   D(1,2,3,69)           -59.9624         estimate D2E/DX2                !
 ! D13   D(4,2,3,67)           -63.8139         estimate D2E/DX2                !
 ! D14   D(4,2,3,68)            56.0889         estimate D2E/DX2                !
 ! D15   D(4,2,3,69)           175.9767         estimate D2E/DX2                !
 ! D16   D(63,2,3,67)         -175.6965         estimate D2E/DX2                !
 ! D17   D(63,2,3,68)          -55.7937         estimate D2E/DX2                !
 ! D18   D(63,2,3,69)           64.0941         estimate D2E/DX2                !
 ! D19   D(1,2,4,5)            -60.9322         estimate D2E/DX2                !
 ! D20   D(1,2,4,34)           118.9699         estimate D2E/DX2                !
 ! D21   D(3,2,4,5)             62.606          estimate D2E/DX2                !
 ! D22   D(3,2,4,34)          -117.4919         estimate D2E/DX2                !
 ! D23   D(63,2,4,5)          -179.6116         estimate D2E/DX2                !
 ! D24   D(63,2,4,34)            0.2906         estimate D2E/DX2                !
 ! D25   D(1,2,63,35)         -118.962          estimate D2E/DX2                !
 ! D26   D(1,2,63,62)           61.0124         estimate D2E/DX2                !
 ! D27   D(3,2,63,35)          117.5119         estimate D2E/DX2                !
 ! D28   D(3,2,63,62)          -62.5138         estimate D2E/DX2                !
 ! D29   D(4,2,63,35)           -0.2918         estimate D2E/DX2                !
 ! D30   D(4,2,63,62)          179.6826         estimate D2E/DX2                !
 ! D31   D(2,4,5,6)           -179.3543         estimate D2E/DX2                !
 ! D32   D(2,4,5,70)             0.6613         estimate D2E/DX2                !
 ! D33   D(34,4,5,6)             0.7523         estimate D2E/DX2                !
 ! D34   D(34,4,5,70)         -179.232          estimate D2E/DX2                !
 ! D35   D(2,4,34,33)          179.7952         estimate D2E/DX2                !
 ! D36   D(2,4,34,35)           -0.1929         estimate D2E/DX2                !
 ! D37   D(5,4,34,33)           -0.2942         estimate D2E/DX2                !
 ! D38   D(5,4,34,35)          179.7177         estimate D2E/DX2                !
 ! D39   D(4,5,6,7)            179.2541         estimate D2E/DX2                !
 ! D40   D(4,5,6,32)            -0.526          estimate D2E/DX2                !
 ! D41   D(70,5,6,7)            -0.7613         estimate D2E/DX2                !
 ! D42   D(70,5,6,32)          179.4586         estimate D2E/DX2                !
 ! D43   D(5,6,7,8)            142.7724         estimate D2E/DX2                !
 ! D44   D(5,6,7,14)           -37.3499         estimate D2E/DX2                !
 ! D45   D(32,6,7,8)           -37.4485         estimate D2E/DX2                !
 ! D46   D(32,6,7,14)          142.4292         estimate D2E/DX2                !
 ! D47   D(5,6,32,33)           -0.1635         estimate D2E/DX2                !
 ! D48   D(5,6,32,89)          179.5282         estimate D2E/DX2                !
 ! D49   D(7,6,32,33)         -179.9428         estimate D2E/DX2                !
 ! D50   D(7,6,32,89)           -0.2511         estimate D2E/DX2                !
 ! D51   D(6,7,8,9)            -37.1197         estimate D2E/DX2                !
 ! D52   D(6,7,8,13)           142.7416         estimate D2E/DX2                !
 ! D53   D(14,7,8,9)           143.003          estimate D2E/DX2                !
 ! D54   D(14,7,8,13)          -37.1357         estimate D2E/DX2                !
 ! D55   D(6,7,14,15)          144.2208         estimate D2E/DX2                !
 ! D56   D(6,7,14,31)          -35.5611         estimate D2E/DX2                !
 ! D57   D(8,7,14,15)          -35.9017         estimate D2E/DX2                !
 ! D58   D(8,7,14,31)          144.3164         estimate D2E/DX2                !
 ! D59   D(7,8,9,10)           179.7081         estimate D2E/DX2                !
 ! D60   D(7,8,9,71)            -0.4493         estimate D2E/DX2                !
 ! D61   D(13,8,9,10)           -0.1552         estimate D2E/DX2                !
 ! D62   D(13,8,9,71)          179.6874         estimate D2E/DX2                !
 ! D63   D(7,8,13,12)          179.8828         estimate D2E/DX2                !
 ! D64   D(7,8,13,75)           -0.3655         estimate D2E/DX2                !
 ! D65   D(9,8,13,12)           -0.254          estimate D2E/DX2                !
 ! D66   D(9,8,13,75)          179.4976         estimate D2E/DX2                !
 ! D67   D(8,9,10,11)            0.3979         estimate D2E/DX2                !
 ! D68   D(8,9,10,72)          179.8728         estimate D2E/DX2                !
 ! D69   D(71,9,10,11)        -179.4432         estimate D2E/DX2                !
 ! D70   D(71,9,10,72)           0.0317         estimate D2E/DX2                !
 ! D71   D(9,10,11,12)          -0.2287         estimate D2E/DX2                !
 ! D72   D(9,10,11,73)         179.8            estimate D2E/DX2                !
 ! D73   D(72,10,11,12)       -179.7007         estimate D2E/DX2                !
 ! D74   D(72,10,11,73)          0.3279         estimate D2E/DX2                !
 ! D75   D(10,11,12,13)         -0.1832         estimate D2E/DX2                !
 ! D76   D(10,11,12,74)       -179.6236         estimate D2E/DX2                !
 ! D77   D(73,11,12,13)        179.7881         estimate D2E/DX2                !
 ! D78   D(73,11,12,74)          0.3478         estimate D2E/DX2                !
 ! D79   D(11,12,13,8)           0.4251         estimate D2E/DX2                !
 ! D80   D(11,12,13,75)       -179.3244         estimate D2E/DX2                !
 ! D81   D(74,12,13,8)         179.8685         estimate D2E/DX2                !
 ! D82   D(74,12,13,75)          0.1191         estimate D2E/DX2                !
 ! D83   D(7,14,15,16)        -179.8739         estimate D2E/DX2                !
 ! D84   D(7,14,15,76)           0.0            estimate D2E/DX2                !
 ! D85   D(31,14,15,16)         -0.0876         estimate D2E/DX2                !
 ! D86   D(31,14,15,76)        179.7863         estimate D2E/DX2                !
 ! D87   D(7,14,31,30)         179.8315         estimate D2E/DX2                !
 ! D88   D(7,14,31,88)          -0.3152         estimate D2E/DX2                !
 ! D89   D(15,14,31,30)          0.0451         estimate D2E/DX2                !
 ! D90   D(15,14,31,88)        179.8984         estimate D2E/DX2                !
 ! D91   D(14,15,16,17)          0.0581         estimate D2E/DX2                !
 ! D92   D(14,15,16,77)       -179.0571         estimate D2E/DX2                !
 ! D93   D(76,15,16,17)       -179.8151         estimate D2E/DX2                !
 ! D94   D(76,15,16,77)          1.0697         estimate D2E/DX2                !
 ! D95   D(15,16,17,18)       -179.9086         estimate D2E/DX2                !
 ! D96   D(15,16,17,30)          0.0151         estimate D2E/DX2                !
 ! D97   D(77,16,17,18)         -0.7959         estimate D2E/DX2                !
 ! D98   D(77,16,17,30)        179.1278         estimate D2E/DX2                !
 ! D99   D(16,17,18,19)        -39.8013         estimate D2E/DX2                !
 ! D100  D(16,17,18,29)        140.1025         estimate D2E/DX2                !
 ! D101  D(30,17,18,19)        140.2772         estimate D2E/DX2                !
 ! D102  D(30,17,18,29)        -39.819          estimate D2E/DX2                !
 ! D103  D(16,17,30,31)         -0.0581         estimate D2E/DX2                !
 ! D104  D(16,17,30,87)        179.0907         estimate D2E/DX2                !
 ! D105  D(18,17,30,31)        179.8656         estimate D2E/DX2                !
 ! D106  D(18,17,30,87)         -0.9856         estimate D2E/DX2                !
 ! D107  D(17,18,19,20)       -179.8242         estimate D2E/DX2                !
 ! D108  D(17,18,19,78)         -1.0332         estimate D2E/DX2                !
 ! D109  D(29,18,19,20)          0.2695         estimate D2E/DX2                !
 ! D110  D(29,18,19,78)        179.0605         estimate D2E/DX2                !
 ! D111  D(17,18,29,28)       -179.5694         estimate D2E/DX2                !
 ! D112  D(17,18,29,86)         -0.8308         estimate D2E/DX2                !
 ! D113  D(19,18,29,28)          0.3369         estimate D2E/DX2                !
 ! D114  D(19,18,29,86)        179.0755         estimate D2E/DX2                !
 ! D115  D(18,19,20,21)         -0.608          estimate D2E/DX2                !
 ! D116  D(18,19,20,79)       -179.3995         estimate D2E/DX2                !
 ! D117  D(78,19,20,21)       -179.3979         estimate D2E/DX2                !
 ! D118  D(78,19,20,79)          1.8107         estimate D2E/DX2                !
 ! D119  D(19,20,21,22)       -179.6449         estimate D2E/DX2                !
 ! D120  D(19,20,21,28)          0.3306         estimate D2E/DX2                !
 ! D121  D(79,20,21,22)         -0.8509         estimate D2E/DX2                !
 ! D122  D(79,20,21,28)        179.1246         estimate D2E/DX2                !
 ! D123  D(20,21,22,23)        -41.6712         estimate D2E/DX2                !
 ! D124  D(20,21,22,27)        138.3157         estimate D2E/DX2                !
 ! D125  D(28,21,22,23)        138.3539         estimate D2E/DX2                !
 ! D126  D(28,21,22,27)        -41.6591         estimate D2E/DX2                !
 ! D127  D(20,21,28,29)          0.2755         estimate D2E/DX2                !
 ! D128  D(20,21,28,85)        179.1108         estimate D2E/DX2                !
 ! D129  D(22,21,28,29)       -179.749          estimate D2E/DX2                !
 ! D130  D(22,21,28,85)         -0.9137         estimate D2E/DX2                !
 ! D131  D(21,22,23,24)       -179.8843         estimate D2E/DX2                !
 ! D132  D(21,22,23,80)         -1.179          estimate D2E/DX2                !
 ! D133  D(27,22,23,24)          0.1285         estimate D2E/DX2                !
 ! D134  D(27,22,23,80)        178.8338         estimate D2E/DX2                !
 ! D135  D(21,22,27,26)       -179.8455         estimate D2E/DX2                !
 ! D136  D(21,22,27,84)         -1.1468         estimate D2E/DX2                !
 ! D137  D(23,22,27,26)          0.1417         estimate D2E/DX2                !
 ! D138  D(23,22,27,84)        178.8404         estimate D2E/DX2                !
 ! D139  D(22,23,24,25)         -0.2691         estimate D2E/DX2                !
 ! D140  D(22,23,24,81)        179.618          estimate D2E/DX2                !
 ! D141  D(80,23,24,25)       -178.9694         estimate D2E/DX2                !
 ! D142  D(80,23,24,81)          0.9177         estimate D2E/DX2                !
 ! D143  D(23,24,25,26)          0.1379         estimate D2E/DX2                !
 ! D144  D(23,24,25,82)       -179.8605         estimate D2E/DX2                !
 ! D145  D(81,24,25,26)       -179.749          estimate D2E/DX2                !
 ! D146  D(81,24,25,82)          0.2526         estimate D2E/DX2                !
 ! D147  D(24,25,26,27)          0.1313         estimate D2E/DX2                !
 ! D148  D(24,25,26,83)       -179.7504         estimate D2E/DX2                !
 ! D149  D(82,25,26,27)       -179.8702         estimate D2E/DX2                !
 ! D150  D(82,25,26,83)          0.2481         estimate D2E/DX2                !
 ! D151  D(25,26,27,22)         -0.2725         estimate D2E/DX2                !
 ! D152  D(25,26,27,84)       -178.9662         estimate D2E/DX2                !
 ! D153  D(83,26,27,22)        179.6094         estimate D2E/DX2                !
 ! D154  D(83,26,27,84)          0.9157         estimate D2E/DX2                !
 ! D155  D(21,28,29,18)         -0.6144         estimate D2E/DX2                !
 ! D156  D(21,28,29,86)       -179.3515         estimate D2E/DX2                !
 ! D157  D(85,28,29,18)       -179.4473         estimate D2E/DX2                !
 ! D158  D(85,28,29,86)          1.8156         estimate D2E/DX2                !
 ! D159  D(17,30,31,14)          0.028          estimate D2E/DX2                !
 ! D160  D(17,30,31,88)       -179.8243         estimate D2E/DX2                !
 ! D161  D(87,30,31,14)       -179.1231         estimate D2E/DX2                !
 ! D162  D(87,30,31,88)          1.0246         estimate D2E/DX2                !
 ! D163  D(6,32,33,34)           0.6227         estimate D2E/DX2                !
 ! D164  D(6,32,33,90)         179.8717         estimate D2E/DX2                !
 ! D165  D(89,32,33,34)       -179.0658         estimate D2E/DX2                !
 ! D166  D(89,32,33,90)          0.1832         estimate D2E/DX2                !
 ! D167  D(32,33,34,4)          -0.3977         estimate D2E/DX2                !
 ! D168  D(32,33,34,35)        179.5872         estimate D2E/DX2                !
 ! D169  D(90,33,34,4)        -179.6417         estimate D2E/DX2                !
 ! D170  D(90,33,34,35)          0.3433         estimate D2E/DX2                !
 ! D171  D(4,34,35,36)         179.9801         estimate D2E/DX2                !
 ! D172  D(4,34,35,63)          -0.0019         estimate D2E/DX2                !
 ! D173  D(33,34,35,36)         -0.0062         estimate D2E/DX2                !
 ! D174  D(33,34,35,63)       -179.9882         estimate D2E/DX2                !
 ! D175  D(34,35,36,37)       -179.5301         estimate D2E/DX2                !
 ! D176  D(34,35,36,91)         -0.2989         estimate D2E/DX2                !
 ! D177  D(63,35,36,37)          0.4501         estimate D2E/DX2                !
 ! D178  D(63,35,36,91)        179.6814         estimate D2E/DX2                !
 ! D179  D(34,35,63,2)           0.1959         estimate D2E/DX2                !
 ! D180  D(34,35,63,62)       -179.7806         estimate D2E/DX2                !
 ! D181  D(36,35,63,2)        -179.7885         estimate D2E/DX2                !
 ! D182  D(36,35,63,62)          0.235          estimate D2E/DX2                !
 ! D183  D(35,36,37,38)         -0.6168         estimate D2E/DX2                !
 ! D184  D(35,36,37,92)        179.0535         estimate D2E/DX2                !
 ! D185  D(91,36,37,38)       -179.8533         estimate D2E/DX2                !
 ! D186  D(91,36,37,92)         -0.183          estimate D2E/DX2                !
 ! D187  D(36,37,38,39)        179.8221         estimate D2E/DX2                !
 ! D188  D(36,37,38,62)          0.105          estimate D2E/DX2                !
 ! D189  D(92,37,38,39)          0.1485         estimate D2E/DX2                !
 ! D190  D(92,37,38,62)       -179.5686         estimate D2E/DX2                !
 ! D191  D(37,38,39,40)         37.6087         estimate D2E/DX2                !
 ! D192  D(37,38,39,46)       -142.2582         estimate D2E/DX2                !
 ! D193  D(62,38,39,40)       -142.6743         estimate D2E/DX2                !
 ! D194  D(62,38,39,46)         37.4588         estimate D2E/DX2                !
 ! D195  D(37,38,62,63)          0.5776         estimate D2E/DX2                !
 ! D196  D(37,38,62,109)      -179.409          estimate D2E/DX2                !
 ! D197  D(39,38,62,63)       -179.1406         estimate D2E/DX2                !
 ! D198  D(39,38,62,109)         0.8728         estimate D2E/DX2                !
 ! D199  D(38,39,40,41)       -142.8966         estimate D2E/DX2                !
 ! D200  D(38,39,40,45)         36.9758         estimate D2E/DX2                !
 ! D201  D(46,39,40,41)         36.9698         estimate D2E/DX2                !
 ! D202  D(46,39,40,45)       -143.1579         estimate D2E/DX2                !
 ! D203  D(38,39,46,47)         35.4016         estimate D2E/DX2                !
 ! D204  D(38,39,46,61)       -144.2966         estimate D2E/DX2                !
 ! D205  D(40,39,46,47)       -144.465          estimate D2E/DX2                !
 ! D206  D(40,39,46,61)         35.8368         estimate D2E/DX2                !
 ! D207  D(39,40,41,42)       -179.8719         estimate D2E/DX2                !
 ! D208  D(39,40,41,93)          0.4204         estimate D2E/DX2                !
 ! D209  D(45,40,41,42)          0.254          estimate D2E/DX2                !
 ! D210  D(45,40,41,93)       -179.4537         estimate D2E/DX2                !
 ! D211  D(39,40,45,44)       -179.722          estimate D2E/DX2                !
 ! D212  D(39,40,45,97)          0.4376         estimate D2E/DX2                !
 ! D213  D(41,40,45,44)          0.1523         estimate D2E/DX2                !
 ! D214  D(41,40,45,97)       -179.6881         estimate D2E/DX2                !
 ! D215  D(40,41,42,43)         -0.4185         estimate D2E/DX2                !
 ! D216  D(40,41,42,94)       -179.8542         estimate D2E/DX2                !
 ! D217  D(93,41,42,43)        179.2867         estimate D2E/DX2                !
 ! D218  D(93,41,42,94)         -0.149          estimate D2E/DX2                !
 ! D219  D(41,42,43,44)          0.173          estimate D2E/DX2                !
 ! D220  D(41,42,43,95)       -179.79           estimate D2E/DX2                !
 ! D221  D(94,42,43,44)        179.6056         estimate D2E/DX2                !
 ! D222  D(94,42,43,95)         -0.3575         estimate D2E/DX2                !
 ! D223  D(42,43,44,45)          0.2359         estimate D2E/DX2                !
 ! D224  D(42,43,44,96)        179.7056         estimate D2E/DX2                !
 ! D225  D(95,43,44,45)       -179.801          estimate D2E/DX2                !
 ! D226  D(95,43,44,96)         -0.3313         estimate D2E/DX2                !
 ! D227  D(43,44,45,40)         -0.3986         estimate D2E/DX2                !
 ! D228  D(43,44,45,97)        179.4403         estimate D2E/DX2                !
 ! D229  D(96,44,45,40)       -179.8712         estimate D2E/DX2                !
 ! D230  D(96,44,45,97)         -0.0324         estimate D2E/DX2                !
 ! D231  D(39,46,47,48)       -179.2839         estimate D2E/DX2                !
 ! D232  D(39,46,47,98)          1.0773         estimate D2E/DX2                !
 ! D233  D(61,46,47,48)          0.4205         estimate D2E/DX2                !
 ! D234  D(61,46,47,98)       -179.2183         estimate D2E/DX2                !
 ! D235  D(39,46,61,60)       -179.9278         estimate D2E/DX2                !
 ! D236  D(39,46,61,108)         0.5378         estimate D2E/DX2                !
 ! D237  D(47,46,61,60)          0.3681         estimate D2E/DX2                !
 ! D238  D(47,46,61,108)      -179.1663         estimate D2E/DX2                !
 ! D239  D(46,47,48,49)         -0.8144         estimate D2E/DX2                !
 ! D240  D(46,47,48,99)       -178.7306         estimate D2E/DX2                !
 ! D241  D(98,47,48,49)        178.8218         estimate D2E/DX2                !
 ! D242  D(98,47,48,99)          0.9056         estimate D2E/DX2                !
 ! D243  D(47,48,49,50)       -179.505          estimate D2E/DX2                !
 ! D244  D(47,48,49,60)          0.405          estimate D2E/DX2                !
 ! D245  D(99,48,49,50)         -1.5958         estimate D2E/DX2                !
 ! D246  D(99,48,49,60)        178.3142         estimate D2E/DX2                !
 ! D247  D(48,49,50,51)        -39.8408         estimate D2E/DX2                !
 ! D248  D(48,49,50,59)        140.1705         estimate D2E/DX2                !
 ! D249  D(60,49,50,51)        140.2517         estimate D2E/DX2                !
 ! D250  D(60,49,50,59)        -39.737          estimate D2E/DX2                !
 ! D251  D(48,49,60,61)          0.3918         estimate D2E/DX2                !
 ! D252  D(48,49,60,107)       178.3743         estimate D2E/DX2                !
 ! D253  D(50,49,60,61)       -179.6981         estimate D2E/DX2                !
 ! D254  D(50,49,60,107)        -1.7155         estimate D2E/DX2                !
 ! D255  D(49,50,51,52)       -179.8621         estimate D2E/DX2                !
 ! D256  D(49,50,51,100)        -1.2298         estimate D2E/DX2                !
 ! D257  D(59,50,51,52)          0.1269         estimate D2E/DX2                !
 ! D258  D(59,50,51,100)       178.7592         estimate D2E/DX2                !
 ! D259  D(49,50,59,58)       -179.8816         estimate D2E/DX2                !
 ! D260  D(49,50,59,106)        -1.2545         estimate D2E/DX2                !
 ! D261  D(51,50,59,58)          0.1296         estimate D2E/DX2                !
 ! D262  D(51,50,59,106)       178.7566         estimate D2E/DX2                !
 ! D263  D(50,51,52,53)         -0.2967         estimate D2E/DX2                !
 ! D264  D(50,51,52,101)       179.5122         estimate D2E/DX2                !
 ! D265  D(100,51,52,53)      -178.9121         estimate D2E/DX2                !
 ! D266  D(100,51,52,101)        0.8969         estimate D2E/DX2                !
 ! D267  D(51,52,53,54)       -179.8441         estimate D2E/DX2                !
 ! D268  D(51,52,53,58)          0.2074         estimate D2E/DX2                !
 ! D269  D(101,52,53,54)         0.3436         estimate D2E/DX2                !
 ! D270  D(101,52,53,58)      -179.6049         estimate D2E/DX2                !
 ! D271  D(52,53,54,55)        179.9555         estimate D2E/DX2                !
 ! D272  D(52,53,54,102)        -0.0191         estimate D2E/DX2                !
 ! D273  D(58,53,54,55)         -0.0962         estimate D2E/DX2                !
 ! D274  D(58,53,54,102)       179.9292         estimate D2E/DX2                !
 ! D275  D(52,53,58,57)       -179.8973         estimate D2E/DX2                !
 ! D276  D(52,53,58,59)          0.0442         estimate D2E/DX2                !
 ! D277  D(54,53,58,57)          0.1524         estimate D2E/DX2                !
 ! D278  D(54,53,58,59)       -179.9061         estimate D2E/DX2                !
 ! D279  D(53,54,55,56)          0.0042         estimate D2E/DX2                !
 ! D280  D(53,54,55,103)      -179.967          estimate D2E/DX2                !
 ! D281  D(102,54,55,56)       179.9783         estimate D2E/DX2                !
 ! D282  D(102,54,55,103)        0.0072         estimate D2E/DX2                !
 ! D283  D(54,55,56,57)          0.0305         estimate D2E/DX2                !
 ! D284  D(54,55,56,104)      -179.9622         estimate D2E/DX2                !
 ! D285  D(103,55,56,57)      -179.9981         estimate D2E/DX2                !
 ! D286  D(103,55,56,104)        0.0093         estimate D2E/DX2                !
 ! D287  D(55,56,57,58)          0.0294         estimate D2E/DX2                !
 ! D288  D(55,56,57,105)       179.9848         estimate D2E/DX2                !
 ! D289  D(104,56,57,58)      -179.978          estimate D2E/DX2                !
 ! D290  D(104,56,57,105)       -0.0226         estimate D2E/DX2                !
 ! D291  D(56,57,58,53)         -0.1207         estimate D2E/DX2                !
 ! D292  D(56,57,58,59)        179.9396         estimate D2E/DX2                !
 ! D293  D(105,57,58,53)       179.923          estimate D2E/DX2                !
 ! D294  D(105,57,58,59)        -0.0167         estimate D2E/DX2                !
 ! D295  D(53,58,59,50)         -0.2122         estimate D2E/DX2                !
 ! D296  D(53,58,59,106)      -178.8606         estimate D2E/DX2                !
 ! D297  D(57,58,59,50)        179.7273         estimate D2E/DX2                !
 ! D298  D(57,58,59,106)         1.0789         estimate D2E/DX2                !
 ! D299  D(49,60,61,46)         -0.7809         estimate D2E/DX2                !
 ! D300  D(49,60,61,108)       178.7502         estimate D2E/DX2                !
 ! D301  D(107,60,61,46)      -178.7659         estimate D2E/DX2                !
 ! D302  D(107,60,61,108)        0.7653         estimate D2E/DX2                !
 ! D303  D(38,62,63,2)         179.2821         estimate D2E/DX2                !
 ! D304  D(38,62,63,35)         -0.7459         estimate D2E/DX2                !
 ! D305  D(109,62,63,2)         -0.7316         estimate D2E/DX2                !
 ! D306  D(109,62,63,35)       179.2405         estimate D2E/DX2                !
 --------------------------------------------------------------------------------
 Trust Radius=3.00D-01 FncErr=1.00D-07 GrdErr=1.00D-06 EigMax=2.50D+02 EigMin=1.00D-04
 Number of steps in this run=    633 maximum allowed number of steps=    654.
 GradGradGradGradGradGradGradGradGradGradGradGradGradGradGradGradGradGrad

 Leave Link  103 at Sat Nov  5 00:26:34 2022, MaxMem=   805306368 cpu:               0.3 elap:               0.1
 (Enter /home/wykgroup/appl/g16/l202.exe)
 Stoichiometry    C61H46N2
 Framework group  C1[X(C61H46N2)]
 Deg. of freedom   321
 Full point group                 C1      NOp   1
 Largest Abelian subgroup         C1      NOp   1
 Largest concise Abelian subgroup C1      NOp   1
                         Standard orientation:                         
 ---------------------------------------------------------------------
 Center     Atomic      Atomic             Coordinates (Angstroms)
 Number     Number       Type             X           Y           Z
 ---------------------------------------------------------------------
      1          6           0       -0.492737   -1.666420    2.259906
      2          6           0       -0.494869   -1.688177    0.729226
      3          6           0       -0.287341   -0.276221    0.172126
      4          6           0        0.548841   -2.639734    0.188999
      5          6           0        1.910580   -2.598512    0.362630
      6          6           0        2.703347   -3.580080   -0.241707
      7          7           0        4.094507   -3.545489   -0.088971
      8          6           0        4.812270   -4.738580    0.047383
      9          6           0        4.278204   -5.805475    0.769978
     10          6           0        4.986996   -6.983890    0.897438
     11          6           0        6.237891   -7.117411    0.317326
     12          6           0        6.774498   -6.059708   -0.398508
     13          6           0        6.070006   -4.880141   -0.538886
     14          6           0        4.762668   -2.318690   -0.075733
     15          6           0        5.874248   -2.121345    0.744482
     16          6           0        6.528664   -0.908055    0.755927
     17          6           0        6.100866    0.149719   -0.045264
     18          6           0        6.801997    1.438758   -0.031070
     19          6           0        7.278891    1.981238    1.161093
     20          6           0        7.934905    3.194956    1.174594
     21          6           0        8.149017    3.904465   -0.005234
     22          6           0        8.854511    5.193413    0.008156
     23          6           0        8.598603    6.133351    1.004101
     24          6           0        9.260964    7.346556    1.014589
     25          6           0       10.194016    7.639486    0.034085
     26          6           0       10.458475    6.711661   -0.959399
     27          6           0        9.793010    5.500204   -0.974617
     28          6           0        7.677575    3.360365   -1.198123
     29          6           0        7.010650    2.152593   -1.209993
     30          6           0        4.988724   -0.053184   -0.861456
     31          6           0        4.329088   -1.263359   -0.879679
     32          6           0        2.103632   -4.588272   -0.999065
     33          6           0        0.732200   -4.636692   -1.161049
     34          6           0       -0.050749   -3.657713   -0.569452
     35          6           0       -1.484953   -3.446933   -0.570701
     36          6           0       -2.515586   -4.159209   -1.163900
     37          6           0       -3.815261   -3.717417   -1.005112
     38          6           0       -4.100401   -2.578469   -0.249476
     39          7           0       -5.422572   -2.142178   -0.101620
     40          6           0       -6.455691   -3.075350    0.034939
     41          6           0       -7.699864   -2.846569   -0.552664
     42          6           0       -8.716541   -3.770678   -0.411852
     43          6           0       -8.510771   -4.937557    0.305856
     44          6           0       -7.275413   -5.172093    0.887255
     45          6           0       -6.254971   -4.250368    0.759320
     46          6           0       -5.705342   -0.774600   -0.093863
     47          6           0       -4.979028    0.106296   -0.896797
     48          6           0       -5.250309    1.457433   -0.876293
     49          6           0       -6.262867    1.976894   -0.070562
     50          6           0       -6.556350    3.414860   -0.059125
     51          6           0       -5.500522    4.353077   -0.099989
     52          6           0       -5.751251    5.693750   -0.087397
     53          6           0       -7.073116    6.184744   -0.039430
     54          6           0       -7.366216    7.563187   -0.028479
     55          6           0       -8.660244    8.001388    0.017554
     56          6           0       -9.719025    7.080305    0.054782
     57          6           0       -9.467104    5.737391    0.046019
     58          6           0       -8.142687    5.252207    0.000172
     59          6           0       -7.851588    3.875099   -0.008689
     60          6           0       -6.990492    1.090926    0.723080
[...]
 Alpha virt. eigenvalues --    0.82584   0.82723   0.82925   0.83019   0.83235
 Alpha virt. eigenvalues --    0.83414   0.83618   0.83931   0.84104   0.84173
 Alpha virt. eigenvalues --    0.84234   0.84271   0.84457   0.84501   0.84596
 Alpha virt. eigenvalues --    0.84879   0.85133   0.85195   0.85488   0.85740
 Alpha virt. eigenvalues --    0.86150   0.86425   0.86603   0.86714   0.86882
 Alpha virt. eigenvalues --    0.87133   0.87288   0.87552   0.88117   0.88530
 Alpha virt. eigenvalues --    0.88801   0.89266   0.89487   0.89769   0.90177
 Alpha virt. eigenvalues --    0.90569   0.90717   0.91037   0.91255   0.91309
 Alpha virt. eigenvalues --    0.91411   0.91599   0.92334   0.92743   0.92881
 Alpha virt. eigenvalues --    0.93172   0.93310   0.93522   0.93926   0.94390
 Alpha virt. eigenvalues --    0.94453   0.94486   0.94884   0.95336   0.95655
 Alpha virt. eigenvalues --    0.95864   0.96852   0.96953   0.97112   0.97253
 Alpha virt. eigenvalues --    0.97271   0.97775   0.98127   0.98627   0.99016
 Alpha virt. eigenvalues --    0.99674   1.00145   1.00385   1.00996   1.01183
 Alpha virt. eigenvalues --    1.01519   1.01675   1.01782   1.02129   1.02926
 Alpha virt. eigenvalues --    1.03322   1.03660   1.03730   1.04236   1.04256
 Alpha virt. eigenvalues --    1.04814   1.05019   1.05573   1.06528   1.06728
 Alpha virt. eigenvalues --    1.07224   1.07636   1.07915   1.08575   1.09017
 Alpha virt. eigenvalues --    1.09417   1.09597   1.10130   1.10658   1.10769
 Alpha virt. eigenvalues --    1.11297   1.11633   1.12089   1.12568   1.13164
 Alpha virt. eigenvalues --    1.13886   1.15060   1.15300   1.15347   1.15783
 Alpha virt. eigenvalues --    1.16101   1.16501   1.16697   1.17130   1.17209
 Alpha virt. eigenvalues --    1.17396   1.17821   1.18298   1.18735   1.18932
 Alpha virt. eigenvalues --    1.19266   1.19834   1.20116   1.20518   1.20955
 Alpha virt. eigenvalues --    1.21345   1.21722   1.22295   1.22687   1.23066
 Alpha virt. eigenvalues --    1.23153   1.24064   1.24680   1.24744   1.25306
 Alpha virt. eigenvalues --    1.25501   1.25983   1.26749   1.26873   1.27616
 Alpha virt. eigenvalues --    1.28115   1.28885   1.29487   1.29601   1.30059
 Alpha virt. eigenvalues --    1.30406   1.30832   1.32539   1.33618   1.34068
 Alpha virt. eigenvalues --    1.34551   1.35997   1.36865   1.38507   1.39272
 Alpha virt. eigenvalues --    1.39748   1.40114   1.40533   1.41481   1.41786
 Alpha virt. eigenvalues --    1.42226   1.42525   1.42925   1.43074   1.43175
 Alpha virt. eigenvalues --    1.43651   1.43714   1.44423   1.44510   1.44686
 Alpha virt. eigenvalues --    1.44878   1.45455   1.45900   1.45915   1.46530
 Alpha virt. eigenvalues --    1.46682   1.46969   1.47243   1.47684   1.47801
 Alpha virt. eigenvalues --    1.48064   1.48305   1.48574   1.48944   1.49114
 Alpha virt. eigenvalues --    1.49363   1.49449   1.49521   1.49763   1.49902
 Alpha virt. eigenvalues --    1.50244   1.50450   1.50613   1.50684   1.51160
 Alpha virt. eigenvalues --    1.51217   1.51406   1.51549   1.51830   1.51851
 Alpha virt. eigenvalues --    1.51942   1.52107   1.52434   1.52643   1.53002
 Alpha virt. eigenvalues --    1.53250   1.53987   1.54661   1.57029   1.57581
 Alpha virt. eigenvalues --    1.61846   1.63780   1.64424   1.64857   1.67689
 Alpha virt. eigenvalues --    1.68490   1.68809   1.70031   1.70559   1.70962
 Alpha virt. eigenvalues --    1.71977   1.72545   1.73481   1.73927   1.74612
 Alpha virt. eigenvalues --    1.75484   1.76105   1.76542   1.76671   1.77347
 Alpha virt. eigenvalues --    1.77848   1.77989   1.78275   1.78705   1.78848
 Alpha virt. eigenvalues --    1.79145   1.79559   1.79851   1.80250   1.80534
 Alpha virt. eigenvalues --    1.81665   1.81910   1.82654   1.82770   1.82926
 Alpha virt. eigenvalues --    1.83120   1.83198   1.83432   1.83521   1.84403
 Alpha virt. eigenvalues --    1.85073   1.85230   1.85855   1.86026   1.86294
 Alpha virt. eigenvalues --    1.86469   1.88884   1.89164   1.89608   1.89652
 Alpha virt. eigenvalues --    1.89883   1.90231   1.90535   1.90797   1.91286
 Alpha virt. eigenvalues --    1.91351   1.91680   1.91873   1.92339   1.92570
 Alpha virt. eigenvalues --    1.93057   1.93104   1.93914   1.94163   1.94415
 Alpha virt. eigenvalues --    1.95033   1.95146   1.95311   1.95939   1.96483
 Alpha virt. eigenvalues --    1.96662   1.97067   1.97450   1.97658   1.97825
 Alpha virt. eigenvalues --    1.98574   1.98776   1.99075   1.99663   2.00467
 Alpha virt. eigenvalues --    2.00831   2.01759   2.02711   2.03849   2.04588
 Alpha virt. eigenvalues --    2.04686   2.04909   2.05383   2.05426   2.05805
 Alpha virt. eigenvalues --    2.05992   2.06295   2.06560   2.06588   2.07064
 Alpha virt. eigenvalues --    2.07122   2.07638   2.09755   2.10366   2.10755
 Alpha virt. eigenvalues --    2.10877   2.11714   2.12060   2.12179   2.12486
 Alpha virt. eigenvalues --    2.12861   2.12987   2.13196   2.13607   2.13934
 Alpha virt. eigenvalues --    2.14598   2.15056   2.15400   2.15451   2.15550
 Alpha virt. eigenvalues --    2.15817   2.16087   2.16231   2.16519   2.16655
 Alpha virt. eigenvalues --    2.16753   2.17530   2.18618   2.19490   2.20128
 Alpha virt. eigenvalues --    2.20188   2.20447   2.20632   2.21348   2.21552
 Alpha virt. eigenvalues --    2.22014   2.22267   2.23068   2.23914   2.24528
 Alpha virt. eigenvalues --    2.24938   2.25330   2.25469   2.26541   2.26711
 Alpha virt. eigenvalues --    2.26791   2.27079   2.27874   2.28310   2.29043
 Alpha virt. eigenvalues --    2.29069   2.29605   2.30348   2.30424   2.30846
 Alpha virt. eigenvalues --    2.30941   2.31216   2.31277   2.31399   2.31643
 Alpha virt. eigenvalues --    2.31858   2.31980   2.32174   2.32234   2.32513
 Alpha virt. eigenvalues --    2.32785   2.33341   2.33549   2.34080   2.34331
 Alpha virt. eigenvalues --    2.35205   2.35638   2.36153   2.36266   2.37093
 Alpha virt. eigenvalues --    2.39339   2.40890   2.41525   2.41804   2.42020
 Alpha virt. eigenvalues --    2.43091   2.43557   2.43783   2.44379   2.44929
 Alpha virt. eigenvalues --    2.47433   2.48928   2.49870   2.51427   2.52220
 Alpha virt. eigenvalues --    2.53132   2.54062   2.54918   2.56484   2.56997
 Alpha virt. eigenvalues --    2.57559   2.58455   2.58488   2.58871   2.59358
 Alpha virt. eigenvalues --    2.59553   2.59857   2.60001   2.60312   2.61061
 Alpha virt. eigenvalues --    2.61691   2.62152   2.62496   2.63389   2.63492
 Alpha virt. eigenvalues --    2.64156   2.64480   2.64937   2.65209   2.65379
 Alpha virt. eigenvalues --    2.65642   2.65855   2.66726   2.67302   2.67870
 Alpha virt. eigenvalues --    2.68734   2.68974   2.69273   2.69420   2.70051
 Alpha virt. eigenvalues --    2.71749   2.72675   2.73349   2.73532   2.74012
 Alpha virt. eigenvalues --    2.74269   2.74545   2.74792   2.75119   2.75414
 Alpha virt. eigenvalues --    2.75480   2.75557   2.75711   2.75940   2.75999
 Alpha virt. eigenvalues --    2.77280   2.77591   2.77906   2.78427   2.79025
 Alpha virt. eigenvalues --    2.79661   2.80013   2.80579   2.83531   2.84750
 Alpha virt. eigenvalues --    2.85073   2.85237   2.86175   2.86678   2.88099
 Alpha virt. eigenvalues --    2.89422   2.89701   2.90026   2.90909   2.93956
 Alpha virt. eigenvalues --    2.94838   2.95331   2.95832   2.96550   2.96617
 Alpha virt. eigenvalues --    2.97522   2.99223   3.00278   3.00807   3.01947
 Alpha virt. eigenvalues --    3.02538   3.06388   3.08379   3.11472   3.14742
 Alpha virt. eigenvalues --    3.18172   3.20499   3.22993   3.24783   3.25971
 Alpha virt. eigenvalues --    3.32014   3.34556   3.35012   3.36459   3.41651
 Alpha virt. eigenvalues --    3.41873   3.42764   3.42867   3.48776   3.49905
 Alpha virt. eigenvalues --    3.52031   4.08453   4.08655   4.08967   4.09322
 Alpha virt. eigenvalues --    4.09341   4.09823   4.09859   4.10934   4.11219
 Alpha virt. eigenvalues --    4.11844   4.12084   4.12139   4.12169   4.12294
 Alpha virt. eigenvalues --    4.12686   4.12725   4.12825   4.13413   4.13607
 Alpha virt. eigenvalues --    4.15588   4.15789   4.15922   4.16087   4.16873
 Alpha virt. eigenvalues --    4.17945   4.18065   4.20136   4.20415   4.22313
 Alpha virt. eigenvalues --    4.22912   4.24973   4.26837   4.27064   4.29206
 Alpha virt. eigenvalues --    4.31174   4.33140   4.33246   4.33333   4.33778
 Alpha virt. eigenvalues --    4.34130   4.34449   4.34874   4.37164   4.38293
 Alpha virt. eigenvalues --    4.38903   4.39608   4.40789   4.40912   4.43992
 Alpha virt. eigenvalues --    4.46495   4.48998   4.53192   4.56481   4.63170
 Alpha virt. eigenvalues --    4.64726   4.71361   4.71532   4.74153   4.74678
 Alpha virt. eigenvalues --    4.80409   4.83199   4.83851   4.85379
          Condensed to atoms (all electrons):
 Mulliken charges:
               1
     1  C   -0.438334
     2  C   -0.062394
     3  C   -0.438941
     4  C    0.098317
     5  C   -0.254277
     6  C    0.287465
     7  N   -0.658567
     8  C    0.276744
     9  C   -0.162539
    10  C   -0.140061
    11  C   -0.128525
    12  C   -0.140022
    13  C   -0.163404
    14  C    0.291593
    15  C   -0.173091
    16  C   -0.188691
    17  C    0.095259
    18  C    0.095700
    19  C   -0.182327
    20  C   -0.181222
    21  C    0.093005
    22  C    0.089365
    23  C   -0.174049
    24  C   -0.133759
    25  C   -0.127042
    26  C   -0.133753
    27  C   -0.174043
    28  C   -0.181252
    29  C   -0.182330
    30  C   -0.188753
    31  C   -0.172568
    32  C   -0.177530
    33  C   -0.206802
    34  C    0.085668
    35  C    0.085861
    36  C   -0.206827
    37  C   -0.177190
    38  C    0.286654
    39  N   -0.658155
    40  C    0.276672
    41  C   -0.163086
    42  C   -0.140192
    43  C   -0.128445
    44  C   -0.140052
    45  C   -0.162469
    46  C    0.292378
    47  C   -0.172926
    48  C   -0.190595
    49  C    0.094509
    50  C    0.094836
    51  C   -0.177369
    52  C   -0.199167
    53  C    0.139626
    54  C   -0.192649
    55  C   -0.135394
    56  C   -0.137198
    57  C   -0.189611
    58  C    0.140282
    59  C   -0.262445
    60  C   -0.186848
    61  C   -0.173712
    62  C   -0.253676
    63  C    0.098123
    64  H    0.155488
    65  H    0.146694
    66  H    0.146446
    67  H    0.148557
    68  H    0.154348
    69  H    0.147767
    70  H    0.140251
    71  H    0.143610
    72  H    0.131306
    73  H    0.127670
    74  H    0.131694
    75  H    0.144412
    76  H    0.145683
    77  H    0.134250
    78  H    0.131255
    79  H    0.132307
    80  H    0.131889
    81  H    0.129930
    82  H    0.129089
    83  H    0.129954
    84  H    0.132004
    85  H    0.132300
    86  H    0.131506
    87  H    0.133877
    88  H    0.144968
    89  H    0.143099
    90  H    0.130869
    91  H    0.130898
    92  H    0.143109
    93  H    0.144554
    94  H    0.131495
    95  H    0.127642
    96  H    0.131363
    97  H    0.143687
    98  H    0.144904
    99  H    0.134460
   100  H    0.130718
   101  H    0.129811
   102  H    0.128955
   103  H    0.129171
   104  H    0.129290
   105  H    0.128637
   106  H    0.130306
   107  H    0.134148
   108  H    0.145490
   109  H    0.140367
 Sum of Mulliken charges =  -0.00000
 Mulliken charges with hydrogens summed into heavy atoms:
               1
     1  C    0.010295
     2  C   -0.062394
     3  C    0.011731
     4  C    0.098317
     5  C   -0.114026
     6  C    0.287465
     7  N   -0.658567
     8  C    0.276744
     9  C   -0.018929
    10  C   -0.008755
    11  C   -0.000855
    12  C   -0.008329
    13  C   -0.018992
    14  C    0.291593
    15  C   -0.027409
    16  C   -0.054440
    17  C    0.095259
    18  C    0.095700
    19  C   -0.051072
    20  C   -0.048915
    21  C    0.093005
    22  C    0.089365
    23  C   -0.042160
    24  C   -0.003830
    25  C    0.002047
    26  C   -0.003799
    27  C   -0.042038
    28  C   -0.048952
    29  C   -0.050824
    30  C   -0.054876
    31  C   -0.027600
    32  C   -0.034431
    33  C   -0.075933
    34  C    0.085668
    35  C    0.085861
    36  C   -0.075930
    37  C   -0.034081
    38  C    0.286654
    39  N   -0.658155
    40  C    0.276672
    41  C   -0.018532
    42  C   -0.008697
    43  C   -0.000803
    44  C   -0.008689
    45  C   -0.018782
    46  C    0.292378
    47  C   -0.028023
    48  C   -0.056135
    49  C    0.094509
    50  C    0.094836
    51  C   -0.046651
    52  C   -0.069356
    53  C    0.139626
    54  C   -0.063694
    55  C   -0.006223
    56  C   -0.007909
    57  C   -0.060973
    58  C    0.140282
    59  C   -0.132139
    60  C   -0.052700
    61  C   -0.028222
    62  C   -0.113310
    63  C    0.098123
 Electronic spatial extent (au):  <R**2>=          95096.7909
 Charge=             -0.0000 electrons
 Dipole moment (field-independent basis, Debye):
    X=             -0.0004    Y=             -0.5449    Z=              0.2825  Tot=              0.6137
 Quadrupole moment (field-independent basis, Debye-Ang):
   XX=           -343.2020   YY=           -332.9529   ZZ=           -354.0763
   XY=              5.6455   XZ=             -4.2725   YZ=             -1.2838
 Traceless Quadrupole moment (field-independent basis, Debye-Ang):
   XX=              0.2084   YY=             10.4575   ZZ=            -10.6659
   XY=              5.6455   XZ=             -4.2725   YZ=             -1.2838
 Octapole moment (field-independent basis, Debye-Ang**2):
  XXX=           -194.4464  YYY=             49.4554  ZZZ=              0.4345  XYY=             40.1320
  XXY=             30.6949  XXZ=              0.1876  XZZ=             79.7044  YZZ=            -11.3896
  YYZ=             26.3856  XYZ=            -10.6541
 Hexadecapole moment (field-independent basis, Debye-Ang**3):
 XXXX=         -87747.4152 YYYY=         -37415.1792 ZZZZ=          -1941.0085 XXXY=            462.2441
 XXXZ=          -1050.0762 YYYX=            -98.7689 YYYZ=            -62.6035 ZZZX=             -2.9663
 ZZZY=              3.7145 XXYY=         -19284.1805 XXZZ=         -15428.3603 YYZZ=          -7047.8652
 XXYZ=              3.4329 YYXZ=             -2.7424 ZZXY=            431.9164
 N-N= 7.401142190653D+03 E-N=-2.050261185015D+04  KE= 2.437782973641D+03
 Leave Link  601 at Sat Nov  5 01:16:29 2022, MaxMem=   805306368 cpu:               4.0 elap:               0.7
 (Enter /home/wykgroup/appl/g16/l9999.exe)
 1\1\GINC-NODE75\FOpt\RB3LYP\6-31G(d)\C61H46N2\WYKGROUP\05-Nov-2022\0\\
 #p b3lyp/6-31g(d) opt SCF=XQC\\Gaussian input prepared by ASE\\0,1\C,0
 .4353713458,-1.3202090741,-2.5970978864\C,0.4558465017,-1.5697333946,-
 1.0726659\C,0.308396963,-0.2297696476,-0.3173116919\C,-0.6269366196,-2
 .5653197298,-0.6527740628\C,-2.0011185537,-2.4547048588,-0.8010682235\
 C,-2.8345028167,-3.4921903805,-0.3399120687\N,-4.2470125785,-3.3921210
 559,-0.4763167968\C,-4.9969909112,-4.5208883509,-0.9078334532\C,-4.522
 6815333,-5.3350837434,-1.9491145154\C,-5.254496861,-6.447041402,-2.361
 2166947\C,-6.4756069855,-6.7576133092,-1.7588903687\C,-6.9537796936,-5
 .9449617517,-0.7287115436\C,-6.2204828892,-4.8412811003,-0.2972520431\
 C,-4.9038438292,-2.1690805483,-0.1854384547\C,-5.968538684,-1.71484921
 8,-0.9814640447\C,-6.6120250693,-0.5178332643,-0.6873942085\C,-6.21595
 91888,0.2859279367,0.395845977\C,-6.8994144412,1.5658462287,0.69843830
 96\C,-7.3827621302,2.3964264659,-0.327389899\C,-8.0252188236,3.5972132
 254,-0.0433728762\C,-8.2136560296,4.0286219845,1.2804044427\C,-8.89771
 54901,5.3104185745,1.5833191314\C,-8.7093295075,6.4410870599,0.7696597
 321\C,-9.3522780612,7.6449411279,1.0534407877\C,-10.1982644598,7.74740
 11323,2.159293105\C,-10.3951845451,6.6335844709,2.977658686\C,-9.75316
 5143,5.4296004053,2.692347567\C,-7.7295940329,3.1996776959,2.306351164
 5\C,-7.0897283785,1.9974533226,2.0225607749\C,-5.1441130349,-0.1753704
 144,1.179908009\C,-4.5043870135,-1.3789716276,0.905294602\C,-2.2589196
 39,-4.6295338373,0.255039958\C,-0.876568428,-4.7475139726,0.3841217161
 \C,-0.0537287633,-3.7120039043,-0.0654952018\C,1.4018674718,-3.5552330
 387,-0.0595393759\C,2.4226158532,-4.3923218034,0.3975024472\C,3.749155
 0662,-3.9825208898,0.279499238\C,4.0739107354,-2.747989446,-0.31130374
 89\N,5.4339809166,-2.3493214298,-0.4363394555\C,6.408932404,-3.2908321
 291,-0.8674312622\C,7.6682756316,-3.349001838,-0.2485185013\C,8.621498
 3077,-4.2696058773,-0.6796211052\C,8.3332254385,-5.1580862344,-1.71781
 33594\C,7.0781562213,-5.1091289964,-2.3283555226\C,6.1246849455,-4.180
 1201222,-1.916453759\C,5.8140134589,-1.0170797992,-0.1355926916\C,5.24
 36075365,-0.33338703,0.950977955\C,5.6104486505,0.977496813,1.23426616
 56\C,6.5703986192,1.657600971,0.4644462213\C,6.9692364842,3.0493658578
 ,0.7811461468\C,6.0100527368,3.9813821055,1.2791210757\C,6.3599397311,
 5.275911354,1.5778615629\C,7.6923216992,5.7360913156,1.4014568336\C,8.
 0889943388,7.0663998312,1.6989980786\C,9.3926356392,7.4710700352,1.516
 1824316\C,10.3603650584,6.559286064,1.0263997693\C,10.0062686155,5.262
 952725,0.7277199446\C,8.6683237134,4.8140341297,0.9018889696\C,8.27350
 3363,3.4844190327,0.6059536938\C,7.1374935179,0.9608860086,-0.61717985
 01\C,6.7666278753,-0.3441882574,-0.9194382918\C,3.0426391191,-1.911196
 9074,-0.7799887582\C,1.7223916109,-2.3121826641,-0.643068842\H,0.53864
 29837,-2.2585339339,-3.1514671068\H,1.2562007996,-0.6561881572,-2.8917
 880066\H,-0.5054067604,-0.8456285273,-2.8991814486\H,-0.6352557906,0.2
 615283618,-0.5811505655\H,0.3212871638,-0.3851973887,0.7663220276\H,1.
 1274243497,0.4516550024,-0.5749431704\H,-2.4482296357,-1.5812315276,-1
 .2668470103\H,-3.5806447803,-5.0904908613,-2.429413206\H,-4.8720206168
 ,-7.0657410794,-3.1689175018\H,-7.0465765108,-7.6212806267,-2.08754839
 22\H,-7.8985668788,-6.1778246916,-0.2443660154\H,-6.5898883493,-4.2217
 417278,0.5137668905\H,-6.2956103151,-2.3108698329,-1.8273416896\H,-7.4
 489570338,-0.2070357534,-1.3064743611\H,-7.2381510229,2.1052318456,-1.
 3641168776\H,-8.402330666,4.2039668895,-0.8620319517\H,-8.0316193579,6
 .3815741653,-0.077478518\H,-9.184331744,8.5076460225,0.4138768896\H,-1
 0.6991186825,8.6858865176,2.38109912\H,-11.0583167569,6.698631537,3.83
 64541773\H,-9.9362286085,4.5620745019,3.3203162763\H,-7.8418737506,3.5
 096329657,3.3416721998\H,-6.7462763852,1.3734969936,2.843058476\H,-4.7
 949209431,0.4251487129,2.0152444567\H,-3.6824529001,-1.7101249676,1.53
 17850059\H,-2.9075632263,-5.4215560977,0.6152346626\H,-0.4540083662,-5
 .636303165,0.8459946649\H,2.1952331858,-5.3512396016,0.8564125177\H,4.
 5488206123,-4.6185712619,0.6452592464\H,7.8922411647,-2.6709420682,0.5
 688544499\H,9.5907495076,-4.3007287417,-0.1886657438\H,9.0763042787,-5
 .8791603103,-2.0462011316\H,6.8408680411,-5.7894518791,-3.1421746666\H
 ,5.155425733,-4.1373017142,-2.402929561\H,4.5177851348,-0.8401120039,1
 .5787922609\H,5.1716272208,1.4680795879,2.0987123964\H,4.9780307526,3.
 6634183325,1.3957544336\H,5.6097501091,5.972060127,1.9462377397\H,7.34
 32906083,7.7628369708,2.0757940425\H,9.684681603,8.4917169539,1.748168
 7985\H,11.386428119,6.8891051719,0.8869889156\H,10.7480341823,4.562067
 768,0.3515455957\H,9.0324618374,2.7880184752,0.2579307603\H,7.85328380
 16,1.4656013881,-1.2600872642\H,7.2051101832,-0.8468546759,-1.77549216
 99\H,3.2974932746,-0.9620905217,-1.2426626851\\Version=ES64L-G16RevB.0
 1\State=1-A\HF=-2461.7661693\RMSD=7.165e-09\RMSF=2.089e-06\Dipole=-0.0
 10685,-0.1829877,-0.1571858\Quadrupole=-0.3129457,6.7161617,-6.403216,
 -3.0025056,-4.1338859,4.5922448\PG=C01 [X(C61H46N2)]\\@


 EVERYTHING'S GOT A MORAL, IF ONLY YOU CAN FIND IT.

                                    -- LEWIS CARROL, ALICE IN WONDERLAND
 Job cpu time:       0 days  5 hours 46 minutes 36.0 seconds.
 Elapsed time:       0 days  0 hours 49 minutes 53.1 seconds.
 File lengths (MBytes):  RWF=    665 Int=      0 D2E=      0 Chk=     85 Scr=      1
 Normal termination of Gaussian 16 at Sat Nov  5 01:16:29 2022.
