 Entering Gaussian System, Link 0=/home/wykgroup/appl/g16/g16
 Input=./calculation/no_transfer_pubchem_sampling_9_b3lyp/90230983.com
 Output=./calculation/no_transfer_pubchem_sampling_9_b3lyp/90230983.log
 Initial command:
 /home/wykgroup/appl/g16/l1.exe "/userdata/scratch/wykgroup/khs/./calculation/no_transfer_pubchem_sampling_9_b3lyp/90230983/Gau-12373.inp" -scrdir="/userdata/scratch/wykgroup/khs/./calculation/no_transfer_pubchem_sampling_9_b3lyp/90230983/"
 Entering Link 1 = /home/wykgroup/appl/g16/l1.exe PID=     12374.
  
 Copyright (c) 1988-2017, Gaussian, Inc.  All Rights Reserved.
  
 This is part of the Gaussian(R) 16 program.  It is based on
 the Gaussian(R) 09 system (copyright 2009, Gaussian, Inc.),
 the Gaussian(R) 03 system (copyright 2003, Gaussian, Inc.),
 the Gaussian(R) 98 system (copyright 1998, Gaussian, Inc.),
 the Gaussian(R) 94 system (copyright 1995, Gaussian, Inc.),
 the Gaussian 92(TM) system (copyright 1992, Gaussian, Inc.),
 the Gaussian 90(TM) system (copyright 1990, Gaussian, Inc.),
 the Gaussian 88(TM) system (copyright 1988, Gaussian, Inc.),
 the Gaussian 86(TM) system (copyright 1986, Carnegie Mellon
 University), and the Gaussian 82(TM) system (copyright 1983,
 Carnegie Mellon University). Gaussian is a federally registered
 trademark of Gaussian, Inc.
  
 This software contains proprietary and confidential information,
 including trade secrets, belonging to Gaussian, Inc.
  
 This software is provided under written license and may be
 used, copied, transmitted, or stored only in accord with that
 written license.
  
 The following legend is applicable only to US Government
 contracts under FAR:
  
                    RESTRICTED RIGHTS LEGEND
  
 Use, reproduction and disclosure by the US Government is
 subject to restrictions as set forth in subparagraphs (a)
 and (c) of the Commercial Computer Software - Restricted
 Rights clause in FAR 52.227-19.
  
 Gaussian, Inc.
 340 Quinnipiac St., Bldg. 40, Wallingford CT 06492
  
  
 ---------------------------------------------------------------
 Warning -- This program may not be used in any manner that
 competes with the business of Gaussian, Inc. or will provide
 assistance to any competitor of Gaussian, Inc.  The licensee
 of this program is prohibited from giving any competitor of
 Gaussian, Inc. access to this program.  By using this program,
 the user acknowledges that Gaussian, Inc. is engaged in the
 business of creating and licensing software in the field of
 computational chemistry and represents and warrants to the
 licensee that it is not a competitor of Gaussian, Inc. and that
 it will not use this program in any manner prohibited above.
 ---------------------------------------------------------------
  

 Cite this work as:
 Gaussian 16, Revision B.01,
 M. J. Frisch, G. W. Trucks, H. B. Schlegel, G. E. Scuseria, 
 M. A. Robb, J. R. Cheeseman, G. Scalmani, V. Barone, 
 G. A. Petersson, H. Nakatsuji, X. Li, M. Caricato, A. V. Marenich, 
 J. Bloino, B. G. Janesko, R. Gomperts, B. Mennucci, H. P. Hratchian, 
 J. V. Ortiz, A. F. Izmaylov, J. L. Sonnenberg, D. Williams-Young, 
 F. Ding, F. Lipparini, F. Egidi, J. Goings, B. Peng, A. Petrone, 
 T. Henderson, D. Ranasinghe, V. G. Zakrzewski, J. Gao, N. Rega, 
 G. Zheng, W. Liang, M. Hada, M. Ehara, K. Toyota, R. Fukuda, 
 J. Hasegawa, M. Ishida, T. Nakajima, Y. Honda, O. Kitao, H. Nakai, 
 T. Vreven, K. Throssell, J. A. Montgomery, Jr., J. E. Peralta, 
 F. Ogliaro, M. J. Bearpark, J. J. Heyd, E. N. Brothers, K. N. Kudin, 
 V. N. Staroverov, T. A. Keith, R. Kobayashi, J. Normand, 
 K. Raghavachari, A. P. Rendell, J. C. Burant, S. S. Iyengar, 
 J. Tomasi, M. Cossi, J. M. Millam, M. Klene, C. Adamo, R. Cammi, 
 J. W. Ochterski, R. L. Martin, K. Morokuma, O. Farkas, 
 J. B. Foresman, and D. J. Fox, Gaussian, Inc., Wallingford CT, 2016.
 
 ******************************************
 Gaussian 16:  ES64L-G16RevB.01 20-Dec-2017
                 5-Nov-2022 
 ******************************************
 %chk=./calculation/no_transfer_pubchem_sampling_9_b3lyp/90230983.chk
 %nprocshared=7
 Will use up to    7 processors via shared memory.
 %mem=6GB
 -----------------------------
 #p b3lyp/6-31g(d) opt SCF=XQC
 -----------------------------
 1/18=20,19=15,26=3,38=1/1,3;
 2/9=110,12=2,17=6,18=5,40=1/2;
 3/5=1,6=6,7=1,11=2,25=1,30=1,71=1,74=-5/1,2,3;
 4//1;
 5/5=2,8=3,13=1,38=5/2,8;
 6/7=2,8=2,9=2,10=2,28=1/1;
 7//1,2,3,16;
 1/18=20,19=15,26=3/3(2);
 2/9=110/2;
 99//99;
 2/9=110/2;
 3/5=1,6=6,7=1,11=2,25=1,30=1,71=1,74=-5/1,2,3;
 4/5=5,16=3,69=1/1;
 5/5=2,8=3,13=1,38=5/2,8;
 7//1,2,3,16;
 1/18=20,19=15,26=3/3(-5);
 2/9=110/2;
 6/7=2,8=2,9=2,10=2,19=2,28=1/1;
 99/9=1/99;
 Leave Link    1 at Sat Nov  5 00:46:49 2022, MaxMem=   805306368 cpu:               0.9 elap:               0.2
 (Enter /home/wykgroup/appl/g16/l101.exe)
 ------------------------------
 Gaussian input prepared by ASE
 ------------------------------
 Symbolic Z-matrix:
 Charge =  0 Multiplicity = 1
 C                     11.33752  -1.8006   -1.59094 
 C                     10.31981  -1.23187  -2.33867 
 C                     9.26237  -0.59991  -1.71136 
 C                     9.21213  -0.54278  -0.32136 
 N                     8.13965   0.09246   0.31897 
 C                     8.24081   1.05246   1.30668 
 C                     9.37109   1.64105   1.85541 
 C                     9.18861   2.60954   2.824 
 C                     7.91528   2.99568   3.23648 
 C                     6.78661   2.43132   2.67662 
 C                     6.94437   1.45578   1.70143 
 C                     6.02057   0.69266   0.90911 
 C                     4.63667   0.63611   0.85474 
 C                     4.0269   -0.25032  -0.02362 
 C                     2.56001  -0.32419  -0.10312 
 C                     1.91825  -1.56446  -0.20154 
 C                     0.54319  -1.67879  -0.27509 
 C                    -0.20594  -0.5143   -0.2532 
 C                     0.41946   0.74612  -0.15418 
 C                     1.79908   0.83906  -0.07704 
 C                    -0.63014   1.73159  -0.15869 
 C                    -0.6261    3.11725  -0.0897 
 C                    -1.83621   3.78336  -0.12295 
 C                    -3.03338   3.0823   -0.22791 
 C                    -3.06108   1.70037  -0.29787 
 C                    -1.85004   1.0294   -0.25791 
 N                    -1.58418  -0.33715  -0.31184 
 C                    -2.51436  -1.32568  -0.39023 
 N                    -3.83612  -1.08052  -0.36086 
 C                    -4.39236  -2.28013  -0.45122 
 C                    -5.73854  -2.69368  -0.49145 
 C                    -6.81912  -1.70854  -0.41985 
 C                    -8.02525  -1.92391  -1.08683 
 C                    -9.04778  -1.00043  -1.01572 
 C                    -8.89765   0.16971  -0.2734 
 C                    -9.96363   1.17416  -0.17127 
 C                    -11.31389   0.85212  -0.33137 
 C                    -12.25975   1.8551   -0.2214 
 C                    -11.84064   3.14891   0.04661 
 C                    -10.48006   3.3673    0.20679 
 N                    -9.57275   2.41822   0.10478 
 C                    -7.68442   0.3933    0.37818 
 C                    -6.66295  -0.52888   0.309 
 C                    -5.96647  -4.05185  -0.59928 
 C                    -4.9119   -4.97184  -0.67226 
 C                    -3.61426  -4.54383  -0.64213 
 N                    -3.38346  -3.22546  -0.53531 
 N                    -2.19946  -2.61973  -0.49452 
 C                     4.8192   -1.07881  -0.83006 
 C                     6.19783  -1.03535  -0.79651 
 C                     6.80081  -0.13306   0.06813 
 C                     10.23284  -1.12007   0.42871 
 C                     11.29163  -1.74033  -0.208 
 H                     12.16395  -2.28936  -2.08448 
 H                     10.35356  -1.27268  -3.41742 
 H                     8.47873  -0.13565  -2.2913 
 H                     10.36209   1.36233   1.52985 
 H                     10.05319   3.08031   3.26854 
 H                     7.81501   3.75423   3.99858 
 H                     5.79927   2.74128   2.98432 
 H                     4.04085   1.25586   1.5077 
 H                     2.5184   -2.4624   -0.19838 
 H                     0.06117  -2.63918  -0.34545 
 H                     2.27776   1.80498  -0.01918 
 H                     0.3052    3.65809  -0.01362 
 H                    -1.8558    4.86202  -0.06992 
 H                    -3.96523   3.62728  -0.2571 
 H                    -3.98842   1.16039  -0.3858 
 H                    -8.15368  -2.80951  -1.69203 
 H                    -9.95832  -1.18193  -1.5674 
 H                    -11.61874  -0.16591  -0.51709 
 H                    -13.3106   1.63052  -0.33929 
 H                    -12.54631   3.95994   0.13582 
 H                    -10.09499   4.35489   0.4285 
 H                    -7.56462   1.30634   0.93988 
 H                    -5.73277  -0.34688   0.82246 
 H                    -6.97992  -4.4211   -0.60767 
 H                    -5.12159  -6.02587  -0.75078 
 H                    -2.75197  -5.18768  -0.69615 
 H                     4.33249  -1.75974  -1.51253 
 H                     6.78559  -1.69195  -1.42046 
 H                     10.18221  -1.09102   1.50696 
 H                     12.08071  -2.18645   0.37925 
 
 ITRead=  0  0  0  0  0  0  0  0  0  0  0  0  0  0  0  0  0  0  0  0
 ITRead=  0  0  0  0  0  0  0  0  0  0  0  0  0  0  0  0  0  0  0  0
 ITRead=  0  0  0  0  0  0  0  0  0  0  0  0  0  0  0  0  0  0  0  0
 ITRead=  0  0  0  0  0  0  0  0  0  0  0  0  0  0  0  0  0  0  0  0
 ITRead=  0  0  0
 MicOpt= -1 -1 -1 -1 -1 -1 -1 -1 -1 -1 -1 -1 -1 -1 -1 -1 -1 -1 -1 -1
 MicOpt= -1 -1 -1 -1 -1 -1 -1 -1 -1 -1 -1 -1 -1 -1 -1 -1 -1 -1 -1 -1
 MicOpt= -1 -1 -1 -1 -1 -1 -1 -1 -1 -1 -1 -1 -1 -1 -1 -1 -1 -1 -1 -1
 MicOpt= -1 -1 -1 -1 -1 -1 -1 -1 -1 -1 -1 -1 -1 -1 -1 -1 -1 -1 -1 -1
 MicOpt= -1 -1 -1
 NAtoms=     83 NQM=       83 NQMF=       0 NMMI=      0 NMMIF=      0
                NMic=       0 NMicF=      0.
                    Isotopes and Nuclear Properties:
 (Nuclear quadrupole moments (NQMom) in fm**2, nuclear magnetic moments (NMagM)
  in nuclear magnetons)

  Atom         1           2           3           4           5           6           7           8           9          10
 IAtWgt=          12          12          12          12          14          12          12          12          12          12
 AtmWgt=  12.0000000  12.0000000  12.0000000  12.0000000  14.0030740  12.0000000  12.0000000  12.0000000  12.0000000  12.0000000
 NucSpn=           0           0           0           0           2           0           0           0           0           0
 AtZEff=  -0.0000000  -0.0000000  -0.0000000  -0.0000000  -0.0000000  -0.0000000  -0.0000000  -0.0000000  -0.0000000  -0.0000000
 NQMom=    0.0000000   0.0000000   0.0000000   0.0000000   2.0440000   0.0000000   0.0000000   0.0000000   0.0000000   0.0000000
 NMagM=    0.0000000   0.0000000   0.0000000   0.0000000   0.4037610   0.0000000   0.0000000   0.0000000   0.0000000   0.0000000
 AtZNuc=   6.0000000   6.0000000   6.0000000   6.0000000   7.0000000   6.0000000   6.0000000   6.0000000   6.0000000   6.0000000

  Atom        11          12          13          14          15          16          17          18          19          20
 IAtWgt=          12          12          12          12          12          12          12          12          12          12
 AtmWgt=  12.0000000  12.0000000  12.0000000  12.0000000  12.0000000  12.0000000  12.0000000  12.0000000  12.0000000  12.0000000
 NucSpn=           0           0           0           0           0           0           0           0           0           0
 AtZEff=  -0.0000000  -0.0000000  -0.0000000  -0.0000000  -0.0000000  -0.0000000  -0.0000000  -0.0000000  -0.0000000  -0.0000000
 NQMom=    0.0000000   0.0000000   0.0000000   0.0000000   0.0000000   0.0000000   0.0000000   0.0000000   0.0000000   0.0000000
 NMagM=    0.0000000   0.0000000   0.0000000   0.0000000   0.0000000   0.0000000   0.0000000   0.0000000   0.0000000   0.0000000
 AtZNuc=   6.0000000   6.0000000   6.0000000   6.0000000   6.0000000   6.0000000   6.0000000   6.0000000   6.0000000   6.0000000

  Atom        21          22          23          24          25          26          27          28          29          30
 IAtWgt=          12          12          12          12          12          12          14          12          14          12
 AtmWgt=  12.0000000  12.0000000  12.0000000  12.0000000  12.0000000  12.0000000  14.0030740  12.0000000  14.0030740  12.0000000
 NucSpn=           0           0           0           0           0           0           2           0           2           0
 AtZEff=  -0.0000000  -0.0000000  -0.0000000  -0.0000000  -0.0000000  -0.0000000  -0.0000000  -0.0000000  -0.0000000  -0.0000000
 NQMom=    0.0000000   0.0000000   0.0000000   0.0000000   0.0000000   0.0000000   2.0440000   0.0000000   2.0440000   0.0000000
 NMagM=    0.0000000   0.0000000   0.0000000   0.0000000   0.0000000   0.0000000   0.4037610   0.0000000   0.4037610   0.0000000
 AtZNuc=   6.0000000   6.0000000   6.0000000   6.0000000   6.0000000   6.0000000   7.0000000   6.0000000   7.0000000   6.0000000

  Atom        31          32          33          34          35          36          37          38          39          40
 IAtWgt=          12          12          12          12          12          12          12          12          12          12
 AtmWgt=  12.0000000  12.0000000  12.0000000  12.0000000  12.0000000  12.0000000  12.0000000  12.0000000  12.0000000  12.0000000
 NucSpn=           0           0           0           0           0           0           0           0           0           0
 AtZEff=  -0.0000000  -0.0000000  -0.0000000  -0.0000000  -0.0000000  -0.0000000  -0.0000000  -0.0000000  -0.0000000  -0.0000000
 NQMom=    0.0000000   0.0000000   0.0000000   0.0000000   0.0000000   0.0000000   0.0000000   0.0000000   0.0000000   0.0000000
 NMagM=    0.0000000   0.0000000   0.0000000   0.0000000   0.0000000   0.0000000   0.0000000   0.0000000   0.0000000   0.0000000
 AtZNuc=   6.0000000   6.0000000   6.0000000   6.0000000   6.0000000   6.0000000   6.0000000   6.0000000   6.0000000   6.0000000

  Atom        41          42          43          44          45          46          47          48          49          50
 IAtWgt=          14          12          12          12          12          12          14          14          12          12
 AtmWgt=  14.0030740  12.0000000  12.0000000  12.0000000  12.0000000  12.0000000  14.0030740  14.0030740  12.0000000  12.0000000
 NucSpn=           2           0           0           0           0           0           2           2           0           0
 AtZEff=  -0.0000000  -0.0000000  -0.0000000  -0.0000000  -0.0000000  -0.0000000  -0.0000000  -0.0000000  -0.0000000  -0.0000000
 NQMom=    2.0440000   0.0000000   0.0000000   0.0000000   0.0000000   0.0000000   2.0440000   2.0440000   0.0000000   0.0000000
 NMagM=    0.4037610   0.0000000   0.0000000   0.0000000   0.0000000   0.0000000   0.4037610   0.4037610   0.0000000   0.0000000
 AtZNuc=   7.0000000   6.0000000   6.0000000   6.0000000   6.0000000   6.0000000   7.0000000   7.0000000   6.0000000   6.0000000

  Atom        51          52          53          54          55          56          57          58          59          60
 IAtWgt=          12          12          12           1           1           1           1           1           1           1
 AtmWgt=  12.0000000  12.0000000  12.0000000   1.0078250   1.0078250   1.0078250   1.0078250   1.0078250   1.0078250   1.0078250
 NucSpn=           0           0           0           1           1           1           1           1           1           1
 AtZEff=  -0.0000000  -0.0000000  -0.0000000  -0.0000000  -0.0000000  -0.0000000  -0.0000000  -0.0000000  -0.0000000  -0.0000000
 NQMom=    0.0000000   0.0000000   0.0000000   0.0000000   0.0000000   0.0000000   0.0000000   0.0000000   0.0000000   0.0000000
 NMagM=    0.0000000   0.0000000   0.0000000   2.7928460   2.7928460   2.7928460   2.7928460   2.7928460   2.7928460   2.7928460
 AtZNuc=   6.0000000   6.0000000   6.0000000   1.0000000   1.0000000   1.0000000   1.0000000   1.0000000   1.0000000   1.0000000

  Atom        61          62          63          64          65          66          67          68          69          70
 IAtWgt=           1           1           1           1           1           1           1           1           1           1
 AtmWgt=   1.0078250   1.0078250   1.0078250   1.0078250   1.0078250   1.0078250   1.0078250   1.0078250   1.0078250   1.0078250
 NucSpn=           1           1           1           1           1           1           1           1           1           1
 AtZEff=  -0.0000000  -0.0000000  -0.0000000  -0.0000000  -0.0000000  -0.0000000  -0.0000000  -0.0000000  -0.0000000  -0.0000000
 NQMom=    0.0000000   0.0000000   0.0000000   0.0000000   0.0000000   0.0000000   0.0000000   0.0000000   0.0000000   0.0000000
 NMagM=    2.7928460   2.7928460   2.7928460   2.7928460   2.7928460   2.7928460   2.7928460   2.7928460   2.7928460   2.7928460
 AtZNuc=   1.0000000   1.0000000   1.0000000   1.0000000   1.0000000   1.0000000   1.0000000   1.0000000   1.0000000   1.0000000

  Atom        71          72          73          74          75          76          77          78          79          80
 IAtWgt=           1           1           1           1           1           1           1           1           1           1
 AtmWgt=   1.0078250   1.0078250   1.0078250   1.0078250   1.0078250   1.0078250   1.0078250   1.0078250   1.0078250   1.0078250
 NucSpn=           1           1           1           1           1           1           1           1           1           1
 AtZEff=  -0.0000000  -0.0000000  -0.0000000  -0.0000000  -0.0000000  -0.0000000  -0.0000000  -0.0000000  -0.0000000  -0.0000000
 NQMom=    0.0000000   0.0000000   0.0000000   0.0000000   0.0000000   0.0000000   0.0000000   0.0000000   0.0000000   0.0000000
 NMagM=    2.7928460   2.7928460   2.7928460   2.7928460   2.7928460   2.7928460   2.7928460   2.7928460   2.7928460   2.7928460
 AtZNuc=   1.0000000   1.0000000   1.0000000   1.0000000   1.0000000   1.0000000   1.0000000   1.0000000   1.0000000   1.0000000

  Atom        81          82          83
 IAtWgt=           1           1           1
 AtmWgt=   1.0078250   1.0078250   1.0078250
 NucSpn=           1           1           1
 AtZEff=  -0.0000000  -0.0000000  -0.0000000
 NQMom=    0.0000000   0.0000000   0.0000000
 NMagM=    2.7928460   2.7928460   2.7928460
 AtZNuc=   1.0000000   1.0000000   1.0000000
 Leave Link  101 at Sat Nov  5 00:46:49 2022, MaxMem=   805306368 cpu:               1.8 elap:               0.3
 (Enter /home/wykgroup/appl/g16/l103.exe)

 GradGradGradGradGradGradGradGradGradGradGradGradGradGradGradGradGradGrad
 Berny optimization.
 Initialization pass.
                           ----------------------------
                           !    Initial Parameters    !
                           ! (Angstroms and Degrees)  !
 --------------------------                            --------------------------
 ! Name  Definition              Value          Derivative Info.                !
 --------------------------------------------------------------------------------
 ! R1    R(1,2)                  1.385          estimate D2E/DX2                !
 ! R2    R(1,53)                 1.385          estimate D2E/DX2                !
 ! R3    R(1,54)                 1.0796         estimate D2E/DX2                !
 ! R4    R(2,3)                  1.3824         estimate D2E/DX2                !
 ! R5    R(2,55)                 1.0801         estimate D2E/DX2                !
 ! R6    R(3,4)                  1.3921         estimate D2E/DX2                !
 ! R7    R(3,56)                 1.0798         estimate D2E/DX2                !
 ! R8    R(4,5)                  1.4013         estimate D2E/DX2                !
 ! R9    R(4,52)                 1.392          estimate D2E/DX2                !
 ! R10   R(5,6)                  1.3811         estimate D2E/DX2                !
 ! R11   R(5,51)                 1.3807         estimate D2E/DX2                !
 ! R12   R(6,7)                  1.3875         estimate D2E/DX2                !
 ! R13   R(6,11)                 1.4139         estimate D2E/DX2                !
 ! R14   R(7,8)                  1.3818         estimate D2E/DX2                !
 ! R15   R(7,57)                 1.0797         estimate D2E/DX2                !
 ! R16   R(8,9)                  1.3931         estimate D2E/DX2                !
 ! R17   R(8,58)                 1.0802         estimate D2E/DX2                !
 ! R18   R(9,10)                 1.3805         estimate D2E/DX2                !
 ! R19   R(9,59)                 1.0799         estimate D2E/DX2                !
 ! R20   R(10,11)                1.3884         estimate D2E/DX2                !
 ! R21   R(10,60)                1.0796         estimate D2E/DX2                !
 ! R22   R(11,12)                1.4365         estimate D2E/DX2                !
 ! R23   R(12,13)                1.3861         estimate D2E/DX2                !
 ! R24   R(12,51)                1.4134         estimate D2E/DX2                !
 ! R25   R(13,14)                1.3889         estimate D2E/DX2                !
 ! R26   R(13,61)                1.0796         estimate D2E/DX2                !
 ! R27   R(14,15)                1.4709         estimate D2E/DX2                !
 ! R28   R(14,49)                1.4016         estimate D2E/DX2                !
 ! R29   R(15,16)                1.3999         estimate D2E/DX2                !
 ! R30   R(15,20)                1.3903         estimate D2E/DX2                !
 ! R31   R(16,17)                1.3818         estimate D2E/DX2                !
 ! R32   R(16,62)                1.08           estimate D2E/DX2                !
 ! R33   R(17,18)                1.3848         estimate D2E/DX2                !
 ! R34   R(17,63)                1.0769         estimate D2E/DX2                !
 ! R35   R(18,19)                1.4105         estimate D2E/DX2                !
 ! R36   R(18,27)                1.3908         estimate D2E/DX2                !
 ! R37   R(19,20)                1.3849         estimate D2E/DX2                !
 ! R38   R(19,21)                1.4397         estimate D2E/DX2                !
 ! R39   R(20,64)                1.0796         estimate D2E/DX2                !
 ! R40   R(21,22)                1.3874         estimate D2E/DX2                !
 ! R41   R(21,26)                1.411          estimate D2E/DX2                !
 ! R42   R(22,23)                1.3817         estimate D2E/DX2                !
 ! R43   R(22,65)                1.0796         estimate D2E/DX2                !
 ! R44   R(23,24)                1.3913         estimate D2E/DX2                !
 ! R45   R(23,66)                1.0801         estimate D2E/DX2                !
 ! R46   R(24,25)                1.384          estimate D2E/DX2                !
 ! R47   R(24,67)                1.0799         estimate D2E/DX2                !
 ! R48   R(25,26)                1.3851         estimate D2E/DX2                !
 ! R49   R(25,68)                1.0767         estimate D2E/DX2                !
 ! R50   R(26,27)                1.3932         estimate D2E/DX2                !
 ! R51   R(27,28)                1.3596         estimate D2E/DX2                !
 ! R52   R(28,29)                1.3446         estimate D2E/DX2                !
 ! R53   R(28,48)                1.3359         estimate D2E/DX2                !
 ! R54   R(29,30)                1.3254         estimate D2E/DX2                !
 ! R55   R(30,31)                1.4088         estimate D2E/DX2                !
 ! R56   R(30,47)                1.3851         estimate D2E/DX2                !
 ! R57   R(31,32)                1.464          estimate D2E/DX2                !
 ! R58   R(31,44)                1.3814         estimate D2E/DX2                !
 ! R59   R(32,33)                1.395          estimate D2E/DX2                !
 ! R60   R(32,43)                1.3954         estimate D2E/DX2                !
 ! R61   R(33,34)                1.3796         estimate D2E/DX2                !
 ! R62   R(33,69)                1.0803         estimate D2E/DX2                !
 ! R63   R(34,35)                1.3938         estimate D2E/DX2                !
 ! R64   R(34,70)                1.08           estimate D2E/DX2                !
 ! R65   R(35,36)                1.4682         estimate D2E/DX2                !
 ! R66   R(35,42)                1.3952         estimate D2E/DX2                !
 ! R67   R(36,37)                1.3973         estimate D2E/DX2                !
 ! R68   R(36,41)                1.3329         estimate D2E/DX2                !
 ! R69   R(37,38)                1.383          estimate D2E/DX2                !
 ! R70   R(37,71)                1.0788         estimate D2E/DX2                !
 ! R71   R(38,39)                1.3862         estimate D2E/DX2                !
 ! R72   R(38,72)                1.081          estimate D2E/DX2                !
 ! R73   R(39,40)                1.3873         estimate D2E/DX2                !
 ! R74   R(39,73)                1.0788         estimate D2E/DX2                !
 ! R75   R(40,41)                1.317          estimate D2E/DX2                !
 ! R76   R(40,74)                1.0829         estimate D2E/DX2                !
 ! R77   R(42,43)                1.3779         estimate D2E/DX2                !
 ! R78   R(42,75)                1.0787         estimate D2E/DX2                !
 ! R79   R(43,76)                1.078          estimate D2E/DX2                !
 ! R80   R(44,45)                1.4014         estimate D2E/DX2                !
 ! R81   R(44,77)                1.0787         estimate D2E/DX2                !
 ! R82   R(45,46)                1.3667         estimate D2E/DX2                !
 ! R83   R(45,78)                1.0776         estimate D2E/DX2                !
 ! R84   R(46,47)                1.3427         estimate D2E/DX2                !
 ! R85   R(46,79)                1.0775         estimate D2E/DX2                !
 ! R86   R(47,48)                1.3306         estimate D2E/DX2                !
 ! R87   R(49,50)                1.3797         estimate D2E/DX2                !
 ! R88   R(49,80)                1.08           estimate D2E/DX2                !
 ! R89   R(50,51)                1.3876         estimate D2E/DX2                !
 ! R90   R(50,81)                1.0798         estimate D2E/DX2                !
 ! R91   R(52,53)                1.3824         estimate D2E/DX2                !
 ! R92   R(52,82)                1.0798         estimate D2E/DX2                !
 ! R93   R(53,83)                1.0801         estimate D2E/DX2                !
 ! A1    A(2,1,53)             119.7909         estimate D2E/DX2                !
 ! A2    A(2,1,54)             120.1066         estimate D2E/DX2                !
 ! A3    A(53,1,54)            120.1026         estimate D2E/DX2                !
 ! A4    A(1,2,3)              120.3184         estimate D2E/DX2                !
 ! A5    A(1,2,55)             120.0482         estimate D2E/DX2                !
 ! A6    A(3,2,55)             119.6311         estimate D2E/DX2                !
 ! A7    A(2,3,4)              119.9647         estimate D2E/DX2                !
 ! A8    A(2,3,56)             120.5282         estimate D2E/DX2                !
 ! A9    A(4,3,56)             119.5012         estimate D2E/DX2                !
 ! A10   A(3,4,5)              120.1645         estimate D2E/DX2                !
 ! A11   A(3,4,52)             119.6402         estimate D2E/DX2                !
 ! A12   A(5,4,52)             120.1953         estimate D2E/DX2                !
 ! A13   A(4,5,6)              125.8616         estimate D2E/DX2                !
 ! A14   A(4,5,51)             125.8082         estimate D2E/DX2                !
 ! A15   A(6,5,51)             108.3301         estimate D2E/DX2                !
 ! A16   A(5,6,7)              129.5967         estimate D2E/DX2                !
 ! A17   A(5,6,11)             109.316          estimate D2E/DX2                !
 ! A18   A(7,6,11)             121.0322         estimate D2E/DX2                !
 ! A19   A(6,7,8)              117.8371         estimate D2E/DX2                !
 ! A20   A(6,7,57)             121.2616         estimate D2E/DX2                !
 ! A21   A(8,7,57)             120.8972         estimate D2E/DX2                !
 ! A22   A(7,8,9)              121.5025         estimate D2E/DX2                !
 ! A23   A(7,8,58)             119.2252         estimate D2E/DX2                !
 ! A24   A(9,8,58)             119.2719         estimate D2E/DX2                !
 ! A25   A(8,9,10)             120.9243         estimate D2E/DX2                !
 ! A26   A(8,9,59)             119.2432         estimate D2E/DX2                !
 ! A27   A(10,9,59)            119.8299         estimate D2E/DX2                !
 ! A28   A(9,10,11)            118.6328         estimate D2E/DX2                !
 ! A29   A(9,10,60)            120.9799         estimate D2E/DX2                !
 ! A30   A(11,10,60)           120.3869         estimate D2E/DX2                !
 ! A31   A(6,11,10)            120.0471         estimate D2E/DX2                !
 ! A32   A(6,11,12)            106.5069         estimate D2E/DX2                !
 ! A33   A(10,11,12)           133.4416         estimate D2E/DX2                !
 ! A34   A(11,12,13)           133.2646         estimate D2E/DX2                !
 ! A35   A(11,12,51)           106.4706         estimate D2E/DX2                !
 ! A36   A(13,12,51)           120.2618         estimate D2E/DX2                !
 ! A37   A(12,13,14)           119.2859         estimate D2E/DX2                !
 ! A38   A(12,13,61)           120.2572         estimate D2E/DX2                !
 ! A39   A(14,13,61)           120.4363         estimate D2E/DX2                !
 ! A40   A(13,14,15)           120.2691         estimate D2E/DX2                !
 ! A41   A(13,14,49)           119.5342         estimate D2E/DX2                !
 ! A42   A(15,14,49)           120.196          estimate D2E/DX2                !
 ! A43   A(14,15,16)           120.362          estimate D2E/DX2                !
 ! A44   A(14,15,20)           120.1857         estimate D2E/DX2                !
 ! A45   A(16,15,20)           119.4521         estimate D2E/DX2                !
 ! A46   A(15,16,17)           122.2252         estimate D2E/DX2                !
 ! A47   A(15,16,62)           118.7925         estimate D2E/DX2                !
 ! A48   A(17,16,62)           118.969          estimate D2E/DX2                !
 ! A49   A(16,17,18)           117.8986         estimate D2E/DX2                !
 ! A50   A(16,17,63)           121.5147         estimate D2E/DX2                !
 ! A51   A(18,17,63)           120.5866         estimate D2E/DX2                !
 ! A52   A(17,18,19)           120.8421         estimate D2E/DX2                !
 ! A53   A(17,18,27)           129.9787         estimate D2E/DX2                !
 ! A54   A(19,18,27)           109.1789         estimate D2E/DX2                !
 ! A55   A(18,19,20)           120.369          estimate D2E/DX2                !
 ! A56   A(18,19,21)           106.749          estimate D2E/DX2                !
 ! A57   A(20,19,21)           132.882          estimate D2E/DX2                !
 ! A58   A(15,20,19)           119.2123         estimate D2E/DX2                !
 ! A59   A(15,20,64)           120.4609         estimate D2E/DX2                !
 ! A60   A(19,20,64)           120.3133         estimate D2E/DX2                !
 ! A61   A(19,21,22)           132.949          estimate D2E/DX2                !
 ! A62   A(19,21,26)           106.8498         estimate D2E/DX2                !
 ! A63   A(22,21,26)           120.2011         estimate D2E/DX2                !
 ! A64   A(21,22,23)           118.5376         estimate D2E/DX2                !
 ! A65   A(21,22,65)           120.4206         estimate D2E/DX2                !
 ! A66   A(23,22,65)           121.0417         estimate D2E/DX2                !
 ! A67   A(22,23,24)           120.83           estimate D2E/DX2                !
 ! A68   A(22,23,66)           119.744          estimate D2E/DX2                !
 ! A69   A(24,23,66)           119.4257         estimate D2E/DX2                !
 ! A70   A(23,24,25)           121.6131         estimate D2E/DX2                !
 ! A71   A(23,24,67)           119.3568         estimate D2E/DX2                !
 ! A72   A(25,24,67)           119.03           estimate D2E/DX2                !
 ! A73   A(24,25,26)           117.6939         estimate D2E/DX2                !
 ! A74   A(24,25,68)           121.4763         estimate D2E/DX2                !
 ! A75   A(26,25,68)           120.829          estimate D2E/DX2                !
 ! A76   A(21,26,25)           121.1224         estimate D2E/DX2                !
 ! A77   A(21,26,27)           109.0177         estimate D2E/DX2                !
 ! A78   A(25,26,27)           129.858          estimate D2E/DX2                !
 ! A79   A(18,27,26)           108.2038         estimate D2E/DX2                !
 ! A80   A(18,27,28)           126.0005         estimate D2E/DX2                !
 ! A81   A(26,27,28)           125.7904         estimate D2E/DX2                !
 ! A82   A(27,28,29)           122.5949         estimate D2E/DX2                !
 ! A83   A(27,28,48)           123.1973         estimate D2E/DX2                !
 ! A84   A(29,28,48)           114.2067         estimate D2E/DX2                !
 ! A85   A(28,29,30)           104.243          estimate D2E/DX2                !
 ! A86   A(29,30,31)           131.9625         estimate D2E/DX2                !
 ! A87   A(29,30,47)           108.4313         estimate D2E/DX2                !
 ! A88   A(31,30,47)           119.5984         estimate D2E/DX2                !
 ! A89   A(30,31,32)           120.4214         estimate D2E/DX2                !
 ! A90   A(30,31,44)           116.6468         estimate D2E/DX2                !
 ! A91   A(32,31,44)           122.9319         estimate D2E/DX2                !
 ! A92   A(31,32,33)           120.724          estimate D2E/DX2                !
 ! A93   A(31,32,43)           120.7841         estimate D2E/DX2                !
 ! A94   A(33,32,43)           118.4904         estimate D2E/DX2                !
 ! A95   A(32,33,34)           120.8525         estimate D2E/DX2                !
 ! A96   A(32,33,69)           119.8151         estimate D2E/DX2                !
 ! A97   A(34,33,69)           119.3065         estimate D2E/DX2                !
 ! A98   A(33,34,35)           120.6336         estimate D2E/DX2                !
 ! A99   A(33,34,70)           119.0813         estimate D2E/DX2                !
 ! A100  A(35,34,70)           120.2611         estimate D2E/DX2                !
 ! A101  A(34,35,36)           122.2203         estimate D2E/DX2                !
 ! A102  A(34,35,42)           118.485          estimate D2E/DX2                !
 ! A103  A(36,35,42)           119.2901         estimate D2E/DX2                !
 ! A104  A(35,36,37)           122.4072         estimate D2E/DX2                !
 ! A105  A(35,36,41)           116.1053         estimate D2E/DX2                !
 ! A106  A(37,36,41)           121.4801         estimate D2E/DX2                !
 ! A107  A(36,37,38)           118.9878         estimate D2E/DX2                !
 ! A108  A(36,37,71)           120.6821         estimate D2E/DX2                !
 ! A109  A(38,37,71)           120.3174         estimate D2E/DX2                !
 ! A110  A(37,38,39)           119.0446         estimate D2E/DX2                !
 ! A111  A(37,38,72)           120.364          estimate D2E/DX2                !
 ! A112  A(39,38,72)           120.591          estimate D2E/DX2                !
 ! A113  A(38,39,40)           117.7621         estimate D2E/DX2                !
 ! A114  A(38,39,73)           121.3281         estimate D2E/DX2                !
 ! A115  A(40,39,73)           120.9083         estimate D2E/DX2                !
 ! A116  A(39,40,41)           123.5929         estimate D2E/DX2                !
 ! A117  A(39,40,74)           121.0603         estimate D2E/DX2                !
 ! A118  A(41,40,74)           115.3468         estimate D2E/DX2                !
 ! A119  A(36,41,40)           119.1196         estimate D2E/DX2                !
 ! A120  A(35,42,43)           120.927          estimate D2E/DX2                !
 ! A121  A(35,42,75)           118.3878         estimate D2E/DX2                !
 ! A122  A(43,42,75)           120.6851         estimate D2E/DX2                !
 ! A123  A(32,43,42)           120.6001         estimate D2E/DX2                !
 ! A124  A(32,43,76)           119.2157         estimate D2E/DX2                !
 ! A125  A(42,43,76)           120.1838         estimate D2E/DX2                !
 ! A126  A(31,44,45)           121.6931         estimate D2E/DX2                !
 ! A127  A(31,44,77)           119.4855         estimate D2E/DX2                !
 ! A128  A(45,44,77)           118.8094         estimate D2E/DX2                !
 ! A129  A(44,45,46)           120.5136         estimate D2E/DX2                !
 ! A130  A(44,45,78)           119.9682         estimate D2E/DX2                !
 ! A131  A(46,45,78)           119.5181         estimate D2E/DX2                !
 ! A132  A(45,46,47)           118.194          estimate D2E/DX2                !
 ! A133  A(45,46,79)           124.8603         estimate D2E/DX2                !
 ! A134  A(47,46,79)           116.9456         estimate D2E/DX2                !
 ! A135  A(30,47,46)           123.3496         estimate D2E/DX2                !
 ! A136  A(30,47,48)           109.6083         estimate D2E/DX2                !
 ! A137  A(46,47,48)           127.042          estimate D2E/DX2                !
 ! A138  A(28,48,47)           103.5105         estimate D2E/DX2                !
 ! A139  A(14,49,50)           122.1559         estimate D2E/DX2                !
 ! A140  A(14,49,80)           118.7863         estimate D2E/DX2                !
 ! A141  A(50,49,80)           119.0478         estimate D2E/DX2                !
 ! A142  A(49,50,51)           118.0246         estimate D2E/DX2                !
 ! A143  A(49,50,81)           120.7107         estimate D2E/DX2                !
 ! A144  A(51,50,81)           121.2628         estimate D2E/DX2                !
 ! A145  A(5,51,12)            109.3759         estimate D2E/DX2                !
 ! A146  A(5,51,50)            129.8527         estimate D2E/DX2                !
 ! A147  A(12,51,50)           120.7146         estimate D2E/DX2                !
 ! A148  A(4,52,53)            119.9658         estimate D2E/DX2                !
 ! A149  A(4,52,82)            119.5059         estimate D2E/DX2                !
 ! A150  A(53,52,82)           120.5225         estimate D2E/DX2                !
 ! A151  A(1,53,52)            120.3168         estimate D2E/DX2                !
 ! A152  A(1,53,83)            120.0476         estimate D2E/DX2                !
 ! A153  A(52,53,83)           119.6334         estimate D2E/DX2                !
 ! D1    D(53,1,2,3)             0.2793         estimate D2E/DX2                !
 ! D2    D(53,1,2,55)          179.7333         estimate D2E/DX2                !
 ! D3    D(54,1,2,3)          -179.7216         estimate D2E/DX2                !
 ! D4    D(54,1,2,55)           -0.2676         estimate D2E/DX2                !
 ! D5    D(2,1,53,52)            0.2493         estimate D2E/DX2                !
 ! D6    D(2,1,53,83)          179.7166         estimate D2E/DX2                !
 ! D7    D(54,1,53,52)        -179.7498         estimate D2E/DX2                !
 ! D8    D(54,1,53,83)          -0.2825         estimate D2E/DX2                !
 ! D9    D(1,2,3,4)             -0.5194         estimate D2E/DX2                !
 ! D10   D(1,2,3,56)           178.5907         estimate D2E/DX2                !
 ! D11   D(55,2,3,4)          -179.9756         estimate D2E/DX2                !
 ! D12   D(55,2,3,56)           -0.8655         estimate D2E/DX2                !
 ! D13   D(2,3,4,5)           -179.7632         estimate D2E/DX2                !
 ! D14   D(2,3,4,52)             0.2331         estimate D2E/DX2                !
 ! D15   D(56,3,4,5)             1.1174         estimate D2E/DX2                !
 ! D16   D(56,3,4,52)         -178.8862         estimate D2E/DX2                !
 ! D17   D(3,4,5,6)           -129.4914         estimate D2E/DX2                !
 ! D18   D(3,4,5,51)            50.3823         estimate D2E/DX2                !
 ! D19   D(52,4,5,6)            50.5123         estimate D2E/DX2                !
 ! D20   D(52,4,5,51)         -129.614          estimate D2E/DX2                !
 ! D21   D(3,4,52,53)            0.2914         estimate D2E/DX2                !
 ! D22   D(3,4,52,82)         -178.8384         estimate D2E/DX2                !
 ! D23   D(5,4,52,53)         -179.7122         estimate D2E/DX2                !
 ! D24   D(5,4,52,82)            1.158          estimate D2E/DX2                !
 ! D25   D(4,5,6,7)              2.5892         estimate D2E/DX2                !
 ! D26   D(4,5,6,11)           179.8607         estimate D2E/DX2                !
 ! D27   D(51,5,6,7)          -177.3029         estimate D2E/DX2                !
 ! D28   D(51,5,6,11)           -0.0314         estimate D2E/DX2                !
 ! D29   D(4,5,51,12)          179.9931         estimate D2E/DX2                !
 ! D30   D(4,5,51,50)            2.7709         estimate D2E/DX2                !
 ! D31   D(6,5,51,12)           -0.1147         estimate D2E/DX2                !
 ! D32   D(6,5,51,50)         -177.3369         estimate D2E/DX2                !
 ! D33   D(5,6,7,8)            178.5995         estimate D2E/DX2                !
 ! D34   D(5,6,7,57)            -0.6684         estimate D2E/DX2                !
 ! D35   D(11,6,7,8)             1.6047         estimate D2E/DX2                !
 ! D36   D(11,6,7,57)         -177.6632         estimate D2E/DX2                !
 ! D37   D(5,6,11,10)         -179.1825         estimate D2E/DX2                !
 ! D38   D(5,6,11,12)            0.1607         estimate D2E/DX2                !
 ! D39   D(7,6,11,10)           -1.6359         estimate D2E/DX2                !
 ! D40   D(7,6,11,12)          177.7073         estimate D2E/DX2                !
 ! D41   D(6,7,8,9)             -0.4207         estimate D2E/DX2                !
 ! D42   D(6,7,8,58)           179.8108         estimate D2E/DX2                !
 ! D43   D(57,7,8,9)           178.85           estimate D2E/DX2                !
 ! D44   D(57,7,8,58)           -0.9185         estimate D2E/DX2                !
 ! D45   D(7,8,9,10)            -0.7719         estimate D2E/DX2                !
 ! D46   D(7,8,9,59)           179.8104         estimate D2E/DX2                !
 ! D47   D(58,8,9,10)          178.9965         estimate D2E/DX2                !
 ! D48   D(58,8,9,59)           -0.4212         estimate D2E/DX2                !
 ! D49   D(8,9,10,11)            0.7544         estimate D2E/DX2                !
 ! D50   D(8,9,10,60)         -179.0077         estimate D2E/DX2                !
 ! D51   D(59,9,10,11)        -179.8313         estimate D2E/DX2                !
 ! D52   D(59,9,10,60)           0.4066         estimate D2E/DX2                !
 ! D53   D(9,10,11,6)            0.4218         estimate D2E/DX2                !
 ! D54   D(9,10,11,12)        -178.7109         estimate D2E/DX2                !
 ! D55   D(60,10,11,6)        -179.8147         estimate D2E/DX2                !
 ! D56   D(60,10,11,12)          1.0527         estimate D2E/DX2                !
 ! D57   D(6,11,12,13)         179.1247         estimate D2E/DX2                !
 ! D58   D(6,11,12,51)          -0.2241         estimate D2E/DX2                !
 ! D59   D(10,11,12,13)         -1.6583         estimate D2E/DX2                !
 ! D60   D(10,11,12,51)        178.9928         estimate D2E/DX2                !
 ! D61   D(11,12,13,14)       -178.5742         estimate D2E/DX2                !
 ! D62   D(11,12,13,61)         -0.2137         estimate D2E/DX2                !
 ! D63   D(51,12,13,14)          0.7029         estimate D2E/DX2                !
 ! D64   D(51,12,13,61)        179.0634         estimate D2E/DX2                !
 ! D65   D(11,12,51,5)           0.2116         estimate D2E/DX2                !
 ! D66   D(11,12,51,50)        177.7313         estimate D2E/DX2                !
 ! D67   D(13,12,51,5)        -179.2395         estimate D2E/DX2                !
 ! D68   D(13,12,51,50)         -1.7197         estimate D2E/DX2                !
 ! D69   D(12,13,14,15)       -179.7415         estimate D2E/DX2                !
 ! D70   D(12,13,14,49)          0.5404         estimate D2E/DX2                !
 ! D71   D(61,13,14,15)          1.901          estimate D2E/DX2                !
 ! D72   D(61,13,14,49)       -177.817          estimate D2E/DX2                !
 ! D73   D(13,14,15,16)       -138.2952         estimate D2E/DX2                !
 ! D74   D(13,14,15,20)         41.5142         estimate D2E/DX2                !
 ! D75   D(49,14,15,16)         41.421          estimate D2E/DX2                !
 ! D76   D(49,14,15,20)       -138.7697         estimate D2E/DX2                !
 ! D77   D(13,14,49,50)         -0.8349         estimate D2E/DX2                !
 ! D78   D(13,14,49,80)       -179.6745         estimate D2E/DX2                !
 ! D79   D(15,14,49,50)        179.4468         estimate D2E/DX2                !
 ! D80   D(15,14,49,80)          0.6072         estimate D2E/DX2                !
 ! D81   D(14,15,16,17)        179.8365         estimate D2E/DX2                !
 ! D82   D(14,15,16,62)          1.1791         estimate D2E/DX2                !
 ! D83   D(20,15,16,17)          0.0257         estimate D2E/DX2                !
 ! D84   D(20,15,16,62)       -178.6316         estimate D2E/DX2                !
 ! D85   D(14,15,20,19)        179.9502         estimate D2E/DX2                !
 ! D86   D(14,15,20,64)          1.2799         estimate D2E/DX2                !
 ! D87   D(16,15,20,19)         -0.2387         estimate D2E/DX2                !
 ! D88   D(16,15,20,64)       -178.909          estimate D2E/DX2                !
 ! D89   D(15,16,17,18)          0.2003         estimate D2E/DX2                !
 ! D90   D(15,16,17,63)       -179.6813         estimate D2E/DX2                !
 ! D91   D(62,16,17,18)        178.8553         estimate D2E/DX2                !
 ! D92   D(62,16,17,63)         -1.0262         estimate D2E/DX2                !
 ! D93   D(16,17,18,19)         -0.2143         estimate D2E/DX2                !
 ! D94   D(16,17,18,27)       -179.9808         estimate D2E/DX2                !
 ! D95   D(63,17,18,19)        179.6684         estimate D2E/DX2                !
 ! D96   D(63,17,18,27)         -0.0981         estimate D2E/DX2                !
 ! D97   D(17,18,19,20)          0.0052         estimate D2E/DX2                !
 ! D98   D(17,18,19,21)        179.9491         estimate D2E/DX2                !
 ! D99   D(27,18,19,20)        179.8158         estimate D2E/DX2                !
 ! D100  D(27,18,19,21)         -0.2403         estimate D2E/DX2                !
 ! D101  D(17,18,27,26)       -179.9215         estimate D2E/DX2                !
 ! D102  D(17,18,27,28)          0.8803         estimate D2E/DX2                !
 ! D103  D(19,18,27,26)          0.2907         estimate D2E/DX2                !
 ! D104  D(19,18,27,28)       -178.9075         estimate D2E/DX2                !
 ! D105  D(18,19,20,15)          0.2243         estimate D2E/DX2                !
 ! D106  D(18,19,20,64)        178.8965         estimate D2E/DX2                !
 ! D107  D(21,19,20,15)       -179.7024         estimate D2E/DX2                !
 ! D108  D(21,19,20,64)         -1.0301         estimate D2E/DX2                !
 ! D109  D(18,19,21,22)       -179.8042         estimate D2E/DX2                !
 ! D110  D(18,19,21,26)          0.0993         estimate D2E/DX2                !
 ! D111  D(20,19,21,22)          0.1298         estimate D2E/DX2                !
 ! D112  D(20,19,21,26)       -179.9668         estimate D2E/DX2                !
 ! D113  D(19,21,22,23)        179.7775         estimate D2E/DX2                !
 ! D114  D(19,21,22,65)         -0.1121         estimate D2E/DX2                !
 ! D115  D(26,21,22,23)         -0.1156         estimate D2E/DX2                !
 ! D116  D(26,21,22,65)        179.9948         estimate D2E/DX2                !
 ! D117  D(19,21,26,25)       -179.4678         estimate D2E/DX2                !
 ! D118  D(19,21,26,27)          0.0763         estimate D2E/DX2                !
 ! D119  D(22,21,26,25)          0.4504         estimate D2E/DX2                !
 ! D120  D(22,21,26,27)        179.9945         estimate D2E/DX2                !
 ! D121  D(21,22,23,24)         -0.2182         estimate D2E/DX2                !
 ! D122  D(21,22,23,66)        179.9647         estimate D2E/DX2                !
 ! D123  D(65,22,23,24)        179.6707         estimate D2E/DX2                !
 ! D124  D(65,22,23,66)         -0.1464         estimate D2E/DX2                !
 ! D125  D(22,23,24,25)          0.2341         estimate D2E/DX2                !
 ! D126  D(22,23,24,67)       -179.6798         estimate D2E/DX2                !
 ! D127  D(66,23,24,25)       -179.9483         estimate D2E/DX2                !
 ! D128  D(66,23,24,67)          0.1378         estimate D2E/DX2                !
 ! D129  D(23,24,25,26)          0.0942         estimate D2E/DX2                !
 ! D130  D(23,24,25,68)       -179.5784         estimate D2E/DX2                !
 ! D131  D(67,24,25,26)       -179.9916         estimate D2E/DX2                !
 ! D132  D(67,24,25,68)          0.3358         estimate D2E/DX2                !
 ! D133  D(24,25,26,21)         -0.4308         estimate D2E/DX2                !
 ! D134  D(24,25,26,27)       -179.8693         estimate D2E/DX2                !
 ! D135  D(68,25,26,21)        179.244          estimate D2E/DX2                !
 ! D136  D(68,25,26,27)         -0.1946         estimate D2E/DX2                !
 ! D137  D(21,26,27,18)         -0.2262         estimate D2E/DX2                !
 ! D138  D(21,26,27,28)        178.9742         estimate D2E/DX2                !
 ! D139  D(25,26,27,18)        179.2654         estimate D2E/DX2                !
 ! D140  D(25,26,27,28)         -1.5342         estimate D2E/DX2                !
 ! D141  D(18,27,28,29)        175.8073         estimate D2E/DX2                !
 ! D142  D(18,27,28,48)         -3.7773         estimate D2E/DX2                !
 ! D143  D(26,27,28,29)         -3.2538         estimate D2E/DX2                !
 ! D144  D(26,27,28,48)        177.1617         estimate D2E/DX2                !
 ! D145  D(27,28,29,30)       -179.6253         estimate D2E/DX2                !
 ! D146  D(48,28,29,30)         -0.0065         estimate D2E/DX2                !
 ! D147  D(27,28,48,47)        179.7095         estimate D2E/DX2                !
 ! D148  D(29,28,48,47)          0.0932         estimate D2E/DX2                !
 ! D149  D(28,29,30,31)       -179.0268         estimate D2E/DX2                !
 ! D150  D(28,29,30,47)         -0.0817         estimate D2E/DX2                !
 ! D151  D(29,30,31,32)         -0.4291         estimate D2E/DX2                !
 ! D152  D(29,30,31,44)        179.5983         estimate D2E/DX2                !
 ! D153  D(47,30,31,32)       -179.278          estimate D2E/DX2                !
 ! D154  D(47,30,31,44)          0.7493         estimate D2E/DX2                !
 ! D155  D(29,30,47,46)       -179.79           estimate D2E/DX2                !
 ! D156  D(29,30,47,48)          0.1455         estimate D2E/DX2                !
 ! D157  D(31,30,47,46)         -0.6922         estimate D2E/DX2                !
 ! D158  D(31,30,47,48)        179.2433         estimate D2E/DX2                !
 ! D159  D(30,31,32,33)        147.6782         estimate D2E/DX2                !
 ! D160  D(30,31,32,43)        -31.8685         estimate D2E/DX2                !
 ! D161  D(44,31,32,33)        -32.351          estimate D2E/DX2                !
 ! D162  D(44,31,32,43)        148.1023         estimate D2E/DX2                !
 ! D163  D(30,31,44,45)         -0.3327         estimate D2E/DX2                !
 ! D164  D(30,31,44,77)        178.3917         estimate D2E/DX2                !
 ! D165  D(32,31,44,45)        179.6954         estimate D2E/DX2                !
 ! D166  D(32,31,44,77)         -1.5802         estimate D2E/DX2                !
 ! D167  D(31,32,33,34)        179.6743         estimate D2E/DX2                !
 ! D168  D(31,32,33,69)         -2.1865         estimate D2E/DX2                !
 ! D169  D(43,32,33,34)         -0.7688         estimate D2E/DX2                !
 ! D170  D(43,32,33,69)        177.3705         estimate D2E/DX2                !
 ! D171  D(31,32,43,42)       -179.7416         estimate D2E/DX2                !
 ! D172  D(31,32,43,76)          0.0412         estimate D2E/DX2                !
 ! D173  D(33,32,43,42)          0.7017         estimate D2E/DX2                !
 ! D174  D(33,32,43,76)       -179.5155         estimate D2E/DX2                !
 ! D175  D(32,33,34,35)         -0.0499         estimate D2E/DX2                !
 ! D176  D(32,33,34,70)        178.1729         estimate D2E/DX2                !
 ! D177  D(69,33,34,35)       -178.1984         estimate D2E/DX2                !
 ! D178  D(69,33,34,70)          0.0243         estimate D2E/DX2                !
 ! D179  D(33,34,35,36)       -179.8535         estimate D2E/DX2                !
 ! D180  D(33,34,35,42)          0.9288         estimate D2E/DX2                !
 ! D181  D(70,34,35,36)          1.9447         estimate D2E/DX2                !
 ! D182  D(70,34,35,42)       -177.273          estimate D2E/DX2                !
 ! D183  D(34,35,36,37)         25.5639         estimate D2E/DX2                !
 ! D184  D(34,35,36,41)       -155.4117         estimate D2E/DX2                !
 ! D185  D(42,35,36,37)       -155.2245         estimate D2E/DX2                !
 ! D186  D(42,35,36,41)         23.7999         estimate D2E/DX2                !
 ! D187  D(34,35,42,43)         -0.9969         estimate D2E/DX2                !
 ! D188  D(34,35,42,75)        179.086          estimate D2E/DX2                !
 ! D189  D(36,35,42,43)        179.7619         estimate D2E/DX2                !
 ! D190  D(36,35,42,75)         -0.1551         estimate D2E/DX2                !
 ! D191  D(35,36,37,38)       -179.9568         estimate D2E/DX2                !
 ! D192  D(35,36,37,71)          1.3365         estimate D2E/DX2                !
 ! D193  D(41,36,37,38)          1.0706         estimate D2E/DX2                !
 ! D194  D(41,36,37,71)       -177.6361         estimate D2E/DX2                !
 ! D195  D(35,36,41,40)        179.8434         estimate D2E/DX2                !
 ! D196  D(37,36,41,40)         -1.1225         estimate D2E/DX2                !
 ! D197  D(36,37,38,39)         -0.115          estimate D2E/DX2                !
 ! D198  D(36,37,38,72)       -179.8797         estimate D2E/DX2                !
 ! D199  D(71,37,38,39)        178.5966         estimate D2E/DX2                !
 ! D200  D(71,37,38,72)         -1.1681         estimate D2E/DX2                !
 ! D201  D(37,38,39,40)         -0.7178         estimate D2E/DX2                !
 ! D202  D(37,38,39,73)        179.7394         estimate D2E/DX2                !
 ! D203  D(72,38,39,40)        179.0464         estimate D2E/DX2                !
 ! D204  D(72,38,39,73)         -0.4964         estimate D2E/DX2                !
 ! D205  D(38,39,40,41)          0.6998         estimate D2E/DX2                !
 ! D206  D(38,39,40,74)       -179.3142         estimate D2E/DX2                !
 ! D207  D(73,39,40,41)       -179.7554         estimate D2E/DX2                !
 ! D208  D(73,39,40,74)          0.2306         estimate D2E/DX2                !
 ! D209  D(39,40,41,36)          0.2255         estimate D2E/DX2                !
 ! D210  D(74,40,41,36)       -179.7612         estimate D2E/DX2                !
 ! D211  D(35,42,43,32)          0.183          estimate D2E/DX2                !
 ! D212  D(35,42,43,76)       -179.5977         estimate D2E/DX2                !
 ! D213  D(75,42,43,32)       -179.9018         estimate D2E/DX2                !
 ! D214  D(75,42,43,76)          0.3174         estimate D2E/DX2                !
 ! D215  D(31,44,45,46)         -0.1896         estimate D2E/DX2                !
 ! D216  D(31,44,45,78)        179.6837         estimate D2E/DX2                !
 ! D217  D(77,44,45,46)       -178.9223         estimate D2E/DX2                !
 ! D218  D(77,44,45,78)          0.951          estimate D2E/DX2                !
 ! D219  D(44,45,46,47)          0.2876         estimate D2E/DX2                !
 ! D220  D(44,45,46,79)       -179.8271         estimate D2E/DX2                !
 ! D221  D(78,45,46,47)       -179.5862         estimate D2E/DX2                !
 ! D222  D(78,45,46,79)          0.2991         estimate D2E/DX2                !
 ! D223  D(45,46,47,30)          0.1542         estimate D2E/DX2                !
 ! D224  D(45,46,47,48)       -179.7696         estimate D2E/DX2                !
 ! D225  D(79,46,47,30)       -179.7402         estimate D2E/DX2                !
 ! D226  D(79,46,47,48)          0.336          estimate D2E/DX2                !
 ! D227  D(30,47,48,28)         -0.1401         estimate D2E/DX2                !
 ! D228  D(46,47,48,28)        179.7923         estimate D2E/DX2                !
 ! D229  D(14,49,50,51)         -0.1549         estimate D2E/DX2                !
 ! D230  D(14,49,50,81)        179.3377         estimate D2E/DX2                !
 ! D231  D(80,49,50,51)        178.6818         estimate D2E/DX2                !
 ! D232  D(80,49,50,81)         -1.8257         estimate D2E/DX2                !
 ! D233  D(49,50,51,5)         178.3693         estimate D2E/DX2                !
 ! D234  D(49,50,51,12)          1.4175         estimate D2E/DX2                !
 ! D235  D(81,50,51,5)          -1.1203         estimate D2E/DX2                !
 ! D236  D(81,50,51,12)       -178.072          estimate D2E/DX2                !
 ! D237  D(4,52,53,1)           -0.5337         estimate D2E/DX2                !
 ! D238  D(4,52,53,83)         179.9968         estimate D2E/DX2                !
 ! D239  D(82,52,53,1)         178.5871         estimate D2E/DX2                !
 ! D240  D(82,52,53,83)         -0.8824         estimate D2E/DX2                !
 --------------------------------------------------------------------------------
 Trust Radius=3.00D-01 FncErr=1.00D-07 GrdErr=1.00D-06 EigMax=2.50D+02 EigMin=1.00D-04
 Number of steps in this run=    496 maximum allowed number of steps=    498.
 GradGradGradGradGradGradGradGradGradGradGradGradGradGradGradGradGradGrad

 Leave Link  103 at Sat Nov  5 00:46:49 2022, MaxMem=   805306368 cpu:               0.3 elap:               0.1
 (Enter /home/wykgroup/appl/g16/l202.exe)
 Stoichiometry    C47H30N6
 Framework group  C1[X(C47H30N6)]
 Deg. of freedom   243
 Full point group                 C1      NOp   1
 Largest Abelian subgroup         C1      NOp   1
 Largest concise Abelian subgroup C1      NOp   1
                         Standard orientation:                         
 ---------------------------------------------------------------------
 Center     Atomic      Atomic             Coordinates (Angstroms)
 Number     Number       Type             X           Y           Z
 ---------------------------------------------------------------------
      1          6           0       11.364863    2.231166    1.404071
      2          6           0       10.318228    1.897419    2.247552
      3          6           0        9.283999    1.099812    1.794518
      4          6           0        9.286469    0.637299    0.481525
      5          7           0        8.237687   -0.167394    0.016446
      6          6           0        8.374174   -1.373798   -0.641874
      7          6           0        9.523187   -2.087137   -0.951704
      8          6           0        9.375495   -3.298605   -1.599743
      9          6           0        8.117899   -3.800181   -1.927628
     10          6           0        6.970026   -3.106733   -1.599994
     11          6           0        7.092783   -1.886801   -0.948628
     12          6           0        6.141235   -0.933340   -0.449632
     13          6           0        4.756398   -0.875840   -0.465430
     14          6           0        4.115652    0.223572    0.091197
     15          6           0        2.646971    0.304238    0.091267
     16          6           0        2.004670    1.513029   -0.202141
     17          6           0        0.628058    1.631475   -0.216225
     18          6           0       -0.122259    0.504993    0.076670
     19          6           0        0.503675   -0.723386    0.374807
     20          6           0        1.885022   -0.822381    0.379359
     21          6           0       -0.547512   -1.673686    0.629311
     22          6           0       -0.543901   -3.018610    0.969905
     23          6           0       -1.755862   -3.656616    1.152288
     24          6           0       -2.954612   -2.966430    1.002720
     25          6           0       -2.981911   -1.625000    0.663270
     26          6           0       -1.768746   -0.984306    0.473099
     27          7           0       -1.502114    0.340373    0.133690
     28          6           0       -2.432424    1.300008   -0.115687
     29          7           0       -3.752653    1.045076   -0.120707
     30          6           0       -4.309285    2.213409   -0.406729
     31          6           0       -5.655109    2.608398   -0.539325
     32          6           0       -6.734356    1.635821   -0.358769
     33          6           0       -7.964472    2.026330    0.170676
     34          6           0       -8.985595    1.113376    0.335766
     35          6           0       -8.809954   -0.221548   -0.024693
     36          6           0       -9.873490   -1.221407    0.132903
     37          6           0      -11.228144   -0.878795    0.141503
     38          6           0      -12.171353   -1.878460    0.295614
     39          6           0      -11.745213   -3.190159    0.434479
     40          6           0      -10.380017   -3.433609    0.395786
     41          7           0       -9.475152   -2.488151    0.248455
     42          6           0       -7.573340   -0.615340   -0.536754
     43          6           0       -6.553212    0.295803   -0.703340
     44          6           0       -5.883970    3.936399   -0.843026
     45          6           0       -4.830914    4.846862   -1.004119
     46          6           0       -3.534015    4.440560   -0.859428
     47          7           0       -3.302223    3.150937   -0.566331
     48          7           0       -2.118869    2.570584   -0.383901
     49          6           0        4.878569    1.259179    0.647933
     50          6           0        6.257384    1.220252    0.679582
     51          6           0        6.890778    0.109638    0.140462
     52          6           0       10.336198    0.978567   -0.366607
     53          6           0       11.371400    1.767757    0.098894
     54          1           0       12.173022    2.850562    1.762771
     55          1           0       10.311076    2.252949    3.267390
     56          1           0        8.477871    0.818878    2.455727
     57          1           0       10.501710   -1.716285   -0.685796
     58          1           0       10.255300   -3.871172   -1.854420
     59          1           0        8.044985   -4.749677   -2.436930
     60          1           0        5.994412   -3.502173   -1.839539
     61          1           0        4.184440   -1.665127   -0.929494
     62          1           0        2.606482    2.375992   -0.446299
     63          1           0        0.145831    2.565904   -0.448459
     64          1           0        2.363421   -1.758470    0.625037
     65          1           0        0.388417   -3.549551    1.090252
     66          1           0       -1.775798   -4.703569    1.417217
     67          1           0       -3.888095   -3.487311    1.155978
     68          1           0       -3.910729   -1.091368    0.554643
     69          1           0       -8.113846    3.049229    0.484381
     70          1           0       -9.916032    1.440377    0.775916
     71          1           0      -11.537585    0.146153    0.009115
     72          1           0      -13.225424   -1.638694    0.303540
     73          1           0      -12.448774   -3.998057    0.561015
     74          1           0       -9.988978   -4.439283    0.487829
     75          1           0       -7.434301   -1.651800   -0.801177
     76          1           0       -5.604595   -0.020303   -1.106109
     77          1           0       -6.896198    4.282720   -0.980749
     78          1           0       -5.041115    5.875669   -1.245960
     79          1           0       -2.672979    5.079727   -0.964764
     80          1           0        4.367792    2.105822    1.082235
     81          1           0        6.822464    2.036187    1.104825
     82          1           0       10.326495    0.634275   -1.390029
     83          1           0       12.183196    2.029254   -0.563775
 ---------------------------------------------------------------------
 Rotational constants (GHZ):           0.1381943           0.0149544           0.0138228
 Leave Link  202 at Sat Nov  5 00:46:49 2022, MaxMem=   805306368 cpu:               0.6 elap:               0.1
 (Enter /home/wykgroup/appl/g16/l301.exe)
 Standard basis: 6-31G(d) (6D, 7F)
 Ernie: Thresh=  0.10000D-02 Tol=  0.10000D-05 Strict=F.
 There are   855 symmetry adapted cartesian basis functions of A   symmetry.
 There are   855 symmetry adapted basis functions of A   symmetry.
   855 basis functions,  1604 primitive gaussians,   855 cartesian basis functions
   177 alpha electrons      177 beta electrons
       nuclear repulsion energy      5720.4123546165 Hartrees.
 IExCor=  402 DFT=T Ex+Corr=B3LYP ExCW=0 ScaHFX=  0.200000
 ScaDFX=  0.800000  0.720000  1.000000  0.810000 ScalE2=  1.000000  1.000000
 IRadAn=      5 IRanWt=     -1 IRanGd=            0 ICorTp=0 IEmpDi=  4
 NAtoms=   83 NActive=   83 NUniq=   83 SFac= 1.00D+00 NAtFMM=   60 NAOKFM=T Big=T
 Integral buffers will be    131072 words long.
 Raffenetti 2 integral format.
 Two-electron integral symmetry is turned on.
 Leave Link  301 at Sat Nov  5 00:46:49 2022, MaxMem=   805306368 cpu:               0.6 elap:               0.1
 (Enter /home/wykgroup/appl/g16/l302.exe)
 NPDir=0 NMtPBC=     1 NCelOv=     1 NCel=       1 NClECP=     1 NCelD=      1
         NCelK=      1 NCelE2=     1 NClLst=     1 CellRange=     0.0.
 One-electron integrals computed using PRISM.
 One-electron integral symmetry used in STVInt
 NBasis=   855 RedAO= T EigKep=  2.56D-04  NBF=   855
 NBsUse=   855 1.00D-06 EigRej= -1.00D+00 NBFU=   855
 Precomputing XC quadrature grid using
 IXCGrd= 4 IRadAn=           5 IRanWt=          -1 IRanGd=           0 AccXCQ= 0.00D+00.
 Generated NRdTot=       0 NPtTot=           0 NUsed=           0 NTot=          32
 NSgBfM=   718   716   717   717   718 MxSgAt=    83 MxSgA2=    83.
 Leave Link  302 at Sat Nov  5 00:46:52 2022, MaxMem=   805306368 cpu:              17.6 elap:               2.8
 (Enter /home/wykgroup/appl/g16/l303.exe)
 DipDrv:  MaxL=1.
 Leave Link  303 at Sat Nov  5 00:46:52 2022, MaxMem=   805306368 cpu:               1.1 elap:               0.2
 (Enter /home/wykgroup/appl/g16/l401.exe)
 ExpMin= 1.61D-01 ExpMax= 4.17D+03 ExpMxC= 6.27D+02 IAcc=3 IRadAn=         5 AccDes= 0.00D+00
 Harris functional with IExCor=  402 and IRadAn=       5 diagonalized for initial guess.
 HarFok:  IExCor=  402 AccDes= 0.00D+00 IRadAn=         5 IDoV= 1 UseB2=F ITyADJ=14
 ICtDFT=  3500011 ScaDFX=  1.000000  1.000000  1.000000  1.000000
 FoFCou: FMM=F IPFlag=           0 FMFlag=      100000 FMFlg1=        2001
         NFxFlg=           0 DoJE=T BraDBF=F KetDBF=T FulRan=T
         wScrn=  0.000000 ICntrl=       500 IOpCl=  0 I1Cent=   200000004 NGrid=           0
         NMat0=    1 NMatS0=      1 NMatT0=    0 NMatD0=    1 NMtDS0=    0 NMtDT0=    0
 Petite list used in FoFCou.
 Harris En= -2137.58176020861    
 JPrj=0 DoOrth=F DoCkMO=F.
 Leave Link  401 at Sat Nov  5 00:46:59 2022, MaxMem=   805306368 cpu:              47.2 elap:               6.8
 (Enter /home/wykgroup/appl/g16/l502.exe)
 Integral symmetry usage will be decided dynamically.
 Closed shell SCF:
 Using DIIS extrapolation, IDIIS=  1040.
 NGot=   805306368 LenX=   803829503 LenY=   803097623
 Requested convergence on RMS density matrix=1.00D-08 within  32 cycles.
 Requested convergence on MAX density matrix=1.00D-06.
 Requested convergence on             energy=1.00D-06.
 No special actions if energy rises.
 Fock matrices will be formed incrementally for  20 cycles.
 Integral accuracy reduced to 1.0D-05 until final iterations.

 Cycle   1  Pass 0  IDiag  1:
 FoFJK:  IHMeth= 1 ICntrl=       0 DoSepK=F KAlg= 0 I1Cent=           0 FoldK=F
 IRaf= 580000000 NMat=       1 IRICut=       1 DoRegI=T DoRafI=F ISym2E= 0 IDoP0=0 IntGTp=1.
 FoFCou: FMM=T IPFlag=           0 FMFlag=      100000 FMFlg1=        2001
         NFxFlg=           0 DoJE=F BraDBF=F KetDBF=F FulRan=T
         wScrn=  0.000000 ICntrl=         0 IOpCl=  0 I1Cent=           0 NGrid=           0
         NMat0=    1 NMatS0=      1 NMatT0=    0 NMatD0=    1 NMtDS0=    0 NMtDT0=    0
 Symmetry not used in FoFCou.
 FMM levels:  10  Number of levels for PrismC:   9
 E= -2136.56173378931    
 DIIS: error= 3.34D-02 at cycle   1 NSaved=   1.
 NSaved= 1 IEnMin= 1 EnMin= -2136.56173378931     IErMin= 1 ErrMin= 3.34D-02
 ErrMax= 3.34D-02  0.00D+00 EMaxC= 1.00D-01 BMatC= 1.01D+00 BMatP= 1.01D+00
 IDIUse=3 WtCom= 6.66D-01 WtEn= 3.34D-01
 Coeff-Com:  0.100D+01
 Coeff-En:   0.100D+01
 Coeff:      0.100D+01
 Gap=     0.203 Goal=   None    Shift=    0.000
 GapD=    0.203 DampG=1.000 DampE=0.500 DampFc=0.5000 IDamp=-1.
 Damping current iteration by 5.00D-01
 RMSDP=3.20D-03 MaxDP=1.30D-01              OVMax= 2.62D-01

 Cycle   2  Pass 0  IDiag  1:
 RMSU=  1.55D-03    CP:  9.66D-01
 E= -2136.99190633603     Delta-E=       -0.430172546725 Rises=F Damp=T
 DIIS: error= 6.66D-03 at cycle   2 NSaved=   2.
 NSaved= 2 IEnMin= 2 EnMin= -2136.99190633603     IErMin= 2 ErrMin= 6.66D-03
 ErrMax= 6.66D-03  0.00D+00 EMaxC= 1.00D-01 BMatC= 1.18D-01 BMatP= 1.01D+00
 IDIUse=3 WtCom= 9.33D-01 WtEn= 6.66D-02
 Coeff-Com:  0.938D-01 0.906D+00
 Coeff-En:   0.166D+00 0.834D+00
 Coeff:      0.986D-01 0.901D+00
 Gap=     0.211 Goal=   None    Shift=    0.000
 RMSDP=1.25D-03 MaxDP=1.12D-01 DE=-4.30D-01 OVMax= 3.09D-01

 Cycle   3  Pass 0  IDiag  1:
 RMSU=  1.20D-03    CP:  9.43D-01  8.62D-01
 E= -2137.42525820261     Delta-E=       -0.433351866572 Rises=F Damp=F
 DIIS: error= 9.56D-03 at cycle   3 NSaved=   3.
 NSaved= 3 IEnMin= 3 EnMin= -2137.42525820261     IErMin= 2 ErrMin= 6.66D-03
 ErrMax= 9.56D-03  0.00D+00 EMaxC= 1.00D-01 BMatC= 1.94D-01 BMatP= 1.18D-01
 IDIUse=3 WtCom= 9.28D-02 WtEn= 9.07D-01
 Coeff-Com: -0.287D-01 0.583D+00 0.446D+00
 Coeff-En:   0.000D+00 0.000D+00 0.100D+01
 Coeff:     -0.267D-02 0.541D-01 0.949D+00
 Gap=     0.185 Goal=   None    Shift=    0.000
 RMSDP=1.91D-03 MaxDP=1.35D-01 DE=-4.33D-01 OVMax= 2.51D-01

 Cycle   4  Pass 0  IDiag  1:
 RMSU=  1.04D-03    CP:  9.46D-01  1.35D+00 -1.85D-01
 E= -2136.62790823655     Delta-E=        0.797349966059 Rises=F Damp=F
 DIIS: error= 2.60D-02 at cycle   4 NSaved=   4.
 NSaved= 4 IEnMin= 3 EnMin= -2137.42525820261     IErMin= 2 ErrMin= 6.66D-03
 ErrMax= 2.60D-02  0.00D+00 EMaxC= 1.00D-01 BMatC= 9.32D-01 BMatP= 1.18D-01
 IDIUse=2 WtCom= 0.00D+00 WtEn= 1.00D+00
 Coeff-En:   0.000D+00 0.000D+00 0.765D+00 0.235D+00
 Coeff:      0.000D+00 0.000D+00 0.765D+00 0.235D+00
 Gap=     0.176 Goal=   None    Shift=    0.000
 RMSDP=9.82D-04 MaxDP=6.71D-02 DE= 7.97D-01 OVMax= 1.68D-01

 Cycle   5  Pass 0  IDiag  1:
 RMSU=  2.03D-04    CP:  9.46D-01  1.08D+00  3.96D-01  4.99D-01
 E= -2137.56922669484     Delta-E=       -0.941318458295 Rises=F Damp=F
 DIIS: error= 6.60D-03 at cycle   5 NSaved=   5.
 NSaved= 5 IEnMin= 5 EnMin= -2137.56922669484     IErMin= 5 ErrMin= 6.60D-03
 ErrMax= 6.60D-03  0.00D+00 EMaxC= 1.00D-01 BMatC= 6.44D-02 BMatP= 1.18D-01
 IDIUse=3 WtCom= 9.34D-01 WtEn= 6.60D-02
 Coeff-Com:  0.689D-02-0.710D-02 0.317D+00-0.441D-01 0.728D+00
 Coeff-En:   0.000D+00 0.000D+00 0.301D+00 0.000D+00 0.699D+00
 Coeff:      0.644D-02-0.663D-02 0.316D+00-0.412D-01 0.726D+00
 Gap=     0.123 Goal=   None    Shift=    0.000
 RMSDP=3.60D-04 MaxDP=3.21D-02 DE=-9.41D-01 OVMax= 5.89D-02

 Cycle   6  Pass 0  IDiag  1:
 RMSU=  8.66D-05    CP:  9.45D-01  9.96D-01  6.12D-01  3.22D-01  7.09D-01
 E= -2137.63740825090     Delta-E=       -0.068181556055 Rises=F Damp=F
 DIIS: error= 7.10D-04 at cycle   6 NSaved=   6.
 NSaved= 6 IEnMin= 6 EnMin= -2137.63740825090     IErMin= 6 ErrMin= 7.10D-04
 ErrMax= 7.10D-04  0.00D+00 EMaxC= 1.00D-01 BMatC= 1.14D-03 BMatP= 6.44D-02
 IDIUse=3 WtCom= 9.93D-01 WtEn= 7.10D-03
 Coeff-Com: -0.428D-03 0.202D-02 0.127D+00-0.626D-01 0.450D+00 0.484D+00
 Coeff-En:   0.000D+00 0.000D+00 0.000D+00 0.000D+00 0.000D+00 0.100D+01
 Coeff:     -0.425D-03 0.200D-02 0.126D+00-0.622D-01 0.447D+00 0.488D+00
 Gap=     0.122 Goal=   None    Shift=    0.000
 RMSDP=5.06D-05 MaxDP=4.70D-03 DE=-6.82D-02 OVMax= 6.79D-03

 Cycle   7  Pass 0  IDiag  1:
 RMSU=  1.94D-05    CP:  9.45D-01  9.96D-01  6.14D-01  3.18D-01  8.11D-01
                    CP:  5.20D-01
 E= -2137.63852768540     Delta-E=       -0.001119434501 Rises=F Damp=F
 DIIS: error= 1.91D-04 at cycle   7 NSaved=   7.
 NSaved= 7 IEnMin= 7 EnMin= -2137.63852768540     IErMin= 7 ErrMin= 1.91D-04
 ErrMax= 1.91D-04  0.00D+00 EMaxC= 1.00D-01 BMatC= 5.20D-05 BMatP= 1.14D-03
 IDIUse=3 WtCom= 9.98D-01 WtEn= 1.91D-03
 Coeff-Com: -0.324D-03 0.152D-02 0.559D-01-0.318D-01 0.209D+00 0.271D+00
 Coeff-Com:  0.494D+00
 Coeff-En:   0.000D+00 0.000D+00 0.000D+00 0.000D+00 0.000D+00 0.000D+00
 Coeff-En:   0.100D+01
 Coeff:     -0.324D-03 0.151D-02 0.558D-01-0.317D-01 0.208D+00 0.271D+00
 Coeff:      0.495D+00
 Gap=     0.122 Goal=   None    Shift=    0.000
 RMSDP=1.15D-05 MaxDP=1.18D-03 DE=-1.12D-03 OVMax= 2.24D-03

 Cycle   8  Pass 0  IDiag  1:
 RMSU=  7.16D-06    CP:  9.45D-01  9.95D-01  6.15D-01  3.18D-01  8.10D-01
                    CP:  5.56D-01  5.74D-01
 E= -2137.63857750237     Delta-E=       -0.000049816967 Rises=F Damp=F
 DIIS: error= 7.81D-05 at cycle   8 NSaved=   8.
 NSaved= 8 IEnMin= 8 EnMin= -2137.63857750237     IErMin= 8 ErrMin= 7.81D-05
 ErrMax= 7.81D-05  0.00D+00 EMaxC= 1.00D-01 BMatC= 6.57D-06 BMatP= 5.20D-05
 IDIUse=1 WtCom= 1.00D+00 WtEn= 0.00D+00
 Coeff-Com:  0.147D-03-0.432D-03 0.720D-02-0.460D-02 0.249D-01 0.576D-01
 Coeff-Com:  0.275D+00 0.640D+00
 Coeff:      0.147D-03-0.432D-03 0.720D-02-0.460D-02 0.249D-01 0.576D-01
 Coeff:      0.275D+00 0.640D+00
 Gap=     0.122 Goal=   None    Shift=    0.000
 RMSDP=4.42D-06 MaxDP=3.09D-04 DE=-4.98D-05 OVMax= 6.04D-04

 Initial convergence to 1.0D-05 achieved.  Increase integral accuracy.
 Cycle   9  Pass 1  IDiag  1:
 E= -2137.63853551675     Delta-E=        0.000041985615 Rises=F Damp=F
 DIIS: error= 2.18D-04 at cycle   1 NSaved=   1.
 NSaved= 1 IEnMin= 1 EnMin= -2137.63853551675     IErMin= 1 ErrMin= 2.18D-04
 ErrMax= 2.18D-04  0.00D+00 EMaxC= 1.00D-01 BMatC= 2.11D-05 BMatP= 2.11D-05
 IDIUse=3 WtCom= 9.98D-01 WtEn= 2.18D-03
 Coeff-Com:  0.100D+01
 Coeff-En:   0.100D+01
 Coeff:      0.100D+01
 Gap=     0.122 Goal=   None    Shift=    0.000
 RMSDP=4.42D-06 MaxDP=3.09D-04 DE= 4.20D-05 OVMax= 8.98D-04

 Cycle  10  Pass 1  IDiag  1:
 RMSU=  1.23D-04    CP:  1.00D+00
 E= -2137.63855069023     Delta-E=       -0.000015173484 Rises=F Damp=F
 DIIS: error= 6.08D-05 at cycle   2 NSaved=   2.
 NSaved= 2 IEnMin= 2 EnMin= -2137.63855069023     IErMin= 2 ErrMin= 6.08D-05
 ErrMax= 6.08D-05  0.00D+00 EMaxC= 1.00D-01 BMatC= 3.60D-06 BMatP= 2.11D-05
 IDIUse=1 WtCom= 1.00D+00 WtEn= 0.00D+00
 Coeff-Com:  0.187D+00 0.813D+00
 Coeff:      0.187D+00 0.813D+00
 Gap=     0.122 Goal=   None    Shift=    0.000
 RMSDP=7.36D-06 MaxDP=4.62D-04 DE=-1.52D-05 OVMax= 1.33D-03

 Cycle  11  Pass 1  IDiag  1:
 RMSU=  7.32D-06    CP:  1.00D+00  1.01D+00
 E= -2137.63854489593     Delta-E=        0.000005794300 Rises=F Damp=F
 DIIS: error= 9.66D-05 at cycle   3 NSaved=   3.
 NSaved= 3 IEnMin= 2 EnMin= -2137.63855069023     IErMin= 2 ErrMin= 6.08D-05
 ErrMax= 9.66D-05  0.00D+00 EMaxC= 1.00D-01 BMatC= 8.58D-06 BMatP= 3.60D-06
 IDIUse=1 WtCom= 1.00D+00 WtEn= 0.00D+00
 Coeff-Com:  0.116D-02 0.608D+00 0.391D+00
 Coeff:      0.116D-02 0.608D+00 0.391D+00
 Gap=     0.122 Goal=   None    Shift=    0.000
 RMSDP=4.45D-06 MaxDP=2.56D-04 DE= 5.79D-06 OVMax= 8.17D-04

 Cycle  12  Pass 1  IDiag  1:
 RMSU=  9.22D-07    CP:  1.00D+00  1.01D+00  4.07D-01
 E= -2137.63855471006     Delta-E=       -0.000009814126 Rises=F Damp=F
 DIIS: error= 9.60D-06 at cycle   4 NSaved=   4.
 NSaved= 4 IEnMin= 4 EnMin= -2137.63855471006     IErMin= 4 ErrMin= 9.60D-06
 ErrMax= 9.60D-06  0.00D+00 EMaxC= 1.00D-01 BMatC= 1.31D-07 BMatP= 3.60D-06
 IDIUse=1 WtCom= 1.00D+00 WtEn= 0.00D+00
 Coeff-Com: -0.343D-02 0.359D+00 0.241D+00 0.404D+00
 Coeff:     -0.343D-02 0.359D+00 0.241D+00 0.404D+00
 Gap=     0.122 Goal=   None    Shift=    0.000
 RMSDP=5.33D-07 MaxDP=3.85D-05 DE=-9.81D-06 OVMax= 9.03D-05

 Cycle  13  Pass 1  IDiag  1:
 RMSU=  2.28D-07    CP:  1.00D+00  1.01D+00  4.10D-01  4.78D-01
 E= -2137.63855484056     Delta-E=       -0.000000130501 Rises=F Damp=F
 DIIS: error= 2.26D-06 at cycle   5 NSaved=   5.
 NSaved= 5 IEnMin= 5 EnMin= -2137.63855484056     IErMin= 5 ErrMin= 2.26D-06
 ErrMax= 2.26D-06  0.00D+00 EMaxC= 1.00D-01 BMatC= 3.91D-09 BMatP= 1.31D-07
 IDIUse=1 WtCom= 1.00D+00 WtEn= 0.00D+00
 Coeff-Com: -0.228D-02 0.223D+00 0.150D+00 0.266D+00 0.363D+00
 Coeff:     -0.228D-02 0.223D+00 0.150D+00 0.266D+00 0.363D+00
 Gap=     0.122 Goal=   None    Shift=    0.000
 RMSDP=9.30D-08 MaxDP=9.11D-06 DE=-1.31D-07 OVMax= 1.38D-05

 Cycle  14  Pass 1  IDiag  1:
 RMSU=  7.43D-08    CP:  1.00D+00  1.01D+00  4.09D-01  4.91D-01  7.66D-01
 E= -2137.63855484447     Delta-E=       -0.000000003913 Rises=F Damp=F
 DIIS: error= 2.14D-07 at cycle   6 NSaved=   6.
 NSaved= 6 IEnMin= 6 EnMin= -2137.63855484447     IErMin= 6 ErrMin= 2.14D-07
 ErrMax= 2.14D-07  0.00D+00 EMaxC= 1.00D-01 BMatC= 1.09D-10 BMatP= 3.91D-09
 IDIUse=1 WtCom= 1.00D+00 WtEn= 0.00D+00
 Coeff-Com: -0.872D-03 0.834D-01 0.562D-01 0.102D+00 0.187D+00 0.572D+00
 Coeff:     -0.872D-03 0.834D-01 0.562D-01 0.102D+00 0.187D+00 0.572D+00
 Gap=     0.122 Goal=   None    Shift=    0.000
 RMSDP=1.89D-08 MaxDP=1.56D-06 DE=-3.91D-09 OVMax= 2.61D-06

 Cycle  15  Pass 1  IDiag  1:
 RMSU=  1.69D-08    CP:  1.00D+00  1.01D+00  4.09D-01  4.91D-01  7.85D-01
                    CP:  9.09D-01
 E= -2137.63855484461     Delta-E=       -0.000000000131 Rises=F Damp=F
 DIIS: error= 1.03D-07 at cycle   7 NSaved=   7.
 NSaved= 7 IEnMin= 7 EnMin= -2137.63855484461     IErMin= 7 ErrMin= 1.03D-07
[...]
 Alpha virt. eigenvalues --   -0.01725  -0.01315  -0.01036  -0.00330   0.00027
 Alpha virt. eigenvalues --    0.01677   0.02214   0.03425   0.04156   0.04579
 Alpha virt. eigenvalues --    0.06162   0.08376   0.08524   0.08811   0.08982
 Alpha virt. eigenvalues --    0.10516   0.10628   0.10929   0.11902   0.12068
 Alpha virt. eigenvalues --    0.12678   0.12894   0.13115   0.13475   0.13712
 Alpha virt. eigenvalues --    0.14120   0.14291   0.14723   0.15095   0.15269
 Alpha virt. eigenvalues --    0.15575   0.15883   0.16367   0.16743   0.16954
 Alpha virt. eigenvalues --    0.17313   0.17580   0.17684   0.17742   0.18437
 Alpha virt. eigenvalues --    0.18519   0.18625   0.18976   0.19215   0.19461
 Alpha virt. eigenvalues --    0.19741   0.20269   0.20326   0.20844   0.21091
 Alpha virt. eigenvalues --    0.21398   0.22017   0.22423   0.22796   0.23017
 Alpha virt. eigenvalues --    0.23471   0.23896   0.24757   0.25332   0.25669
 Alpha virt. eigenvalues --    0.26058   0.26320   0.27221   0.27447   0.27908
 Alpha virt. eigenvalues --    0.27971   0.28060   0.28274   0.28911   0.29637
 Alpha virt. eigenvalues --    0.30006   0.30252   0.31039   0.31098   0.31582
 Alpha virt. eigenvalues --    0.32190   0.33106   0.33239   0.33774   0.34309
 Alpha virt. eigenvalues --    0.34637   0.35079   0.35593   0.36204   0.36932
 Alpha virt. eigenvalues --    0.37364   0.37798   0.38426   0.38598   0.39375
 Alpha virt. eigenvalues --    0.39477   0.40395   0.41760   0.41900   0.42804
 Alpha virt. eigenvalues --    0.44151   0.44994   0.45327   0.46031   0.46042
 Alpha virt. eigenvalues --    0.47039   0.47762   0.48151   0.48813   0.49192
 Alpha virt. eigenvalues --    0.49686   0.50089   0.50317   0.50781   0.51511
 Alpha virt. eigenvalues --    0.51559   0.51697   0.52082   0.52379   0.53064
 Alpha virt. eigenvalues --    0.53126   0.53536   0.53719   0.53968   0.54199
 Alpha virt. eigenvalues --    0.54396   0.54715   0.54873   0.55065   0.55196
 Alpha virt. eigenvalues --    0.55403   0.55609   0.55798   0.55823   0.56216
 Alpha virt. eigenvalues --    0.56413   0.56567   0.57053   0.57160   0.57493
 Alpha virt. eigenvalues --    0.57498   0.58008   0.58261   0.58323   0.58447
 Alpha virt. eigenvalues --    0.58606   0.58692   0.58797   0.58872   0.58922
 Alpha virt. eigenvalues --    0.59231   0.59283   0.59416   0.59541   0.59668
 Alpha virt. eigenvalues --    0.59742   0.59807   0.60026   0.60192   0.60332
 Alpha virt. eigenvalues --    0.60513   0.60605   0.60864   0.61008   0.61185
 Alpha virt. eigenvalues --    0.61451   0.61968   0.61992   0.62212   0.62343
 Alpha virt. eigenvalues --    0.62413   0.62625   0.62742   0.63016   0.63410
 Alpha virt. eigenvalues --    0.63464   0.63658   0.63986   0.64516   0.64770
 Alpha virt. eigenvalues --    0.65004   0.65353   0.65501   0.65958   0.66136
 Alpha virt. eigenvalues --    0.66404   0.66679   0.66837   0.67464   0.67665
 Alpha virt. eigenvalues --    0.67992   0.68366   0.69056   0.69889   0.70513
 Alpha virt. eigenvalues --    0.70822   0.71666   0.72752   0.73236   0.73379
 Alpha virt. eigenvalues --    0.74142   0.76032   0.77463   0.77710   0.78063
 Alpha virt. eigenvalues --    0.78341   0.78688   0.78962   0.79173   0.79631
 Alpha virt. eigenvalues --    0.80090   0.80441   0.80570   0.81087   0.81249
 Alpha virt. eigenvalues --    0.81474   0.81818   0.82310   0.82549   0.83051
 Alpha virt. eigenvalues --    0.83199   0.83299   0.83605   0.83747   0.83832
 Alpha virt. eigenvalues --    0.83984   0.84362   0.84713   0.85318   0.85490
 Alpha virt. eigenvalues --    0.85576   0.85960   0.86262   0.86425   0.86992
 Alpha virt. eigenvalues --    0.87207   0.87416   0.87723   0.88298   0.88675
 Alpha virt. eigenvalues --    0.89188   0.89315   0.89346   0.89639   0.90087
 Alpha virt. eigenvalues --    0.90381   0.90523   0.91117   0.91380   0.91535
 Alpha virt. eigenvalues --    0.91927   0.92442   0.92635   0.92977   0.93270
 Alpha virt. eigenvalues --    0.94236   0.94458   0.95266   0.95866   0.96022
 Alpha virt. eigenvalues --    0.96286   0.96781   0.96908   0.97200   0.97939
 Alpha virt. eigenvalues --    0.98375   0.98800   0.99266   0.99827   1.00205
 Alpha virt. eigenvalues --    1.00360   1.01101   1.01324   1.02024   1.02333
 Alpha virt. eigenvalues --    1.02711   1.03118   1.03964   1.04342   1.05029
 Alpha virt. eigenvalues --    1.05907   1.06480   1.07348   1.07773   1.08299
 Alpha virt. eigenvalues --    1.08718   1.09051   1.09608   1.10274   1.10984
 Alpha virt. eigenvalues --    1.11387   1.11808   1.13394   1.14040   1.14353
 Alpha virt. eigenvalues --    1.14750   1.15459   1.15597   1.16179   1.16712
 Alpha virt. eigenvalues --    1.17005   1.17635   1.17969   1.18359   1.19020
 Alpha virt. eigenvalues --    1.19544   1.19831   1.20132   1.20496   1.20536
 Alpha virt. eigenvalues --    1.21066   1.21536   1.22407   1.22914   1.23034
 Alpha virt. eigenvalues --    1.23460   1.24289   1.24841   1.25341   1.26169
 Alpha virt. eigenvalues --    1.26803   1.27102   1.27326   1.28939   1.29793
 Alpha virt. eigenvalues --    1.29946   1.30366   1.31078   1.31298   1.31541
 Alpha virt. eigenvalues --    1.32915   1.33635   1.33923   1.34137   1.34607
 Alpha virt. eigenvalues --    1.35243   1.36009   1.36297   1.37524   1.38253
 Alpha virt. eigenvalues --    1.39255   1.39932   1.40713   1.41471   1.42060
 Alpha virt. eigenvalues --    1.42255   1.42653   1.43067   1.43404   1.43951
 Alpha virt. eigenvalues --    1.44083   1.44633   1.44999   1.45625   1.45765
 Alpha virt. eigenvalues --    1.45874   1.46199   1.46406   1.46412   1.46909
 Alpha virt. eigenvalues --    1.47355   1.47507   1.47866   1.48492   1.48570
 Alpha virt. eigenvalues --    1.48993   1.49225   1.49516   1.50146   1.50323
 Alpha virt. eigenvalues --    1.50518   1.50637   1.50760   1.50813   1.51071
 Alpha virt. eigenvalues --    1.51124   1.51421   1.51729   1.51991   1.52466
 Alpha virt. eigenvalues --    1.53338   1.57500   1.59080   1.60432   1.60878
 Alpha virt. eigenvalues --    1.61728   1.62928   1.63830   1.64608   1.65386
 Alpha virt. eigenvalues --    1.66595   1.69039   1.70755   1.70894   1.71183
 Alpha virt. eigenvalues --    1.72405   1.73264   1.73509   1.74476   1.75714
 Alpha virt. eigenvalues --    1.76230   1.76755   1.77126   1.77885   1.78185
 Alpha virt. eigenvalues --    1.78659   1.78834   1.79135   1.79388   1.80267
 Alpha virt. eigenvalues --    1.81028   1.81170   1.81345   1.81721   1.81926
 Alpha virt. eigenvalues --    1.82627   1.83023   1.84298   1.84545   1.85668
 Alpha virt. eigenvalues --    1.85973   1.86308   1.86496   1.87049   1.87868
 Alpha virt. eigenvalues --    1.88510   1.89026   1.90171   1.90764   1.90866
 Alpha virt. eigenvalues --    1.90928   1.91616   1.91714   1.92359   1.92666
 Alpha virt. eigenvalues --    1.92834   1.93827   1.94976   1.95203   1.95348
 Alpha virt. eigenvalues --    1.95695   1.96148   1.96339   1.96808   1.97268
 Alpha virt. eigenvalues --    1.97366   1.98310   1.99084   1.99445   1.99972
 Alpha virt. eigenvalues --    2.00541   2.00592   2.02378   2.02889   2.03231
 Alpha virt. eigenvalues --    2.04261   2.04686   2.05705   2.06611   2.07489
 Alpha virt. eigenvalues --    2.07944   2.08039   2.08736   2.09260   2.09878
 Alpha virt. eigenvalues --    2.10100   2.10442   2.10686   2.11204   2.11424
 Alpha virt. eigenvalues --    2.12067   2.12737   2.13271   2.13391   2.13490
 Alpha virt. eigenvalues --    2.13764   2.13965   2.14813   2.15687   2.16052
 Alpha virt. eigenvalues --    2.16995   2.17470   2.18122   2.18457   2.18788
 Alpha virt. eigenvalues --    2.19247   2.19669   2.20281   2.20574   2.20876
 Alpha virt. eigenvalues --    2.21120   2.22202   2.22681   2.23525   2.23973
 Alpha virt. eigenvalues --    2.24193   2.24566   2.24867   2.25284   2.25721
 Alpha virt. eigenvalues --    2.26448   2.26584   2.27234   2.27356   2.28010
 Alpha virt. eigenvalues --    2.28572   2.28648   2.29933   2.30058   2.30732
 Alpha virt. eigenvalues --    2.31221   2.31482   2.31694   2.32638   2.32731
 Alpha virt. eigenvalues --    2.32976   2.33636   2.33885   2.35339   2.35635
 Alpha virt. eigenvalues --    2.35868   2.37555   2.38025   2.38918   2.39265
 Alpha virt. eigenvalues --    2.40083   2.40910   2.42463   2.43407   2.44975
 Alpha virt. eigenvalues --    2.46015   2.46573   2.48077   2.49177   2.49898
 Alpha virt. eigenvalues --    2.51825   2.54017   2.54583   2.54905   2.55825
 Alpha virt. eigenvalues --    2.56198   2.56357   2.56735   2.58258   2.58494
 Alpha virt. eigenvalues --    2.58798   2.59228   2.59801   2.60666   2.60759
 Alpha virt. eigenvalues --    2.61040   2.61556   2.62406   2.63076   2.64244
 Alpha virt. eigenvalues --    2.64526   2.64762   2.65153   2.66131   2.66720
 Alpha virt. eigenvalues --    2.67047   2.67546   2.68506   2.68689   2.68922
 Alpha virt. eigenvalues --    2.69997   2.70138   2.70668   2.70975   2.71048
 Alpha virt. eigenvalues --    2.71608   2.72176   2.72546   2.72985   2.73198
 Alpha virt. eigenvalues --    2.73726   2.74118   2.75702   2.77439   2.77789
 Alpha virt. eigenvalues --    2.78108   2.78484   2.79166   2.80228   2.80674
 Alpha virt. eigenvalues --    2.81160   2.82318   2.82800   2.83902   2.84386
 Alpha virt. eigenvalues --    2.85981   2.87520   2.88402   2.88716   2.89885
 Alpha virt. eigenvalues --    2.90366   2.92361   2.92943   2.93456   2.96183
 Alpha virt. eigenvalues --    2.97837   2.98356   2.99185   2.99774   3.01246
 Alpha virt. eigenvalues --    3.02485   3.05553   3.10562   3.12731   3.15482
 Alpha virt. eigenvalues --    3.21268   3.22428   3.24035   3.27878   3.30333
 Alpha virt. eigenvalues --    3.33287   3.34648   3.36110   3.38025   3.41436
 Alpha virt. eigenvalues --    3.43615   3.44487   3.49655   3.52787   3.56706
 Alpha virt. eigenvalues --    3.89381   4.04392   4.07422   4.08183   4.08446
 Alpha virt. eigenvalues --    4.09265   4.09307   4.10120   4.10305   4.10714
 Alpha virt. eigenvalues --    4.11268   4.11519   4.11675   4.12049   4.12742
 Alpha virt. eigenvalues --    4.13403   4.15300   4.16537   4.17178   4.17471
 Alpha virt. eigenvalues --    4.18706   4.19494   4.19799   4.21074   4.22392
 Alpha virt. eigenvalues --    4.26731   4.29847   4.30857   4.31139   4.32786
 Alpha virt. eigenvalues --    4.33479   4.33681   4.34632   4.37290   4.38053
 Alpha virt. eigenvalues --    4.39171   4.41533   4.42732   4.44427   4.44668
 Alpha virt. eigenvalues --    4.45564   4.47184   4.48205   4.56162   4.57392
 Alpha virt. eigenvalues --    4.60042   4.68834   4.71593   4.76124   4.78332
 Alpha virt. eigenvalues --    4.80030   4.85606   4.89461
          Condensed to atoms (all electrons):
 Mulliken charges:
               1
     1  C   -0.121566
     2  C   -0.142879
     3  C   -0.149748
     4  C    0.265508
     5  N   -0.737041
     6  C    0.311455
     7  C   -0.176791
     8  C   -0.141847
     9  C   -0.145364
    10  C   -0.196775
    11  C    0.057274
    12  C    0.066005
    13  C   -0.257882
    14  C    0.082716
    15  C    0.090946
    16  C   -0.201902
    17  C   -0.151356
    18  C    0.302936
    19  C    0.059729
    20  C   -0.260471
    21  C    0.050789
    22  C   -0.198946
    23  C   -0.139431
    24  C   -0.147511
    25  C   -0.152925
    26  C    0.298390
    27  N   -0.788629
    28  C    0.722895
    29  N   -0.621454
    30  C    0.564888
    31  C    0.012390
    32  C    0.109708
    33  C   -0.185209
    34  C   -0.191327
    35  C    0.114559
    36  C    0.247320
    37  C   -0.163007
    38  C   -0.104207
    39  C   -0.144031
    40  C    0.045464
    41  N   -0.479720
    42  C   -0.176653
    43  C   -0.163298
    44  C   -0.158591
    45  C   -0.202361
    46  C    0.103263
    47  N   -0.341635
    48  N   -0.397706
    49  C   -0.193897
    50  C   -0.179110
    51  C    0.316920
    52  C   -0.149667
    53  C   -0.142854
    54  H    0.134597
    55  H    0.138251
    56  H    0.153037
    57  H    0.138754
    58  H    0.125861
    59  H    0.123711
    60  H    0.130858
    61  H    0.133383
    62  H    0.127901
    63  H    0.170436
    64  H    0.132389
    65  H    0.129487
    66  H    0.123788
    67  H    0.129218
    68  H    0.184404
    69  H    0.131311
    70  H    0.130736
    71  H    0.139997
    72  H    0.143667
    73  H    0.139758
    74  H    0.142419
    75  H    0.162554
    76  H    0.164553
    77  H    0.149500
    78  H    0.153786
    79  H    0.188612
    80  H    0.129940
    81  H    0.139277
    82  H    0.152538
    83  H    0.137914
 Sum of Mulliken charges =  -0.00000
 Mulliken charges with hydrogens summed into heavy atoms:
               1
     1  C    0.013031
     2  C   -0.004628
     3  C    0.003289
     4  C    0.265508
     5  N   -0.737041
     6  C    0.311455
     7  C   -0.038037
     8  C   -0.015986
     9  C   -0.021653
    10  C   -0.065917
    11  C    0.057274
    12  C    0.066005
    13  C   -0.124499
    14  C    0.082716
    15  C    0.090946
    16  C   -0.074002
    17  C    0.019080
    18  C    0.302936
    19  C    0.059729
    20  C   -0.128082
    21  C    0.050789
    22  C   -0.069460
    23  C   -0.015642
    24  C   -0.018293
    25  C    0.031479
    26  C    0.298390
    27  N   -0.788629
    28  C    0.722895
    29  N   -0.621454
    30  C    0.564888
    31  C    0.012390
    32  C    0.109708
    33  C   -0.053898
    34  C   -0.060591
    35  C    0.114559
    36  C    0.247320
    37  C   -0.023011
    38  C    0.039460
    39  C   -0.004273
    40  C    0.187883
    41  N   -0.479720
    42  C   -0.014098
    43  C    0.001254
    44  C   -0.009091
    45  C   -0.048575
    46  C    0.291875
    47  N   -0.341635
    48  N   -0.397706
    49  C   -0.063957
    50  C   -0.039832
    51  C    0.316920
    52  C    0.002871
    53  C   -0.004940
 Electronic spatial extent (au):  <R**2>=          72969.9421
 Charge=              0.0000 electrons
 Dipole moment (field-independent basis, Debye):
    X=             -2.8076    Y=              3.9075    Z=             -0.0912  Tot=              4.8124
 Quadrupole moment (field-independent basis, Debye-Ang):
   XX=           -193.6803   YY=           -262.7871   ZZ=           -303.2912
   XY=             -0.4864   XZ=              2.4798   YZ=              0.0243
 Traceless Quadrupole moment (field-independent basis, Debye-Ang):
   XX=             59.5725   YY=             -9.5342   ZZ=            -50.0383
   XY=             -0.4864   XZ=              2.4798   YZ=              0.0243
 Octapole moment (field-independent basis, Debye-Ang**2):
  XXX=           -474.6471  YYY=             64.1991  ZZZ=              9.8683  XYY=           -125.5229
  XXY=            149.7385  XXZ=             56.7616  XZZ=             48.4218  YZZ=             13.8047
  YYZ=            -19.2393  XYZ=             56.6532
 Hexadecapole moment (field-independent basis, Debye-Ang**3):
 XXXX=         -71290.4666 YYYY=          -8038.7565 ZZZZ=          -1433.6760 XXXY=           2709.5966
 XXXZ=           -697.6092 YYYX=           -225.9588 YYYZ=            -98.3938 ZZZX=            153.5847
 ZZZY=             37.4832 XXYY=         -14963.4278 XXZZ=         -15685.0531 YYZZ=          -1729.0965
 XXYZ=            360.3316 YYXZ=             18.0504 ZZXY=             89.1770
 N-N= 5.651983619085D+03 E-N=-1.625918140030D+04  KE= 2.117181105476D+03
 No NMR shielding tensors so no spin-rotation constants.
 Leave Link  601 at Sat Nov  5 01:35:55 2022, MaxMem=   805306368 cpu:               2.7 elap:               0.5
 (Enter /home/wykgroup/appl/g16/l9999.exe)
 1\1\GINC-NODE66\FOpt\RB3LYP\6-31G(d)\C47H30N6\WYKGROUP\05-Nov-2022\0\\
 #p b3lyp/6-31g(d) opt SCF=XQC\\Gaussian input prepared by ASE\\0,1\C,1
 1.5027372668,-2.0172609109,-1.3666804528\C,10.5497801729,-1.4002258731
 ,-2.1795338179\C,9.4830653667,-0.7043292163,-1.6113118595\C,9.35353325
 52,-0.6394370937,-0.2179733507\N,8.2622302389,0.0592587805,0.364580029
 \C,8.3573671084,1.0967696118,1.3004389552\C,9.4943558789,1.7005551326,
 1.8444751548\C,9.3048063462,2.7401282402,2.7527481828\C,8.0172737567,3
 .1758371747,3.1102179468\C,6.8889361178,2.5797989701,2.5543292115\C,7.
 0509541504,1.5337544181,1.6386667463\C,6.1259297369,0.7244877504,0.871
 7904433\C,4.731790859,0.6732310966,0.7933077374\C,4.1073148146,-0.2611
 792954,-0.0425617595\C,2.6265453495,-0.3219199473,-0.1443557564\C,1.95
 82315732,-1.5620691519,-0.2388482953\C,0.5725113211,-1.6655994063,-0.3
 358772606\C,-0.1725720643,-0.4839585584,-0.3333841946\C,0.46712564,0.7
 726769658,-0.2375735603\C,1.8573196991,0.849041995,-0.1468554288\C,-0.
 5672404052,1.7872045229,-0.2684471747\C,-0.5220544025,3.183447448,-0.2
 189161152\C,-1.7135756837,3.9003519599,-0.2781340632\C,-2.9394484381,3
 .2273186442,-0.3880315928\C,-3.011396249,1.834791656,-0.4374418407\C,-
 1.8111037516,1.1216171515,-0.3738696642\N,-1.5690280202,-0.2745137943,
 -0.4107037485\C,-2.5345153352,-1.2612760892,-0.4991357241\N,-3.8593534
 701,-0.9891739972,-0.4336391018\C,-4.429801704,-2.1920194656,-0.553379
 5703\C,-5.7916367442,-2.6125648226,-0.5783602706\C,-6.9043063356,-1.64
 49823511,-0.4529438325\C,-8.1167941387,-1.8669829311,-1.1285942074\C,-
 9.1872968315,-0.9904683973,-0.9923319827\C,-9.0913079932,0.1470651454,
 -0.1743589811\C,-10.2202070033,1.0990739981,-0.0029033766\C,-11.545657
 1243,0.7555159972,-0.3216474254\C,-12.5557024476,1.6964435517,-0.14489
 21492\C,-12.227993125,2.9558757872,0.3542589411\C,-10.8894141781,3.203
 8768283,0.6623062395\N,-9.9105030115,2.3136693323,0.4926783667\C,-7.87
 28454322,0.3797398781,0.4845508328\C,-6.8009210439,-0.4944132544,0.349
 6540622\C,-6.0131454725,-3.9765641343,-0.7279857404\C,-4.9565298876,-4
 .9066234836,-0.8596174683\C,-3.6535718062,-4.4793241509,-0.835382247\N
 ,-3.4276830153,-3.1465315932,-0.6839343087\N,-2.2062669977,-2.55409271
 91,-0.653935935\C,4.9172359459,-1.1495461618,-0.7885587021\C,6.3065973
 692,-1.1225348007,-0.7275150132\C,6.9075479245,-0.1714791298,0.1008464
 225\C,10.3034917811,-1.2667673582,0.59838334\C,11.3781264067,-1.943581
 0825,0.022077739\H,12.336770279,-2.5518840644,-1.812427507\H,10.642432
 3669,-1.4474183914,-3.2611405157\H,8.754092486,-0.2004050794,-2.238244
 2434\H,10.4918205395,1.3765772529,1.5665031006\H,10.1738879206,3.22407
 70743,3.19029628\H,7.9039765544,3.9874578926,3.8232766236\H,5.89383329
 92,2.9240198258,2.8239929744\H,4.1279542942,1.3390649353,1.4038007574\
 H,2.5438513143,-2.4765332569,-0.2106692682\H,0.0896799684,-2.629904604
 6,-0.4047489233\H,2.346119324,1.8183751155,-0.1037198001\H,0.431597123
 ,3.698406345,-0.1381905958\H,-1.6950574389,4.9860130064,-0.2411674757\
 H,-3.8618976801,3.7997230411,-0.4366697662\H,-3.958805989,1.3224451946
 ,-0.5229613057\H,-8.2122637593,-2.7171495283,-1.7980316152\H,-10.09210
 475,-1.1832935256,-1.5606550268\H,-11.7881684942,-0.2379394633,-0.6829
 473943\H,-13.5851230954,1.4450319051,-0.3863235393\H,-12.9824591029,3.
 721075762,0.5088962071\H,-10.5875506818,4.1698865736,1.0650579261\H,-7
 .7835420728,1.2621193621,1.1080491832\H,-5.873780585,-0.2899071868,0.8
 720167366\H,-7.0336116268,-4.3450204061,-0.7194356441\H,-5.1656143975,
 -5.9645175954,-0.9691409192\H,-2.7754974577,-5.105383443,-0.9236397897
 \H,4.4377226421,-1.8637818836,-1.4515809499\H,6.8997872008,-1.81798100
 8,-1.3120728966\H,10.1872226446,-1.2290548727,1.6769967292\H,12.111797
 2066,-2.4262128429,0.6620002791\\Version=ES64L-G16RevB.01\State=1-A\HF
 =-2137.6506261\RMSD=5.313e-09\RMSF=2.797e-06\Dipole=-1.0933354,-1.4689
 418,-0.4812961\Quadrupole=44.3111089,-9.9923444,-34.3187645,0.402467,1
 .2030555,8.9069174\PG=C01 [X(C47H30N6)]\\@


 REALITY IS FOR PEOPLE WHO CAN'T FACE SCIENCE FICTION.
 Job cpu time:       0 days  5 hours 39 minutes  5.3 seconds.
 Elapsed time:       0 days  0 hours 49 minutes  3.5 seconds.
 File lengths (MBytes):  RWF=    454 Int=      0 D2E=      0 Chk=     58 Scr=      1
 Normal termination of Gaussian 16 at Sat Nov  5 01:35:55 2022.
