 Entering Gaussian System, Link 0=/home/wykgroup/appl/g16/g16
 Input=calculation/no_transfer_pubchem_sampling_6_b3lyp/100682679_rwf.com
 Output=calculation/no_transfer_pubchem_sampling_6_b3lyp/100682679_rwf.log
 Initial command:
 /home/wykgroup/appl/g16/l1.exe "/userdata/scratch/wykgroup/khs/calculation/no_transfer_pubchem_sampling_6_b3lyp/100682679_rwf/Gau-3906.inp" -scrdir="/userdata/scratch/wykgroup/khs/calculation/no_transfer_pubchem_sampling_6_b3lyp/100682679_rwf/"
 Entering Link 1 = /home/wykgroup/appl/g16/l1.exe PID=      3907.
  
 Copyright (c) 1988-2017, Gaussian, Inc.  All Rights Reserved.
  
 This is part of the Gaussian(R) 16 program.  It is based on
 the Gaussian(R) 09 system (copyright 2009, Gaussian, Inc.),
 the Gaussian(R) 03 system (copyright 2003, Gaussian, Inc.),
 the Gaussian(R) 98 system (copyright 1998, Gaussian, Inc.),
 the Gaussian(R) 94 system (copyright 1995, Gaussian, Inc.),
 the Gaussian 92(TM) system (copyright 1992, Gaussian, Inc.),
 the Gaussian 90(TM) system (copyright 1990, Gaussian, Inc.),
 the Gaussian 88(TM) system (copyright 1988, Gaussian, Inc.),
 the Gaussian 86(TM) system (copyright 1986, Carnegie Mellon
 University), and the Gaussian 82(TM) system (copyright 1983,
 Carnegie Mellon University). Gaussian is a federally registered
 trademark of Gaussian, Inc.
  
 This software contains proprietary and confidential information,
 including trade secrets, belonging to Gaussian, Inc.
  
 This software is provided under written license and may be
 used, copied, transmitted, or stored only in accord with that
 written license.
  
 The following legend is applicable only to US Government
 contracts under FAR:
  
                    RESTRICTED RIGHTS LEGEND
  
 Use, reproduction and disclosure by the US Government is
 subject to restrictions as set forth in subparagraphs (a)
 and (c) of the Commercial Computer Software - Restricted
 Rights clause in FAR 52.227-19.
  
 Gaussian, Inc.
 340 Quinnipiac St., Bldg. 40, Wallingford CT 06492
  
  
 ---------------------------------------------------------------
 Warning -- This program may not be used in any manner that
 competes with the business of Gaussian, Inc. or will provide
 assistance to any competitor of Gaussian, Inc.  The licensee
 of this program is prohibited from giving any competitor of
 Gaussian, Inc. access to this program.  By using this program,
 the user acknowledges that Gaussian, Inc. is engaged in the
 business of creating and licensing software in the field of
 computational chemistry and represents and warrants to the
 licensee that it is not a competitor of Gaussian, Inc. and that
 it will not use this program in any manner prohibited above.
 ---------------------------------------------------------------
  

 Cite this work as:
 Gaussian 16, Revision B.01,
 M. J. Frisch, G. W. Trucks, H. B. Schlegel, G. E. Scuseria, 
 M. A. Robb, J. R. Cheeseman, G. Scalmani, V. Barone, 
 G. A. Petersson, H. Nakatsuji, X. Li, M. Caricato, A. V. Marenich, 
 J. Bloino, B. G. Janesko, R. Gomperts, B. Mennucci, H. P. Hratchian, 
 J. V. Ortiz, A. F. Izmaylov, J. L. Sonnenberg, D. Williams-Young, 
 F. Ding, F. Lipparini, F. Egidi, J. Goings, B. Peng, A. Petrone, 
 T. Henderson, D. Ranasinghe, V. G. Zakrzewski, J. Gao, N. Rega, 
 G. Zheng, W. Liang, M. Hada, M. Ehara, K. Toyota, R. Fukuda, 
 J. Hasegawa, M. Ishida, T. Nakajima, Y. Honda, O. Kitao, H. Nakai, 
 T. Vreven, K. Throssell, J. A. Montgomery, Jr., J. E. Peralta, 
 F. Ogliaro, M. J. Bearpark, J. J. Heyd, E. N. Brothers, K. N. Kudin, 
 V. N. Staroverov, T. A. Keith, R. Kobayashi, J. Normand, 
 K. Raghavachari, A. P. Rendell, J. C. Burant, S. S. Iyengar, 
 J. Tomasi, M. Cossi, J. M. Millam, M. Klene, C. Adamo, R. Cammi, 
 J. W. Ochterski, R. L. Martin, K. Morokuma, O. Farkas, 
 J. B. Foresman, and D. J. Fox, Gaussian, Inc., Wallingford CT, 2016.
 
 ******************************************
 Gaussian 16:  ES64L-G16RevB.01 20-Dec-2017
                 5-Nov-2022 
 ******************************************
 %chk=calculation/no_transfer_pubchem_sampling_6_b3lyp/100682679_rwf.chk
 %rwf=calculation/no_transfer_pubchem_sampling_6_b3lyp/100682679_rwf.rwf
 %nprocshared=14
 Will use up to   14 processors via shared memory.
 %mem=3GB
 -------------------------------------------------------------------
 #p b3lyp/6-31g(d) 6D 10F nosymm GFInput td=(50-50,nstate=2) SCF=XQC
 -------------------------------------------------------------------
 1/38=1,172=1/1;
 2/12=2,15=1,17=6,18=5,40=1/2;
 3/5=1,6=6,7=1,8=22,11=9,24=10,25=1,30=1,74=-5/1,2,3,8;
 4//1;
 5/5=2,8=3,13=1,38=5/2,8;
 8/6=1,10=2,108=2/1;
 9/41=2,42=1,48=2,70=2/14;
 6/7=2,8=2,9=2,10=2/1;
 99/5=1,9=1/99;
 Leave Link    1 at Sat Nov  5 09:38:51 2022, MaxMem=   402653184 cpu:               3.5 elap:               0.5
 (Enter /home/wykgroup/appl/g16/l101.exe)
 ------------------------------
 Gaussian input prepared by ASE
 ------------------------------
 Symbolic Z-matrix:
 Charge =  0 Multiplicity = 1
 C                     0.63936   2.03627  -2.52254 
 N                    -0.11305   1.05619  -1.75844 
 C                    -0.20003  -0.24803  -2.12013 
 O                     0.32137  -0.71649  -3.12944 
 C                    -1.09379  -1.11231  -1.1903 
 C                    -1.11657  -2.59529  -1.62975 
 C                    -2.21761  -3.39405  -0.96569 
 C                    -1.9707   -4.1513    0.18721 
 C                    -2.99598  -4.86513   0.81063 
 C                    -4.28957  -4.83498   0.28789 
 C                    -4.54938  -4.0896   -0.86429 
 C                    -3.52136  -3.37836  -1.48381 
 N                    -0.83572  -0.89699   0.24418 
 C                    -2.00545  -0.55349   1.08259 
 C                    -2.40902   0.90491   0.97417 
 C                    -3.61819   1.27512   0.37767 
 C                    -3.96496   2.62481   0.27001 
 C                    -3.10755   3.60929   0.75456 
 C                    -1.89096   3.26424   1.36504 
 C                    -0.98119   4.33133   1.92935 
 C                    -1.55703   1.90933   1.46507 
 C                     0.38503  -1.00433   0.88013 
 O                     0.49271  -0.7626    2.08228 
 C                     1.61906  -1.45931   0.09187 
 C                     2.75943  -0.44841   0.0831 
 C                     3.30997  -0.0472   -1.13863 
 C                     4.38695   0.84879  -1.18956 
 C                     4.99683   1.24358  -2.51591 
 C                     4.89784   1.34663   0.0124 
 C                     4.36726   0.95961   1.25011 
 C                     4.95789   1.48756   2.53825 
 C                     3.29819   0.05892   1.27256 
 H                     1.59004   2.27973  -2.03393 
 H                     0.84606   1.60916  -3.50485 
 H                     0.05032   2.95168  -2.64071 
 H                    -0.53188   1.34395  -0.88249 
 H                    -2.10569  -0.71972  -1.34831 
 H                    -0.14542  -3.05711  -1.42992 
 H                    -1.23871  -2.60047  -2.71697 
 H                    -0.96478  -4.18488   0.59893 
 H                    -2.78183  -5.44736   1.70305 
 H                    -5.08786  -5.39279   0.77 
 H                    -5.55113  -4.06853  -1.28576 
 H                    -3.72951  -2.80994  -2.38848 
 H                    -2.83528  -1.20004   0.78415 
 H                    -1.73039  -0.79746   2.10947 
 H                    -4.29181   0.5082    0.0016 
 H                    -4.90475   2.90679  -0.19769 
 H                    -3.38283   4.6579    0.6645 
 H                    -1.35591   4.70058   2.89306 
 H                    -0.91183   5.19586   1.25921 
 H                     0.03016   3.94813   2.09658 
 H                    -0.62654   1.61525   1.94574 
 H                     1.95086  -2.36988   0.60911 
 H                     1.3926   -1.74425  -0.9346 
 H                     2.88953  -0.43041  -2.066 
 H                     5.46292   2.23364  -2.46517 
 H                     4.24719   1.26028  -3.31443 
 H                     5.77669   0.53315  -2.8218 
 H                     5.72909   2.04995  -0.01375 
 H                     5.25721   2.53764   2.44297 
 H                     4.2449    1.41122   3.36547 
 H                     5.85456   0.92248   2.82671 
 H                     2.8602   -0.24145   2.21894 
 
 ITRead=  0  0  0  0  0  0  0  0  0  0  0  0  0  0  0  0  0  0  0  0
 ITRead=  0  0  0  0  0  0  0  0  0  0  0  0  0  0  0  0  0  0  0  0
 ITRead=  0  0  0  0  0  0  0  0  0  0  0  0  0  0  0  0  0  0  0  0
 ITRead=  0  0  0  0
 MicOpt= -1 -1 -1 -1 -1 -1 -1 -1 -1 -1 -1 -1 -1 -1 -1 -1 -1 -1 -1 -1
 MicOpt= -1 -1 -1 -1 -1 -1 -1 -1 -1 -1 -1 -1 -1 -1 -1 -1 -1 -1 -1 -1
 MicOpt= -1 -1 -1 -1 -1 -1 -1 -1 -1 -1 -1 -1 -1 -1 -1 -1 -1 -1 -1 -1
 MicOpt= -1 -1 -1 -1
 NAtoms=     64 NQM=       64 NQMF=       0 NMMI=      0 NMMIF=      0
                NMic=       0 NMicF=      0.
                    Isotopes and Nuclear Properties:
 (Nuclear quadrupole moments (NQMom) in fm**2, nuclear magnetic moments (NMagM)
  in nuclear magnetons)

  Atom         1           2           3           4           5           6           7           8           9          10
 IAtWgt=          12          14          12          16          12          12          12          12          12          12
 AtmWgt=  12.0000000  14.0030740  12.0000000  15.9949146  12.0000000  12.0000000  12.0000000  12.0000000  12.0000000  12.0000000
 NucSpn=           0           2           0           0           0           0           0           0           0           0
 AtZEff=  -0.0000000  -0.0000000  -0.0000000  -0.0000000  -0.0000000  -0.0000000  -0.0000000  -0.0000000  -0.0000000  -0.0000000
 NQMom=    0.0000000   2.0440000   0.0000000   0.0000000   0.0000000   0.0000000   0.0000000   0.0000000   0.0000000   0.0000000
 NMagM=    0.0000000   0.4037610   0.0000000   0.0000000   0.0000000   0.0000000   0.0000000   0.0000000   0.0000000   0.0000000
 AtZNuc=   6.0000000   7.0000000   6.0000000   8.0000000   6.0000000   6.0000000   6.0000000   6.0000000   6.0000000   6.0000000

  Atom        11          12          13          14          15          16          17          18          19          20
 IAtWgt=          12          12          14          12          12          12          12          12          12          12
 AtmWgt=  12.0000000  12.0000000  14.0030740  12.0000000  12.0000000  12.0000000  12.0000000  12.0000000  12.0000000  12.0000000
 NucSpn=           0           0           2           0           0           0           0           0           0           0
 AtZEff=  -0.0000000  -0.0000000  -0.0000000  -0.0000000  -0.0000000  -0.0000000  -0.0000000  -0.0000000  -0.0000000  -0.0000000
 NQMom=    0.0000000   0.0000000   2.0440000   0.0000000   0.0000000   0.0000000   0.0000000   0.0000000   0.0000000   0.0000000
 NMagM=    0.0000000   0.0000000   0.4037610   0.0000000   0.0000000   0.0000000   0.0000000   0.0000000   0.0000000   0.0000000
 AtZNuc=   6.0000000   6.0000000   7.0000000   6.0000000   6.0000000   6.0000000   6.0000000   6.0000000   6.0000000   6.0000000

  Atom        21          22          23          24          25          26          27          28          29          30
 IAtWgt=          12          12          16          12          12          12          12          12          12          12
 AtmWgt=  12.0000000  12.0000000  15.9949146  12.0000000  12.0000000  12.0000000  12.0000000  12.0000000  12.0000000  12.0000000
 NucSpn=           0           0           0           0           0           0           0           0           0           0
 AtZEff=  -0.0000000  -0.0000000  -0.0000000  -0.0000000  -0.0000000  -0.0000000  -0.0000000  -0.0000000  -0.0000000  -0.0000000
 NQMom=    0.0000000   0.0000000   0.0000000   0.0000000   0.0000000   0.0000000   0.0000000   0.0000000   0.0000000   0.0000000
 NMagM=    0.0000000   0.0000000   0.0000000   0.0000000   0.0000000   0.0000000   0.0000000   0.0000000   0.0000000   0.0000000
 AtZNuc=   6.0000000   6.0000000   8.0000000   6.0000000   6.0000000   6.0000000   6.0000000   6.0000000   6.0000000   6.0000000

  Atom        31          32          33          34          35          36          37          38          39          40
 IAtWgt=          12          12           1           1           1           1           1           1           1           1
 AtmWgt=  12.0000000  12.0000000   1.0078250   1.0078250   1.0078250   1.0078250   1.0078250   1.0078250   1.0078250   1.0078250
 NucSpn=           0           0           1           1           1           1           1           1           1           1
 AtZEff=  -0.0000000  -0.0000000  -0.0000000  -0.0000000  -0.0000000  -0.0000000  -0.0000000  -0.0000000  -0.0000000  -0.0000000
 NQMom=    0.0000000   0.0000000   0.0000000   0.0000000   0.0000000   0.0000000   0.0000000   0.0000000   0.0000000   0.0000000
 NMagM=    0.0000000   0.0000000   2.7928460   2.7928460   2.7928460   2.7928460   2.7928460   2.7928460   2.7928460   2.7928460
 AtZNuc=   6.0000000   6.0000000   1.0000000   1.0000000   1.0000000   1.0000000   1.0000000   1.0000000   1.0000000   1.0000000

  Atom        41          42          43          44          45          46          47          48          49          50
 IAtWgt=           1           1           1           1           1           1           1           1           1           1
 AtmWgt=   1.0078250   1.0078250   1.0078250   1.0078250   1.0078250   1.0078250   1.0078250   1.0078250   1.0078250   1.0078250
 NucSpn=           1           1           1           1           1           1           1           1           1           1
 AtZEff=  -0.0000000  -0.0000000  -0.0000000  -0.0000000  -0.0000000  -0.0000000  -0.0000000  -0.0000000  -0.0000000  -0.0000000
 NQMom=    0.0000000   0.0000000   0.0000000   0.0000000   0.0000000   0.0000000   0.0000000   0.0000000   0.0000000   0.0000000
 NMagM=    2.7928460   2.7928460   2.7928460   2.7928460   2.7928460   2.7928460   2.7928460   2.7928460   2.7928460   2.7928460
 AtZNuc=   1.0000000   1.0000000   1.0000000   1.0000000   1.0000000   1.0000000   1.0000000   1.0000000   1.0000000   1.0000000

  Atom        51          52          53          54          55          56          57          58          59          60
 IAtWgt=           1           1           1           1           1           1           1           1           1           1
 AtmWgt=   1.0078250   1.0078250   1.0078250   1.0078250   1.0078250   1.0078250   1.0078250   1.0078250   1.0078250   1.0078250
 NucSpn=           1           1           1           1           1           1           1           1           1           1
 AtZEff=  -0.0000000  -0.0000000  -0.0000000  -0.0000000  -0.0000000  -0.0000000  -0.0000000  -0.0000000  -0.0000000  -0.0000000
 NQMom=    0.0000000   0.0000000   0.0000000   0.0000000   0.0000000   0.0000000   0.0000000   0.0000000   0.0000000   0.0000000
 NMagM=    2.7928460   2.7928460   2.7928460   2.7928460   2.7928460   2.7928460   2.7928460   2.7928460   2.7928460   2.7928460
 AtZNuc=   1.0000000   1.0000000   1.0000000   1.0000000   1.0000000   1.0000000   1.0000000   1.0000000   1.0000000   1.0000000

  Atom        61          62          63          64
 IAtWgt=           1           1           1           1
 AtmWgt=   1.0078250   1.0078250   1.0078250   1.0078250
 NucSpn=           1           1           1           1
 AtZEff=  -0.0000000  -0.0000000  -0.0000000  -0.0000000
 NQMom=    0.0000000   0.0000000   0.0000000   0.0000000
 NMagM=    2.7928460   2.7928460   2.7928460   2.7928460
 AtZNuc=   1.0000000   1.0000000   1.0000000   1.0000000
 Leave Link  101 at Sat Nov  5 09:38:51 2022, MaxMem=   402653184 cpu:               1.7 elap:               0.3
 (Enter /home/wykgroup/appl/g16/l202.exe)
 Symmetry turned off by external request.
 Stoichiometry    C28H32N2O2
 Framework group  C1[X(C28H32N2O2)]
 Deg. of freedom   186
 Full point group                 C1      NOp   1
                          Input orientation:                          
 ---------------------------------------------------------------------
 Center     Atomic      Atomic             Coordinates (Angstroms)
 Number     Number       Type             X           Y           Z
 ---------------------------------------------------------------------
      1          6           0        0.639362    2.036269   -2.522536
      2          7           0       -0.113052    1.056190   -1.758438
      3          6           0       -0.200030   -0.248032   -2.120127
      4          8           0        0.321372   -0.716493   -3.129437
      5          6           0       -1.093788   -1.112305   -1.190297
      6          6           0       -1.116569   -2.595285   -1.629747
      7          6           0       -2.217608   -3.394048   -0.965688
      8          6           0       -1.970698   -4.151303    0.187213
      9          6           0       -2.995982   -4.865126    0.810625
     10          6           0       -4.289568   -4.834985    0.287889
     11          6           0       -4.549376   -4.089601   -0.864292
     12          6           0       -3.521361   -3.378364   -1.483812
     13          7           0       -0.835724   -0.896990    0.244179
     14          6           0       -2.005451   -0.553495    1.082595
     15          6           0       -2.409020    0.904908    0.974165
     16          6           0       -3.618187    1.275116    0.377671
     17          6           0       -3.964956    2.624810    0.270011
     18          6           0       -3.107552    3.609291    0.754562
     19          6           0       -1.890955    3.264242    1.365042
     20          6           0       -0.981192    4.331335    1.929349
     21          6           0       -1.557026    1.909331    1.465066
     22          6           0        0.385034   -1.004326    0.880126
     23          8           0        0.492715   -0.762597    2.082281
     24          6           0        1.619063   -1.459311    0.091871
     25          6           0        2.759429   -0.448414    0.083099
     26          6           0        3.309974   -0.047204   -1.138629
     27          6           0        4.386947    0.848789   -1.189559
     28          6           0        4.996828    1.243582   -2.515911
     29          6           0        4.897837    1.346627    0.012404
     30          6           0        4.367258    0.959611    1.250109
     31          6           0        4.957892    1.487559    2.538252
     32          6           0        3.298187    0.058916    1.272562
     33          1           0        1.590044    2.279729   -2.033930
     34          1           0        0.846057    1.609160   -3.504850
     35          1           0        0.050324    2.951683   -2.640714
     36          1           0       -0.531879    1.343950   -0.882486
     37          1           0       -2.105690   -0.719717   -1.348312
     38          1           0       -0.145420   -3.057111   -1.429922
     39          1           0       -1.238707   -2.600474   -2.716970
     40          1           0       -0.964778   -4.184877    0.598929
     41          1           0       -2.781830   -5.447356    1.703052
     42          1           0       -5.087858   -5.392790    0.770004
     43          1           0       -5.551132   -4.068532   -1.285763
     44          1           0       -3.729508   -2.809941   -2.388481
     45          1           0       -2.835285   -1.200044    0.784148
     46          1           0       -1.730391   -0.797458    2.109465
     47          1           0       -4.291812    0.508196    0.001597
     48          1           0       -4.904754    2.906786   -0.197693
     49          1           0       -3.382829    4.657898    0.664502
     50          1           0       -1.355905    4.700580    2.893059
     51          1           0       -0.911829    5.195864    1.259214
     52          1           0        0.030165    3.948132    2.096583
     53          1           0       -0.626542    1.615253    1.945736
     54          1           0        1.950863   -2.369876    0.609110
     55          1           0        1.392598   -1.744247   -0.934598
     56          1           0        2.889535   -0.430408   -2.066001
     57          1           0        5.462918    2.233635   -2.465169
     58          1           0        4.247190    1.260284   -3.314431
     59          1           0        5.776687    0.533150   -2.821798
     60          1           0        5.729095    2.049949   -0.013752
     61          1           0        5.257206    2.537635    2.442969
     62          1           0        4.244896    1.411221    3.365474
     63          1           0        5.854562    0.922477    2.826707
     64          1           0        2.860205   -0.241446    2.218940
 ---------------------------------------------------------------------
 Rotational constants (GHZ):           0.1708919           0.0998879           0.0813253
 Leave Link  202 at Sat Nov  5 09:38:51 2022, MaxMem=   402653184 cpu:               0.2 elap:               0.1
 (Enter /home/wykgroup/appl/g16/l301.exe)
 Standard basis: 6-31G(d) (6D, 10F)
 Ernie: Thresh=  0.10000D-02 Tol=  0.10000D-05 Strict=F.
 AO basis set in the form of general basis input (Overlap normalization):
      1 0
 S   6 1.00       0.000000000000
      0.3047524880D+04  0.1834737132D-02
      0.4573695180D+03  0.1403732281D-01
      0.1039486850D+03  0.6884262226D-01
      0.2921015530D+02  0.2321844432D+00
      0.9286662960D+01  0.4679413484D+00
      0.3163926960D+01  0.3623119853D+00
 SP   3 1.00       0.000000000000
      0.7868272350D+01 -0.1193324198D+00  0.6899906659D-01
      0.1881288540D+01 -0.1608541517D+00  0.3164239610D+00
      0.5442492580D+00  0.1143456438D+01  0.7443082909D+00
 SP   1 1.00       0.000000000000
      0.1687144782D+00  0.1000000000D+01  0.1000000000D+01
 D   1 1.00       0.000000000000
      0.8000000000D+00  0.1000000000D+01
 ****
      2 0
 S   6 1.00       0.000000000000
      0.4173511460D+04  0.1834772160D-02
      0.6274579110D+03  0.1399462700D-01
      0.1429020930D+03  0.6858655181D-01
      0.4023432930D+02  0.2322408730D+00
      0.1282021290D+02  0.4690699481D+00
      0.4390437010D+01  0.3604551991D+00
 SP   3 1.00       0.000000000000
      0.1162636186D+02 -0.1149611817D+00  0.6757974388D-01
      0.2716279807D+01 -0.1691174786D+00  0.3239072959D+00
      0.7722183966D+00  0.1145851947D+01  0.7408951398D+00
 SP   1 1.00       0.000000000000
      0.2120314975D+00  0.1000000000D+01  0.1000000000D+01
 D   1 1.00       0.000000000000
      0.8000000000D+00  0.1000000000D+01
 ****
      3 0
 S   6 1.00       0.000000000000
      0.3047524880D+04  0.1834737132D-02
      0.4573695180D+03  0.1403732281D-01
      0.1039486850D+03  0.6884262226D-01
      0.2921015530D+02  0.2321844432D+00
      0.9286662960D+01  0.4679413484D+00
      0.3163926960D+01  0.3623119853D+00
 SP   3 1.00       0.000000000000
      0.7868272350D+01 -0.1193324198D+00  0.6899906659D-01
      0.1881288540D+01 -0.1608541517D+00  0.3164239610D+00
      0.5442492580D+00  0.1143456438D+01  0.7443082909D+00
 SP   1 1.00       0.000000000000
      0.1687144782D+00  0.1000000000D+01  0.1000000000D+01
 D   1 1.00       0.000000000000
      0.8000000000D+00  0.1000000000D+01
 ****
      4 0
 S   6 1.00       0.000000000000
      0.5484671660D+04  0.1831074430D-02
      0.8252349460D+03  0.1395017220D-01
      0.1880469580D+03  0.6844507810D-01
      0.5296450000D+02  0.2327143360D+00
      0.1689757040D+02  0.4701928980D+00
      0.5799635340D+01  0.3585208530D+00
 SP   3 1.00       0.000000000000
      0.1553961625D+02 -0.1107775495D+00  0.7087426823D-01
      0.3599933586D+01 -0.1480262627D+00  0.3397528391D+00
      0.1013761750D+01  0.1130767015D+01  0.7271585773D+00
 SP   1 1.00       0.000000000000
      0.2700058226D+00  0.1000000000D+01  0.1000000000D+01
 D   1 1.00       0.000000000000
      0.8000000000D+00  0.1000000000D+01
 ****
      5 0
 S   6 1.00       0.000000000000
      0.3047524880D+04  0.1834737132D-02
      0.4573695180D+03  0.1403732281D-01
      0.1039486850D+03  0.6884262226D-01
      0.2921015530D+02  0.2321844432D+00
      0.9286662960D+01  0.4679413484D+00
      0.3163926960D+01  0.3623119853D+00
 SP   3 1.00       0.000000000000
      0.7868272350D+01 -0.1193324198D+00  0.6899906659D-01
      0.1881288540D+01 -0.1608541517D+00  0.3164239610D+00
      0.5442492580D+00  0.1143456438D+01  0.7443082909D+00
 SP   1 1.00       0.000000000000
      0.1687144782D+00  0.1000000000D+01  0.1000000000D+01
 D   1 1.00       0.000000000000
      0.8000000000D+00  0.1000000000D+01
 ****
      6 0
 S   6 1.00       0.000000000000
      0.3047524880D+04  0.1834737132D-02
      0.4573695180D+03  0.1403732281D-01
      0.1039486850D+03  0.6884262226D-01
      0.2921015530D+02  0.2321844432D+00
      0.9286662960D+01  0.4679413484D+00
      0.3163926960D+01  0.3623119853D+00
 SP   3 1.00       0.000000000000
      0.7868272350D+01 -0.1193324198D+00  0.6899906659D-01
      0.1881288540D+01 -0.1608541517D+00  0.3164239610D+00
      0.5442492580D+00  0.1143456438D+01  0.7443082909D+00
 SP   1 1.00       0.000000000000
      0.1687144782D+00  0.1000000000D+01  0.1000000000D+01
 D   1 1.00       0.000000000000
      0.8000000000D+00  0.1000000000D+01
 ****
      7 0
 S   6 1.00       0.000000000000
      0.3047524880D+04  0.1834737132D-02
      0.4573695180D+03  0.1403732281D-01
      0.1039486850D+03  0.6884262226D-01
      0.2921015530D+02  0.2321844432D+00
      0.9286662960D+01  0.4679413484D+00
      0.3163926960D+01  0.3623119853D+00
 SP   3 1.00       0.000000000000
      0.7868272350D+01 -0.1193324198D+00  0.6899906659D-01
      0.1881288540D+01 -0.1608541517D+00  0.3164239610D+00
      0.5442492580D+00  0.1143456438D+01  0.7443082909D+00
 SP   1 1.00       0.000000000000
      0.1687144782D+00  0.1000000000D+01  0.1000000000D+01
 D   1 1.00       0.000000000000
      0.8000000000D+00  0.1000000000D+01
 ****
      8 0
 S   6 1.00       0.000000000000
      0.3047524880D+04  0.1834737132D-02
      0.4573695180D+03  0.1403732281D-01
      0.1039486850D+03  0.6884262226D-01
      0.2921015530D+02  0.2321844432D+00
      0.9286662960D+01  0.4679413484D+00
      0.3163926960D+01  0.3623119853D+00
 SP   3 1.00       0.000000000000
      0.7868272350D+01 -0.1193324198D+00  0.6899906659D-01
      0.1881288540D+01 -0.1608541517D+00  0.3164239610D+00
      0.5442492580D+00  0.1143456438D+01  0.7443082909D+00
 SP   1 1.00       0.000000000000
      0.1687144782D+00  0.1000000000D+01  0.1000000000D+01
 D   1 1.00       0.000000000000
      0.8000000000D+00  0.1000000000D+01
 ****
      9 0
 S   6 1.00       0.000000000000
      0.3047524880D+04  0.1834737132D-02
      0.4573695180D+03  0.1403732281D-01
      0.1039486850D+03  0.6884262226D-01
      0.2921015530D+02  0.2321844432D+00
      0.9286662960D+01  0.4679413484D+00
      0.3163926960D+01  0.3623119853D+00
 SP   3 1.00       0.000000000000
      0.7868272350D+01 -0.1193324198D+00  0.6899906659D-01
      0.1881288540D+01 -0.1608541517D+00  0.3164239610D+00
      0.5442492580D+00  0.1143456438D+01  0.7443082909D+00
 SP   1 1.00       0.000000000000
      0.1687144782D+00  0.1000000000D+01  0.1000000000D+01
 D   1 1.00       0.000000000000
      0.8000000000D+00  0.1000000000D+01
 ****
     10 0
 S   6 1.00       0.000000000000
      0.3047524880D+04  0.1834737132D-02
      0.4573695180D+03  0.1403732281D-01
      0.1039486850D+03  0.6884262226D-01
      0.2921015530D+02  0.2321844432D+00
      0.9286662960D+01  0.4679413484D+00
      0.3163926960D+01  0.3623119853D+00
 SP   3 1.00       0.000000000000
      0.7868272350D+01 -0.1193324198D+00  0.6899906659D-01
      0.1881288540D+01 -0.1608541517D+00  0.3164239610D+00
      0.5442492580D+00  0.1143456438D+01  0.7443082909D+00
 SP   1 1.00       0.000000000000
      0.1687144782D+00  0.1000000000D+01  0.1000000000D+01
 D   1 1.00       0.000000000000
      0.8000000000D+00  0.1000000000D+01
 ****
     11 0
 S   6 1.00       0.000000000000
      0.3047524880D+04  0.1834737132D-02
      0.4573695180D+03  0.1403732281D-01
      0.1039486850D+03  0.6884262226D-01
      0.2921015530D+02  0.2321844432D+00
      0.9286662960D+01  0.4679413484D+00
      0.3163926960D+01  0.3623119853D+00
 SP   3 1.00       0.000000000000
      0.7868272350D+01 -0.1193324198D+00  0.6899906659D-01
      0.1881288540D+01 -0.1608541517D+00  0.3164239610D+00
      0.5442492580D+00  0.1143456438D+01  0.7443082909D+00
 SP   1 1.00       0.000000000000
      0.1687144782D+00  0.1000000000D+01  0.1000000000D+01
 D   1 1.00       0.000000000000
      0.8000000000D+00  0.1000000000D+01
 ****
     12 0
 S   6 1.00       0.000000000000
      0.3047524880D+04  0.1834737132D-02
      0.4573695180D+03  0.1403732281D-01
      0.1039486850D+03  0.6884262226D-01
      0.2921015530D+02  0.2321844432D+00
      0.9286662960D+01  0.4679413484D+00
      0.3163926960D+01  0.3623119853D+00
 SP   3 1.00       0.000000000000
      0.7868272350D+01 -0.1193324198D+00  0.6899906659D-01
      0.1881288540D+01 -0.1608541517D+00  0.3164239610D+00
      0.5442492580D+00  0.1143456438D+01  0.7443082909D+00
 SP   1 1.00       0.000000000000
      0.1687144782D+00  0.1000000000D+01  0.1000000000D+01
 D   1 1.00       0.000000000000
      0.8000000000D+00  0.1000000000D+01
 ****
     13 0
 S   6 1.00       0.000000000000
      0.4173511460D+04  0.1834772160D-02
      0.6274579110D+03  0.1399462700D-01
      0.1429020930D+03  0.6858655181D-01
      0.4023432930D+02  0.2322408730D+00
      0.1282021290D+02  0.4690699481D+00
      0.4390437010D+01  0.3604551991D+00
 SP   3 1.00       0.000000000000
      0.1162636186D+02 -0.1149611817D+00  0.6757974388D-01
      0.2716279807D+01 -0.1691174786D+00  0.3239072959D+00
      0.7722183966D+00  0.1145851947D+01  0.7408951398D+00
 SP   1 1.00       0.000000000000
      0.2120314975D+00  0.1000000000D+01  0.1000000000D+01
 D   1 1.00       0.000000000000
      0.8000000000D+00  0.1000000000D+01
 ****
     14 0
 S   6 1.00       0.000000000000
      0.3047524880D+04  0.1834737132D-02
      0.4573695180D+03  0.1403732281D-01
      0.1039486850D+03  0.6884262226D-01
      0.2921015530D+02  0.2321844432D+00
      0.9286662960D+01  0.4679413484D+00
      0.3163926960D+01  0.3623119853D+00
 SP   3 1.00       0.000000000000
      0.7868272350D+01 -0.1193324198D+00  0.6899906659D-01
      0.1881288540D+01 -0.1608541517D+00  0.3164239610D+00
      0.5442492580D+00  0.1143456438D+01  0.7443082909D+00
 SP   1 1.00       0.000000000000
      0.1687144782D+00  0.1000000000D+01  0.1000000000D+01
 D   1 1.00       0.000000000000
      0.8000000000D+00  0.1000000000D+01
 ****
     15 0
 S   6 1.00       0.000000000000
      0.3047524880D+04  0.1834737132D-02
      0.4573695180D+03  0.1403732281D-01
      0.1039486850D+03  0.6884262226D-01
      0.2921015530D+02  0.2321844432D+00
      0.9286662960D+01  0.4679413484D+00
      0.3163926960D+01  0.3623119853D+00
 SP   3 1.00       0.000000000000
      0.7868272350D+01 -0.1193324198D+00  0.6899906659D-01
      0.1881288540D+01 -0.1608541517D+00  0.3164239610D+00
      0.5442492580D+00  0.1143456438D+01  0.7443082909D+00
 SP   1 1.00       0.000000000000
      0.1687144782D+00  0.1000000000D+01  0.1000000000D+01
 D   1 1.00       0.000000000000
      0.8000000000D+00  0.1000000000D+01
 ****
     16 0
 S   6 1.00       0.000000000000
      0.3047524880D+04  0.1834737132D-02
      0.4573695180D+03  0.1403732281D-01
      0.1039486850D+03  0.6884262226D-01
      0.2921015530D+02  0.2321844432D+00
      0.9286662960D+01  0.4679413484D+00
      0.3163926960D+01  0.3623119853D+00
 SP   3 1.00       0.000000000000
      0.7868272350D+01 -0.1193324198D+00  0.6899906659D-01
      0.1881288540D+01 -0.1608541517D+00  0.3164239610D+00
      0.5442492580D+00  0.1143456438D+01  0.7443082909D+00
 SP   1 1.00       0.000000000000
      0.1687144782D+00  0.1000000000D+01  0.1000000000D+01
 D   1 1.00       0.000000000000
      0.8000000000D+00  0.1000000000D+01
 ****
     17 0
 S   6 1.00       0.000000000000
      0.3047524880D+04  0.1834737132D-02
      0.4573695180D+03  0.1403732281D-01
      0.1039486850D+03  0.6884262226D-01
      0.2921015530D+02  0.2321844432D+00
      0.9286662960D+01  0.4679413484D+00
      0.3163926960D+01  0.3623119853D+00
 SP   3 1.00       0.000000000000
      0.7868272350D+01 -0.1193324198D+00  0.6899906659D-01
      0.1881288540D+01 -0.1608541517D+00  0.3164239610D+00
      0.5442492580D+00  0.1143456438D+01  0.7443082909D+00
 SP   1 1.00       0.000000000000
      0.1687144782D+00  0.1000000000D+01  0.1000000000D+01
 D   1 1.00       0.000000000000
      0.8000000000D+00  0.1000000000D+01
 ****
     18 0
 S   6 1.00       0.000000000000
      0.3047524880D+04  0.1834737132D-02
      0.4573695180D+03  0.1403732281D-01
      0.1039486850D+03  0.6884262226D-01
      0.2921015530D+02  0.2321844432D+00
      0.9286662960D+01  0.4679413484D+00
      0.3163926960D+01  0.3623119853D+00
 SP   3 1.00       0.000000000000
      0.7868272350D+01 -0.1193324198D+00  0.6899906659D-01
      0.1881288540D+01 -0.1608541517D+00  0.3164239610D+00
      0.5442492580D+00  0.1143456438D+01  0.7443082909D+00
 SP   1 1.00       0.000000000000
      0.1687144782D+00  0.1000000000D+01  0.1000000000D+01
 D   1 1.00       0.000000000000
      0.8000000000D+00  0.1000000000D+01
 ****
     19 0
 S   6 1.00       0.000000000000
      0.3047524880D+04  0.1834737132D-02
      0.4573695180D+03  0.1403732281D-01
      0.1039486850D+03  0.6884262226D-01
      0.2921015530D+02  0.2321844432D+00
      0.9286662960D+01  0.4679413484D+00
      0.3163926960D+01  0.3623119853D+00
 SP   3 1.00       0.000000000000
      0.7868272350D+01 -0.1193324198D+00  0.6899906659D-01
      0.1881288540D+01 -0.1608541517D+00  0.3164239610D+00
      0.5442492580D+00  0.1143456438D+01  0.7443082909D+00
 SP   1 1.00       0.000000000000
      0.1687144782D+00  0.1000000000D+01  0.1000000000D+01
 D   1 1.00       0.000000000000
      0.8000000000D+00  0.1000000000D+01
 ****
     20 0
 S   6 1.00       0.000000000000
      0.3047524880D+04  0.1834737132D-02
      0.4573695180D+03  0.1403732281D-01
      0.1039486850D+03  0.6884262226D-01
      0.2921015530D+02  0.2321844432D+00
      0.9286662960D+01  0.4679413484D+00
      0.3163926960D+01  0.3623119853D+00
 SP   3 1.00       0.000000000000
      0.7868272350D+01 -0.1193324198D+00  0.6899906659D-01
      0.1881288540D+01 -0.1608541517D+00  0.3164239610D+00
      0.5442492580D+00  0.1143456438D+01  0.7443082909D+00
 SP   1 1.00       0.000000000000
      0.1687144782D+00  0.1000000000D+01  0.1000000000D+01
 D   1 1.00       0.000000000000
      0.8000000000D+00  0.1000000000D+01
 ****
     21 0
 S   6 1.00       0.000000000000
      0.3047524880D+04  0.1834737132D-02
      0.4573695180D+03  0.1403732281D-01
      0.1039486850D+03  0.6884262226D-01
      0.2921015530D+02  0.2321844432D+00
      0.9286662960D+01  0.4679413484D+00
      0.3163926960D+01  0.3623119853D+00
 SP   3 1.00       0.000000000000
      0.7868272350D+01 -0.1193324198D+00  0.6899906659D-01
      0.1881288540D+01 -0.1608541517D+00  0.3164239610D+00
      0.5442492580D+00  0.1143456438D+01  0.7443082909D+00
 SP   1 1.00       0.000000000000
      0.1687144782D+00  0.1000000000D+01  0.1000000000D+01
 D   1 1.00       0.000000000000
      0.8000000000D+00  0.1000000000D+01
 ****
     22 0
 S   6 1.00       0.000000000000
      0.3047524880D+04  0.1834737132D-02
      0.4573695180D+03  0.1403732281D-01
      0.1039486850D+03  0.6884262226D-01
      0.2921015530D+02  0.2321844432D+00
      0.9286662960D+01  0.4679413484D+00
      0.3163926960D+01  0.3623119853D+00
 SP   3 1.00       0.000000000000
      0.7868272350D+01 -0.1193324198D+00  0.6899906659D-01
      0.1881288540D+01 -0.1608541517D+00  0.3164239610D+00
      0.5442492580D+00  0.1143456438D+01  0.7443082909D+00
 SP   1 1.00       0.000000000000
      0.1687144782D+00  0.1000000000D+01  0.1000000000D+01
 D   1 1.00       0.000000000000
      0.8000000000D+00  0.1000000000D+01
 ****
     23 0
 S   6 1.00       0.000000000000
      0.5484671660D+04  0.1831074430D-02
      0.8252349460D+03  0.1395017220D-01
      0.1880469580D+03  0.6844507810D-01
      0.5296450000D+02  0.2327143360D+00
      0.1689757040D+02  0.4701928980D+00
      0.5799635340D+01  0.3585208530D+00
 SP   3 1.00       0.000000000000
      0.1553961625D+02 -0.1107775495D+00  0.7087426823D-01
      0.3599933586D+01 -0.1480262627D+00  0.3397528391D+00
      0.1013761750D+01  0.1130767015D+01  0.7271585773D+00
 SP   1 1.00       0.000000000000
      0.2700058226D+00  0.1000000000D+01  0.1000000000D+01
 D   1 1.00       0.000000000000
      0.8000000000D+00  0.1000000000D+01
 ****
     24 0
 S   6 1.00       0.000000000000
      0.3047524880D+04  0.1834737132D-02
      0.4573695180D+03  0.1403732281D-01
      0.1039486850D+03  0.6884262226D-01
      0.2921015530D+02  0.2321844432D+00
      0.9286662960D+01  0.4679413484D+00
      0.3163926960D+01  0.3623119853D+00
 SP   3 1.00       0.000000000000
      0.7868272350D+01 -0.1193324198D+00  0.6899906659D-01
      0.1881288540D+01 -0.1608541517D+00  0.3164239610D+00
      0.5442492580D+00  0.1143456438D+01  0.7443082909D+00
 SP   1 1.00       0.000000000000
      0.1687144782D+00  0.1000000000D+01  0.1000000000D+01
 D   1 1.00       0.000000000000
      0.8000000000D+00  0.1000000000D+01
 ****
     25 0
 S   6 1.00       0.000000000000
      0.3047524880D+04  0.1834737132D-02
      0.4573695180D+03  0.1403732281D-01
      0.1039486850D+03  0.6884262226D-01
      0.2921015530D+02  0.2321844432D+00
      0.9286662960D+01  0.4679413484D+00
      0.3163926960D+01  0.3623119853D+00
 SP   3 1.00       0.000000000000
      0.7868272350D+01 -0.1193324198D+00  0.6899906659D-01
      0.1881288540D+01 -0.1608541517D+00  0.3164239610D+00
      0.5442492580D+00  0.1143456438D+01  0.7443082909D+00
 SP   1 1.00       0.000000000000
      0.1687144782D+00  0.1000000000D+01  0.1000000000D+01
 D   1 1.00       0.000000000000
      0.8000000000D+00  0.1000000000D+01
 ****
     26 0
 S   6 1.00       0.000000000000
      0.3047524880D+04  0.1834737132D-02
      0.4573695180D+03  0.1403732281D-01
      0.1039486850D+03  0.6884262226D-01
      0.2921015530D+02  0.2321844432D+00
      0.9286662960D+01  0.4679413484D+00
      0.3163926960D+01  0.3623119853D+00
 SP   3 1.00       0.000000000000
      0.7868272350D+01 -0.1193324198D+00  0.6899906659D-01
      0.1881288540D+01 -0.1608541517D+00  0.3164239610D+00
      0.5442492580D+00  0.1143456438D+01  0.7443082909D+00
 SP   1 1.00       0.000000000000
      0.1687144782D+00  0.1000000000D+01  0.1000000000D+01
 D   1 1.00       0.000000000000
      0.8000000000D+00  0.1000000000D+01
 ****
     27 0
 S   6 1.00       0.000000000000
      0.3047524880D+04  0.1834737132D-02
      0.4573695180D+03  0.1403732281D-01
      0.1039486850D+03  0.6884262226D-01
      0.2921015530D+02  0.2321844432D+00
      0.9286662960D+01  0.4679413484D+00
      0.3163926960D+01  0.3623119853D+00
 SP   3 1.00       0.000000000000
      0.7868272350D+01 -0.1193324198D+00  0.6899906659D-01
      0.1881288540D+01 -0.1608541517D+00  0.3164239610D+00
      0.5442492580D+00  0.1143456438D+01  0.7443082909D+00
 SP   1 1.00       0.000000000000
      0.1687144782D+00  0.1000000000D+01  0.1000000000D+01
 D   1 1.00       0.000000000000
      0.8000000000D+00  0.1000000000D+01
 ****
     28 0
 S   6 1.00       0.000000000000
      0.3047524880D+04  0.1834737132D-02
      0.4573695180D+03  0.1403732281D-01
      0.1039486850D+03  0.6884262226D-01
      0.2921015530D+02  0.2321844432D+00
      0.9286662960D+01  0.4679413484D+00
      0.3163926960D+01  0.3623119853D+00
 SP   3 1.00       0.000000000000
      0.7868272350D+01 -0.1193324198D+00  0.6899906659D-01
      0.1881288540D+01 -0.1608541517D+00  0.3164239610D+00
      0.5442492580D+00  0.1143456438D+01  0.7443082909D+00
 SP   1 1.00       0.000000000000
      0.1687144782D+00  0.1000000000D+01  0.1000000000D+01
 D   1 1.00       0.000000000000
      0.8000000000D+00  0.1000000000D+01
 ****
     29 0
 S   6 1.00       0.000000000000
      0.3047524880D+04  0.1834737132D-02
      0.4573695180D+03  0.1403732281D-01
      0.1039486850D+03  0.6884262226D-01
      0.2921015530D+02  0.2321844432D+00
      0.9286662960D+01  0.4679413484D+00
      0.3163926960D+01  0.3623119853D+00
 SP   3 1.00       0.000000000000
      0.7868272350D+01 -0.1193324198D+00  0.6899906659D-01
      0.1881288540D+01 -0.1608541517D+00  0.3164239610D+00
      0.5442492580D+00  0.1143456438D+01  0.7443082909D+00
 SP   1 1.00       0.000000000000
      0.1687144782D+00  0.1000000000D+01  0.1000000000D+01
 D   1 1.00       0.000000000000
      0.8000000000D+00  0.1000000000D+01
 ****
     30 0
 S   6 1.00       0.000000000000
      0.3047524880D+04  0.1834737132D-02
      0.4573695180D+03  0.1403732281D-01
      0.1039486850D+03  0.6884262226D-01
      0.2921015530D+02  0.2321844432D+00
      0.9286662960D+01  0.4679413484D+00
      0.3163926960D+01  0.3623119853D+00
 SP   3 1.00       0.000000000000
      0.7868272350D+01 -0.1193324198D+00  0.6899906659D-01
      0.1881288540D+01 -0.1608541517D+00  0.3164239610D+00
      0.5442492580D+00  0.1143456438D+01  0.7443082909D+00
 SP   1 1.00       0.000000000000
      0.1687144782D+00  0.1000000000D+01  0.1000000000D+01
 D   1 1.00       0.000000000000
      0.8000000000D+00  0.1000000000D+01
 ****
     31 0
 S   6 1.00       0.000000000000
      0.3047524880D+04  0.1834737132D-02
      0.4573695180D+03  0.1403732281D-01
      0.1039486850D+03  0.6884262226D-01
      0.2921015530D+02  0.2321844432D+00
      0.9286662960D+01  0.4679413484D+00
      0.3163926960D+01  0.3623119853D+00
 SP   3 1.00       0.000000000000
      0.7868272350D+01 -0.1193324198D+00  0.6899906659D-01
      0.1881288540D+01 -0.1608541517D+00  0.3164239610D+00
      0.5442492580D+00  0.1143456438D+01  0.7443082909D+00
 SP   1 1.00       0.000000000000
      0.1687144782D+00  0.1000000000D+01  0.1000000000D+01
 D   1 1.00       0.000000000000
      0.8000000000D+00  0.1000000000D+01
 ****
     32 0
 S   6 1.00       0.000000000000
      0.3047524880D+04  0.1834737132D-02
      0.4573695180D+03  0.1403732281D-01
      0.1039486850D+03  0.6884262226D-01
      0.2921015530D+02  0.2321844432D+00
      0.9286662960D+01  0.4679413484D+00
      0.3163926960D+01  0.3623119853D+00
 SP   3 1.00       0.000000000000
      0.7868272350D+01 -0.1193324198D+00  0.6899906659D-01
      0.1881288540D+01 -0.1608541517D+00  0.3164239610D+00
      0.5442492580D+00  0.1143456438D+01  0.7443082909D+00
 SP   1 1.00       0.000000000000
      0.1687144782D+00  0.1000000000D+01  0.1000000000D+01
 D   1 1.00       0.000000000000
      0.8000000000D+00  0.1000000000D+01
 ****
     33 0
 S   3 1.00       0.000000000000
      0.1873113696D+02  0.3349460434D-01
      0.2825394365D+01  0.2347269535D+00
      0.6401216923D+00  0.8137573261D+00
 S   1 1.00       0.000000000000
      0.1612777588D+00  0.1000000000D+01
 ****
     34 0
 S   3 1.00       0.000000000000
      0.1873113696D+02  0.3349460434D-01
      0.2825394365D+01  0.2347269535D+00
      0.6401216923D+00  0.8137573261D+00
 S   1 1.00       0.000000000000
      0.1612777588D+00  0.1000000000D+01
 ****
     35 0
 S   3 1.00       0.000000000000
      0.1873113696D+02  0.3349460434D-01
      0.2825394365D+01  0.2347269535D+00
      0.6401216923D+00  0.8137573261D+00
 S   1 1.00       0.000000000000
      0.1612777588D+00  0.1000000000D+01
 ****
     36 0
 S   3 1.00       0.000000000000
      0.1873113696D+02  0.3349460434D-01
      0.2825394365D+01  0.2347269535D+00
      0.6401216923D+00  0.8137573261D+00
 S   1 1.00       0.000000000000
      0.1612777588D+00  0.1000000000D+01
 ****
     37 0
 S   3 1.00       0.000000000000
      0.1873113696D+02  0.3349460434D-01
      0.2825394365D+01  0.2347269535D+00
      0.6401216923D+00  0.8137573261D+00
 S   1 1.00       0.000000000000
      0.1612777588D+00  0.1000000000D+01
 ****
     38 0
 S   3 1.00       0.000000000000
      0.1873113696D+02  0.3349460434D-01
      0.2825394365D+01  0.2347269535D+00
      0.6401216923D+00  0.8137573261D+00
 S   1 1.00       0.000000000000
      0.1612777588D+00  0.1000000000D+01
 ****
     39 0
 S   3 1.00       0.000000000000
      0.1873113696D+02  0.3349460434D-01
      0.2825394365D+01  0.2347269535D+00
      0.6401216923D+00  0.8137573261D+00
 S   1 1.00       0.000000000000
      0.1612777588D+00  0.1000000000D+01
 ****
     40 0
 S   3 1.00       0.000000000000
      0.1873113696D+02  0.3349460434D-01
      0.2825394365D+01  0.2347269535D+00
      0.6401216923D+00  0.8137573261D+00
 S   1 1.00       0.000000000000
      0.1612777588D+00  0.1000000000D+01
 ****
     41 0
 S   3 1.00       0.000000000000
      0.1873113696D+02  0.3349460434D-01
      0.2825394365D+01  0.2347269535D+00
      0.6401216923D+00  0.8137573261D+00
 S   1 1.00       0.000000000000
      0.1612777588D+00  0.1000000000D+01
 ****
     42 0
 S   3 1.00       0.000000000000
      0.1873113696D+02  0.3349460434D-01
      0.2825394365D+01  0.2347269535D+00
      0.6401216923D+00  0.8137573261D+00
 S   1 1.00       0.000000000000
      0.1612777588D+00  0.1000000000D+01
 ****
     43 0
 S   3 1.00       0.000000000000
      0.1873113696D+02  0.3349460434D-01
      0.2825394365D+01  0.2347269535D+00
      0.6401216923D+00  0.8137573261D+00
 S   1 1.00       0.000000000000
      0.1612777588D+00  0.1000000000D+01
 ****
     44 0
 S   3 1.00       0.000000000000
      0.1873113696D+02  0.3349460434D-01
      0.2825394365D+01  0.2347269535D+00
      0.6401216923D+00  0.8137573261D+00
 S   1 1.00       0.000000000000
      0.1612777588D+00  0.1000000000D+01
 ****
     45 0
 S   3 1.00       0.000000000000
      0.1873113696D+02  0.3349460434D-01
      0.2825394365D+01  0.2347269535D+00
      0.6401216923D+00  0.8137573261D+00
 S   1 1.00       0.000000000000
      0.1612777588D+00  0.1000000000D+01
 ****
     46 0
 S   3 1.00       0.000000000000
      0.1873113696D+02  0.3349460434D-01
      0.2825394365D+01  0.2347269535D+00
      0.6401216923D+00  0.8137573261D+00
 S   1 1.00       0.000000000000
      0.1612777588D+00  0.1000000000D+01
 ****
     47 0
 S   3 1.00       0.000000000000
      0.1873113696D+02  0.3349460434D-01
      0.2825394365D+01  0.2347269535D+00
      0.6401216923D+00  0.8137573261D+00
 S   1 1.00       0.000000000000
      0.1612777588D+00  0.1000000000D+01
 ****
     48 0
 S   3 1.00       0.000000000000
      0.1873113696D+02  0.3349460434D-01
      0.2825394365D+01  0.2347269535D+00
      0.6401216923D+00  0.8137573261D+00
 S   1 1.00       0.000000000000
      0.1612777588D+00  0.1000000000D+01
 ****
     49 0
 S   3 1.00       0.000000000000
      0.1873113696D+02  0.3349460434D-01
      0.2825394365D+01  0.2347269535D+00
      0.6401216923D+00  0.8137573261D+00
 S   1 1.00       0.000000000000
      0.1612777588D+00  0.1000000000D+01
 ****
     50 0
 S   3 1.00       0.000000000000
      0.1873113696D+02  0.3349460434D-01
      0.2825394365D+01  0.2347269535D+00
      0.6401216923D+00  0.8137573261D+00
 S   1 1.00       0.000000000000
      0.1612777588D+00  0.1000000000D+01
 ****
     51 0
 S   3 1.00       0.000000000000
      0.1873113696D+02  0.3349460434D-01
      0.2825394365D+01  0.2347269535D+00
      0.6401216923D+00  0.8137573261D+00
 S   1 1.00       0.000000000000
      0.1612777588D+00  0.1000000000D+01
 ****
     52 0
 S   3 1.00       0.000000000000
      0.1873113696D+02  0.3349460434D-01
      0.2825394365D+01  0.2347269535D+00
      0.6401216923D+00  0.8137573261D+00
 S   1 1.00       0.000000000000
      0.1612777588D+00  0.1000000000D+01
 ****
     53 0
 S   3 1.00       0.000000000000
      0.1873113696D+02  0.3349460434D-01
      0.2825394365D+01  0.2347269535D+00
      0.6401216923D+00  0.8137573261D+00
 S   1 1.00       0.000000000000
      0.1612777588D+00  0.1000000000D+01
 ****
     54 0
 S   3 1.00       0.000000000000
      0.1873113696D+02  0.3349460434D-01
      0.2825394365D+01  0.2347269535D+00
      0.6401216923D+00  0.8137573261D+00
 S   1 1.00       0.000000000000
      0.1612777588D+00  0.1000000000D+01
 ****
     55 0
 S   3 1.00       0.000000000000
      0.1873113696D+02  0.3349460434D-01
      0.2825394365D+01  0.2347269535D+00
      0.6401216923D+00  0.8137573261D+00
 S   1 1.00       0.000000000000
      0.1612777588D+00  0.1000000000D+01
 ****
     56 0
 S   3 1.00       0.000000000000
      0.1873113696D+02  0.3349460434D-01
      0.2825394365D+01  0.2347269535D+00
      0.6401216923D+00  0.8137573261D+00
 S   1 1.00       0.000000000000
      0.1612777588D+00  0.1000000000D+01
 ****
     57 0
 S   3 1.00       0.000000000000
      0.1873113696D+02  0.3349460434D-01
      0.2825394365D+01  0.2347269535D+00
      0.6401216923D+00  0.8137573261D+00
 S   1 1.00       0.000000000000
      0.1612777588D+00  0.1000000000D+01
 ****
     58 0
 S   3 1.00       0.000000000000
      0.1873113696D+02  0.3349460434D-01
      0.2825394365D+01  0.2347269535D+00
      0.6401216923D+00  0.8137573261D+00
 S   1 1.00       0.000000000000
      0.1612777588D+00  0.1000000000D+01
 ****
     59 0
 S   3 1.00       0.000000000000
      0.1873113696D+02  0.3349460434D-01
      0.2825394365D+01  0.2347269535D+00
      0.6401216923D+00  0.8137573261D+00
 S   1 1.00       0.000000000000
      0.1612777588D+00  0.1000000000D+01
 ****
     60 0
 S   3 1.00       0.000000000000
      0.1873113696D+02  0.3349460434D-01
      0.2825394365D+01  0.2347269535D+00
      0.6401216923D+00  0.8137573261D+00
 S   1 1.00       0.000000000000
      0.1612777588D+00  0.1000000000D+01
 ****
     61 0
 S   3 1.00       0.000000000000
      0.1873113696D+02  0.3349460434D-01
      0.2825394365D+01  0.2347269535D+00
      0.6401216923D+00  0.8137573261D+00
 S   1 1.00       0.000000000000
      0.1612777588D+00  0.1000000000D+01
 ****
     62 0
 S   3 1.00       0.000000000000
      0.1873113696D+02  0.3349460434D-01
      0.2825394365D+01  0.2347269535D+00
      0.6401216923D+00  0.8137573261D+00
 S   1 1.00       0.000000000000
      0.1612777588D+00  0.1000000000D+01
 ****
     63 0
 S   3 1.00       0.000000000000
      0.1873113696D+02  0.3349460434D-01
      0.2825394365D+01  0.2347269535D+00
      0.6401216923D+00  0.8137573261D+00
 S   1 1.00       0.000000000000
      0.1612777588D+00  0.1000000000D+01
 ****
     64 0
 S   3 1.00       0.000000000000
      0.1873113696D+02  0.3349460434D-01
      0.2825394365D+01  0.2347269535D+00
      0.6401216923D+00  0.8137573261D+00
 S   1 1.00       0.000000000000
      0.1612777588D+00  0.1000000000D+01
 ****

   544 basis functions,  1024 primitive gaussians,   544 cartesian basis functions
   115 alpha electrons      115 beta electrons
       nuclear repulsion energy      3241.8512742332 Hartrees.
 IExCor=  402 DFT=T Ex+Corr=B3LYP ExCW=0 ScaHFX=  0.200000
 ScaDFX=  0.800000  0.720000  1.000000  0.810000 ScalE2=  1.000000  1.000000
 IRadAn=      5 IRanWt=     -1 IRanGd=            0 ICorTp=0 IEmpDi=  4
 NAtoms=   64 NActive=   64 NUniq=   64 SFac= 1.00D+00 NAtFMM=   60 NAOKFM=T Big=T
 Integral buffers will be    131072 words long.
 Regular integral format.
 Two-electron integral symmetry is turned off.
 Leave Link  301 at Sat Nov  5 09:38:51 2022, MaxMem=   402653184 cpu:               0.8 elap:               0.2
 (Enter /home/wykgroup/appl/g16/l302.exe)
 NPDir=0 NMtPBC=     1 NCelOv=     1 NCel=       1 NClECP=     1 NCelD=      1
         NCelK=      1 NCelE2=     1 NClLst=     1 CellRange=     0.0.
 One-electron integrals computed using PRISM.
 NBasis=   544 RedAO= T EigKep=  3.86D-04  NBF=   544
 NBsUse=   544 1.00D-06 EigRej= -1.00D+00 NBFU=   544
 Precomputing XC quadrature grid using
 IXCGrd= 4 IRadAn=           5 IRanWt=          -1 IRanGd=           0 AccXCQ= 0.00D+00.
 Generated NRdTot=       0 NPtTot=           0 NUsed=           0 NTot=          32
 NSgBfM=   534   534   534   534   534 MxSgAt=    64 MxSgA2=    64.
 Leave Link  302 at Sat Nov  5 09:38:56 2022, MaxMem=   402653184 cpu:              40.3 elap:               5.2
 (Enter /home/wykgroup/appl/g16/l303.exe)
 DipDrv:  MaxL=1.
 Leave Link  303 at Sat Nov  5 09:38:57 2022, MaxMem=   402653184 cpu:               2.0 elap:               0.4
 (Enter /home/wykgroup/appl/g16/l308.exe)
 Leave Link  308 at Sat Nov  5 09:38:57 2022, MaxMem=   402653184 cpu:               1.3 elap:               0.3
 (Enter /home/wykgroup/appl/g16/l401.exe)
 ExpMin= 1.61D-01 ExpMax= 5.48D+03 ExpMxC= 8.25D+02 IAcc=3 IRadAn=         5 AccDes= 0.00D+00
 Harris functional with IExCor=  402 and IRadAn=       5 diagonalized for initial guess.
 HarFok:  IExCor=  402 AccDes= 0.00D+00 IRadAn=         5 IDoV= 1 UseB2=F ITyADJ=14
 ICtDFT=  3500011 ScaDFX=  1.000000  1.000000  1.000000  1.000000
 FoFCou: FMM=F IPFlag=           0 FMFlag=      100000 FMFlg1=        2001
         NFxFlg=           0 DoJE=T BraDBF=F KetDBF=T FulRan=T
         wScrn=  0.000000 ICntrl=       500 IOpCl=  0 I1Cent=   200000004 NGrid=           0
         NMat0=    1 NMatS0=      1 NMatT0=    0 NMatD0=    1 NMtDS0=    0 NMtDT0=    0
 Symmetry not used in FoFCou.
 Harris En= -1346.31875647333    
 JPrj=0 DoOrth=F DoCkMO=F.
 Leave Link  401 at Sat Nov  5 09:39:04 2022, MaxMem=   402653184 cpu:              48.6 elap:               6.6
 (Enter /home/wykgroup/appl/g16/l502.exe)
 Two-electron integral symmetry not used.
 Closed shell SCF:
 Using DIIS extrapolation, IDIIS=  1040.
 NGot=   402653184 LenX=   402048826 LenY=   401752346
 Requested convergence on RMS density matrix=1.00D-08 within  32 cycles.
 Requested convergence on MAX density matrix=1.00D-06.
 Requested convergence on             energy=1.00D-06.
 No special actions if energy rises.
 Fock matrices will be formed incrementally for  20 cycles.
 Integral accuracy reduced to 1.0D-05 until final iterations.

 Cycle   1  Pass 0  IDiag  1:
 FoFJK:  IHMeth= 1 ICntrl=       0 DoSepK=F KAlg= 0 I1Cent=           0 FoldK=F
 IRaf= 990000000 NMat=       1 IRICut=       1 DoRegI=T DoRafI=F ISym2E= 0 IDoP0=0 IntGTp=1.
 FoFCou: FMM=T IPFlag=           0 FMFlag=      100000 FMFlg1=        2001
         NFxFlg=           0 DoJE=F BraDBF=F KetDBF=F FulRan=T
         wScrn=  0.000000 ICntrl=         0 IOpCl=  0 I1Cent=           0 NGrid=           0
         NMat0=    1 NMatS0=      1 NMatT0=    0 NMatD0=    1 NMtDS0=    0 NMtDT0=    0
 Symmetry not used in FoFCou.
 FMM levels:  10  Number of levels for PrismC:   9
 E= -1345.43643914697    
 DIIS: error= 2.79D-02 at cycle   1 NSaved=   1.
 NSaved= 1 IEnMin= 1 EnMin= -1345.43643914697     IErMin= 1 ErrMin= 2.79D-02
 ErrMax= 2.79D-02  0.00D+00 EMaxC= 1.00D-01 BMatC= 8.15D-01 BMatP= 8.15D-01
 IDIUse=3 WtCom= 7.21D-01 WtEn= 2.79D-01
 Coeff-Com:  0.100D+01
 Coeff-En:   0.100D+01
 Coeff:      0.100D+01
 Gap=     0.290 Goal=   None    Shift=    0.000
 GapD=    0.290 DampG=1.000 DampE=0.500 DampFc=0.5000 IDamp=-1.
 Damping current iteration by 5.00D-01
 RMSDP=4.15D-03 MaxDP=2.49D-01              OVMax= 3.04D-01

 Cycle   2  Pass 0  IDiag  1:
 RMSU=  2.06D-03    CP:  9.81D-01
 E= -1345.73762616785     Delta-E=       -0.301187020878 Rises=F Damp=T
 DIIS: error= 1.02D-02 at cycle   2 NSaved=   2.
 NSaved= 2 IEnMin= 2 EnMin= -1345.73762616785     IErMin= 2 ErrMin= 1.02D-02
 ErrMax= 1.02D-02  0.00D+00 EMaxC= 1.00D-01 BMatC= 1.09D-01 BMatP= 8.15D-01
 IDIUse=3 WtCom= 8.98D-01 WtEn= 1.02D-01
 Coeff-Com:  0.158D+00 0.842D+00
 Coeff-En:   0.225D+00 0.775D+00
 Coeff:      0.164D+00 0.836D+00
 Gap=     0.277 Goal=   None    Shift=    0.000
 RMSDP=1.47D-03 MaxDP=1.35D-01 DE=-3.01D-01 OVMax= 2.05D-01

 Cycle   3  Pass 0  IDiag  1:
 RMSU=  1.32D-03    CP:  9.66D-01  7.00D-01
 E= -1346.10601472452     Delta-E=       -0.368388556670 Rises=F Damp=F
 DIIS: error= 1.60D-02 at cycle   3 NSaved=   3.
 NSaved= 3 IEnMin= 3 EnMin= -1346.10601472452     IErMin= 2 ErrMin= 1.02D-02
 ErrMax= 1.60D-02  0.00D+00 EMaxC= 1.00D-01 BMatC= 1.79D-01 BMatP= 1.09D-01
 IDIUse=2 WtCom= 0.00D+00 WtEn= 1.00D+00
 Coeff-En:   0.000D+00 0.000D+00 0.100D+01
 Coeff:      0.000D+00 0.000D+00 0.100D+01
 Gap=     0.280 Goal=   None    Shift=    0.000
 RMSDP=2.94D-03 MaxDP=3.58D-01 DE=-3.68D-01 OVMax= 4.05D-01

 Cycle   4  Pass 0  IDiag  1:
 RMSU=  1.48D-03    CP:  9.78D-01  1.34D+00 -6.42D-01
 E= -1345.19906902768     Delta-E=        0.906945696847 Rises=F Damp=F
 DIIS: error= 4.23D-02 at cycle   4 NSaved=   4.
 NSaved= 4 IEnMin= 3 EnMin= -1346.10601472452     IErMin= 2 ErrMin= 1.02D-02
 ErrMax= 4.23D-02  0.00D+00 EMaxC= 1.00D-01 BMatC= 1.30D+00 BMatP= 1.09D-01
 IDIUse=2 WtCom= 0.00D+00 WtEn= 1.00D+00
 Coeff-En:   0.000D+00 0.000D+00 0.818D+00 0.182D+00
 Coeff:      0.000D+00 0.000D+00 0.818D+00 0.182D+00
 Gap=     0.195 Goal=   None    Shift=    0.000
 RMSDP=1.70D-03 MaxDP=2.43D-01 DE= 9.07D-01 OVMax= 1.69D-01

 Cycle   5  Pass 0  IDiag  1:
 RMSU=  3.40D-04    CP:  9.73D-01  9.13D-01  2.27D-01  4.39D-01
 E= -1346.16987726754     Delta-E=       -0.970808239866 Rises=F Damp=F
 DIIS: error= 1.10D-02 at cycle   5 NSaved=   5.
 NSaved= 5 IEnMin= 5 EnMin= -1346.16987726754     IErMin= 2 ErrMin= 1.02D-02
 ErrMax= 1.10D-02  0.00D+00 EMaxC= 1.00D-01 BMatC= 1.07D-01 BMatP= 1.09D-01
 IDIUse=3 WtCom= 8.90D-01 WtEn= 1.10D-01
 Coeff-Com: -0.389D-02 0.504D-01 0.337D+00-0.938D-01 0.710D+00
 Coeff-En:   0.000D+00 0.000D+00 0.401D+00 0.000D+00 0.599D+00
 Coeff:     -0.346D-02 0.449D-01 0.344D+00-0.835D-01 0.698D+00
 Gap=     0.223 Goal=   None    Shift=    0.000
 RMSDP=5.93D-04 MaxDP=6.00D-02 DE=-9.71D-01 OVMax= 6.26D-02

 Cycle   6  Pass 0  IDiag  1:
 RMSU=  8.09D-05    CP:  9.70D-01  8.06D-01  5.62D-01  2.33D-01  7.47D-01
 E= -1346.25712148694     Delta-E=       -0.087244219398 Rises=F Damp=F
 DIIS: error= 1.15D-03 at cycle   6 NSaved=   6.
 NSaved= 6 IEnMin= 6 EnMin= -1346.25712148694     IErMin= 6 ErrMin= 1.15D-03
 ErrMax= 1.15D-03  0.00D+00 EMaxC= 1.00D-01 BMatC= 5.79D-04 BMatP= 1.07D-01
 IDIUse=3 WtCom= 9.89D-01 WtEn= 1.15D-02
 Coeff-Com: -0.334D-02 0.171D-01 0.168D+00-0.578D-01 0.397D+00 0.479D+00
 Coeff-En:   0.000D+00 0.000D+00 0.000D+00 0.000D+00 0.000D+00 0.100D+01
 Coeff:     -0.330D-02 0.169D-01 0.166D+00-0.571D-01 0.393D+00 0.485D+00
 Gap=     0.210 Goal=   None    Shift=    0.000
 RMSDP=5.20D-05 MaxDP=5.10D-03 DE=-8.72D-02 OVMax= 4.57D-03

 Cycle   7  Pass 0  IDiag  1:
 RMSU=  2.85D-05    CP:  9.70D-01  8.13D-01  5.55D-01  2.38D-01  7.72D-01
                    CP:  5.23D-01
 E= -1346.25753908205     Delta-E=       -0.000417595113 Rises=F Damp=F
 DIIS: error= 2.79D-04 at cycle   7 NSaved=   7.
 NSaved= 7 IEnMin= 7 EnMin= -1346.25753908205     IErMin= 7 ErrMin= 2.79D-04
 ErrMax= 2.79D-04  0.00D+00 EMaxC= 1.00D-01 BMatC= 8.84D-05 BMatP= 5.79D-04
 IDIUse=3 WtCom= 9.97D-01 WtEn= 2.79D-03
 Coeff-Com:  0.566D-04-0.675D-03 0.374D-01-0.133D-01 0.823D-01 0.252D+00
 Coeff-Com:  0.642D+00
 Coeff-En:   0.000D+00 0.000D+00 0.000D+00 0.000D+00 0.000D+00 0.109D+00
 Coeff-En:   0.891D+00
 Coeff:      0.565D-04-0.673D-03 0.373D-01-0.133D-01 0.821D-01 0.252D+00
 Coeff:      0.643D+00
 Gap=     0.210 Goal=   None    Shift=    0.000
 RMSDP=2.00D-05 MaxDP=1.39D-03 DE=-4.18D-04 OVMax= 1.96D-03

 Cycle   8  Pass 0  IDiag  1:
 RMSU=  1.01D-05    CP:  9.70D-01  8.10D-01  5.61D-01  2.35D-01  7.63D-01
                    CP:  6.31D-01  6.51D-01
 E= -1346.25761030226     Delta-E=       -0.000071220213 Rises=F Damp=F
 DIIS: error= 9.97D-05 at cycle   8 NSaved=   8.
 NSaved= 8 IEnMin= 8 EnMin= -1346.25761030226     IErMin= 8 ErrMin= 9.97D-05
 ErrMax= 9.97D-05  0.00D+00 EMaxC= 1.00D-01 BMatC= 1.03D-05 BMatP= 8.84D-05
 IDIUse=1 WtCom= 1.00D+00 WtEn= 0.00D+00
 Coeff-Com:  0.508D-03-0.203D-02 0.894D-02-0.293D-02 0.143D-01 0.120D+00
 Coeff-Com:  0.410D+00 0.452D+00
 Coeff:      0.508D-03-0.203D-02 0.894D-02-0.293D-02 0.143D-01 0.120D+00
 Coeff:      0.410D+00 0.452D+00
 Gap=     0.210 Goal=   None    Shift=    0.000
 RMSDP=6.78D-06 MaxDP=5.05D-04 DE=-7.12D-05 OVMax= 7.48D-04

 Initial convergence to 1.0D-05 achieved.  Increase integral accuracy.
 Cycle   9  Pass 1  IDiag  1:
 E= -1346.25762690265     Delta-E=       -0.000016600385 Rises=F Damp=F
 DIIS: error= 2.03D-04 at cycle   1 NSaved=   1.
 NSaved= 1 IEnMin= 1 EnMin= -1346.25762690265     IErMin= 1 ErrMin= 2.03D-04
 ErrMax= 2.03D-04  0.00D+00 EMaxC= 1.00D-01 BMatC= 9.77D-06 BMatP= 9.77D-06
 IDIUse=3 WtCom= 9.98D-01 WtEn= 2.03D-03
 Coeff-Com:  0.100D+01
 Coeff-En:   0.100D+01
 Coeff:      0.100D+01
 Gap=     0.210 Goal=   None    Shift=    0.000
 RMSDP=6.78D-06 MaxDP=5.05D-04 DE=-1.66D-05 OVMax= 5.12D-04

 Cycle  10  Pass 1  IDiag  1:
 RMSU=  9.48D-05    CP:  1.00D+00
 E= -1346.25763497539     Delta-E=       -0.000008072744 Rises=F Damp=F
 DIIS: error= 5.24D-05 at cycle   2 NSaved=   2.
 NSaved= 2 IEnMin= 2 EnMin= -1346.25763497539     IErMin= 2 ErrMin= 5.24D-05
 ErrMax= 5.24D-05  0.00D+00 EMaxC= 1.00D-01 BMatC= 2.06D-06 BMatP= 9.77D-06
 IDIUse=1 WtCom= 1.00D+00 WtEn= 0.00D+00
 Coeff-Com:  0.217D+00 0.783D+00
 Coeff:      0.217D+00 0.783D+00
 Gap=     0.210 Goal=   None    Shift=    0.000
 RMSDP=6.33D-06 MaxDP=5.91D-04 DE=-8.07D-06 OVMax= 7.10D-04

 Cycle  11  Pass 1  IDiag  1:
 RMSU=  6.27D-06    CP:  1.00D+00  1.01D+00
 E= -1346.25763290029     Delta-E=        0.000002075100 Rises=F Damp=F
 DIIS: error= 8.23D-05 at cycle   3 NSaved=   3.
 NSaved= 3 IEnMin= 2 EnMin= -1346.25763497539     IErMin= 2 ErrMin= 5.24D-05
 ErrMax= 8.23D-05  0.00D+00 EMaxC= 1.00D-01 BMatC= 4.59D-06 BMatP= 2.06D-06
 IDIUse=1 WtCom= 1.00D+00 WtEn= 0.00D+00
 Coeff-Com: -0.887D-03 0.600D+00 0.401D+00
 Coeff:     -0.887D-03 0.600D+00 0.401D+00
 Gap=     0.210 Goal=   None    Shift=    0.000
 RMSDP=3.80D-06 MaxDP=3.78D-04 DE= 2.08D-06 OVMax= 4.52D-04

 Cycle  12  Pass 1  IDiag  1:
 RMSU=  6.96D-07    CP:  1.00D+00  1.01D+00  4.06D-01
 E= -1346.25763668931     Delta-E=       -0.000003789014 Rises=F Damp=F
 DIIS: error= 4.63D-06 at cycle   4 NSaved=   4.
 NSaved= 4 IEnMin= 4 EnMin= -1346.25763668931     IErMin= 4 ErrMin= 4.63D-06
 ErrMax= 4.63D-06  0.00D+00 EMaxC= 1.00D-01 BMatC= 3.98D-08 BMatP= 2.06D-06
 IDIUse=1 WtCom= 1.00D+00 WtEn= 0.00D+00
 Coeff-Com: -0.345D-02 0.349D+00 0.240D+00 0.414D+00
 Coeff:     -0.345D-02 0.349D+00 0.240D+00 0.414D+00
 Gap=     0.210 Goal=   None    Shift=    0.000
 RMSDP=3.95D-07 MaxDP=3.05D-05 DE=-3.79D-06 OVMax= 2.79D-05

 Cycle  13  Pass 1  IDiag  1:
 RMSU=  1.92D-07    CP:  1.00D+00  1.01D+00  4.13D-01  5.09D-01
 E= -1346.25763672293     Delta-E=       -0.000000033626 Rises=F Damp=F
 DIIS: error= 9.89D-07 at cycle   5 NSaved=   5.
 NSaved= 5 IEnMin= 5 EnMin= -1346.25763672293     IErMin= 5 ErrMin= 9.89D-07
 ErrMax= 9.89D-07  0.00D+00 EMaxC= 1.00D-01 BMatC= 1.08D-09 BMatP= 3.98D-08
 IDIUse=1 WtCom= 1.00D+00 WtEn= 0.00D+00
 Coeff-Com: -0.184D-02 0.163D+00 0.113D+00 0.227D+00 0.499D+00
 Coeff:     -0.184D-02 0.163D+00 0.113D+00 0.227D+00 0.499D+00
 Gap=     0.210 Goal=   None    Shift=    0.000
 RMSDP=7.50D-08 MaxDP=5.10D-06 DE=-3.36D-08 OVMax= 7.64D-06

 Cycle  14  Pass 1  IDiag  1:
 RMSU=  5.63D-08    CP:  1.00D+00  1.01D+00  4.13D-01  5.22D-01  7.46D-01
 E= -1346.25763672383     Delta-E=       -0.000000000900 Rises=F Damp=F
 DIIS: error= 2.58D-07 at cycle   6 NSaved=   6.
 NSaved= 6 IEnMin= 6 EnMin= -1346.25763672383     IErMin= 6 ErrMin= 2.58D-07
 ErrMax= 2.58D-07  0.00D+00 EMaxC= 1.00D-01 BMatC= 8.79D-11 BMatP= 1.08D-09
 IDIUse=1 WtCom= 1.00D+00 WtEn= 0.00D+00
 Coeff-Com: -0.821D-03 0.697D-01 0.483D-01 0.103D+00 0.289D+00 0.490D+00
 Coeff:     -0.821D-03 0.697D-01 0.483D-01 0.103D+00 0.289D+00 0.490D+00
 Gap=     0.210 Goal=   None    Shift=    0.000
 RMSDP=2.35D-08 MaxDP=1.79D-06 DE=-9.00D-10 OVMax= 2.09D-06

 Cycle  15  Pass 1  IDiag  1:
 RMSU=  1.96D-08    CP:  1.00D+00  1.01D+00  4.12D-01  5.22D-01  7.74D-01
                    CP:  8.02D-01
 E= -1346.25763672393     Delta-E=       -0.000000000096 Rises=F Damp=F
 DIIS: error= 1.99D-07 at cycle   7 NSaved=   7.
 NSaved= 7 IEnMin= 7 EnMin= -1346.25763672393     IErMin= 7 ErrMin= 1.99D-07
 ErrMax= 1.99D-07  0.00D+00 EMaxC= 1.00D-01 BMatC= 1.15D-11 BMatP= 8.79D-11
 IDIUse=1 WtCom= 1.00D+00 WtEn= 0.00D+00
 Coeff-Com: -0.256D-03 0.210D-01 0.146D-01 0.327D-01 0.107D+00 0.294D+00
 Coeff-Com:  0.531D+00
 Coeff:     -0.256D-03 0.210D-01 0.146D-01 0.327D-01 0.107D+00 0.294D+00
 Coeff:      0.531D+00
 Gap=     0.210 Goal=   None    Shift=    0.000
 RMSDP=7.08D-09 MaxDP=8.36D-07 DE=-9.64D-11 OVMax= 6.01D-07

 SCF Done:  E(RB3LYP) =  -1346.25763672     A.U. after   15 cycles
            NFock= 15  Conv=0.71D-08     -V/T= 2.0097
 KE= 1.333266087579D+03 PE=-9.607476595962D+03 EE= 3.686101597426D+03
 Leave Link  502 at Sat Nov  5 09:41:59 2022, MaxMem=   402653184 cpu:            1305.9 elap:             174.8
 (Enter /home/wykgroup/appl/g16/l508.exe)
 QCSCF skips out because SCF is already converged.
 Leave Link  508 at Sat Nov  5 09:42:00 2022, MaxMem=   402653184 cpu:               0.0 elap:               0.2
 (Enter /home/wykgroup/appl/g16/l801.exe)
 DoSCS=F DFT=T ScalE2(SS,OS)=  1.000000  1.000000
 ExpMin= 1.61D-01 ExpMax= 5.48D+03 ExpMxC= 8.25D+02 IAcc=3 IRadAn=         5 AccDes= 0.00D+00
 HarFok:  IExCor=  205 AccDes= 0.00D+00 IRadAn=         5 IDoV=-2 UseB2=F ITyADJ=14
 ICtDFT= 12500011 ScaDFX=  1.000000  1.000000  1.000000  1.000000
 GSVD:  LWork=       -1280 too small for GESVD, short by        5600 words or        5600 for optimal perf.
 Largest valence mixing into a core orbital is  5.82D-05
 Largest core mixing into a valence orbital is  1.21D-05
 Range of M.O.s used for correlation:    33   544
 NBasis=   544 NAE=   115 NBE=   115 NFC=    32 NFV=     0
 NROrb=    512 NOA=    83 NOB=    83 NVA=   429 NVB=   429
 Leave Link  801 at Sat Nov  5 09:42:02 2022, MaxMem=   402653184 cpu:              11.5 elap:               1.7
 (Enter /home/wykgroup/appl/g16/l914.exe)
 RHF ground state
 Two-electron integral symmetry not used.
 MDV=   402653184 DFT=T DoStab=F Mixed=T DoRPA=T DoScal=F NonHer=T
 Making orbital integer symmetry assigments:
    16 initial guesses have been made.
 Convergence on wavefunction:    0.001000000000000
 Davidson Disk Diagonalization:  ConvIn= 1.00D-03 SkipCon=T Conv= 1.00D-03.
 Max sub-space:  2000 roots to seek:    16 dimension of matrix:        71214
 Iteration     1 Dimension    16 NMult     0 NNew     16
 CISAX will form    16 AO SS matrices at one time.
 NMat=    16 NSing=     8 JSym2X= 0.
 FoFJK:  IHMeth= 1 ICntrl=       0 DoSepK=F KAlg= 0 I1Cent=           0 FoldK=F
 IRaf= 990000000 NMat=      32 IRICut=       1 DoRegI=T DoRafI=F ISym2E= 0 IDoP0=0 IntGTp=1.
 FoFCou: FMM=T IPFlag=           0 FMFlag=      100000 FMFlg1=        2001
         NFxFlg=           0 DoJE=F BraDBF=F KetDBF=F FulRan=T
         wScrn=  0.000000 ICntrl=         0 IOpCl=  0 I1Cent=           0 NGrid=           0
         NMat0=   32 NMatS0=      8 NMatT0=    8 NMatD0=   32 NMtDS0=    0 NMtDT0=    0
 Symmetry not used in FoFCou.
 FMM levels:  10  Number of levels for PrismC:   9
 New state      1 was old state      6
 New state      2 was old state      4
 New state      4 was old state      2
 New state      5 was old state      1
 New state      6 was old state      5
 New state      7 was old state     10
 Excitation Energies [eV] at current iteration:
 Root      1 :     5.123057542117189
 Root      2 :     5.218095472307932
 Root      3 :     5.257559511689029
 Root      4 :     5.276359843123015
 Root      5 :     5.314558079970323
 Root      6 :     5.411236660941408
 Root      7 :     5.470266905715721
 Root      8 :     5.477150112445803
 Root      9 :     5.505294461530926
 Root     10 :     5.523540477313355
 Root     11 :     5.618151371407734
 Root     12 :     5.638075165948846
 Root     13 :     5.640283919893242
 Root     14 :     5.651341435727025
 Root     15 :     5.684929966586863
 Root     16 :     5.705647642407661
 Vector   4 SDiff=1.44D+01 TDiff=1.58D+01 assumed to be singlet.
 Vector   8 SDiff=1.44D+01 TDiff=1.55D+01 assumed to be singlet.
 Iteration     2 Dimension    24 NMult    16 NNew      8
 CISAX will form     8 AO SS matrices at one time.
 NMat=     8 NSing=     4 JSym2X= 0.
 New state      1 was old state      2
 Root      1 not converged, maximum delta is    0.526561040300308
 New state      2 was old state      1
 Root      2 not converged, maximum delta is    0.396988642855944
 Root      3 not converged, maximum delta is    0.103687226529462
 New state      4 was old state      5
 Root      4 not converged, maximum delta is    0.103907242301760
 Excitation Energies [eV] at current iteration:
 Root      1 :     3.985202025157604   Change is   -1.232893447150329
 Root      2 :     4.339796675871430   Change is   -0.783260866245760
 Root      3 :     5.180813398246021   Change is   -0.076746113443009
 Root      4 :     5.274870378057313   Change is   -0.039687701913010
 Iteration     3 Dimension    32 NMult    24 NNew      8
 CISAX will form     8 AO SS matrices at one time.
 NMat=     8 NSing=     4 JSym2X= 0.
 Root      1 not converged, maximum delta is    0.122925014425402
 Root      2 not converged, maximum delta is    0.160466169565103
 Root      3 not converged, maximum delta is    0.034207789041178
 Root      4 not converged, maximum delta is    0.150074525433639
 Excitation Energies [eV] at current iteration:
 Root      1 :     3.711175783012223   Change is   -0.274026242145381
 Root      2 :     3.818290036331605   Change is   -0.521506639539824
 Root      3 :     5.163788491188567   Change is   -0.017024907057453
 Root      4 :     5.226129809715652   Change is   -0.048740568341661
 Iteration     4 Dimension    40 NMult    32 NNew      8
 CISAX will form     8 AO SS matrices at one time.
 NMat=     8 NSing=     4 JSym2X= 0.
 Root      1 not converged, maximum delta is    0.147201391851856
 Root      2 not converged, maximum delta is    0.211232133200686
 Root      3 not converged, maximum delta is    0.047332701672422
 Root      4 not converged, maximum delta is    0.146196820534589
 Excitation Energies [eV] at current iteration:
 Root      1 :     3.659651530630608   Change is   -0.051524252381615
 Root      2 :     3.707632266692811   Change is   -0.110657769638794
 Root      3 :     5.156755693872116   Change is   -0.007032797316451
 Root      4 :     5.174997084767331   Change is   -0.051132724948321
 Iteration     5 Dimension    48 NMult    40 NNew      8
 CISAX will form     8 AO SS matrices at one time.
 NMat=     8 NSing=     4 JSym2X= 0.
 Root      1 not converged, maximum delta is    0.051891169043858
 Root      2 not converged, maximum delta is    0.067111045445153
 Root      3 not converged, maximum delta is    0.054690218532848
 Root      4 not converged, maximum delta is    0.068812985503605
 Excitation Energies [eV] at current iteration:
 Root      1 :     3.651671141755284   Change is   -0.007980388875324
 Root      2 :     3.695262461579293   Change is   -0.012369805113517
 Root      3 :     5.153271784758221   Change is   -0.003483909113895
 Root      4 :     5.159577116316212   Change is   -0.015419968451119
 Iteration     6 Dimension    56 NMult    48 NNew      8
 CISAX will form     8 AO SS matrices at one time.
 NMat=     8 NSing=     4 JSym2X= 0.
 Root      1 not converged, maximum delta is    0.006823015750286
 Root      2 not converged, maximum delta is    0.011469976813227
 Root      3 not converged, maximum delta is    0.059329892501620
 Root      4 not converged, maximum delta is    0.080752990320577
 Excitation Energies [eV] at current iteration:
 Root      1 :     3.650727605224699   Change is   -0.000943536530586
 Root      2 :     3.693788826167717   Change is   -0.001473635411576
 Root      3 :     5.151988285599417   Change is   -0.001283499158804
 Root      4 :     5.154098046605947   Change is   -0.005479069710266
 Iteration     7 Dimension    64 NMult    56 NNew      8
 CISAX will form     8 AO SS matrices at one time.
 NMat=     8 NSing=     4 JSym2X= 0.
 Root      1 not converged, maximum delta is    0.001527547447140
 Root      2 not converged, maximum delta is    0.002588165001972
 Root      3 not converged, maximum delta is    0.070751911426151
 Root      4 not converged, maximum delta is    0.090297591419169
 Excitation Energies [eV] at current iteration:
 Root      1 :     3.650603514078182   Change is   -0.000124091146516
 Root      2 :     3.693579642297051   Change is   -0.000209183870666
 Root      3 :     5.151485123055718   Change is   -0.000503162543699
 Root      4 :     5.152239598156438   Change is   -0.001858448449509
 Iteration     8 Dimension    72 NMult    64 NNew      8
 CISAX will form     8 AO SS matrices at one time.
 NMat=     8 NSing=     4 JSym2X= 0.
 Root      1 not converged, maximum delta is    0.002167274506294
 Root      2 not converged, maximum delta is    0.001956344006086
 Root      3 not converged, maximum delta is    0.053266795118351
 Root      4 not converged, maximum delta is    0.062165909185805
 Excitation Energies [eV] at current iteration:
 Root      1 :     3.650569843089609   Change is   -0.000033670988574
 Root      2 :     3.693542522054789   Change is   -0.000037120242262
 Root      3 :     5.151349594326255   Change is   -0.000135528729462
 Root      4 :     5.151851957765371   Change is   -0.000387640391067
 Iteration     9 Dimension    80 NMult    72 NNew      8
 CISAX will form     8 AO SS matrices at one time.
 NMat=     8 NSing=     4 JSym2X= 0.
 Root      1 not converged, maximum delta is    0.006244725436114
 Root      2 not converged, maximum delta is    0.006590731415873
 Root      3 not converged, maximum delta is    0.026687910680741
 Root      4 not converged, maximum delta is    0.032956111926715
 Excitation Energies [eV] at current iteration:
 Root      1 :     3.650514027081723   Change is   -0.000055816007886
 Root      2 :     3.693495301608563   Change is   -0.000047220446226
 Root      3 :     5.151302635367273   Change is   -0.000046958958983
 Root      4 :     5.151637386859570   Change is   -0.000214570905801
 Iteration    10 Dimension    88 NMult    80 NNew      8
 CISAX will form     8 AO SS matrices at one time.
 NMat=     8 NSing=     4 JSym2X= 0.
 Root      1 not converged, maximum delta is    0.007027338618718
 Root      2 not converged, maximum delta is    0.011828675596873
 Root      3 not converged, maximum delta is    0.036921102185718
 Root      4 not converged, maximum delta is    0.043826684862041
 Excitation Energies [eV] at current iteration:
 Root      1 :     3.650457341663462   Change is   -0.000056685418261
 Root      2 :     3.693420707186330   Change is   -0.000074594422233
 Root      3 :     5.151283866790106   Change is   -0.000018768577167
 Root      4 :     5.151503886060885   Change is   -0.000133500798685
 Iteration    11 Dimension    96 NMult    88 NNew      8
 CISAX will form     8 AO SS matrices at one time.
 NMat=     8 NSing=     4 JSym2X= 0.
 Root      1 not converged, maximum delta is    0.001750938572963
 Root      2 not converged, maximum delta is    0.004452329833113
 Root      3 not converged, maximum delta is    0.036305941894766
 Root      4 not converged, maximum delta is    0.041373241889829
 Excitation Energies [eV] at current iteration:
 Root      1 :     3.650443750798475   Change is   -0.000013590864987
 Root      2 :     3.693393427943081   Change is   -0.000027279243249
 Root      3 :     5.151273478045084   Change is   -0.000010388745022
 Root      4 :     5.151445743217339   Change is   -0.000058142843546
 Iteration    12 Dimension   104 NMult    96 NNew      8
 CISAX will form     8 AO SS matrices at one time.
 NMat=     8 NSing=     4 JSym2X= 0.
 Root      1 has converged.
 Root      2 has converged.
 Root      3 not converged, maximum delta is    0.013398177001879
 Root      4 not converged, maximum delta is    0.015024912424913
 Excitation Energies [eV] at current iteration:
 Root      1 :     3.650442101859454   Change is   -0.000001648939021
 Root      2 :     3.693389724037190   Change is   -0.000003703905890
 Root      3 :     5.151268211378781   Change is   -0.000005266666303
 Root      4 :     5.151433757232853   Change is   -0.000011985984486
 Iteration    13 Dimension   108 NMult   104 NNew      4
 CISAX will form     4 AO SS matrices at one time.
 NMat=     4 NSing=     4 JSym2X= 0.
 Root      1 has converged.
 Root      2 has converged.
 Root      3 not converged, maximum delta is    0.006170352533473
 Root      4 not converged, maximum delta is    0.006899250816901
 Excitation Energies [eV] at current iteration:
 Root      1 :     3.650442101859499   Change is    0.000000000000045
 Root      2 :     3.693389724037213   Change is    0.000000000000022
 Root      3 :     5.151265291057853   Change is   -0.000002920320929
 Root      4 :     5.151430055998405   Change is   -0.000003701234447
 Convergence on energies, max DE= 3.70D-06.
 Convergence on expansion vectors.
 ***********************************************************************
 Excited states from <AA,BB:AA,BB> singles matrix:
 ***********************************************************************
 
 1PDM for each excited state written to RWF  633
 Ground to excited state transition densities written to RWF  633
 Ground to excited state transition electric dipole moments (Au):
       state          X           Y           Z        Dip. S.      Osc.
         1        -0.0000      0.0000      0.0000      0.0000      0.0000
         2         0.0000     -0.0000      0.0000      0.0000      0.0000
         3        -0.2423     -0.0120      0.1375      0.0778      0.0098
         4        -0.0831      0.0925      0.0730      0.0208      0.0026
 Ground to excited state transition velocity dipole moments (Au):
       state          X           Y           Z        Dip. S.      Osc.
         1         0.0000     -0.0000     -0.0000      0.0000      0.0000
         2        -0.0000      0.0000     -0.0000      0.0000      0.0000
         3         0.0443      0.0039     -0.0276      0.0027      0.0096
         4         0.0155     -0.0203     -0.0152      0.0009      0.0031
 Ground to excited state transition magnetic dipole moments (Au):
       state          X           Y           Z
         1         0.0000      0.0000      0.0000
         2        -0.0000     -0.0000     -0.0000
         3         0.2890      0.1196      0.5614
         4        -0.0597      0.1337      0.2708
 Ground to excited state transition velocity quadrupole moments (Au):
       state          XX          YY          ZZ          XY          XZ          YZ
         1         0.0000     -0.0000      0.0000      0.0000     -0.0000      0.0000
         2        -0.0000     -0.0000     -0.0000     -0.0000      0.0000      0.0000
         3         0.2171     -0.1296      0.0124      0.2287     -0.1403     -0.0450
         4         0.0348     -0.1200     -0.0065      0.0560     -0.1151     -0.0548
 <0|del|b> * <b|rxdel|0> + <0|del|b> * <b|delr+rdel|0>
 Rotatory Strengths (R) in cgs (10**-40 erg-esu-cm/Gauss)
       state          XX          YY          ZZ    R(velocity)    E-M Angle
         1        -0.0000      0.0000     -0.0000     -0.0000       90.00
         2         0.0000     -0.0000      0.0000      0.0000       90.00
         3       -38.7968      3.0448     27.4706     -2.7604       93.78
         4       -18.7160     -9.4248     -0.8467     -9.6625      147.95
 1/2[<0|r|b>*<b|rxdel|0> + (<0|rxdel|b>*<b|r|0>)*]
 Rotatory Strengths (R) in cgs (10**-40 erg-esu-cm/Gauss)
       state          XX          YY          ZZ     R(length)
         1         0.0000     -0.0000     -0.0000     -0.0000
         2         0.0000     -0.0000      0.0000      0.0000
         3        49.5261      1.0139    -54.6089     -1.3563
         4        -3.5092     -8.7418    -13.9856     -8.7456
  1/2[<0|del|b>*<b|r|0> + (<0|r|b>*<b|del|0>)*] (Au)
       state          X           Y           Z        Dip. S.   Osc.(frdel)
         1        -0.0000     -0.0000     -0.0000      0.0000      0.0000
         2        -0.0000     -0.0000     -0.0000      0.0000      0.0000
         3        -0.0107     -0.0000     -0.0038      0.0146      0.0097
         4        -0.0013     -0.0019     -0.0011      0.0043      0.0029

 Excitation energies and oscillator strengths:
 
 Excited state symmetry could not be determined.
 Excited State   1:      Triplet-?Sym    3.6504 eV  339.64 nm  f=0.0000  <S**2>=2.000
     114 ->116         0.10098
     114 ->120         0.42408
     114 ->121        -0.10927
     114 ->123        -0.14842
     115 ->120        -0.11705
     115 ->121        -0.45385
 This state for optimization and/or second-order correction.
 Total Energy, E(TD-HF/TD-DFT) =  -1346.12348545    
 Copying the excited state density for this state as the 1-particle RhoCI density.
 
 Excited state symmetry could not be determined.
 Excited State   2:      Triplet-?Sym    3.6934 eV  335.69 nm  f=0.0000  <S**2>=2.000
     106 ->116        -0.17439
     107 ->116         0.17351
     108 ->116         0.18946
     109 ->116         0.16696
     111 ->116         0.16305
     111 ->117         0.35572
     111 ->118         0.11249
     112 ->116        -0.29643
     112 ->117         0.21697
     113 ->116         0.13751
 
 Excited state symmetry could not be determined.
 Excited State   3:      Singlet-?Sym    5.1513 eV  240.69 nm  f=0.0098  <S**2>=0.000
     112 ->116        -0.10165
     113 ->116        -0.23355
     114 ->116         0.40662
     114 ->120         0.13520
     114 ->121         0.23602
     115 ->116         0.19726
     115 ->120         0.27231
 
 Excited state symmetry could not be determined.
 Excited State   4:      Singlet-?Sym    5.1514 eV  240.68 nm  f=0.0026  <S**2>=0.000
     113 ->116         0.38312
     114 ->116        -0.23940
     114 ->121         0.22509
     115 ->116         0.37846
     115 ->120         0.23818
 SavETr:  write IOETrn=   770 NScale= 10 NData=  16 NLR=1 NState=    4 LETran=      82.
 Leave Link  914 at Sat Nov  5 10:10:09 2022, MaxMem=   402653184 cpu:           13778.7 elap:            1686.5
 (Enter /home/wykgroup/appl/g16/l601.exe)
 Copying SCF densities to generalized density rwf, IOpCl= 0 IROHF=0.

 **********************************************************************

            Population analysis using the SCF Density.

 **********************************************************************

 Alpha  occ. eigenvalues --  -19.11480 -19.11216 -14.37037 -14.36002 -10.28884
 Alpha  occ. eigenvalues --  -10.28808 -10.24361 -10.22077 -10.21406 -10.20411
 Alpha  occ. eigenvalues --  -10.20139 -10.19889 -10.19629 -10.19425 -10.19416
 Alpha  occ. eigenvalues --  -10.19283 -10.19273 -10.19251 -10.19181 -10.19123
 Alpha  occ. eigenvalues --  -10.19086 -10.18982 -10.18954 -10.18859 -10.18769
 Alpha  occ. eigenvalues --  -10.18667 -10.18552 -10.17699 -10.17539 -10.17280
 Alpha  occ. eigenvalues --  -10.17199 -10.16773  -1.03583  -1.03020  -0.93880
 Alpha  occ. eigenvalues --   -0.91626  -0.86189  -0.85637  -0.84888  -0.79588
 Alpha  occ. eigenvalues --   -0.78450  -0.77683  -0.76924  -0.76090  -0.74518
 Alpha  occ. eigenvalues --   -0.74176  -0.71605  -0.70524  -0.69183  -0.68331
 Alpha  occ. eigenvalues --   -0.67185  -0.66929  -0.65206  -0.60655  -0.60356
 Alpha  occ. eigenvalues --   -0.59275  -0.58565  -0.57948  -0.56851  -0.56277
 Alpha  occ. eigenvalues --   -0.54942  -0.51383  -0.51179  -0.50685  -0.49794
 Alpha  occ. eigenvalues --   -0.48499  -0.48473  -0.46979  -0.46455  -0.46011
 Alpha  occ. eigenvalues --   -0.45437  -0.45175  -0.44873  -0.44169  -0.44091
 Alpha  occ. eigenvalues --   -0.42776  -0.42342  -0.42106  -0.41874  -0.41733
 Alpha  occ. eigenvalues --   -0.41350  -0.41048  -0.40961  -0.40497  -0.40215
 Alpha  occ. eigenvalues --   -0.39997  -0.39624  -0.39138  -0.38791  -0.38701
 Alpha  occ. eigenvalues --   -0.38144  -0.37975  -0.37492  -0.36907  -0.36287
 Alpha  occ. eigenvalues --   -0.35751  -0.35427  -0.35183  -0.34470  -0.34104
 Alpha  occ. eigenvalues --   -0.33905  -0.33822  -0.32759  -0.32351  -0.32188
 Alpha  occ. eigenvalues --   -0.26942  -0.25624  -0.25355  -0.25220  -0.25010
 Alpha  occ. eigenvalues --   -0.24906  -0.24318  -0.23161  -0.22610  -0.22490
 Alpha virt. eigenvalues --   -0.01467  -0.00749  -0.00459  -0.00239   0.00461
 Alpha virt. eigenvalues --    0.01172   0.02188   0.02498   0.08415   0.08910
 Alpha virt. eigenvalues --    0.09800   0.10786   0.10925   0.11237   0.11907
 Alpha virt. eigenvalues --    0.12471   0.12802   0.13208   0.13390   0.13723
 Alpha virt. eigenvalues --    0.13972   0.14268   0.14433   0.14997   0.15619
 Alpha virt. eigenvalues --    0.15865   0.16134   0.16298   0.16515   0.16579
 Alpha virt. eigenvalues --    0.17284   0.17537   0.17709   0.18112   0.18502
 Alpha virt. eigenvalues --    0.18782   0.18893   0.19202   0.19413   0.19863
 Alpha virt. eigenvalues --    0.20188   0.20347   0.20521   0.21321   0.21872
 Alpha virt. eigenvalues --    0.23214   0.23790   0.24473   0.24746   0.25439
 Alpha virt. eigenvalues --    0.26475   0.27117   0.27316   0.28502   0.29605
 Alpha virt. eigenvalues --    0.30450   0.30874   0.32263   0.32453   0.32868
 Alpha virt. eigenvalues --    0.33357   0.33972   0.34719   0.35463   0.35878
 Alpha virt. eigenvalues --    0.36822   0.37551   0.37857   0.39806   0.40206
 Alpha virt. eigenvalues --    0.42469   0.43338   0.44291   0.44897   0.47398
 Alpha virt. eigenvalues --    0.48481   0.49498   0.50780   0.51772   0.51961
 Alpha virt. eigenvalues --    0.52672   0.52963   0.53223   0.53553   0.54003
 Alpha virt. eigenvalues --    0.54743   0.54869   0.54969   0.55392   0.55922
 Alpha virt. eigenvalues --    0.56355   0.56403   0.56775   0.57140   0.57426
 Alpha virt. eigenvalues --    0.57598   0.57969   0.58359   0.58722   0.59230
 Alpha virt. eigenvalues --    0.59290   0.59829   0.60234   0.60469   0.61044
 Alpha virt. eigenvalues --    0.61081   0.61452   0.61708   0.62123   0.62355
 Alpha virt. eigenvalues --    0.62864   0.63802   0.64086   0.64353   0.64964
 Alpha virt. eigenvalues --    0.65158   0.66230   0.66744   0.66949   0.68272
 Alpha virt. eigenvalues --    0.68884   0.69427   0.69984   0.70379   0.71558
 Alpha virt. eigenvalues --    0.72211   0.72812   0.73217   0.73617   0.74161
 Alpha virt. eigenvalues --    0.74476   0.74778   0.75820   0.76538   0.76693
 Alpha virt. eigenvalues --    0.77263   0.78034   0.78735   0.79919   0.80917
 Alpha virt. eigenvalues --    0.81500   0.82109   0.82752   0.82821   0.83180
 Alpha virt. eigenvalues --    0.83399   0.83835   0.84042   0.84669   0.84928
 Alpha virt. eigenvalues --    0.85324   0.85649   0.86631   0.86789   0.87104
 Alpha virt. eigenvalues --    0.87576   0.87710   0.88047   0.88730   0.88881
 Alpha virt. eigenvalues --    0.89141   0.89901   0.90408   0.90583   0.91027
 Alpha virt. eigenvalues --    0.91481   0.91910   0.92330   0.92650   0.93144
 Alpha virt. eigenvalues --    0.93454   0.93959   0.94520   0.94939   0.95726
 Alpha virt. eigenvalues --    0.96537   0.96582   0.97247   0.97872   0.98128
 Alpha virt. eigenvalues --    0.99328   0.99877   1.00097   1.00672   1.02861
 Alpha virt. eigenvalues --    1.03010   1.03903   1.04263   1.05167   1.07620
 Alpha virt. eigenvalues --    1.08219   1.09749   1.10012   1.11174   1.12748
 Alpha virt. eigenvalues --    1.13146   1.13475   1.14733   1.14751   1.15731
 Alpha virt. eigenvalues --    1.16654   1.17007   1.17638   1.18265   1.18842
 Alpha virt. eigenvalues --    1.20009   1.20380   1.21233   1.22898   1.23575
 Alpha virt. eigenvalues --    1.24375   1.25975   1.26194   1.26851   1.27623
 Alpha virt. eigenvalues --    1.29052   1.31755   1.33350   1.34495   1.35221
 Alpha virt. eigenvalues --    1.36543   1.37534   1.38012   1.38943   1.39663
 Alpha virt. eigenvalues --    1.39971   1.40957   1.41539   1.41896   1.42733
 Alpha virt. eigenvalues --    1.43006   1.43928   1.45874   1.46955   1.47211
 Alpha virt. eigenvalues --    1.48400   1.48779   1.49168   1.49402   1.49880
 Alpha virt. eigenvalues --    1.50126   1.50862   1.51254   1.51408   1.52090
 Alpha virt. eigenvalues --    1.54421   1.55452   1.56651   1.58435   1.59634
 Alpha virt. eigenvalues --    1.62039   1.63740   1.64371   1.68608   1.70458
 Alpha virt. eigenvalues --    1.73617   1.75981   1.77867   1.78061   1.78283
 Alpha virt. eigenvalues --    1.79130   1.80196   1.80982   1.81698   1.82334
 Alpha virt. eigenvalues --    1.83021   1.83956   1.84762   1.84855   1.85852
 Alpha virt. eigenvalues --    1.86353   1.86692   1.87512   1.87959   1.88356
 Alpha virt. eigenvalues --    1.88995   1.89268   1.89556   1.90211   1.90570
 Alpha virt. eigenvalues --    1.91076   1.91852   1.91950   1.92564   1.92923
 Alpha virt. eigenvalues --    1.93157   1.94496   1.94616   1.95366   1.96421
 Alpha virt. eigenvalues --    1.97526   1.98057   1.98611   2.00233   2.00403
 Alpha virt. eigenvalues --    2.01408   2.04125   2.04290   2.05245   2.05588
 Alpha virt. eigenvalues --    2.06087   2.07207   2.07665   2.08999   2.09832
 Alpha virt. eigenvalues --    2.10537   2.11680   2.12374   2.13641   2.14077
 Alpha virt. eigenvalues --    2.14677   2.15330   2.15669   2.15973   2.16562
 Alpha virt. eigenvalues --    2.18041   2.20161   2.20462   2.21102   2.21970
 Alpha virt. eigenvalues --    2.23339   2.23575   2.25358   2.26670   2.27711
 Alpha virt. eigenvalues --    2.28202   2.29068   2.29786   2.30351   2.30805
 Alpha virt. eigenvalues --    2.31407   2.31784   2.32672   2.32800   2.33379
 Alpha virt. eigenvalues --    2.34523   2.34660   2.36306   2.37223   2.37754
 Alpha virt. eigenvalues --    2.38345   2.38712   2.39298   2.40252   2.40697
 Alpha virt. eigenvalues --    2.41467   2.42307   2.43924   2.45228   2.46349
 Alpha virt. eigenvalues --    2.47588   2.48351   2.52641   2.55760   2.56938
 Alpha virt. eigenvalues --    2.58552   2.59067   2.61427   2.62733   2.63134
 Alpha virt. eigenvalues --    2.65159   2.65918   2.66448   2.67735   2.68229
 Alpha virt. eigenvalues --    2.69836   2.70628   2.72013   2.72916   2.73149
 Alpha virt. eigenvalues --    2.74449   2.75255   2.76812   2.77218   2.78418
 Alpha virt. eigenvalues --    2.79643   2.81340   2.81502   2.82300   2.82915
 Alpha virt. eigenvalues --    2.84687   2.85055   2.88669   2.91710   2.93207
 Alpha virt. eigenvalues --    2.96885   3.00988   3.02991   3.04309   3.05553
 Alpha virt. eigenvalues --    3.08481   3.13038   3.15366   3.18479   3.40297
 Alpha virt. eigenvalues --    3.40846   3.42552   3.97232   4.02809   4.09473
 Alpha virt. eigenvalues --    4.09613   4.11407   4.11606   4.12269   4.13079
 Alpha virt. eigenvalues --    4.13850   4.14937   4.17421   4.19515   4.20674
 Alpha virt. eigenvalues --    4.24363   4.25283   4.25598   4.28859   4.30176
 Alpha virt. eigenvalues --    4.31740   4.33809   4.35904   4.40440   4.43485
 Alpha virt. eigenvalues --    4.44340   4.47488   4.49314   4.58876   4.66042
 Alpha virt. eigenvalues --    4.69504   4.71505   4.72986   4.76190
          Condensed to atoms (all electrons):
 Mulliken charges:
               1
     1  C   -0.316302
     2  N   -0.595239
     3  C    0.626468
     4  O   -0.542389
     5  C   -0.095397
     6  C   -0.351678
     7  C    0.163952
     8  C   -0.181128
     9  C   -0.128539
    10  C   -0.131106
    11  C   -0.128627
    12  C   -0.188114
    13  N   -0.441060
    14  C   -0.251704
    15  C    0.152517
    16  C   -0.194847
    17  C   -0.124831
    18  C   -0.176778
    19  C    0.180168
    20  C   -0.530028
    21  C   -0.272204
    22  C    0.607373
    23  O   -0.526059
    24  C   -0.465573
    25  C    0.163702
    26  C   -0.261982
    27  C    0.177869
    28  C   -0.529873
    29  C   -0.235277
    30  C    0.181036
    31  C   -0.529022
    32  C   -0.235966
    33  H    0.175165
    34  H    0.193804
    35  H    0.155907
    36  H    0.355874
    37  H    0.177897
    38  H    0.163529
    39  H    0.177352
    40  H    0.130393
    41  H    0.133311
    42  H    0.130734
    43  H    0.130472
    44  H    0.125954
    45  H    0.171218
    46  H    0.201446
    47  H    0.129462
    48  H    0.132392
    49  H    0.125350
    50  H    0.169687
    51  H    0.157361
    52  H    0.164903
    53  H    0.165246
    54  H    0.182735
    55  H    0.178618
    56  H    0.145237
    57  H    0.151187
    58  H    0.158283
    59  H    0.164782
    60  H    0.108266
    61  H    0.151832
    62  H    0.158750
    63  H    0.162567
    64  H    0.150921
 Sum of Mulliken charges =  -0.00000
 Mulliken charges with hydrogens summed into heavy atoms:
               1
     1  C    0.208574
     2  N   -0.239365
     3  C    0.626468
     4  O   -0.542389
     5  C    0.082500
     6  C   -0.010797
     7  C    0.163952
     8  C   -0.050735
     9  C    0.004773
    10  C   -0.000372
    11  C    0.001845
    12  C   -0.062160
    13  N   -0.441060
    14  C    0.120960
    15  C    0.152517
    16  C   -0.065385
    17  C    0.007561
    18  C   -0.051428
    19  C    0.180168
    20  C   -0.038077
    21  C   -0.106957
    22  C    0.607373
    23  O   -0.526059
    24  C   -0.104220
    25  C    0.163702
    26  C   -0.116745
    27  C    0.177869
    28  C   -0.055621
    29  C   -0.127011
    30  C    0.181036
    31  C   -0.055873
    32  C   -0.085045
 Electronic spatial extent (au):  <R**2>=          14532.4512
 Charge=             -0.0000 electrons
 Dipole moment (field-independent basis, Debye):
    X=             -2.1077    Y=              2.1817    Z=             -0.0199  Tot=              3.0336
 Quadrupole moment (field-independent basis, Debye-Ang):
   XX=           -174.6123   YY=           -175.3280   ZZ=           -198.2125
   XY=              4.7942   XZ=              2.6611   YZ=             -4.7922
 Traceless Quadrupole moment (field-independent basis, Debye-Ang):
   XX=              8.1053   YY=              7.3896   ZZ=            -15.4949
   XY=              4.7942   XZ=              2.6611   YZ=             -4.7922
 Octapole moment (field-independent basis, Debye-Ang**2):
  XXX=             41.0246  YYY=            141.4908  ZZZ=             69.1287  XYY=              5.4943
  XXY=             35.0962  XXZ=             -2.7320  XZZ=             30.0762  YZZ=             53.7774
  YYZ=             46.0286  XYZ=              5.8074
 Hexadecapole moment (field-independent basis, Debye-Ang**3):
 XXXX=          -9680.5070 YYYY=          -6863.3069 ZZZZ=          -2973.0377 XXXY=          -1029.3520
 XXXZ=            187.1246 YYYX=          -1337.5038 YYYZ=           -569.1590 ZZZX=            120.0924
 ZZZY=           -477.9737 XXYY=          -2659.2966 XXZZ=          -2105.1195 YYZZ=          -1605.0342
 XXYZ=           -174.3652 YYXZ=            -43.0271 ZZXY=           -377.3042
 N-N= 3.241851274233D+03 E-N=-9.607476581757D+03  KE= 1.333266087579D+03
 Leave Link  601 at Sat Nov  5 10:10:10 2022, MaxMem=   402653184 cpu:               3.1 elap:               0.6
 (Enter /home/wykgroup/appl/g16/l9999.exe)
 Electronic transition elements 
                 1             2             3             4 
      1  -0.134612D+04 -0.134612D+04 -0.134607D+04 -0.134607D+04
      2   0.000000D+00  0.000000D+00 -0.242312D+00 -0.831140D-01
      3   0.000000D+00  0.000000D+00 -0.119869D-01  0.924721D-01
      4   0.000000D+00  0.000000D+00  0.137542D+00  0.730208D-01
      5   0.000000D+00  0.000000D+00  0.442740D-01  0.155293D-01
      6   0.000000D+00  0.000000D+00  0.388621D-02 -0.202934D-01
      7   0.000000D+00  0.000000D+00 -0.275684D-01 -0.152122D-01
      8   0.000000D+00  0.000000D+00  0.289027D+00 -0.597055D-01
      9   0.000000D+00  0.000000D+00  0.119611D+00  0.133681D+00
     10   0.000000D+00  0.000000D+00  0.561444D+00  0.270841D+00
     11   0.000000D+00  0.000000D+00  0.217150D+00  0.347935D-01
     12   0.000000D+00  0.000000D+00 -0.129585D+00 -0.119975D+00
     13   0.000000D+00  0.000000D+00  0.124396D-01 -0.648455D-02
     14   0.000000D+00  0.000000D+00  0.228655D+00  0.559790D-01
     15   0.000000D+00  0.000000D+00 -0.140346D+00 -0.115123D+00
     16   0.000000D+00  0.000000D+00 -0.449868D-01 -0.547641D-01
 1\1\GINC-NODE32\SP\RB3LYP TD-FC\6-31G(d)\C28H32N2O2\WYKGROUP\05-Nov-20
 22\0\\#p b3lyp/6-31g(d) 6D 10F nosymm GFInput td=(50-50,nstate=2) SCF=
 XQC\\Gaussian input prepared by ASE\\0,1\C,0,0.6393622935,2.0362688271
 ,-2.5225363232\N,0,-0.1130517939,1.056189727,-1.7584383231\C,0,-0.2000
 295443,-0.2480319067,-2.1201267327\O,0,0.3213724935,-0.7164927361,-3.1
 29437118\C,0,-1.0937881458,-1.1123053266,-1.1902972292\C,0,-1.11656880
 39,-2.5952850176,-1.6297473763\C,0,-2.2176083725,-3.3940478216,-0.9656
 884854\C,0,-1.9706984394,-4.1513027648,0.1872131155\C,0,-2.995982199,-
 4.865126014,0.8106250018\C,0,-4.289567612,-4.8349848063,0.287888508\C,
 0,-4.5493762063,-4.0896013214,-0.8642915643\C,0,-3.5213611973,-3.37836
 36695,-1.4838120063\N,0,-0.8357235719,-0.8969895612,0.2441793841\C,0,-
 2.0054513869,-0.553494667,1.0825947556\C,0,-2.4090201382,0.9049075131,
 0.974165376\C,0,-3.6181873735,1.2751156175,0.3776707967\C,0,-3.9649559
 939,2.624809992,0.270010811\C,0,-3.1075522465,3.6092909061,0.754561763
 5\C,0,-1.8909552478,3.2642418477,1.3650417277\C,0,-0.9811916293,4.3313
 347191,1.9293488584\C,0,-1.5570257399,1.9093310125,1.4650664326\C,0,0.
 3850337784,-1.0043260842,0.8801261638\O,0,0.4927145668,-0.7625974949,2
 .0822814494\C,0,1.6190627926,-1.4593113269,0.0918709077\C,0,2.75942931
 86,-0.4484140052,0.083099496\C,0,3.3099741791,-0.0472043982,-1.1386293
 968\C,0,4.3869466805,0.8487885959,-1.1895586772\C,0,4.9968275483,1.243
 5824265,-2.5159112925\C,0,4.8978366157,1.3466267133,0.0124037718\C,0,4
 .3672579982,0.959610996,1.2501087757\C,0,4.9578916439,1.4875592063,2.5
 382520526\C,0,3.2981873862,0.0589159069,1.2725622245\H,0,1.5900443032,
 2.2797294233,-2.0339300001\H,0,0.8460574033,1.6091600934,-3.5048500638
 \H,0,0.0503244856,2.9516832237,-2.6407136424\H,0,-0.5318786365,1.34395
 04318,-0.882485759\H,0,-2.1056897328,-0.7197170029,-1.3483117888\H,0,-
 0.1454198484,-3.0571105904,-1.4299219842\H,0,-1.2387072518,-2.60047355
 98,-2.7169697752\H,0,-0.9647784631,-4.1848768247,0.5989289769\H,0,-2.7
 818296152,-5.4473560267,1.7030524216\H,0,-5.0878578279,-5.3927901192,0
 .7700041431\H,0,-5.5511318505,-4.0685315176,-1.2857631226\H,0,-3.72950
 78356,-2.8099410453,-2.3884811399\H,0,-2.8352848917,-1.2000442465,0.78
 41482526\H,0,-1.7303914103,-0.7974581853,2.1094653863\H,0,-4.291812256
 1,0.5081960252,0.001596634\H,0,-4.9047535105,2.9067859951,-0.197693464
 1\H,0,-3.3828285186,4.6578981009,0.6645024517\H,0,-1.3559051472,4.7005
 801381,2.8930592253\H,0,-0.9118294377,5.1958635321,1.2592140124\H,0,0.
 0301649617,3.9481321533,2.0965829189\H,0,-0.6265419647,1.615253194,1.9
 45736321\H,0,1.9508625562,-2.3698760548,0.6091102999\H,0,1.3925976253,
 -1.7442465188,-0.9345983512\H,0,2.8895345194,-0.4304080928,-2.06600088
 19\H,0,5.4629183427,2.2336352294,-2.4651691938\H,0,4.2471903934,1.2602
 837367,-3.314431292\H,0,5.7766870753,0.5331499566,-2.8217978131\H,0,5.
 7290946872,2.0499487483,-0.0137522649\H,0,5.2572059907,2.537635009,2.4
 429692003\H,0,4.2448959807,1.4112206063,3.3654737466\H,0,5.8545616883,
 0.9224765119,2.8267069022\H,0,2.8602045325,-0.2414464094,2.2189397968\
 \Version=ES64L-G16RevB.01\HF=-1346.2576367\RMSD=7.075e-09\PG=C01 [X(C2
 8H32N2O2)]\\@


 ALL MEN WHO EXPLORE
 DEPLORE
 THAT FRUSTRATING HURDLE
 THE GIRDLE.

         -- COLIN FLETCHER
 Job cpu time:       0 days  4 hours 13 minutes 19.4 seconds.
 Elapsed time:       0 days  0 hours 31 minutes 17.8 seconds.
 File lengths (MBytes):  RWF=   1730 Int=      0 D2E=      0 Chk=     62 Scr=      1
 Normal termination of Gaussian 16 at Sat Nov  5 10:10:10 2022.
