 Entering Gaussian System, Link 0=/home/wykgroup/appl/g16/g16
 Input=./calculation/no_transfer_pubchem_sampling_6_b3lyp/101021330.com
 Output=./calculation/no_transfer_pubchem_sampling_6_b3lyp/101021330.log
 Initial command:
 /home/wykgroup/appl/g16/l1.exe "/userdata/scratch/wykgroup/khs/./calculation/no_transfer_pubchem_sampling_6_b3lyp/101021330/Gau-31633.inp" -scrdir="/userdata/scratch/wykgroup/khs/./calculation/no_transfer_pubchem_sampling_6_b3lyp/101021330/"
 Entering Link 1 = /home/wykgroup/appl/g16/l1.exe PID=     31634.
  
 Copyright (c) 1988-2017, Gaussian, Inc.  All Rights Reserved.
  
 This is part of the Gaussian(R) 16 program.  It is based on
 the Gaussian(R) 09 system (copyright 2009, Gaussian, Inc.),
 the Gaussian(R) 03 system (copyright 2003, Gaussian, Inc.),
 the Gaussian(R) 98 system (copyright 1998, Gaussian, Inc.),
 the Gaussian(R) 94 system (copyright 1995, Gaussian, Inc.),
 the Gaussian 92(TM) system (copyright 1992, Gaussian, Inc.),
 the Gaussian 90(TM) system (copyright 1990, Gaussian, Inc.),
 the Gaussian 88(TM) system (copyright 1988, Gaussian, Inc.),
 the Gaussian 86(TM) system (copyright 1986, Carnegie Mellon
 University), and the Gaussian 82(TM) system (copyright 1983,
 Carnegie Mellon University). Gaussian is a federally registered
 trademark of Gaussian, Inc.
  
 This software contains proprietary and confidential information,
 including trade secrets, belonging to Gaussian, Inc.
  
 This software is provided under written license and may be
 used, copied, transmitted, or stored only in accord with that
 written license.
  
 The following legend is applicable only to US Government
 contracts under FAR:
  
                    RESTRICTED RIGHTS LEGEND
  
 Use, reproduction and disclosure by the US Government is
 subject to restrictions as set forth in subparagraphs (a)
 and (c) of the Commercial Computer Software - Restricted
 Rights clause in FAR 52.227-19.
  
 Gaussian, Inc.
 340 Quinnipiac St., Bldg. 40, Wallingford CT 06492
  
  
 ---------------------------------------------------------------
 Warning -- This program may not be used in any manner that
 competes with the business of Gaussian, Inc. or will provide
 assistance to any competitor of Gaussian, Inc.  The licensee
 of this program is prohibited from giving any competitor of
 Gaussian, Inc. access to this program.  By using this program,
 the user acknowledges that Gaussian, Inc. is engaged in the
 business of creating and licensing software in the field of
 computational chemistry and represents and warrants to the
 licensee that it is not a competitor of Gaussian, Inc. and that
 it will not use this program in any manner prohibited above.
 ---------------------------------------------------------------
  

 Cite this work as:
 Gaussian 16, Revision B.01,
 M. J. Frisch, G. W. Trucks, H. B. Schlegel, G. E. Scuseria, 
 M. A. Robb, J. R. Cheeseman, G. Scalmani, V. Barone, 
 G. A. Petersson, H. Nakatsuji, X. Li, M. Caricato, A. V. Marenich, 
 J. Bloino, B. G. Janesko, R. Gomperts, B. Mennucci, H. P. Hratchian, 
 J. V. Ortiz, A. F. Izmaylov, J. L. Sonnenberg, D. Williams-Young, 
 F. Ding, F. Lipparini, F. Egidi, J. Goings, B. Peng, A. Petrone, 
 T. Henderson, D. Ranasinghe, V. G. Zakrzewski, J. Gao, N. Rega, 
 G. Zheng, W. Liang, M. Hada, M. Ehara, K. Toyota, R. Fukuda, 
 J. Hasegawa, M. Ishida, T. Nakajima, Y. Honda, O. Kitao, H. Nakai, 
 T. Vreven, K. Throssell, J. A. Montgomery, Jr., J. E. Peralta, 
 F. Ogliaro, M. J. Bearpark, J. J. Heyd, E. N. Brothers, K. N. Kudin, 
 V. N. Staroverov, T. A. Keith, R. Kobayashi, J. Normand, 
 K. Raghavachari, A. P. Rendell, J. C. Burant, S. S. Iyengar, 
 J. Tomasi, M. Cossi, J. M. Millam, M. Klene, C. Adamo, R. Cammi, 
 J. W. Ochterski, R. L. Martin, K. Morokuma, O. Farkas, 
 J. B. Foresman, and D. J. Fox, Gaussian, Inc., Wallingford CT, 2016.
 
 ******************************************
 Gaussian 16:  ES64L-G16RevB.01 20-Dec-2017
                 4-Nov-2022 
 ******************************************
 %chk=./calculation/no_transfer_pubchem_sampling_6_b3lyp/101021330.chk
 %nprocshared=7
 Will use up to    7 processors via shared memory.
 %mem=6GB
 -----------------------------
 #p b3lyp/6-31g(d) opt SCF=XQC
 -----------------------------
 1/18=20,19=15,26=3,38=1/1,3;
 2/9=110,12=2,17=6,18=5,40=1/2;
 3/5=1,6=6,7=1,11=2,25=1,30=1,71=1,74=-5/1,2,3;
 4//1;
 5/5=2,8=3,13=1,38=5/2,8;
 6/7=2,8=2,9=2,10=2,28=1/1;
 7//1,2,3,16;
 1/18=20,19=15,26=3/3(2);
 2/9=110/2;
 99//99;
 2/9=110/2;
 3/5=1,6=6,7=1,11=2,25=1,30=1,71=1,74=-5/1,2,3;
 4/5=5,16=3,69=1/1;
 5/5=2,8=3,13=1,38=5/2,8;
 7//1,2,3,16;
 1/18=20,19=15,26=3/3(-5);
 2/9=110/2;
 6/7=2,8=2,9=2,10=2,19=2,28=1/1;
 99/9=1/99;
 Leave Link    1 at Fri Nov  4 22:23:48 2022, MaxMem=   805306368 cpu:               1.0 elap:               0.2
 (Enter /home/wykgroup/appl/g16/l101.exe)
 ------------------------------
 Gaussian input prepared by ASE
 ------------------------------
 Symbolic Z-matrix:
 Charge =  0 Multiplicity = 1
 C                    -2.05984  -0.48438  -0.21967 
 C                    -2.82012   0.61682  -0.10933 
 C                    -4.26859   0.5726   -0.12689 
 C                    -5.01468   1.74627   0.02165 
 C                    -6.40218   1.68127  -0.00825 
 C                    -7.22332   2.89343   0.12977 
 C                    -8.37355   2.88335   0.91436 
 C                    -9.14246   4.02447   1.04754 
 C                    -8.77858   5.18933   0.39296 
 C                    -7.63845   5.20826  -0.39293 
 C                    -6.86357   4.07062  -0.52105 
 C                    -6.99325   0.43137  -0.17611 
 C                    -6.17805  -0.6931   -0.30607 
 C                    -6.73813  -2.04088  -0.49348 
 C                    -5.99425  -2.99479  -1.18542 
 C                    -6.49279  -4.26773  -1.38223 
 C                    -7.73987  -4.6104   -0.88513 
 C                    -8.48105  -3.67361  -0.18475 
 C                    -7.98608  -2.39728   0.0107 
 N                    -4.85421  -0.61279  -0.28932 
 C                    -0.61878  -0.55647  -0.21723 
 C                     0.21474   0.56503  -0.13931 
 C                     1.58352   0.44054  -0.13919 
 C                     2.2057   -0.81361  -0.21388 
 N                     3.59398  -0.89159  -0.25737 
 C                     4.19487  -2.0856   -0.81678 
 C                     5.51769  -1.84388  -1.56219 
 O                     5.40383  -1.04219  -2.72199 
 C                     5.56411   0.34225  -2.53377 
 C                     6.98659   0.75158  -2.11373 
 O                     7.07438   0.86497  -0.70522 
 C                     8.35755   1.24228  -0.24765 
 C                     8.29994   1.71452   1.21487 
 O                     8.47135   0.72143   2.19623 
 C                     7.30915   0.06134   2.654 
 C                     7.00359  -1.18939   1.81522 
 O                     5.76643  -1.82558   2.06119 
 C                     4.59516  -1.03274   2.04933 
 C                     4.33596  -0.19634   0.77593 
 C                     1.37494  -1.93647  -0.29727 
 C                     0.00384  -1.80546  -0.2995 
 H                    -2.58069  -1.42813  -0.31682 
 H                    -2.3842    1.59978   0.00151 
 H                    -4.51349   2.69097   0.17229 
 H                    -8.65271   1.98086   1.43894 
 H                    -10.0289   4.00582   1.66495 
 H                    -9.38164   6.0795    0.49493 
 H                    -7.35273   6.11356  -0.90883 
 H                    -5.98298   4.08518  -1.14706 
 H                    -8.06617   0.34539  -0.24769 
 H                    -5.02457  -2.71302  -1.5654 
 H                    -5.90929  -4.99745  -1.92496 
 H                    -8.1314   -5.60551  -1.0384 
 H                    -9.44928  -3.94036   0.21426 
 H                    -8.56606  -1.68378   0.57761 
 H                    -0.21761   1.55285  -0.09312 
 H                     2.18752   1.3359   -0.10859 
 H                     3.49337  -2.48963  -1.5483 
 H                     4.396    -2.84623  -0.04822 
 H                     6.27627  -1.43939  -0.89302 
 H                     5.86449  -2.81943  -1.91802 
 H                     5.34754   0.77401  -3.51342 
 H                     4.84595   0.73465  -1.80594 
 H                     7.70304   0.00416  -2.48397 
 H                     7.23925   1.72222  -2.56482 
 H                     9.06295   0.40417  -0.33945 
 H                     8.72623   2.0745   -0.86437 
 H                     7.35546   2.25406   1.36598 
 H                     9.13311   2.40611   1.37187 
 H                     6.45884   0.75405   2.63019 
 H                     7.50868  -0.21745   3.69283 
 H                     7.09558  -0.90618   0.76234 
 H                     7.75045  -1.95908   2.02482 
 H                     4.59202  -0.36108   2.91928 
 H                     3.78285  -1.75259   2.18538 
 H                     5.28245   0.16137   0.37046 
 H                     3.75281   0.674     1.07649 
 H                     1.80084  -2.92727  -0.33436 
 H                    -0.60954  -2.69403  -0.3518 
 
 ITRead=  0  0  0  0  0  0  0  0  0  0  0  0  0  0  0  0  0  0  0  0
 ITRead=  0  0  0  0  0  0  0  0  0  0  0  0  0  0  0  0  0  0  0  0
 ITRead=  0  0  0  0  0  0  0  0  0  0  0  0  0  0  0  0  0  0  0  0
 ITRead=  0  0  0  0  0  0  0  0  0  0  0  0  0  0  0  0  0  0  0
 MicOpt= -1 -1 -1 -1 -1 -1 -1 -1 -1 -1 -1 -1 -1 -1 -1 -1 -1 -1 -1 -1
 MicOpt= -1 -1 -1 -1 -1 -1 -1 -1 -1 -1 -1 -1 -1 -1 -1 -1 -1 -1 -1 -1
 MicOpt= -1 -1 -1 -1 -1 -1 -1 -1 -1 -1 -1 -1 -1 -1 -1 -1 -1 -1 -1 -1
 MicOpt= -1 -1 -1 -1 -1 -1 -1 -1 -1 -1 -1 -1 -1 -1 -1 -1 -1 -1 -1
 NAtoms=     79 NQM=       79 NQMF=       0 NMMI=      0 NMMIF=      0
                NMic=       0 NMicF=      0.
                    Isotopes and Nuclear Properties:
 (Nuclear quadrupole moments (NQMom) in fm**2, nuclear magnetic moments (NMagM)
  in nuclear magnetons)

  Atom         1           2           3           4           5           6           7           8           9          10
 IAtWgt=          12          12          12          12          12          12          12          12          12          12
 AtmWgt=  12.0000000  12.0000000  12.0000000  12.0000000  12.0000000  12.0000000  12.0000000  12.0000000  12.0000000  12.0000000
 NucSpn=           0           0           0           0           0           0           0           0           0           0
 AtZEff=  -0.0000000  -0.0000000  -0.0000000  -0.0000000  -0.0000000  -0.0000000  -0.0000000  -0.0000000  -0.0000000  -0.0000000
 NQMom=    0.0000000   0.0000000   0.0000000   0.0000000   0.0000000   0.0000000   0.0000000   0.0000000   0.0000000   0.0000000
 NMagM=    0.0000000   0.0000000   0.0000000   0.0000000   0.0000000   0.0000000   0.0000000   0.0000000   0.0000000   0.0000000
 AtZNuc=   6.0000000   6.0000000   6.0000000   6.0000000   6.0000000   6.0000000   6.0000000   6.0000000   6.0000000   6.0000000

  Atom        11          12          13          14          15          16          17          18          19          20
 IAtWgt=          12          12          12          12          12          12          12          12          12          14
 AtmWgt=  12.0000000  12.0000000  12.0000000  12.0000000  12.0000000  12.0000000  12.0000000  12.0000000  12.0000000  14.0030740
 NucSpn=           0           0           0           0           0           0           0           0           0           2
 AtZEff=  -0.0000000  -0.0000000  -0.0000000  -0.0000000  -0.0000000  -0.0000000  -0.0000000  -0.0000000  -0.0000000  -0.0000000
 NQMom=    0.0000000   0.0000000   0.0000000   0.0000000   0.0000000   0.0000000   0.0000000   0.0000000   0.0000000   2.0440000
 NMagM=    0.0000000   0.0000000   0.0000000   0.0000000   0.0000000   0.0000000   0.0000000   0.0000000   0.0000000   0.4037610
 AtZNuc=   6.0000000   6.0000000   6.0000000   6.0000000   6.0000000   6.0000000   6.0000000   6.0000000   6.0000000   7.0000000

  Atom        21          22          23          24          25          26          27          28          29          30
 IAtWgt=          12          12          12          12          14          12          12          16          12          12
 AtmWgt=  12.0000000  12.0000000  12.0000000  12.0000000  14.0030740  12.0000000  12.0000000  15.9949146  12.0000000  12.0000000
 NucSpn=           0           0           0           0           2           0           0           0           0           0
 AtZEff=  -0.0000000  -0.0000000  -0.0000000  -0.0000000  -0.0000000  -0.0000000  -0.0000000  -0.0000000  -0.0000000  -0.0000000
 NQMom=    0.0000000   0.0000000   0.0000000   0.0000000   2.0440000   0.0000000   0.0000000   0.0000000   0.0000000   0.0000000
 NMagM=    0.0000000   0.0000000   0.0000000   0.0000000   0.4037610   0.0000000   0.0000000   0.0000000   0.0000000   0.0000000
 AtZNuc=   6.0000000   6.0000000   6.0000000   6.0000000   7.0000000   6.0000000   6.0000000   8.0000000   6.0000000   6.0000000

  Atom        31          32          33          34          35          36          37          38          39          40
 IAtWgt=          16          12          12          16          12          12          16          12          12          12
 AtmWgt=  15.9949146  12.0000000  12.0000000  15.9949146  12.0000000  12.0000000  15.9949146  12.0000000  12.0000000  12.0000000
 NucSpn=           0           0           0           0           0           0           0           0           0           0
 AtZEff=  -0.0000000  -0.0000000  -0.0000000  -0.0000000  -0.0000000  -0.0000000  -0.0000000  -0.0000000  -0.0000000  -0.0000000
 NQMom=    0.0000000   0.0000000   0.0000000   0.0000000   0.0000000   0.0000000   0.0000000   0.0000000   0.0000000   0.0000000
 NMagM=    0.0000000   0.0000000   0.0000000   0.0000000   0.0000000   0.0000000   0.0000000   0.0000000   0.0000000   0.0000000
 AtZNuc=   8.0000000   6.0000000   6.0000000   8.0000000   6.0000000   6.0000000   8.0000000   6.0000000   6.0000000   6.0000000

  Atom        41          42          43          44          45          46          47          48          49          50
 IAtWgt=          12           1           1           1           1           1           1           1           1           1
 AtmWgt=  12.0000000   1.0078250   1.0078250   1.0078250   1.0078250   1.0078250   1.0078250   1.0078250   1.0078250   1.0078250
 NucSpn=           0           1           1           1           1           1           1           1           1           1
 AtZEff=  -0.0000000  -0.0000000  -0.0000000  -0.0000000  -0.0000000  -0.0000000  -0.0000000  -0.0000000  -0.0000000  -0.0000000
 NQMom=    0.0000000   0.0000000   0.0000000   0.0000000   0.0000000   0.0000000   0.0000000   0.0000000   0.0000000   0.0000000
 NMagM=    0.0000000   2.7928460   2.7928460   2.7928460   2.7928460   2.7928460   2.7928460   2.7928460   2.7928460   2.7928460
 AtZNuc=   6.0000000   1.0000000   1.0000000   1.0000000   1.0000000   1.0000000   1.0000000   1.0000000   1.0000000   1.0000000

  Atom        51          52          53          54          55          56          57          58          59          60
 IAtWgt=           1           1           1           1           1           1           1           1           1           1
 AtmWgt=   1.0078250   1.0078250   1.0078250   1.0078250   1.0078250   1.0078250   1.0078250   1.0078250   1.0078250   1.0078250
 NucSpn=           1           1           1           1           1           1           1           1           1           1
 AtZEff=  -0.0000000  -0.0000000  -0.0000000  -0.0000000  -0.0000000  -0.0000000  -0.0000000  -0.0000000  -0.0000000  -0.0000000
 NQMom=    0.0000000   0.0000000   0.0000000   0.0000000   0.0000000   0.0000000   0.0000000   0.0000000   0.0000000   0.0000000
 NMagM=    2.7928460   2.7928460   2.7928460   2.7928460   2.7928460   2.7928460   2.7928460   2.7928460   2.7928460   2.7928460
 AtZNuc=   1.0000000   1.0000000   1.0000000   1.0000000   1.0000000   1.0000000   1.0000000   1.0000000   1.0000000   1.0000000

  Atom        61          62          63          64          65          66          67          68          69          70
 IAtWgt=           1           1           1           1           1           1           1           1           1           1
 AtmWgt=   1.0078250   1.0078250   1.0078250   1.0078250   1.0078250   1.0078250   1.0078250   1.0078250   1.0078250   1.0078250
 NucSpn=           1           1           1           1           1           1           1           1           1           1
 AtZEff=  -0.0000000  -0.0000000  -0.0000000  -0.0000000  -0.0000000  -0.0000000  -0.0000000  -0.0000000  -0.0000000  -0.0000000
 NQMom=    0.0000000   0.0000000   0.0000000   0.0000000   0.0000000   0.0000000   0.0000000   0.0000000   0.0000000   0.0000000
 NMagM=    2.7928460   2.7928460   2.7928460   2.7928460   2.7928460   2.7928460   2.7928460   2.7928460   2.7928460   2.7928460
 AtZNuc=   1.0000000   1.0000000   1.0000000   1.0000000   1.0000000   1.0000000   1.0000000   1.0000000   1.0000000   1.0000000

  Atom        71          72          73          74          75          76          77          78          79
 IAtWgt=           1           1           1           1           1           1           1           1           1
 AtmWgt=   1.0078250   1.0078250   1.0078250   1.0078250   1.0078250   1.0078250   1.0078250   1.0078250   1.0078250
 NucSpn=           1           1           1           1           1           1           1           1           1
 AtZEff=  -0.0000000  -0.0000000  -0.0000000  -0.0000000  -0.0000000  -0.0000000  -0.0000000  -0.0000000  -0.0000000
 NQMom=    0.0000000   0.0000000   0.0000000   0.0000000   0.0000000   0.0000000   0.0000000   0.0000000   0.0000000
 NMagM=    2.7928460   2.7928460   2.7928460   2.7928460   2.7928460   2.7928460   2.7928460   2.7928460   2.7928460
 AtZNuc=   1.0000000   1.0000000   1.0000000   1.0000000   1.0000000   1.0000000   1.0000000   1.0000000   1.0000000
 Leave Link  101 at Fri Nov  4 22:23:48 2022, MaxMem=   805306368 cpu:               1.5 elap:               0.2
 (Enter /home/wykgroup/appl/g16/l103.exe)

 GradGradGradGradGradGradGradGradGradGradGradGradGradGradGradGradGradGrad
 Berny optimization.
 Initialization pass.
                           ----------------------------
                           !    Initial Parameters    !
                           ! (Angstroms and Degrees)  !
 --------------------------                            --------------------------
 ! Name  Definition              Value          Derivative Info.                !
 --------------------------------------------------------------------------------
 ! R1    R(1,2)                  1.3427         estimate D2E/DX2                !
 ! R2    R(1,21)                 1.4429         estimate D2E/DX2                !
 ! R3    R(1,42)                 1.0823         estimate D2E/DX2                !
 ! R4    R(2,3)                  1.4492         estimate D2E/DX2                !
 ! R5    R(2,43)                 1.081          estimate D2E/DX2                !
 ! R6    R(3,4)                  1.3987         estimate D2E/DX2                !
 ! R7    R(3,20)                 1.3321         estimate D2E/DX2                !
 ! R8    R(4,5)                  1.3893         estimate D2E/DX2                !
 ! R9    R(4,44)                 1.08           estimate D2E/DX2                !
 ! R10   R(5,6)                  1.4706         estimate D2E/DX2                !
 ! R11   R(5,12)                 1.3928         estimate D2E/DX2                !
 ! R12   R(6,7)                  1.3924         estimate D2E/DX2                !
 ! R13   R(6,11)                 1.3924         estimate D2E/DX2                !
 ! R14   R(7,8)                  1.3824         estimate D2E/DX2                !
 ! R15   R(7,45)                 1.0806         estimate D2E/DX2                !
 ! R16   R(8,9)                  1.3848         estimate D2E/DX2                !
 ! R17   R(8,46)                 1.0804         estimate D2E/DX2                !
 ! R18   R(9,10)                 1.3849         estimate D2E/DX2                !
 ! R19   R(9,47)                 1.08           estimate D2E/DX2                !
 ! R20   R(10,11)                1.3824         estimate D2E/DX2                !
 ! R21   R(10,48)                1.0804         estimate D2E/DX2                !
 ! R22   R(11,49)                1.0805         estimate D2E/DX2                !
 ! R23   R(12,13)                1.3949         estimate D2E/DX2                !
 ! R24   R(12,50)                1.0787         estimate D2E/DX2                !
 ! R25   R(13,14)                1.4715         estimate D2E/DX2                !
 ! R26   R(13,20)                1.3264         estimate D2E/DX2                !
 ! R27   R(14,15)                1.3936         estimate D2E/DX2                !
 ! R28   R(14,19)                1.3923         estimate D2E/DX2                !
 ! R29   R(15,16)                1.3812         estimate D2E/DX2                !
 ! R30   R(15,51)                1.0789         estimate D2E/DX2                !
 ! R31   R(16,17)                1.3855         estimate D2E/DX2                !
 ! R32   R(16,52)                1.0805         estimate D2E/DX2                !
 ! R33   R(17,18)                1.3847         estimate D2E/DX2                !
 ! R34   R(17,53)                1.0803         estimate D2E/DX2                !
 ! R35   R(18,19)                1.3828         estimate D2E/DX2                !
 ! R36   R(18,54)                1.0807         estimate D2E/DX2                !
 ! R37   R(19,55)                1.0802         estimate D2E/DX2                !
 ! R38   R(21,22)                1.3995         estimate D2E/DX2                !
 ! R39   R(21,41)                1.398          estimate D2E/DX2                !
 ! R40   R(22,23)                1.3744         estimate D2E/DX2                !
 ! R41   R(22,56)                1.0793         estimate D2E/DX2                !
 ! R42   R(23,24)                1.402          estimate D2E/DX2                !
 ! R43   R(23,57)                1.0805         estimate D2E/DX2                !
 ! R44   R(24,25)                1.3912         estimate D2E/DX2                !
 ! R45   R(24,40)                1.3993         estimate D2E/DX2                !
 ! R46   R(25,26)                1.449          estimate D2E/DX2                !
 ! R47   R(25,39)                1.4497         estimate D2E/DX2                !
 ! R48   R(26,27)                1.5375         estimate D2E/DX2                !
 ! R49   R(26,58)                1.0911         estimate D2E/DX2                !
 ! R50   R(26,59)                1.0999         estimate D2E/DX2                !
 ! R51   R(27,28)                1.4145         estimate D2E/DX2                !
 ! R52   R(27,60)                1.0894         estimate D2E/DX2                !
 ! R53   R(27,61)                1.0948         estimate D2E/DX2                !
 ! R54   R(28,29)                1.4063         estimate D2E/DX2                !
 ! R55   R(29,30)                1.5387         estimate D2E/DX2                !
 ! R56   R(29,62)                1.0923         estimate D2E/DX2                !
 ! R57   R(29,63)                1.0952         estimate D2E/DX2                !
 ! R58   R(30,31)                1.4158         estimate D2E/DX2                !
 ! R59   R(30,64)                1.0996         estimate D2E/DX2                !
 ! R60   R(30,65)                1.0997         estimate D2E/DX2                !
 ! R61   R(31,32)                1.4136         estimate D2E/DX2                !
 ! R62   R(32,33)                1.538          estimate D2E/DX2                !
 ! R63   R(32,66)                1.0993         estimate D2E/DX2                !
 ! R64   R(32,67)                1.0995         estimate D2E/DX2                !
 ! R65   R(33,34)                1.4067         estimate D2E/DX2                !
 ! R66   R(33,68)                1.0982         estimate D2E/DX2                !
 ! R67   R(33,69)                1.0941         estimate D2E/DX2                !
 ! R68   R(34,35)                1.4128         estimate D2E/DX2                !
 ! R69   R(35,36)                1.5366         estimate D2E/DX2                !
 ! R70   R(35,70)                1.097          estimate D2E/DX2                !
 ! R71   R(35,71)                1.0939         estimate D2E/DX2                !
 ! R72   R(36,37)                1.4127         estimate D2E/DX2                !
 ! R73   R(36,72)                1.0942         estimate D2E/DX2                !
 ! R74   R(36,73)                1.0928         estimate D2E/DX2                !
 ! R75   R(37,38)                1.4144         estimate D2E/DX2                !
 ! R76   R(38,39)                1.5454         estimate D2E/DX2                !
 ! R77   R(38,74)                1.0991         estimate D2E/DX2                !
 ! R78   R(38,75)                1.0939         estimate D2E/DX2                !
 ! R79   R(39,76)                1.09           estimate D2E/DX2                !
 ! R80   R(39,77)                1.0899         estimate D2E/DX2                !
 ! R81   R(40,41)                1.3774         estimate D2E/DX2                !
 ! R82   R(40,78)                1.0791         estimate D2E/DX2                !
 ! R83   R(41,79)                1.081          estimate D2E/DX2                !
 ! A1    A(2,1,21)             127.3271         estimate D2E/DX2                !
 ! A2    A(2,1,42)             116.7451         estimate D2E/DX2                !
 ! A3    A(21,1,42)            115.927          estimate D2E/DX2                !
 ! A4    A(1,2,3)              122.6774         estimate D2E/DX2                !
 ! A5    A(1,2,43)             121.7255         estimate D2E/DX2                !
 ! A6    A(3,2,43)             115.597          estimate D2E/DX2                !
 ! A7    A(2,3,4)              120.4147         estimate D2E/DX2                !
 ! A8    A(2,3,20)             117.9056         estimate D2E/DX2                !
 ! A9    A(4,3,20)             121.6797         estimate D2E/DX2                !
 ! A10   A(3,4,5)              119.418          estimate D2E/DX2                !
 ! A11   A(3,4,44)             120.0857         estimate D2E/DX2                !
 ! A12   A(5,4,44)             120.4905         estimate D2E/DX2                !
 ! A13   A(4,5,6)              121.1342         estimate D2E/DX2                !
 ! A14   A(4,5,12)             117.9311         estimate D2E/DX2                !
 ! A15   A(6,5,12)             120.9346         estimate D2E/DX2                !
 ! A16   A(5,6,7)              120.5431         estimate D2E/DX2                !
 ! A17   A(5,6,11)             120.5792         estimate D2E/DX2                !
 ! A18   A(7,6,11)             118.8777         estimate D2E/DX2                !
 ! A19   A(6,7,8)              120.5163         estimate D2E/DX2                !
 ! A20   A(6,7,45)             119.5393         estimate D2E/DX2                !
 ! A21   A(8,7,45)             119.9312         estimate D2E/DX2                !
 ! A22   A(7,8,9)              120.1748         estimate D2E/DX2                !
 ! A23   A(7,8,46)             119.8113         estimate D2E/DX2                !
 ! A24   A(9,8,46)             120.0139         estimate D2E/DX2                !
 ! A25   A(8,9,10)             119.7395         estimate D2E/DX2                !
 ! A26   A(8,9,47)             120.1281         estimate D2E/DX2                !
 ! A27   A(10,9,47)            120.1324         estimate D2E/DX2                !
 ! A28   A(9,10,11)            120.186          estimate D2E/DX2                !
 ! A29   A(9,10,48)            120.009          estimate D2E/DX2                !
 ! A30   A(11,10,48)           119.8049         estimate D2E/DX2                !
 ! A31   A(6,11,10)            120.5039         estimate D2E/DX2                !
 ! A32   A(6,11,49)            119.5221         estimate D2E/DX2                !
 ! A33   A(10,11,49)           119.961          estimate D2E/DX2                !
 ! A34   A(5,12,13)            119.1196         estimate D2E/DX2                !
 ! A35   A(5,12,50)            120.1075         estimate D2E/DX2                !
 ! A36   A(13,12,50)           120.7181         estimate D2E/DX2                !
 ! A37   A(12,13,14)           121.8543         estimate D2E/DX2                !
 ! A38   A(12,13,20)           122.228          estimate D2E/DX2                !
 ! A39   A(14,13,20)           115.9097         estimate D2E/DX2                !
 ! A40   A(13,14,15)           119.145          estimate D2E/DX2                !
 ! A41   A(13,14,19)           121.9703         estimate D2E/DX2                !
 ! A42   A(15,14,19)           118.8821         estimate D2E/DX2                !
 ! A43   A(14,15,16)           120.5934         estimate D2E/DX2                !
 ! A44   A(14,15,51)           118.4139         estimate D2E/DX2                !
 ! A45   A(16,15,51)           120.9922         estimate D2E/DX2                !
 ! A46   A(15,16,17)           120.1119         estimate D2E/DX2                !
 ! A47   A(15,16,52)           119.9388         estimate D2E/DX2                !
 ! A48   A(17,16,52)           119.9493         estimate D2E/DX2                !
 ! A49   A(16,17,18)           119.7303         estimate D2E/DX2                !
 ! A50   A(16,17,53)           120.207          estimate D2E/DX2                !
 ! A51   A(18,17,53)           120.0621         estimate D2E/DX2                !
 ! A52   A(17,18,19)           120.2859         estimate D2E/DX2                !
 ! A53   A(17,18,54)           119.9556         estimate D2E/DX2                !
 ! A54   A(19,18,54)           119.7582         estimate D2E/DX2                !
 ! A55   A(14,19,18)           120.3912         estimate D2E/DX2                !
 ! A56   A(14,19,55)           120.1461         estimate D2E/DX2                !
 ! A57   A(18,19,55)           119.4486         estimate D2E/DX2                !
 ! A58   A(3,20,13)            119.617          estimate D2E/DX2                !
 ! A59   A(1,21,22)            123.7037         estimate D2E/DX2                !
 ! A60   A(1,21,41)            119.2977         estimate D2E/DX2                !
 ! A61   A(22,21,41)           116.9985         estimate D2E/DX2                !
 ! A62   A(21,22,23)           121.3701         estimate D2E/DX2                !
 ! A63   A(21,22,56)           119.8177         estimate D2E/DX2                !
 ! A64   A(23,22,56)           118.8057         estimate D2E/DX2                !
 ! A65   A(22,23,24)           121.532          estimate D2E/DX2                !
 ! A66   A(22,23,57)           118.7941         estimate D2E/DX2                !
 ! A67   A(24,23,57)           119.6512         estimate D2E/DX2                !
 ! A68   A(23,24,25)           119.6484         estimate D2E/DX2                !
 ! A69   A(23,24,40)           117.2287         estimate D2E/DX2                !
 ! A70   A(25,24,40)           123.0686         estimate D2E/DX2                !
 ! A71   A(24,25,26)           118.1698         estimate D2E/DX2                !
 ! A72   A(24,25,39)           117.4902         estimate D2E/DX2                !
 ! A73   A(26,25,39)           117.2658         estimate D2E/DX2                !
 ! A74   A(25,26,27)           114.4818         estimate D2E/DX2                !
 ! A75   A(25,26,58)           107.2988         estimate D2E/DX2                !
 ! A76   A(25,26,59)           112.0808         estimate D2E/DX2                !
 ! A77   A(27,26,58)           106.6388         estimate D2E/DX2                !
 ! A78   A(27,26,59)           106.8684         estimate D2E/DX2                !
 ! A79   A(58,26,59)           109.2676         estimate D2E/DX2                !
 ! A80   A(26,27,28)           114.6688         estimate D2E/DX2                !
 ! A81   A(26,27,60)           111.0795         estimate D2E/DX2                !
 ! A82   A(26,27,61)           106.8596         estimate D2E/DX2                !
 ! A83   A(28,27,60)           110.4418         estimate D2E/DX2                !
 ! A84   A(28,27,61)           105.3095         estimate D2E/DX2                !
 ! A85   A(60,27,61)           108.0538         estimate D2E/DX2                !
 ! A86   A(27,28,29)           116.042          estimate D2E/DX2                !
 ! A87   A(28,29,30)           113.8153         estimate D2E/DX2                !
 ! A88   A(28,29,62)           104.2706         estimate D2E/DX2                !
 ! A89   A(28,29,63)           111.5257         estimate D2E/DX2                !
 ! A90   A(30,29,62)           108.8438         estimate D2E/DX2                !
 ! A91   A(30,29,63)           109.2379         estimate D2E/DX2                !
 ! A92   A(62,29,63)           108.9295         estimate D2E/DX2                !
 ! A93   A(29,30,31)           110.5004         estimate D2E/DX2                !
 ! A94   A(29,30,64)           109.2464         estimate D2E/DX2                !
 ! A95   A(29,30,65)           109.5861         estimate D2E/DX2                !
 ! A96   A(31,30,64)           110.4277         estimate D2E/DX2                !
 ! A97   A(31,30,65)           108.8528         estimate D2E/DX2                !
 ! A98   A(64,30,65)           108.188          estimate D2E/DX2                !
 ! A99   A(30,31,32)           113.5584         estimate D2E/DX2                !
 ! A100  A(31,32,33)           110.8407         estimate D2E/DX2                !
 ! A101  A(31,32,66)           110.607          estimate D2E/DX2                !
 ! A102  A(31,32,67)           108.9568         estimate D2E/DX2                !
 ! A103  A(33,32,66)           109.728          estimate D2E/DX2                !
 ! A104  A(33,32,67)           108.2731         estimate D2E/DX2                !
 ! A105  A(66,32,67)           108.3646         estimate D2E/DX2                !
 ! A106  A(32,33,34)           116.2371         estimate D2E/DX2                !
 ! A107  A(32,33,68)           108.296          estimate D2E/DX2                !
 ! A108  A(32,33,69)           107.5791         estimate D2E/DX2                !
 ! A109  A(34,33,68)           110.8343         estimate D2E/DX2                !
 ! A110  A(34,33,69)           104.6757         estimate D2E/DX2                !
 ! A111  A(68,33,69)           108.9433         estimate D2E/DX2                !
 ! A112  A(33,34,35)           117.1079         estimate D2E/DX2                !
 ! A113  A(34,35,36)           111.5311         estimate D2E/DX2                !
 ! A114  A(34,35,70)           109.6073         estimate D2E/DX2                !
 ! A115  A(34,35,71)           106.0649         estimate D2E/DX2                !
 ! A116  A(36,35,70)           110.3637         estimate D2E/DX2                !
 ! A117  A(36,35,71)           110.3157         estimate D2E/DX2                !
 ! A118  A(70,35,71)           108.8392         estimate D2E/DX2                !
 ! A119  A(35,36,37)           116.4642         estimate D2E/DX2                !
 ! A120  A(35,36,72)           107.3294         estimate D2E/DX2                !
 ! A121  A(35,36,73)           109.4323         estimate D2E/DX2                !
 ! A122  A(37,36,72)           110.9603         estimate D2E/DX2                !
 ! A123  A(37,36,73)           104.3553         estimate D2E/DX2                !
 ! A124  A(72,36,73)           108.0237         estimate D2E/DX2                !
 ! A125  A(36,37,38)           118.1183         estimate D2E/DX2                !
 ! A126  A(37,38,39)           116.6906         estimate D2E/DX2                !
 ! A127  A(37,38,74)           109.772          estimate D2E/DX2                !
 ! A128  A(37,38,75)           104.1831         estimate D2E/DX2                !
 ! A129  A(39,38,74)           108.7224         estimate D2E/DX2                !
 ! A130  A(39,38,75)           109.5179         estimate D2E/DX2                !
 ! A131  A(74,38,75)           107.5535         estimate D2E/DX2                !
 ! A132  A(25,39,38)           114.4307         estimate D2E/DX2                !
 ! A133  A(25,39,76)           109.6735         estimate D2E/DX2                !
 ! A134  A(25,39,77)           107.7995         estimate D2E/DX2                !
 ! A135  A(38,39,76)           109.7837         estimate D2E/DX2                !
 ! A136  A(38,39,77)           107.1394         estimate D2E/DX2                !
 ! A137  A(76,39,77)           107.7649         estimate D2E/DX2                !
 ! A138  A(24,40,41)           120.9836         estimate D2E/DX2                !
 ! A139  A(24,40,78)           120.3003         estimate D2E/DX2                !
 ! A140  A(41,40,78)           118.6959         estimate D2E/DX2                !
 ! A141  A(21,41,40)           121.8856         estimate D2E/DX2                !
 ! A142  A(21,41,79)           118.9813         estimate D2E/DX2                !
 ! A143  A(40,41,79)           119.127          estimate D2E/DX2                !
 ! D1    D(21,1,2,3)           179.8665         estimate D2E/DX2                !
 ! D2    D(21,1,2,43)           -0.286          estimate D2E/DX2                !
 ! D3    D(42,1,2,3)            -0.4612         estimate D2E/DX2                !
 ! D4    D(42,1,2,43)          179.3864         estimate D2E/DX2                !
 ! D5    D(2,1,21,22)           -2.2331         estimate D2E/DX2                !
 ! D6    D(2,1,21,41)          177.9181         estimate D2E/DX2                !
 ! D7    D(42,1,21,22)         178.0923         estimate D2E/DX2                !
 ! D8    D(42,1,21,41)          -1.7565         estimate D2E/DX2                !
 ! D9    D(1,2,3,4)            178.565          estimate D2E/DX2                !
 ! D10   D(1,2,3,20)            -1.5096         estimate D2E/DX2                !
 ! D11   D(43,2,3,4)            -1.2912         estimate D2E/DX2                !
 ! D12   D(43,2,3,20)          178.6342         estimate D2E/DX2                !
 ! D13   D(2,3,4,5)            179.5261         estimate D2E/DX2                !
 ! D14   D(2,3,4,44)            -1.3463         estimate D2E/DX2                !
 ! D15   D(20,3,4,5)            -0.3964         estimate D2E/DX2                !
 ! D16   D(20,3,4,44)          178.7312         estimate D2E/DX2                !
 ! D17   D(2,3,20,13)          179.7729         estimate D2E/DX2                !
 ! D18   D(4,3,20,13)           -0.3027         estimate D2E/DX2                !
 ! D19   D(3,4,5,6)           -179.3404         estimate D2E/DX2                !
 ! D20   D(3,4,5,12)             0.5237         estimate D2E/DX2                !
 ! D21   D(44,4,5,6)             1.5356         estimate D2E/DX2                !
 ! D22   D(44,4,5,12)         -178.6003         estimate D2E/DX2                !
 ! D23   D(4,5,6,7)           -138.3041         estimate D2E/DX2                !
 ! D24   D(4,5,6,11)            41.6591         estimate D2E/DX2                !
 ! D25   D(12,5,6,7)            41.8358         estimate D2E/DX2                !
 ! D26   D(12,5,6,11)         -138.201          estimate D2E/DX2                !
 ! D27   D(4,5,12,13)            0.0017         estimate D2E/DX2                !
 ! D28   D(4,5,12,50)         -177.324          estimate D2E/DX2                !
 ! D29   D(6,5,12,13)          179.8661         estimate D2E/DX2                !
 ! D30   D(6,5,12,50)            2.5404         estimate D2E/DX2                !
 ! D31   D(5,6,7,8)            179.7691         estimate D2E/DX2                !
 ! D32   D(5,6,7,45)             1.0959         estimate D2E/DX2                !
 ! D33   D(11,6,7,8)            -0.1947         estimate D2E/DX2                !
 ! D34   D(11,6,7,45)         -178.868          estimate D2E/DX2                !
 ! D35   D(5,6,11,10)          179.8364         estimate D2E/DX2                !
 ! D36   D(5,6,11,49)            1.1497         estimate D2E/DX2                !
 ! D37   D(7,6,11,10)           -0.1998         estimate D2E/DX2                !
 ! D38   D(7,6,11,49)         -178.8864         estimate D2E/DX2                !
 ! D39   D(6,7,8,9)              0.395          estimate D2E/DX2                !
 ! D40   D(6,7,8,46)          -179.56           estimate D2E/DX2                !
 ! D41   D(45,7,8,9)           179.0631         estimate D2E/DX2                !
 ! D42   D(45,7,8,46)           -0.892          estimate D2E/DX2                !
 ! D43   D(7,8,9,10)            -0.199          estimate D2E/DX2                !
 ! D44   D(7,8,9,47)           179.7982         estimate D2E/DX2                !
 ! D45   D(46,8,9,10)          179.756          estimate D2E/DX2                !
 ! D46   D(46,8,9,47)           -0.2469         estimate D2E/DX2                !
 ! D47   D(8,9,10,11)           -0.1946         estimate D2E/DX2                !
 ! D48   D(8,9,10,48)          179.7488         estimate D2E/DX2                !
 ! D49   D(47,9,10,11)         179.8083         estimate D2E/DX2                !
 ! D50   D(47,9,10,48)          -0.2484         estimate D2E/DX2                !
 ! D51   D(9,10,11,6)            0.3954         estimate D2E/DX2                !
 ! D52   D(9,10,11,49)         179.0763         estimate D2E/DX2                !
 ! D53   D(48,10,11,6)        -179.5481         estimate D2E/DX2                !
 ! D54   D(48,10,11,49)         -0.8672         estimate D2E/DX2                !
 ! D55   D(5,12,13,14)        -179.6537         estimate D2E/DX2                !
 ! D56   D(5,12,13,20)          -0.7161         estimate D2E/DX2                !
 ! D57   D(50,12,13,14)         -2.3447         estimate D2E/DX2                !
 ! D58   D(50,12,13,20)        176.5928         estimate D2E/DX2                !
 ! D59   D(12,13,14,15)        151.6618         estimate D2E/DX2                !
 ! D60   D(12,13,14,19)        -28.9326         estimate D2E/DX2                !
 ! D61   D(20,13,14,15)        -27.3391         estimate D2E/DX2                !
 ! D62   D(20,13,14,19)        152.0666         estimate D2E/DX2                !
 ! D63   D(12,13,20,3)           0.8656         estimate D2E/DX2                !
 ! D64   D(14,13,20,3)         179.8624         estimate D2E/DX2                !
 ! D65   D(13,14,15,16)       -179.7984         estimate D2E/DX2                !
 ! D66   D(13,14,15,51)         -0.0507         estimate D2E/DX2                !
 ! D67   D(19,14,15,16)          0.7774         estimate D2E/DX2                !
 ! D68   D(19,14,15,51)       -179.4748         estimate D2E/DX2                !
 ! D69   D(13,14,19,18)        179.9942         estimate D2E/DX2                !
 ! D70   D(13,14,19,55)         -1.3816         estimate D2E/DX2                !
 ! D71   D(15,14,19,18)         -0.5986         estimate D2E/DX2                !
 ! D72   D(15,14,19,55)        178.0255         estimate D2E/DX2                !
 ! D73   D(14,15,16,17)         -0.323          estimate D2E/DX2                !
 ! D74   D(14,15,16,52)        179.6653         estimate D2E/DX2                !
 ! D75   D(51,15,16,17)        179.9358         estimate D2E/DX2                !
 ! D76   D(51,15,16,52)         -0.0759         estimate D2E/DX2                !
 ! D77   D(15,16,17,18)         -0.3193         estimate D2E/DX2                !
 ! D78   D(15,16,17,53)        179.9841         estimate D2E/DX2                !
 ! D79   D(52,16,17,18)        179.6924         estimate D2E/DX2                !
 ! D80   D(52,16,17,53)         -0.0042         estimate D2E/DX2                !
 ! D81   D(16,17,18,19)          0.4971         estimate D2E/DX2                !
 ! D82   D(16,17,18,54)       -179.3052         estimate D2E/DX2                !
 ! D83   D(53,17,18,19)       -179.8058         estimate D2E/DX2                !
 ! D84   D(53,17,18,54)          0.3919         estimate D2E/DX2                !
 ! D85   D(17,18,19,14)         -0.0332         estimate D2E/DX2                !
 ! D86   D(17,18,19,55)       -178.6669         estimate D2E/DX2                !
 ! D87   D(54,18,19,14)        179.7694         estimate D2E/DX2                !
 ! D88   D(54,18,19,55)          1.1357         estimate D2E/DX2                !
 ! D89   D(1,21,22,23)         179.9276         estimate D2E/DX2                !
 ! D90   D(1,21,22,56)          -1.0158         estimate D2E/DX2                !
 ! D91   D(41,21,22,23)         -0.2204         estimate D2E/DX2                !
 ! D92   D(41,21,22,56)        178.8362         estimate D2E/DX2                !
 ! D93   D(1,21,41,40)        -179.7955         estimate D2E/DX2                !
 ! D94   D(1,21,41,79)          -0.7039         estimate D2E/DX2                !
 ! D95   D(22,21,41,40)          0.3457         estimate D2E/DX2                !
 ! D96   D(22,21,41,79)        179.4373         estimate D2E/DX2                !
 ! D97   D(21,22,23,24)         -0.1493         estimate D2E/DX2                !
 ! D98   D(21,22,23,57)        178.1132         estimate D2E/DX2                !
 ! D99   D(56,22,23,24)       -179.2152         estimate D2E/DX2                !
 ! D100  D(56,22,23,57)         -0.9527         estimate D2E/DX2                !
 ! D101  D(22,23,24,25)        177.7943         estimate D2E/DX2                !
 ! D102  D(22,23,24,40)          0.3915         estimate D2E/DX2                !
 ! D103  D(57,23,24,25)         -0.4536         estimate D2E/DX2                !
 ! D104  D(57,23,24,40)       -177.8563         estimate D2E/DX2                !
 ! D105  D(23,24,25,26)       -157.5716         estimate D2E/DX2                !
 ! D106  D(23,24,25,39)         52.6058         estimate D2E/DX2                !
 ! D107  D(40,24,25,26)         19.6725         estimate D2E/DX2                !
 ! D108  D(40,24,25,39)       -130.1502         estimate D2E/DX2                !
 ! D109  D(23,24,40,41)         -0.2667         estimate D2E/DX2                !
 ! D110  D(23,24,40,78)       -178.6069         estimate D2E/DX2                !
 ! D111  D(25,24,40,41)       -177.5732         estimate D2E/DX2                !
 ! D112  D(25,24,40,78)          4.0866         estimate D2E/DX2                !
 ! D113  D(24,25,26,27)        146.5364         estimate D2E/DX2                !
 ! D114  D(24,25,26,58)         28.4149         estimate D2E/DX2                !
 ! D115  D(24,25,26,59)        -91.5396         estimate D2E/DX2                !
 ! D116  D(39,25,26,27)        -63.5734         estimate D2E/DX2                !
 ! D117  D(39,25,26,58)        178.3051         estimate D2E/DX2                !
 ! D118  D(39,25,26,59)         58.3506         estimate D2E/DX2                !
 ! D119  D(24,25,39,38)         88.6551         estimate D2E/DX2                !
 ! D120  D(24,25,39,76)       -147.4813         estimate D2E/DX2                !
 ! D121  D(24,25,39,77)        -30.4096         estimate D2E/DX2                !
 ! D122  D(26,25,39,38)        -61.4422         estimate D2E/DX2                !
 ! D123  D(26,25,39,76)         62.4214         estimate D2E/DX2                !
 ! D124  D(26,25,39,77)        179.493          estimate D2E/DX2                !
 ! D125  D(25,26,27,28)        -64.4415         estimate D2E/DX2                !
 ! D126  D(25,26,27,60)         61.6397         estimate D2E/DX2                !
 ! D127  D(25,26,27,61)        179.2766         estimate D2E/DX2                !
 ! D128  D(58,26,27,28)         54.054          estimate D2E/DX2                !
 ! D129  D(58,26,27,60)       -179.8649         estimate D2E/DX2                !
 ! D130  D(58,26,27,61)        -62.228          estimate D2E/DX2                !
 ! D131  D(59,26,27,28)        170.8299         estimate D2E/DX2                !
 ! D132  D(59,26,27,60)        -63.0889         estimate D2E/DX2                !
 ! D133  D(59,26,27,61)         54.548          estimate D2E/DX2                !
 ! D134  D(26,27,28,29)         90.3297         estimate D2E/DX2                !
 ! D135  D(60,27,28,29)        -36.0812         estimate D2E/DX2                !
 ! D136  D(61,27,28,29)       -152.5007         estimate D2E/DX2                !
 ! D137  D(27,28,29,30)         66.7287         estimate D2E/DX2                !
 ! D138  D(27,28,29,62)       -174.8106         estimate D2E/DX2                !
 ! D139  D(27,28,29,63)        -57.4136         estimate D2E/DX2                !
 ! D140  D(28,29,30,31)        -95.1982         estimate D2E/DX2                !
 ! D141  D(28,29,30,64)         26.4852         estimate D2E/DX2                !
 ! D142  D(28,29,30,65)        144.8542         estimate D2E/DX2                !
 ! D143  D(62,29,30,31)        148.9952         estimate D2E/DX2                !
 ! D144  D(62,29,30,64)        -89.3214         estimate D2E/DX2                !
 ! D145  D(62,29,30,65)         29.0476         estimate D2E/DX2                !
 ! D146  D(63,29,30,31)         30.1693         estimate D2E/DX2                !
 ! D147  D(63,29,30,64)        151.8527         estimate D2E/DX2                !
 ! D148  D(63,29,30,65)        -89.7783         estimate D2E/DX2                !
 ! D149  D(29,30,31,32)       -179.8698         estimate D2E/DX2                !
 ! D150  D(64,30,31,32)         59.1467         estimate D2E/DX2                !
 ! D151  D(65,30,31,32)        -59.4824         estimate D2E/DX2                !
 ! D152  D(30,31,32,33)        164.654          estimate D2E/DX2                !
 ! D153  D(30,31,32,66)        -73.407          estimate D2E/DX2                !
 ! D154  D(30,31,32,67)         45.6092         estimate D2E/DX2                !
 ! D155  D(31,32,33,34)         89.3654         estimate D2E/DX2                !
 ! D156  D(31,32,33,68)        -36.1269         estimate D2E/DX2                !
 ! D157  D(31,32,33,69)       -153.7349         estimate D2E/DX2                !
 ! D158  D(66,32,33,34)        -33.0864         estimate D2E/DX2                !
 ! D159  D(66,32,33,68)       -158.5787         estimate D2E/DX2                !
 ! D160  D(66,32,33,69)         83.8133         estimate D2E/DX2                !
 ! D161  D(67,32,33,34)       -151.1786         estimate D2E/DX2                !
 ! D162  D(67,32,33,68)         83.3291         estimate D2E/DX2                !
 ! D163  D(67,32,33,69)        -34.2789         estimate D2E/DX2                !
 ! D164  D(32,33,34,35)        -89.5716         estimate D2E/DX2                !
 ! D165  D(68,33,34,35)         34.6247         estimate D2E/DX2                !
 ! D166  D(69,33,34,35)        151.9293         estimate D2E/DX2                !
 ! D167  D(33,34,35,36)         90.1632         estimate D2E/DX2                !
 ! D168  D(33,34,35,70)        -32.3608         estimate D2E/DX2                !
 ! D169  D(33,34,35,71)       -149.7031         estimate D2E/DX2                !
 ! D170  D(34,35,36,37)       -171.5292         estimate D2E/DX2                !
 ! D171  D(34,35,36,72)        -46.505          estimate D2E/DX2                !
 ! D172  D(34,35,36,73)         70.4816         estimate D2E/DX2                !
 ! D173  D(70,35,36,37)        -49.4401         estimate D2E/DX2                !
 ! D174  D(70,35,36,72)         75.584          estimate D2E/DX2                !
 ! D175  D(70,35,36,73)       -167.4294         estimate D2E/DX2                !
 ! D176  D(71,35,36,37)         70.8717         estimate D2E/DX2                !
 ! D177  D(71,35,36,72)       -164.1042         estimate D2E/DX2                !
 ! D178  D(71,35,36,73)        -47.1175         estimate D2E/DX2                !
 ! D179  D(35,36,37,38)         50.987          estimate D2E/DX2                !
 ! D180  D(72,36,37,38)        -72.1745         estimate D2E/DX2                !
 ! D181  D(73,36,37,38)        171.7183         estimate D2E/DX2                !
 ! D182  D(36,37,38,39)         54.9978         estimate D2E/DX2                !
 ! D183  D(36,37,38,74)        -69.2306         estimate D2E/DX2                !
 ! D184  D(36,37,38,75)        175.8456         estimate D2E/DX2                !
 ! D185  D(37,38,39,25)         88.2535         estimate D2E/DX2                !
 ! D186  D(37,38,39,76)        -35.5511         estimate D2E/DX2                !
 ! D187  D(37,38,39,77)       -152.3108         estimate D2E/DX2                !
 ! D188  D(74,38,39,25)       -146.9848         estimate D2E/DX2                !
 ! D189  D(74,38,39,76)         89.2106         estimate D2E/DX2                !
 ! D190  D(74,38,39,77)        -27.5491         estimate D2E/DX2                !
 ! D191  D(75,38,39,25)        -29.7269         estimate D2E/DX2                !
 ! D192  D(75,38,39,76)       -153.5315         estimate D2E/DX2                !
 ! D193  D(75,38,39,77)         89.7088         estimate D2E/DX2                !
 ! D194  D(24,40,41,21)         -0.1022         estimate D2E/DX2                !
 ! D195  D(24,40,41,79)       -179.1926         estimate D2E/DX2                !
 ! D196  D(78,40,41,21)        178.2641         estimate D2E/DX2                !
 ! D197  D(78,40,41,79)         -0.8263         estimate D2E/DX2                !
 --------------------------------------------------------------------------------
 Trust Radius=3.00D-01 FncErr=1.00D-07 GrdErr=1.00D-06 EigMax=2.50D+02 EigMin=1.00D-04
 Number of steps in this run=    433 maximum allowed number of steps=    474.
 GradGradGradGradGradGradGradGradGradGradGradGradGradGradGradGradGradGrad

 Leave Link  103 at Fri Nov  4 22:23:48 2022, MaxMem=   805306368 cpu:               0.3 elap:               0.1
 (Enter /home/wykgroup/appl/g16/l202.exe)
 Stoichiometry    C35H38N2O4
 Framework group  C1[X(C35H38N2O4)]
 Deg. of freedom   231
 Full point group                 C1      NOp   1
 Largest Abelian subgroup         C1      NOp   1
 Largest concise Abelian subgroup C1      NOp   1
                         Standard orientation:                         
 ---------------------------------------------------------------------
 Center     Atomic      Atomic             Coordinates (Angstroms)
 Number     Number       Type             X           Y           Z
 ---------------------------------------------------------------------
      1          6           0       -1.654960    0.556910    0.030763
      2          6           0       -2.472050   -0.508187    0.058712
      3          6           0       -3.915853   -0.387914    0.022845
      4          6           0       -4.721851   -1.530979    0.024110
      5          6           0       -6.103950   -1.391462   -0.000640
      6          6           0       -6.987249   -2.567149    0.014252
      7          6           0       -8.115694   -2.614740   -0.800030
      8          6           0       -8.943038   -3.722202   -0.789087
      9          6           0       -8.660185   -4.794211    0.040723
     10          6           0       -7.542342   -4.754659    0.857256
     11          6           0       -6.709101   -3.651677    0.842019
     12          6           0       -6.628928   -0.101948   -0.037145
     13          6           0       -5.756216    0.986235   -0.047335
     14          6           0       -6.245321    2.373732   -0.077868
     15          6           0       -5.466929    3.380422    0.490268
     16          6           0       -5.898974    4.692256    0.481993
     17          6           0       -7.112708    5.020704   -0.099989
     18          6           0       -7.887257    4.029543   -0.678893
     19          6           0       -7.458994    2.714741   -0.668890
     20          7           0       -4.438821    0.836805   -0.009389
     21          6           0       -0.212492    0.554132    0.064275
     22          6           0        0.559403   -0.607629    0.178680
     23          6           0        1.932565   -0.554626    0.204467
     24          6           0        2.621127    0.663302    0.114380
     25          7           0        4.010124    0.675844    0.190733
     26          6           0        4.662292    1.907315    0.588009
     27          6           0        5.951159    1.711503    1.403109
     28          8           0        5.764917    1.097472    2.663690
     29          6           0        5.852944   -0.305936    2.685905
     30          6           0        7.260438   -0.845139    2.376594
     31          8           0        7.376125   -1.170395    1.003534
     32          6           0        8.647244   -1.676419    0.647923
     33          6           0        8.599279   -2.356679   -0.730570
     34          8           0        8.849206   -1.530095   -1.840969
     35          6           0        7.736787   -0.886660   -2.427894
     36          6           0        7.480490    0.488547   -1.792001
     37          8           0        6.286755    1.143607   -2.168444
     38          6           0        5.073503    0.422173   -2.078187
     39          6           0        4.737490   -0.201885   -0.704883
     40          6           0        1.851937    1.827073    0.005272
     41          6           0        0.476039    1.768064   -0.017542
     42          1           0       -2.125051    1.529994   -0.028466
     43          1           0       -2.088567   -1.517691    0.107410
     44          1           0       -4.270135   -2.511920    0.029960
     45          1           0       -8.331653   -1.786914   -1.460078
     46          1           0       -9.811778   -3.750022   -1.430827
     47          1           0       -9.308877   -5.657685    0.051055
     48          1           0       -7.319770   -5.586882    1.509347
     49          1           0       -5.846182   -3.618252    1.491473
     50          1           0       -7.696876    0.048385   -0.013617
     51          1           0       -4.523864    3.108922    0.938569
     52          1           0       -5.289427    5.463598    0.930329
     53          1           0       -7.452246    6.046233   -0.107098
     54          1           0       -8.829248    4.283308   -1.143753
     55          1           0       -8.063546    1.955665   -1.143393
     56          1           0        0.074350   -1.567991    0.264001
     57          1           0        2.486703   -1.474304    0.325072
     58          1           0        3.966584    2.450620    1.229305
     59          1           0        4.923842    2.534335   -0.276943
     60          1           0        6.702304    1.174067    0.825354
     61          1           0        6.342595    2.710018    1.622961
     62          1           0        5.589022   -0.576073    3.710796
     63          1           0        5.132141   -0.764683    2.000733
     64          1           0        8.007880   -0.088678    2.656091
     65          1           0        7.447974   -1.749809    2.973127
     66          1           0        9.395462   -0.871109    0.638480
     67          1           0        8.954208   -2.425761    1.391644
     68          1           0        7.630384   -2.863688   -0.831278
     69          1           0        9.396523   -3.105548   -0.757435
     70          1           0        6.849152   -1.523826   -2.330157
     71          1           0        7.976686   -0.775502   -3.489399
     72          1           0        7.530991    0.360223   -0.706548
     73          1           0        8.273644    1.179492   -2.088050
     74          1           0        5.054442   -0.369986   -2.839824
     75          1           0        4.305798    1.154448   -2.344526
     76          1           0        5.652589   -0.543413   -0.220991
     77          1           0        4.114616   -1.076220   -0.893156
     78          1           0        2.330929    2.789363   -0.089687
     79          1           0       -0.088359    2.684726   -0.116005
 ---------------------------------------------------------------------
 Rotational constants (GHZ):           0.1395945           0.0235031           0.0214182
 Leave Link  202 at Fri Nov  4 22:23:48 2022, MaxMem=   805306368 cpu:               0.4 elap:               0.1
 (Enter /home/wykgroup/appl/g16/l301.exe)
 Standard basis: 6-31G(d) (6D, 7F)
 Ernie: Thresh=  0.10000D-02 Tol=  0.10000D-05 Strict=F.
 There are   691 symmetry adapted cartesian basis functions of A   symmetry.
 There are   691 symmetry adapted basis functions of A   symmetry.
   691 basis functions,  1300 primitive gaussians,   691 cartesian basis functions
   147 alpha electrons      147 beta electrons
       nuclear repulsion energy      4223.2630174378 Hartrees.
 IExCor=  402 DFT=T Ex+Corr=B3LYP ExCW=0 ScaHFX=  0.200000
 ScaDFX=  0.800000  0.720000  1.000000  0.810000 ScalE2=  1.000000  1.000000
 IRadAn=      5 IRanWt=     -1 IRanGd=            0 ICorTp=0 IEmpDi=  4
 NAtoms=   79 NActive=   79 NUniq=   79 SFac= 1.00D+00 NAtFMM=   60 NAOKFM=T Big=T
 Integral buffers will be    131072 words long.
 Raffenetti 2 integral format.
 Two-electron integral symmetry is turned on.
 Leave Link  301 at Fri Nov  4 22:23:48 2022, MaxMem=   805306368 cpu:               0.6 elap:               0.1
 (Enter /home/wykgroup/appl/g16/l302.exe)
 NPDir=0 NMtPBC=     1 NCelOv=     1 NCel=       1 NClECP=     1 NCelD=      1
         NCelK=      1 NCelE2=     1 NClLst=     1 CellRange=     0.0.
 One-electron integrals computed using PRISM.
 One-electron integral symmetry used in STVInt
 NBasis=   691 RedAO= T EigKep=  3.58D-04  NBF=   691
 NBsUse=   691 1.00D-06 EigRej= -1.00D+00 NBFU=   691
 Precomputing XC quadrature grid using
 IXCGrd= 4 IRadAn=           5 IRanWt=          -1 IRanGd=           0 AccXCQ= 0.00D+00.
 Generated NRdTot=       0 NPtTot=           0 NUsed=           0 NTot=          32
 NSgBfM=   655   655   655   655   655 MxSgAt=    79 MxSgA2=    79.
 Leave Link  302 at Fri Nov  4 22:23:50 2022, MaxMem=   805306368 cpu:              12.1 elap:               1.8
 (Enter /home/wykgroup/appl/g16/l303.exe)
 DipDrv:  MaxL=1.
 Leave Link  303 at Fri Nov  4 22:23:50 2022, MaxMem=   805306368 cpu:               0.8 elap:               0.2
 (Enter /home/wykgroup/appl/g16/l401.exe)
 ExpMin= 1.61D-01 ExpMax= 5.48D+03 ExpMxC= 8.25D+02 IAcc=3 IRadAn=         5 AccDes= 0.00D+00
 Harris functional with IExCor=  402 and IRadAn=       5 diagonalized for initial guess.
 HarFok:  IExCor=  402 AccDes= 0.00D+00 IRadAn=         5 IDoV= 1 UseB2=F ITyADJ=14
 ICtDFT=  3500011 ScaDFX=  1.000000  1.000000  1.000000  1.000000
 FoFCou: FMM=F IPFlag=           0 FMFlag=      100000 FMFlg1=        2001
         NFxFlg=           0 DoJE=T BraDBF=F KetDBF=T FulRan=T
         wScrn=  0.000000 ICntrl=       500 IOpCl=  0 I1Cent=   200000004 NGrid=           0
         NMat0=    1 NMatS0=      1 NMatT0=    0 NMatD0=    1 NMtDS0=    0 NMtDT0=    0
 Petite list used in FoFCou.
 Harris En= -1766.91850645292    
 JPrj=0 DoOrth=F DoCkMO=F.
 Leave Link  401 at Fri Nov  4 22:23:56 2022, MaxMem=   805306368 cpu:              40.8 elap:               6.1
 (Enter /home/wykgroup/appl/g16/l502.exe)
 Integral symmetry usage will be decided dynamically.
 Closed shell SCF:
 Using DIIS extrapolation, IDIIS=  1040.
 NGot=   805306368 LenX=   804338877 LenY=   803860705
 Requested convergence on RMS density matrix=1.00D-08 within  32 cycles.
 Requested convergence on MAX density matrix=1.00D-06.
 Requested convergence on             energy=1.00D-06.
 No special actions if energy rises.
 Fock matrices will be formed incrementally for  20 cycles.
 Integral accuracy reduced to 1.0D-05 until final iterations.

 Cycle   1  Pass 0  IDiag  1:
 FoFJK:  IHMeth= 1 ICntrl=       0 DoSepK=F KAlg= 0 I1Cent=           0 FoldK=F
 IRaf= 690000000 NMat=       1 IRICut=       1 DoRegI=T DoRafI=F ISym2E= 0 IDoP0=0 IntGTp=1.
 FoFCou: FMM=T IPFlag=           0 FMFlag=      100000 FMFlg1=        2001
         NFxFlg=           0 DoJE=F BraDBF=F KetDBF=F FulRan=T
         wScrn=  0.000000 ICntrl=         0 IOpCl=  0 I1Cent=           0 NGrid=           0
         NMat0=    1 NMatS0=      1 NMatT0=    0 NMatD0=    1 NMtDS0=    0 NMtDT0=    0
 Symmetry not used in FoFCou.
 FMM levels:  10  Number of levels for PrismC:   9
 E= -1766.11321911011    
 DIIS: error= 3.38D-02 at cycle   1 NSaved=   1.
 NSaved= 1 IEnMin= 1 EnMin= -1766.11321911011     IErMin= 1 ErrMin= 3.38D-02
 ErrMax= 3.38D-02  0.00D+00 EMaxC= 1.00D-01 BMatC= 7.68D-01 BMatP= 7.68D-01
 IDIUse=3 WtCom= 6.62D-01 WtEn= 3.38D-01
 Coeff-Com:  0.100D+01
 Coeff-En:   0.100D+01
 Coeff:      0.100D+01
 Gap=     0.150 Goal=   None    Shift=    0.000
 GapD=    0.150 DampG=1.000 DampE=0.500 DampFc=0.5000 IDamp=-1.
 Damping current iteration by 5.00D-01
 RMSDP=3.08D-03 MaxDP=1.19D-01              OVMax= 1.66D-01

 Cycle   2  Pass 0  IDiag  1:
 RMSU=  1.51D-03    CP:  9.78D-01
 E= -1766.50702202421     Delta-E=       -0.393802914101 Rises=F Damp=T
 DIIS: error= 6.64D-03 at cycle   2 NSaved=   2.
 NSaved= 2 IEnMin= 2 EnMin= -1766.50702202421     IErMin= 2 ErrMin= 6.64D-03
 ErrMax= 6.64D-03  0.00D+00 EMaxC= 1.00D-01 BMatC= 4.91D-02 BMatP= 7.68D-01
 IDIUse=3 WtCom= 9.34D-01 WtEn= 6.64D-02
 Coeff-Com: -0.190D-01 0.102D+01
 Coeff-En:   0.000D+00 0.100D+01
 Coeff:     -0.178D-01 0.102D+01
 Gap=     0.140 Goal=   None    Shift=    0.000
 RMSDP=8.06D-04 MaxDP=3.26D-02 DE=-3.94D-01 OVMax= 1.20D-01

 Cycle   3  Pass 0  IDiag  1:
 RMSU=  7.88D-04    CP:  9.67D-01  9.35D-01
 E= -1766.89614662850     Delta-E=       -0.389124604283 Rises=F Damp=F
 DIIS: error= 5.64D-03 at cycle   3 NSaved=   3.
 NSaved= 3 IEnMin= 3 EnMin= -1766.89614662850     IErMin= 3 ErrMin= 5.64D-03
 ErrMax= 5.64D-03  0.00D+00 EMaxC= 1.00D-01 BMatC= 3.20D-02 BMatP= 4.91D-02
 IDIUse=3 WtCom= 9.44D-01 WtEn= 5.64D-02
 Coeff-Com: -0.595D-01 0.465D+00 0.594D+00
 Coeff-En:   0.000D+00 0.000D+00 0.100D+01
 Coeff:     -0.561D-01 0.439D+00 0.617D+00
 Gap=     0.135 Goal=   None    Shift=    0.000
 RMSDP=4.75D-04 MaxDP=2.68D-02 DE=-3.89D-01 OVMax= 7.14D-02

 Cycle   4  Pass 0  IDiag  1:
 RMSU=  3.72D-04    CP:  9.68D-01  1.00D+00  6.47D-01
 E= -1766.91110895250     Delta-E=       -0.014962324000 Rises=F Damp=F
 DIIS: error= 5.51D-03 at cycle   4 NSaved=   4.
 NSaved= 4 IEnMin= 4 EnMin= -1766.91110895250     IErMin= 4 ErrMin= 5.51D-03
 ErrMax= 5.51D-03  0.00D+00 EMaxC= 1.00D-01 BMatC= 1.45D-02 BMatP= 3.20D-02
 IDIUse=3 WtCom= 9.45D-01 WtEn= 5.51D-02
 Coeff-Com: -0.323D-01 0.144D+00 0.415D+00 0.473D+00
 Coeff-En:   0.000D+00 0.000D+00 0.363D+00 0.637D+00
 Coeff:     -0.305D-01 0.136D+00 0.412D+00 0.482D+00
 Gap=     0.129 Goal=   None    Shift=    0.000
 RMSDP=2.48D-04 MaxDP=1.49D-02 DE=-1.50D-02 OVMax= 4.07D-02

 Cycle   5  Pass 0  IDiag  1:
 RMSU=  1.05D-04    CP:  9.67D-01  1.00D+00  7.61D-01  4.47D-01
 E= -1766.92570637628     Delta-E=       -0.014597423785 Rises=F Damp=F
 DIIS: error= 1.65D-03 at cycle   5 NSaved=   5.
 NSaved= 5 IEnMin= 5 EnMin= -1766.92570637628     IErMin= 5 ErrMin= 1.65D-03
 ErrMax= 1.65D-03  0.00D+00 EMaxC= 1.00D-01 BMatC= 9.76D-04 BMatP= 1.45D-02
 IDIUse=3 WtCom= 9.84D-01 WtEn= 1.65D-02
 Coeff-Com: -0.124D-01 0.413D-01 0.187D+00 0.283D+00 0.501D+00
 Coeff-En:   0.000D+00 0.000D+00 0.000D+00 0.156D-01 0.984D+00
 Coeff:     -0.122D-01 0.406D-01 0.184D+00 0.279D+00 0.509D+00
 Gap=     0.131 Goal=   None    Shift=    0.000
 RMSDP=6.86D-05 MaxDP=4.64D-03 DE=-1.46D-02 OVMax= 1.26D-02

 Cycle   6  Pass 0  IDiag  1:
 RMSU=  3.70D-05    CP:  9.67D-01  1.00D+00  7.55D-01  5.21D-01  5.18D-01
 E= -1766.92667281364     Delta-E=       -0.000966437361 Rises=F Damp=F
 DIIS: error= 4.43D-04 at cycle   6 NSaved=   6.
 NSaved= 6 IEnMin= 6 EnMin= -1766.92667281364     IErMin= 6 ErrMin= 4.43D-04
 ErrMax= 4.43D-04  0.00D+00 EMaxC= 1.00D-01 BMatC= 1.15D-04 BMatP= 9.76D-04
 IDIUse=3 WtCom= 9.96D-01 WtEn= 4.43D-03
 Coeff-Com: -0.358D-02 0.730D-02 0.609D-01 0.109D+00 0.309D+00 0.517D+00
 Coeff-En:   0.000D+00 0.000D+00 0.000D+00 0.000D+00 0.780D-01 0.922D+00
 Coeff:     -0.356D-02 0.727D-02 0.607D-01 0.109D+00 0.308D+00 0.519D+00
 Gap=     0.130 Goal=   None    Shift=    0.000
 RMSDP=1.96D-05 MaxDP=1.06D-03 DE=-9.66D-04 OVMax= 3.19D-03

 Cycle   7  Pass 0  IDiag  1:
 RMSU=  9.17D-06    CP:  9.67D-01  1.00D+00  7.60D-01  5.17D-01  6.02D-01
                    CP:  6.17D-01
 E= -1766.92678044620     Delta-E=       -0.000107632552 Rises=F Damp=F
 DIIS: error= 1.12D-04 at cycle   7 NSaved=   7.
 NSaved= 7 IEnMin= 7 EnMin= -1766.92678044620     IErMin= 7 ErrMin= 1.12D-04
 ErrMax= 1.12D-04  0.00D+00 EMaxC= 1.00D-01 BMatC= 7.01D-06 BMatP= 1.15D-04
 IDIUse=3 WtCom= 9.99D-01 WtEn= 1.12D-03
 Coeff-Com: -0.141D-02 0.211D-02 0.257D-01 0.485D-01 0.156D+00 0.303D+00
 Coeff-Com:  0.467D+00
 Coeff-En:   0.000D+00 0.000D+00 0.000D+00 0.000D+00 0.000D+00 0.000D+00
 Coeff-En:   0.100D+01
 Coeff:     -0.140D-02 0.211D-02 0.256D-01 0.485D-01 0.155D+00 0.302D+00
 Coeff:      0.468D+00
 Gap=     0.130 Goal=   None    Shift=    0.000
 RMSDP=5.68D-06 MaxDP=5.18D-04 DE=-1.08D-04 OVMax= 9.44D-04

 Initial convergence to 1.0D-05 achieved.  Increase integral accuracy.
 Cycle   8  Pass 1  IDiag  1:
 E= -1766.92683874653     Delta-E=       -0.000058300337 Rises=F Damp=F
 DIIS: error= 1.89D-04 at cycle   1 NSaved=   1.
 NSaved= 1 IEnMin= 1 EnMin= -1766.92683874653     IErMin= 1 ErrMin= 1.89D-04
 ErrMax= 1.89D-04  0.00D+00 EMaxC= 1.00D-01 BMatC= 8.29D-06 BMatP= 8.29D-06
 IDIUse=3 WtCom= 9.98D-01 WtEn= 1.89D-03
 Coeff-Com:  0.100D+01
 Coeff-En:   0.100D+01
 Coeff:      0.100D+01
 Gap=     0.130 Goal=   None    Shift=    0.000
 RMSDP=5.68D-06 MaxDP=5.18D-04 DE=-5.83D-05 OVMax= 8.66D-04

 Cycle   9  Pass 1  IDiag  1:
 RMSU=  7.52D-05    CP:  1.00D+00
 E= -1766.92684260893     Delta-E=       -0.000003862396 Rises=F Damp=F
 DIIS: error= 9.02D-05 at cycle   2 NSaved=   2.
 NSaved= 2 IEnMin= 2 EnMin= -1766.92684260893     IErMin= 2 ErrMin= 9.02D-05
 ErrMax= 9.02D-05  0.00D+00 EMaxC= 1.00D-01 BMatC= 3.66D-06 BMatP= 8.29D-06
 IDIUse=1 WtCom= 1.00D+00 WtEn= 0.00D+00
 Coeff-Com:  0.347D+00 0.653D+00
 Coeff:      0.347D+00 0.653D+00
 Gap=     0.130 Goal=   None    Shift=    0.000
 RMSDP=7.28D-06 MaxDP=7.16D-04 DE=-3.86D-06 OVMax= 1.27D-03

 Cycle  10  Pass 1  IDiag  1:
 RMSU=  7.27D-06    CP:  1.00D+00  1.00D+00
 E= -1766.92684143701     Delta-E=        0.000001171920 Rises=F Damp=F
 DIIS: error= 9.78D-05 at cycle   3 NSaved=   3.
 NSaved= 3 IEnMin= 2 EnMin= -1766.92684260893     IErMin= 2 ErrMin= 9.02D-05
 ErrMax= 9.78D-05  0.00D+00 EMaxC= 1.00D-01 BMatC= 4.70D-06 BMatP= 3.66D-06
 IDIUse=1 WtCom= 1.00D+00 WtEn= 0.00D+00
 Coeff-Com: -0.157D-02 0.532D+00 0.470D+00
 Coeff:     -0.157D-02 0.532D+00 0.470D+00
 Gap=     0.130 Goal=   None    Shift=    0.000
 RMSDP=3.99D-06 MaxDP=3.93D-04 DE= 1.17D-06 OVMax= 6.81D-04

 Cycle  11  Pass 1  IDiag  1:
 RMSU=  5.58D-07    CP:  1.00D+00  1.01D+00  4.62D-01
 E= -1766.92684648646     Delta-E=       -0.000005049448 Rises=F Damp=F
 DIIS: error= 8.63D-06 at cycle   4 NSaved=   4.
 NSaved= 4 IEnMin= 4 EnMin= -1766.92684648646     IErMin= 4 ErrMin= 8.63D-06
 ErrMax= 8.63D-06  0.00D+00 EMaxC= 1.00D-01 BMatC= 4.05D-08 BMatP= 3.66D-06
 IDIUse=1 WtCom= 1.00D+00 WtEn= 0.00D+00
 Coeff-Com: -0.372D-02 0.329D+00 0.295D+00 0.380D+00
 Coeff:     -0.372D-02 0.329D+00 0.295D+00 0.380D+00
 Gap=     0.130 Goal=   None    Shift=    0.000
 RMSDP=3.49D-07 MaxDP=2.93D-05 DE=-5.05D-06 OVMax= 5.62D-05

 Cycle  12  Pass 1  IDiag  1:
 RMSU=  1.68D-07    CP:  1.00D+00  1.01D+00  4.72D-01  4.68D-01
 E= -1766.92684652625     Delta-E=       -0.000000039796 Rises=F Damp=F
 DIIS: error= 1.42D-06 at cycle   5 NSaved=   5.
 NSaved= 5 IEnMin= 5 EnMin= -1766.92684652625     IErMin= 5 ErrMin= 1.42D-06
 ErrMax= 1.42D-06  0.00D+00 EMaxC= 1.00D-01 BMatC= 1.15D-09 BMatP= 4.05D-08
 IDIUse=1 WtCom= 1.00D+00 WtEn= 0.00D+00
 Coeff-Com: -0.206D-02 0.161D+00 0.145D+00 0.219D+00 0.477D+00
 Coeff:     -0.206D-02 0.161D+00 0.145D+00 0.219D+00 0.477D+00
 Gap=     0.130 Goal=   None    Shift=    0.000
 RMSDP=7.49D-08 MaxDP=5.28D-06 DE=-3.98D-08 OVMax= 1.19D-05

 Cycle  13  Pass 1  IDiag  1:
 RMSU=  5.47D-08    CP:  1.00D+00  1.01D+00  4.73D-01  5.04D-01  7.23D-01
 E= -1766.92684652749     Delta-E=       -0.000000001237 Rises=F Damp=F
 DIIS: error= 2.89D-07 at cycle   6 NSaved=   6.
 NSaved= 6 IEnMin= 6 EnMin= -1766.92684652749     IErMin= 6 ErrMin= 2.89D-07
 ErrMax= 2.89D-07  0.00D+00 EMaxC= 1.00D-01 BMatC= 9.45D-11 BMatP= 1.15D-09
 IDIUse=1 WtCom= 1.00D+00 WtEn= 0.00D+00
 Coeff-Com: -0.875D-03 0.652D-01 0.587D-01 0.941D-01 0.277D+00 0.506D+00
 Coeff:     -0.875D-03 0.652D-01 0.587D-01 0.941D-01 0.277D+00 0.506D+00
 Gap=     0.130 Goal=   None    Shift=    0.000
 RMSDP=1.92D-08 MaxDP=1.19D-06 DE=-1.24D-09 OVMax= 2.98D-06

 Cycle  14  Pass 1  IDiag  1:
 RMSU=  1.36D-08    CP:  1.00D+00  1.01D+00  4.72D-01  4.97D-01  7.67D-01
                    CP:  8.13D-01
 E= -1766.92684652759     Delta-E=       -0.000000000103 Rises=F Damp=F
 DIIS: error= 1.07D-07 at cycle   7 NSaved=   7.
 NSaved= 7 IEnMin= 7 EnMin= -1766.92684652759     IErMin= 7 ErrMin= 1.07D-07
 ErrMax= 1.07D-07  0.00D+00 EMaxC= 1.00D-01 BMatC= 5.91D-12 BMatP= 9.45D-11
 IDIUse=1 WtCom= 1.00D+00 WtEn= 0.00D+00
 Coeff-Com: -0.137D-03 0.919D-02 0.823D-02 0.152D-01 0.661D-01 0.238D+00
 Coeff-Com:  0.664D+00
 Coeff:     -0.137D-03 0.919D-02 0.823D-02 0.152D-01 0.661D-01 0.238D+00
 Coeff:      0.664D+00
 Gap=     0.130 Goal=   None    Shift=    0.000
 RMSDP=6.06D-09 MaxDP=3.00D-07 DE=-1.03D-10 OVMax= 8.34D-07

 SCF Done:  E(RB3LYP) =  -1766.92684653     A.U. after   14 cycles
            NFock= 14  Conv=0.61D-08     -V/T= 2.0087
 KE= 1.751627178265D+03 PE=-1.255258479548D+04 EE= 4.810767753247D+03
 Leave Link  502 at Fri Nov  4 22:26:09 2022, MaxMem=   805306368 cpu:             877.8 elap:             132.5
 (Enter /home/wykgroup/appl/g16/l508.exe)
 QCSCF skips out because SCF is already converged.
 Leave Link  508 at Fri Nov  4 22:26:09 2022, MaxMem=   805306368 cpu:               0.2 elap:               0.1
 (Enter /home/wykgroup/appl/g16/l601.exe)
 Copying SCF densities to generalized density rwf, IOpCl= 0 IROHF=0.

 **********************************************************************

            Population analysis using the SCF Density.

 **********************************************************************

 Orbital symmetries:
       Occupied  (A) (A) (A) (A) (A) (A) (A) (A) (A) (A) (A) (A)
                 (A) (A) (A) (A) (A) (A) (A) (A) (A) (A) (A) (A)
                 (A) (A) (A) (A) (A) (A) (A) (A) (A) (A) (A) (A)
                 (A) (A) (A) (A) (A) (A) (A) (A) (A) (A) (A) (A)
                 (A) (A) (A) (A) (A) (A) (A) (A) (A) (A) (A) (A)
                 (A) (A) (A) (A) (A) (A) (A) (A) (A) (A) (A) (A)
                 (A) (A) (A) (A) (A) (A) (A) (A) (A) (A) (A) (A)
                 (A) (A) (A) (A) (A) (A) (A) (A) (A) (A) (A) (A)
                 (A) (A) (A) (A) (A) (A) (A) (A) (A) (A) (A) (A)
                 (A) (A) (A) (A) (A) (A) (A) (A) (A) (A) (A) (A)
                 (A) (A) (A) (A) (A) (A) (A) (A) (A) (A) (A) (A)
                 (A) (A) (A) (A) (A) (A) (A) (A) (A) (A) (A) (A)
                 (A) (A) (A)
       Virtual   (A) (A) (A) (A) (A) (A) (A) (A) (A) (A) (A) (A)
                 (A) (A) (A) (A) (A) (A) (A) (A) (A) (A) (A) (A)
                 (A) (A) (A) (A) (A) (A) (A) (A) (A) (A) (A) (A)
                 (A) (A) (A) (A) (A) (A) (A) (A) (A) (A) (A) (A)
                 (A) (A) (A) (A) (A) (A) (A) (A) (A) (A) (A) (A)
                 (A) (A) (A) (A) (A) (A) (A) (A) (A) (A) (A) (A)
                 (A) (A) (A) (A) (A) (A) (A) (A) (A) (A) (A) (A)
                 (A) (A) (A) (A) (A) (A) (A) (A) (A) (A) (A) (A)
                 (A) (A) (A) (A) (A) (A) (A) (A) (A) (A) (A) (A)
                 (A) (A) (A) (A) (A) (A) (A) (A) (A) (A) (A) (A)
                 (A) (A) (A) (A) (A) (A) (A) (A) (A) (A) (A) (A)
                 (A) (A) (A) (A) (A) (A) (A) (A) (A) (A) (A) (A)
                 (A) (A) (A) (A) (A) (A) (A) (A) (A) (A) (A) (A)
                 (A) (A) (A) (A) (A) (A) (A) (A) (A) (A) (A) (A)
                 (A) (A) (A) (A) (A) (A) (A) (A) (A) (A) (A) (A)
                 (A) (A) (A) (A) (A) (A) (A) (A) (A) (A) (A) (A)
                 (A) (A) (A) (A) (A) (A) (A) (A) (A) (A) (A) (A)
                 (A) (A) (A) (A) (A) (A) (A) (A) (A) (A) (A) (A)
                 (A) (A) (A) (A) (A) (A) (A) (A) (A) (A) (A) (A)
                 (A) (A) (A) (A) (A) (A) (A) (A) (A) (A) (A) (A)
                 (A) (A) (A) (A) (A) (A) (A) (A) (A) (A) (A) (A)
                 (A) (A) (A) (A) (A) (A) (A) (A) (A) (A) (A) (A)
                 (A) (A) (A) (A) (A) (A) (A) (A) (A) (A) (A) (A)
                 (A) (A) (A) (A) (A) (A) (A) (A) (A) (A) (A) (A)
                 (A) (A) (A) (A) (A) (A) (A) (A) (A) (A) (A) (A)
                 (A) (A) (A) (A) (A) (A) (A) (A) (A) (A) (A) (A)
                 (A) (A) (A) (A) (A) (A) (A) (A) (A) (A) (A) (A)
                 (A) (A) (A) (A) (A) (A) (A) (A) (A) (A) (A) (A)
                 (A) (A) (A) (A) (A) (A) (A) (A) (A) (A) (A) (A)
                 (A) (A) (A) (A) (A) (A) (A) (A) (A) (A) (A) (A)
                 (A) (A) (A) (A) (A) (A) (A) (A) (A) (A) (A) (A)
                 (A) (A) (A) (A) (A) (A) (A) (A) (A) (A) (A) (A)
                 (A) (A) (A) (A) (A) (A) (A) (A) (A) (A) (A) (A)
                 (A) (A) (A) (A) (A) (A) (A) (A) (A) (A) (A) (A)
                 (A) (A) (A) (A) (A) (A) (A) (A) (A) (A) (A) (A)
                 (A) (A) (A) (A) (A) (A) (A) (A) (A) (A) (A) (A)
                 (A) (A) (A) (A) (A) (A) (A) (A) (A) (A) (A) (A)
                 (A) (A) (A) (A) (A) (A) (A) (A) (A) (A) (A) (A)
                 (A) (A) (A) (A) (A) (A) (A) (A) (A) (A) (A) (A)
                 (A) (A) (A) (A) (A) (A) (A) (A) (A) (A) (A) (A)
                 (A) (A) (A) (A) (A) (A) (A) (A) (A) (A) (A) (A)
                 (A) (A) (A) (A) (A) (A) (A) (A) (A) (A) (A) (A)
                 (A) (A) (A) (A) (A) (A) (A) (A) (A) (A) (A) (A)
                 (A) (A) (A) (A) (A) (A) (A) (A) (A) (A) (A) (A)
                 (A) (A) (A) (A) (A) (A) (A) (A) (A) (A) (A) (A)
                 (A) (A) (A) (A)
 The electronic state is 1-A.
 Alpha  occ. eigenvalues --  -19.16782 -19.15657 -19.14813 -19.14482 -14.34160
 Alpha  occ. eigenvalues --  -14.30931 -10.24431 -10.24380 -10.24137 -10.23439
 Alpha  occ. eigenvalues --  -10.23239 -10.22980 -10.22680 -10.22446 -10.22017
 Alpha  occ. eigenvalues --  -10.21806 -10.21616 -10.21056 -10.20984 -10.20309
 Alpha  occ. eigenvalues --  -10.19668 -10.18932 -10.18910 -10.18863 -10.18841
 Alpha  occ. eigenvalues --  -10.18825 -10.18400 -10.18285 -10.18242 -10.18178
 Alpha  occ. eigenvalues --  -10.18093 -10.18079 -10.18030 -10.18018 -10.17974
 Alpha  occ. eigenvalues --  -10.17873 -10.17820 -10.17757 -10.17655 -10.17428
 Alpha  occ. eigenvalues --  -10.17216  -1.05753  -1.04258  -1.03211  -1.02983
 Alpha  occ. eigenvalues --   -0.94696  -0.94150  -0.86644  -0.85275  -0.84974
 Alpha  occ. eigenvalues --   -0.81129  -0.80037  -0.78789  -0.77424  -0.77242
 Alpha  occ. eigenvalues --   -0.75022  -0.74788  -0.74612  -0.74261  -0.73735
 Alpha  occ. eigenvalues --   -0.73701  -0.72951  -0.71012  -0.68637  -0.67057
 Alpha  occ. eigenvalues --   -0.64890  -0.64051  -0.63097  -0.61904  -0.61302
 Alpha  occ. eigenvalues --   -0.60683  -0.60387  -0.59680  -0.58814  -0.58385
 Alpha  occ. eigenvalues --   -0.57168  -0.56227  -0.54769  -0.53420  -0.52708
 Alpha  occ. eigenvalues --   -0.52535  -0.51843  -0.51004  -0.50864  -0.50101
 Alpha  occ. eigenvalues --   -0.48990  -0.48896  -0.48355  -0.48316  -0.47601
 Alpha  occ. eigenvalues --   -0.47252  -0.46720  -0.46248  -0.45460  -0.45118
 Alpha  occ. eigenvalues --   -0.45024  -0.44551  -0.44359  -0.44020  -0.43197
 Alpha  occ. eigenvalues --   -0.42837  -0.42572  -0.42487  -0.42072  -0.41768
 Alpha  occ. eigenvalues --   -0.41551  -0.41310  -0.40952  -0.40723  -0.40517
 Alpha  occ. eigenvalues --   -0.39925  -0.39620  -0.38943  -0.38086  -0.37645
[...]
                 (A) (A) (A) (A) (A) (A) (A) (A) (A) (A) (A) (A)
                 (A) (A) (A) (A)
 The electronic state is 1-A.
 Alpha  occ. eigenvalues --  -19.16759 -19.15553 -19.14818 -19.14579 -14.34487
 Alpha  occ. eigenvalues --  -14.31413 -10.24556 -10.24502 -10.24379 -10.23624
 Alpha  occ. eigenvalues --  -10.23534 -10.23083 -10.22820 -10.22574 -10.22400
 Alpha  occ. eigenvalues --  -10.22361 -10.22126 -10.21467 -10.21127 -10.20802
 Alpha  occ. eigenvalues --  -10.20232 -10.19371 -10.19343 -10.19311 -10.19282
 Alpha  occ. eigenvalues --  -10.19271 -10.18967 -10.18672 -10.18643 -10.18551
 Alpha  occ. eigenvalues --  -10.18497 -10.18497 -10.18452 -10.18396 -10.18381
 Alpha  occ. eigenvalues --  -10.18269 -10.18227 -10.18223 -10.17954 -10.17835
 Alpha  occ. eigenvalues --  -10.17699  -1.05114  -1.03538  -1.02600  -1.02329
 Alpha  occ. eigenvalues --   -0.93701  -0.93432  -0.86106  -0.84727  -0.84416
 Alpha  occ. eigenvalues --   -0.80772  -0.79601  -0.78829  -0.77476  -0.76854
 Alpha  occ. eigenvalues --   -0.74741  -0.74567  -0.74378  -0.74010  -0.73486
 Alpha  occ. eigenvalues --   -0.73468  -0.72777  -0.70945  -0.68790  -0.66513
 Alpha  occ. eigenvalues --   -0.64684  -0.63805  -0.62881  -0.61640  -0.61102
 Alpha  occ. eigenvalues --   -0.60471  -0.60268  -0.59547  -0.58702  -0.58350
 Alpha  occ. eigenvalues --   -0.57013  -0.56143  -0.54521  -0.52928  -0.52424
 Alpha  occ. eigenvalues --   -0.52169  -0.51595  -0.50780  -0.50657  -0.49882
 Alpha  occ. eigenvalues --   -0.48645  -0.48522  -0.48181  -0.48059  -0.47394
 Alpha  occ. eigenvalues --   -0.46862  -0.46732  -0.46012  -0.45331  -0.45068
 Alpha  occ. eigenvalues --   -0.44798  -0.44431  -0.44168  -0.43751  -0.42928
 Alpha  occ. eigenvalues --   -0.42725  -0.42424  -0.42321  -0.41997  -0.41548
 Alpha  occ. eigenvalues --   -0.41333  -0.41158  -0.40924  -0.40607  -0.40422
 Alpha  occ. eigenvalues --   -0.39731  -0.39454  -0.38709  -0.38235  -0.37551
 Alpha  occ. eigenvalues --   -0.37420  -0.36883  -0.36696  -0.36569  -0.36453
 Alpha  occ. eigenvalues --   -0.35748  -0.35604  -0.35321  -0.34479  -0.34244
 Alpha  occ. eigenvalues --   -0.33933  -0.33595  -0.33240  -0.32799  -0.32215
 Alpha  occ. eigenvalues --   -0.31104  -0.30753  -0.30469  -0.29267  -0.28474
 Alpha  occ. eigenvalues --   -0.27522  -0.26975  -0.25390  -0.25265  -0.24925
 Alpha  occ. eigenvalues --   -0.24662  -0.24568  -0.24166  -0.23941  -0.23076
 Alpha  occ. eigenvalues --   -0.21693  -0.17952
 Alpha virt. eigenvalues --   -0.05024  -0.03609  -0.01115  -0.00375   0.00496
 Alpha virt. eigenvalues --    0.00759   0.02902   0.04476   0.07030   0.07709
 Alpha virt. eigenvalues --    0.08300   0.08440   0.09287   0.10060   0.10146
 Alpha virt. eigenvalues --    0.10450   0.10991   0.11146   0.11970   0.12092
 Alpha virt. eigenvalues --    0.12318   0.12492   0.13029   0.13534   0.13653
 Alpha virt. eigenvalues --    0.14142   0.14241   0.14423   0.14893   0.15121
 Alpha virt. eigenvalues --    0.15571   0.15696   0.15987   0.16083   0.16423
 Alpha virt. eigenvalues --    0.16704   0.16931   0.17135   0.17440   0.17799
 Alpha virt. eigenvalues --    0.17844   0.17992   0.18323   0.18600   0.18925
 Alpha virt. eigenvalues --    0.19162   0.19561   0.19807   0.20215   0.20445
 Alpha virt. eigenvalues --    0.20702   0.21130   0.22129   0.22558   0.23072
 Alpha virt. eigenvalues --    0.23514   0.24156   0.24767   0.24827   0.25065
 Alpha virt. eigenvalues --    0.25609   0.25956   0.26854   0.27107   0.27193
 Alpha virt. eigenvalues --    0.27523   0.27881   0.28386   0.28809   0.29321
 Alpha virt. eigenvalues --    0.30618   0.30810   0.31427   0.31547   0.32403
 Alpha virt. eigenvalues --    0.32786   0.33685   0.33884   0.34470   0.35212
 Alpha virt. eigenvalues --    0.35951   0.36425   0.36968   0.38602   0.39956
 Alpha virt. eigenvalues --    0.41670   0.41823   0.44845   0.45901   0.47113
 Alpha virt. eigenvalues --    0.48385   0.49273   0.49514   0.50109   0.50652
 Alpha virt. eigenvalues --    0.51517   0.51672   0.51881   0.52282   0.52663
 Alpha virt. eigenvalues --    0.52848   0.53045   0.53316   0.53440   0.53732
 Alpha virt. eigenvalues --    0.54039   0.54577   0.54714   0.55208   0.55496
 Alpha virt. eigenvalues --    0.55802   0.55855   0.56163   0.56536   0.56641
 Alpha virt. eigenvalues --    0.57013   0.57513   0.58042   0.58307   0.58405
 Alpha virt. eigenvalues --    0.59018   0.59138   0.59308   0.59525   0.59722
 Alpha virt. eigenvalues --    0.59901   0.60093   0.60172   0.60350   0.60605
 Alpha virt. eigenvalues --    0.60682   0.60793   0.60840   0.61239   0.61575
 Alpha virt. eigenvalues --    0.61760   0.61937   0.61990   0.62494   0.62927
 Alpha virt. eigenvalues --    0.63135   0.63512   0.63784   0.64040   0.64417
 Alpha virt. eigenvalues --    0.64829   0.65207   0.65944   0.66267   0.66846
 Alpha virt. eigenvalues --    0.67081   0.67407   0.67768   0.68561   0.68975
 Alpha virt. eigenvalues --    0.69495   0.69867   0.70221   0.70723   0.71770
 Alpha virt. eigenvalues --    0.72715   0.73814   0.74334   0.75838   0.75993
 Alpha virt. eigenvalues --    0.76202   0.77013   0.77359   0.77528   0.78460
 Alpha virt. eigenvalues --    0.79248   0.80077   0.80395   0.80724   0.81219
 Alpha virt. eigenvalues --    0.81860   0.82174   0.82377   0.83312   0.83404
 Alpha virt. eigenvalues --    0.83718   0.83739   0.84224   0.84613   0.84751
 Alpha virt. eigenvalues --    0.84980   0.85149   0.85304   0.85752   0.85887
 Alpha virt. eigenvalues --    0.86012   0.87041   0.87526   0.87762   0.88306
 Alpha virt. eigenvalues --    0.88558   0.89208   0.89449   0.89787   0.90079
 Alpha virt. eigenvalues --    0.90518   0.90987   0.91372   0.91698   0.92155
 Alpha virt. eigenvalues --    0.92403   0.92714   0.93339   0.93407   0.94443
 Alpha virt. eigenvalues --    0.94517   0.94721   0.94880   0.95180   0.95633
 Alpha virt. eigenvalues --    0.96866   0.96927   0.97670   0.98318   0.98569
 Alpha virt. eigenvalues --    0.99066   0.99539   0.99873   1.00518   1.00731
 Alpha virt. eigenvalues --    1.00981   1.01439   1.01827   1.02391   1.02951
 Alpha virt. eigenvalues --    1.03459   1.04469   1.04575   1.05227   1.06099
 Alpha virt. eigenvalues --    1.06488   1.07521   1.08106   1.09159   1.09631
 Alpha virt. eigenvalues --    1.11046   1.11343   1.12089   1.12680   1.13045
 Alpha virt. eigenvalues --    1.14307   1.14879   1.15463   1.15619   1.16732
 Alpha virt. eigenvalues --    1.17145   1.17739   1.18385   1.18698   1.19244
 Alpha virt. eigenvalues --    1.19593   1.21063   1.21689   1.22047   1.22212
 Alpha virt. eigenvalues --    1.23813   1.24704   1.25505   1.26437   1.26761
 Alpha virt. eigenvalues --    1.27202   1.28705   1.28963   1.29223   1.30561
 Alpha virt. eigenvalues --    1.31253   1.32217   1.33179   1.34943   1.35331
 Alpha virt. eigenvalues --    1.35757   1.36698   1.37781   1.38466   1.39238
 Alpha virt. eigenvalues --    1.39674   1.40397   1.42585   1.43136   1.43524
 Alpha virt. eigenvalues --    1.44046   1.44170   1.44837   1.45463   1.45618
 Alpha virt. eigenvalues --    1.46288   1.46336   1.46837   1.46907   1.48413
 Alpha virt. eigenvalues --    1.48580   1.48863   1.49069   1.49303   1.50050
 Alpha virt. eigenvalues --    1.50198   1.51163   1.51313   1.51560   1.52294
 Alpha virt. eigenvalues --    1.52373   1.52701   1.54443   1.55998   1.56602
 Alpha virt. eigenvalues --    1.57220   1.59234   1.59802   1.61280   1.62075
 Alpha virt. eigenvalues --    1.62572   1.63776   1.66079   1.67796   1.68255
 Alpha virt. eigenvalues --    1.68670   1.69193   1.70153   1.71167   1.71269
 Alpha virt. eigenvalues --    1.73248   1.73932   1.74879   1.77534   1.77633
 Alpha virt. eigenvalues --    1.78091   1.78286   1.79481   1.80255   1.80533
 Alpha virt. eigenvalues --    1.81024   1.81653   1.81975   1.82446   1.82819
 Alpha virt. eigenvalues --    1.83342   1.84149   1.84705   1.85236   1.85834
 Alpha virt. eigenvalues --    1.85905   1.86846   1.88238   1.88509   1.89382
 Alpha virt. eigenvalues --    1.89466   1.89949   1.90551   1.91055   1.91718
 Alpha virt. eigenvalues --    1.92157   1.92868   1.93474   1.94087   1.95054
 Alpha virt. eigenvalues --    1.95901   1.96708   1.97711   1.97816   1.98710
 Alpha virt. eigenvalues --    1.99220   1.99688   2.00048   2.00894   2.01133
 Alpha virt. eigenvalues --    2.01688   2.02480   2.03926   2.04633   2.04869
 Alpha virt. eigenvalues --    2.05205   2.05397   2.06277   2.06468   2.07540
 Alpha virt. eigenvalues --    2.08040   2.09183   2.09687   2.10180   2.11048
 Alpha virt. eigenvalues --    2.11562   2.11982   2.12531   2.13074   2.13427
 Alpha virt. eigenvalues --    2.13806   2.14096   2.14551   2.14668   2.14974
 Alpha virt. eigenvalues --    2.15670   2.16366   2.16483   2.17125   2.17608
 Alpha virt. eigenvalues --    2.18396   2.18737   2.19760   2.20919   2.22222
 Alpha virt. eigenvalues --    2.23297   2.24809   2.24986   2.25298   2.26224
 Alpha virt. eigenvalues --    2.26879   2.27407   2.28987   2.29231   2.29675
 Alpha virt. eigenvalues --    2.29962   2.30608   2.30889   2.31454   2.31984
 Alpha virt. eigenvalues --    2.32437   2.32584   2.32917   2.34369   2.34909
 Alpha virt. eigenvalues --    2.35930   2.36363   2.37073   2.38472   2.39408
 Alpha virt. eigenvalues --    2.40813   2.41191   2.42107   2.43764   2.46518
 Alpha virt. eigenvalues --    2.46639   2.47185   2.48773   2.49033   2.49953
 Alpha virt. eigenvalues --    2.51696   2.52572   2.53390   2.54519   2.55340
 Alpha virt. eigenvalues --    2.56117   2.57307   2.57804   2.58226   2.59603
 Alpha virt. eigenvalues --    2.59810   2.60623   2.61747   2.63327   2.64192
 Alpha virt. eigenvalues --    2.64488   2.65201   2.65302   2.65658   2.66979
 Alpha virt. eigenvalues --    2.67442   2.69002   2.69441   2.70748   2.71382
 Alpha virt. eigenvalues --    2.72307   2.72847   2.73727   2.74261   2.74625
 Alpha virt. eigenvalues --    2.75172   2.75255   2.76801   2.76972   2.78795
 Alpha virt. eigenvalues --    2.80269   2.80728   2.82244   2.82820   2.83356
 Alpha virt. eigenvalues --    2.84485   2.85448   2.86519   2.91291   2.91895
 Alpha virt. eigenvalues --    2.92980   2.93134   2.95576   2.95659   2.96315
 Alpha virt. eigenvalues --    2.97049   2.97621   2.99068   3.00312   3.10574
 Alpha virt. eigenvalues --    3.13432   3.15837   3.23860   3.30722   3.36156
 Alpha virt. eigenvalues --    3.41715   3.43853   3.51212   3.89426   3.91384
 Alpha virt. eigenvalues --    4.02129   4.05057   4.08012   4.08700   4.09369
 Alpha virt. eigenvalues --    4.09572   4.10729   4.11448   4.12075   4.12563
 Alpha virt. eigenvalues --    4.12645   4.12962   4.14508   4.16016   4.19248
 Alpha virt. eigenvalues --    4.21102   4.24367   4.25066   4.27762   4.28637
 Alpha virt. eigenvalues --    4.31116   4.31881   4.33174   4.33939   4.34292
 Alpha virt. eigenvalues --    4.39138   4.40636   4.44261   4.44638   4.45692
 Alpha virt. eigenvalues --    4.47923   4.51413   4.53898   4.56006   4.59035
 Alpha virt. eigenvalues --    4.62226   4.71330   4.75773   4.78451
          Condensed to atoms (all electrons):
 Mulliken charges:
               1
     1  C   -0.182967
     2  C   -0.194719
     3  C    0.345406
     4  C   -0.248718
     5  C    0.122040
     6  C    0.086723
     7  C   -0.169645
     8  C   -0.134529
     9  C   -0.124349
    10  C   -0.134900
    11  C   -0.169448
    12  C   -0.232712
    13  C    0.253004
    14  C    0.099561
    15  C   -0.158782
    16  C   -0.136045
    17  C   -0.123411
    18  C   -0.138177
    19  C   -0.175720
    20  N   -0.576737
    21  C    0.187739
    22  C   -0.189099
    23  C   -0.177974
    24  C    0.333293
    25  N   -0.482809
    26  C   -0.132717
    27  C   -0.073828
    28  O   -0.470845
    29  C   -0.045064
    30  C   -0.041015
    31  O   -0.480527
    32  C   -0.022019
    33  C   -0.041626
    34  O   -0.475590
    35  C   -0.052628
    36  C   -0.054316
    37  O   -0.476297
    38  C   -0.033420
    39  C   -0.215137
    40  C   -0.190052
    41  C   -0.209786
    42  H    0.155424
    43  H    0.118507
    44  H    0.132989
    45  H    0.134566
    46  H    0.133028
    47  H    0.132095
    48  H    0.132779
    49  H    0.135919
    50  H    0.141425
    51  H    0.153283
    52  H    0.128852
    53  H    0.127644
    54  H    0.127421
    55  H    0.125898
    56  H    0.126054
    57  H    0.127850
    58  H    0.161393
    59  H    0.142328
    60  H    0.166440
    61  H    0.143982
    62  H    0.149621
    63  H    0.154987
    64  H    0.141650
    65  H    0.126858
    66  H    0.141892
    67  H    0.120372
    68  H    0.136365
    69  H    0.147141
    70  H    0.131744
    71  H    0.148432
    72  H    0.152331
    73  H    0.153882
    74  H    0.122852
    75  H    0.161846
    76  H    0.187310
    77  H    0.147850
    78  H    0.133444
    79  H    0.131388
 Sum of Mulliken charges =  -0.00000
 Mulliken charges with hydrogens summed into heavy atoms:
               1
     1  C   -0.027542
     2  C   -0.076213
     3  C    0.345406
     4  C   -0.115729
     5  C    0.122040
     6  C    0.086723
     7  C   -0.035079
     8  C   -0.001501
     9  C    0.007747
    10  C   -0.002122
    11  C   -0.033529
    12  C   -0.091287
    13  C    0.253004
    14  C    0.099561
    15  C   -0.005498
    16  C   -0.007194
    17  C    0.004234
    18  C   -0.010756
    19  C   -0.049822
    20  N   -0.576737
    21  C    0.187739
    22  C   -0.063045
    23  C   -0.050124
    24  C    0.333293
    25  N   -0.482809
    26  C    0.171004
    27  C    0.236594
    28  O   -0.470845
    29  C    0.259544
    30  C    0.227493
    31  O   -0.480527
    32  C    0.240245
    33  C    0.241881
    34  O   -0.475590
    35  C    0.227547
    36  C    0.251897
    37  O   -0.476297
    38  C    0.251277
    39  C    0.120022
    40  C   -0.056607
    41  C   -0.078397
 Electronic spatial extent (au):  <R**2>=          49382.0005
 Charge=             -0.0000 electrons
 Dipole moment (field-independent basis, Debye):
    X=              2.6941    Y=             -3.6262    Z=              0.9316  Tot=              4.6125
 Quadrupole moment (field-independent basis, Debye-Ang):
   XX=           -192.7139   YY=           -218.3844   ZZ=           -248.6973
   XY=             -7.1039   XZ=             16.8720   YZ=             -3.7808
 Traceless Quadrupole moment (field-independent basis, Debye-Ang):
   XX=             27.2180   YY=              1.5474   ZZ=            -28.7654
   XY=             -7.1039   XZ=             16.8720   YZ=             -3.7808
 Octapole moment (field-independent basis, Debye-Ang**2):
  XXX=            191.4055  YYY=              3.4564  ZZZ=              6.3468  XYY=             -1.3725
  XXY=           -178.1760  XXZ=             45.6913  XZZ=             57.3334  YZZ=            -29.8594
  YYZ=             19.4946  XYZ=             -2.3705
 Hexadecapole moment (field-independent basis, Debye-Ang**3):
 XXXX=         -51366.5112 YYYY=          -7149.1428 ZZZZ=          -2231.2172 XXXY=           -460.5470
 XXXZ=           2138.4053 YYYX=             24.2558 YYYZ=            -61.8082 ZZZX=             52.8459
 ZZZY=            -21.4074 XXYY=          -9582.3788 XXZZ=         -10059.1097 YYZZ=          -1729.6504
 XXYZ=           -224.8110 YYXZ=           -110.3284 ZZXY=            -97.9670
 N-N= 4.173478692991D+03 E-N=-1.245197431178D+04  KE= 1.750255966019D+03
 No NMR shielding tensors so no spin-rotation constants.
 Leave Link  601 at Fri Nov  4 23:07:00 2022, MaxMem=   805306368 cpu:               3.3 elap:               0.6
 (Enter /home/wykgroup/appl/g16/l9999.exe)
 1\1\GINC-NODE68\FOpt\RB3LYP\6-31G(d)\C35H38N2O4\WYKGROUP\04-Nov-2022\0
 \\#p b3lyp/6-31g(d) opt SCF=XQC\\Gaussian input prepared by ASE\\0,1\C
 ,-2.1134388852,-0.4808930196,-0.2861352514\C,-2.9292901141,0.586525219
 7,-0.1557462807\C,-4.3921574865,0.5079507854,-0.1490406033\C,-5.150638
 639,1.6740573971,0.0471811143\C,-6.5477519188,1.6059055581,0.052806873
 6\C,-7.3809938299,2.8211323433,0.23755318\C,-8.5726769588,2.7705497274
 ,0.9795346768\C,-9.3546671554,3.9111358669,1.1549891558\C,-8.962249310
 8,5.125726554,0.5894518543\C,-7.7808622125,5.1903198821,-0.151742927\C
 ,-6.9977918611,4.0501169068,-0.3246355537\C,-7.1298016739,0.3457936317
 ,-0.131674452\C,-6.3104813087,-0.7823046701,-0.3042477358\C,-6.8928871
 614,-2.1383222781,-0.5073527217\C,-6.1471657685,-3.1261318381,-1.17079
 61622\C,-6.676262487,-4.3972997623,-1.3807578659\C,-7.9589819043,-4.71
 09907903,-0.9250827669\C,-8.7058874925,-3.7418273078,-0.2536814651\C,-
 8.1777123318,-2.4680237698,-0.0469582616\N,-4.9729608177,-0.6956092616
 ,-0.3216743144\C,-0.655330789,-0.4905351005,-0.3059179922\C,0.14387461
 1,0.6710704246,-0.249663722\C,1.5261177538,0.605223207,-0.2707637591\C
 ,2.2081906657,-0.6327656375,-0.3455937955\N,3.6165377395,-0.6676661724
 ,-0.4033539676\C,4.2384151016,-1.9126309105,-0.8579201842\C,5.63204147
 56,-1.7801719202,-1.4828921435\O,5.6706436206,-1.03723848,-2.695924727
 1\C,6.0105874734,0.3364023912,-2.6011597635\C,7.4393420504,0.626074971
 5,-2.1336271312\O,7.5202046194,0.6792383129,-0.7087172926\C,8.84871579
 29,0.864905666,-0.2371189489\C,8.8697518758,1.2770552188,1.232431465\O
 ,8.5977548783,0.2437877903,2.1642572177\C,7.2534826774,0.1078691252,2.
 6183391736\C,6.6695873804,-1.1887772374,2.0426701618\O,5.2940998913,-1
 .439270806,2.310167741\C,4.3711709164,-0.3898789438,2.0315459852\C,4.3
 42795686,0.1405425857,0.583781977\C,1.4144595149,-1.7951680566,-0.3999
 898864\C,0.0249179815,-1.7164786656,-0.388126593\H,-2.5946213728,-1.45
 24432404,-0.3828100871\H,-2.5174259473,1.5869886354,-0.0377253219\H,-4
 .6460066066,2.6209406752,0.2148838559\H,-8.8731322839,1.8351829132,1.4
 432539137\H,-10.2683095315,3.8522003347,1.7405849396\H,-9.5722128909,6
 .0147223498,0.7251208952\H,-7.47119707,6.1291146687,-0.6033343811\H,-6
 .0929174773,4.1041286957,-0.9233684519\H,-8.2080008402,0.2538611421,-0
 .1955869659\H,-5.1510406568,-2.8752711541,-1.5182817199\H,-6.086463604
 9,-5.1458878463,-1.9036322236\H,-8.370926334,-5.7035083019,-1.08764893
 66\H,-9.699438538,-3.9788198515,0.117910099\H,-8.7624006023,-1.7350508
 643,0.5012634695\H,-0.3272908198,1.6492814218,-0.2098619714\H,2.091453
 4029,1.5317133767,-0.2679415683\H,3.5882886082,-2.3300914651,-1.631360
 1914\H,4.3170641385,-2.6604290795,-0.0492385703\H,6.3659348352,-1.3929
 659883,-0.7755405756\H,5.9445541145,-2.7990493347,-1.743917981\H,5.914
 0537412,0.7116952569,-3.6258124284\H,5.2987496967,0.8924204167,-1.9769
 112141\H,8.1134952084,-0.1473162805,-2.5334766605\H,7.7627007188,1.597
 3287404,-2.5449092504\H,9.4389798558,-0.0543031265,-0.3758882829\H,9.3
 373898048,1.6684899319,-0.8145503413\H,8.1864506533,2.1269720905,1.376
 929197\H,9.8871260414,1.624355491,1.4540260998\H,6.6634217215,0.980978
 3339,2.3143855323\H,7.2650998414,0.0770636415,3.7151937109\H,6.8755117
 251,-1.180948886,0.9684748511\H,7.2032049059,-2.0423260102,2.471731587
 6\H,4.551558142,0.4643076419,2.7034843103\H,3.3912290088,-0.8022638362
 ,2.2920207755\H,5.3603958393,0.3122509176,0.2272980926\H,3.8765292598,
 1.1287352178,0.6203144696\H,1.878423826,-2.774139255,-0.4285580253\H,-
 0.5529301126,-2.6373183107,-0.425239958\\Version=ES64L-G16RevB.01\Stat
 e=1-A\HF=-1766.9364848\RMSD=8.696e-09\RMSF=2.634e-06\Dipole=1.1285689,
 1.4190576,-0.0761159\Quadrupole=21.2565805,0.7404041,-21.9969846,6.579
 5425,-10.5480508,2.1359778\PG=C01 [X(C35H38N2O4)]\\@


 Where a calculator on the ENIAC is equipped with 18,000
 vacuum tubes and weighs 30 tons, computers inthe future
 may  have only 1,000 vacuum tubes and weigh only 1 1/2 tons.
              ---Popular Mechanics, March 1949
 Job cpu time:       0 days  4 hours 48 minutes 53.8 seconds.
 Elapsed time:       0 days  0 hours 43 minutes 10.1 seconds.
 File lengths (MBytes):  RWF=    300 Int=      0 D2E=      0 Chk=     39 Scr=      1
 Normal termination of Gaussian 16 at Fri Nov  4 23:07:01 2022.
