 Entering Gaussian System, Link 0=/home/wykgroup/appl/g16/g16
 Input=./calculation/no_transfer_pubchem_sampling_6_b3lyp/145413862.com
 Output=./calculation/no_transfer_pubchem_sampling_6_b3lyp/145413862.log
 Initial command:
 /home/wykgroup/appl/g16/l1.exe "/userdata/scratch/wykgroup/khs/./calculation/no_transfer_pubchem_sampling_6_b3lyp/145413862/Gau-26463.inp" -scrdir="/userdata/scratch/wykgroup/khs/./calculation/no_transfer_pubchem_sampling_6_b3lyp/145413862/"
 Entering Link 1 = /home/wykgroup/appl/g16/l1.exe PID=     26464.
  
 Copyright (c) 1988-2017, Gaussian, Inc.  All Rights Reserved.
  
 This is part of the Gaussian(R) 16 program.  It is based on
 the Gaussian(R) 09 system (copyright 2009, Gaussian, Inc.),
 the Gaussian(R) 03 system (copyright 2003, Gaussian, Inc.),
 the Gaussian(R) 98 system (copyright 1998, Gaussian, Inc.),
 the Gaussian(R) 94 system (copyright 1995, Gaussian, Inc.),
 the Gaussian 92(TM) system (copyright 1992, Gaussian, Inc.),
 the Gaussian 90(TM) system (copyright 1990, Gaussian, Inc.),
 the Gaussian 88(TM) system (copyright 1988, Gaussian, Inc.),
 the Gaussian 86(TM) system (copyright 1986, Carnegie Mellon
 University), and the Gaussian 82(TM) system (copyright 1983,
 Carnegie Mellon University). Gaussian is a federally registered
 trademark of Gaussian, Inc.
  
 This software contains proprietary and confidential information,
 including trade secrets, belonging to Gaussian, Inc.
  
 This software is provided under written license and may be
 used, copied, transmitted, or stored only in accord with that
 written license.
  
 The following legend is applicable only to US Government
 contracts under FAR:
  
                    RESTRICTED RIGHTS LEGEND
  
 Use, reproduction and disclosure by the US Government is
 subject to restrictions as set forth in subparagraphs (a)
 and (c) of the Commercial Computer Software - Restricted
 Rights clause in FAR 52.227-19.
  
 Gaussian, Inc.
 340 Quinnipiac St., Bldg. 40, Wallingford CT 06492
  
  
 ---------------------------------------------------------------
 Warning -- This program may not be used in any manner that
 competes with the business of Gaussian, Inc. or will provide
 assistance to any competitor of Gaussian, Inc.  The licensee
 of this program is prohibited from giving any competitor of
 Gaussian, Inc. access to this program.  By using this program,
 the user acknowledges that Gaussian, Inc. is engaged in the
 business of creating and licensing software in the field of
 computational chemistry and represents and warrants to the
 licensee that it is not a competitor of Gaussian, Inc. and that
 it will not use this program in any manner prohibited above.
 ---------------------------------------------------------------
  

 Cite this work as:
 Gaussian 16, Revision B.01,
 M. J. Frisch, G. W. Trucks, H. B. Schlegel, G. E. Scuseria, 
 M. A. Robb, J. R. Cheeseman, G. Scalmani, V. Barone, 
 G. A. Petersson, H. Nakatsuji, X. Li, M. Caricato, A. V. Marenich, 
 J. Bloino, B. G. Janesko, R. Gomperts, B. Mennucci, H. P. Hratchian, 
 J. V. Ortiz, A. F. Izmaylov, J. L. Sonnenberg, D. Williams-Young, 
 F. Ding, F. Lipparini, F. Egidi, J. Goings, B. Peng, A. Petrone, 
 T. Henderson, D. Ranasinghe, V. G. Zakrzewski, J. Gao, N. Rega, 
 G. Zheng, W. Liang, M. Hada, M. Ehara, K. Toyota, R. Fukuda, 
 J. Hasegawa, M. Ishida, T. Nakajima, Y. Honda, O. Kitao, H. Nakai, 
 T. Vreven, K. Throssell, J. A. Montgomery, Jr., J. E. Peralta, 
 F. Ogliaro, M. J. Bearpark, J. J. Heyd, E. N. Brothers, K. N. Kudin, 
 V. N. Staroverov, T. A. Keith, R. Kobayashi, J. Normand, 
 K. Raghavachari, A. P. Rendell, J. C. Burant, S. S. Iyengar, 
 J. Tomasi, M. Cossi, J. M. Millam, M. Klene, C. Adamo, R. Cammi, 
 J. W. Ochterski, R. L. Martin, K. Morokuma, O. Farkas, 
 J. B. Foresman, and D. J. Fox, Gaussian, Inc., Wallingford CT, 2016.
 
 ******************************************
 Gaussian 16:  ES64L-G16RevB.01 20-Dec-2017
                 4-Nov-2022 
 ******************************************
 %chk=./calculation/no_transfer_pubchem_sampling_6_b3lyp/145413862.chk
 %nprocshared=7
 Will use up to    7 processors via shared memory.
 %mem=6GB
 -----------------------------
 #p b3lyp/6-31g(d) opt SCF=XQC
 -----------------------------
 1/18=20,19=15,26=3,38=1/1,3;
 2/9=110,12=2,17=6,18=5,40=1/2;
 3/5=1,6=6,7=1,11=2,25=1,30=1,71=1,74=-5/1,2,3;
 4//1;
 5/5=2,8=3,13=1,38=5/2,8;
 6/7=2,8=2,9=2,10=2,28=1/1;
 7//1,2,3,16;
 1/18=20,19=15,26=3/3(2);
 2/9=110/2;
 99//99;
 2/9=110/2;
 3/5=1,6=6,7=1,11=2,25=1,30=1,71=1,74=-5/1,2,3;
 4/5=5,16=3,69=1/1;
 5/5=2,8=3,13=1,38=5/2,8;
 7//1,2,3,16;
 1/18=20,19=15,26=3/3(-5);
 2/9=110/2;
 6/7=2,8=2,9=2,10=2,19=2,28=1/1;
 99/9=1/99;
 Leave Link    1 at Fri Nov  4 22:12:10 2022, MaxMem=   805306368 cpu:               0.9 elap:               0.2
 (Enter /home/wykgroup/appl/g16/l101.exe)
 ------------------------------
 Gaussian input prepared by ASE
 ------------------------------
 Symbolic Z-matrix:
 Charge =  0 Multiplicity = 1
 C                     4.28042  -1.3401    0.10836 
 C                     3.2581   -0.44737  -0.52718 
 C                     3.59121   0.3572   -1.61057 
 C                     2.63629   1.1616   -2.20807 
 C                     1.33686   1.17565  -1.738 
 C                     0.99057   0.38387  -0.64584 
 N                    -0.32633   0.37805  -0.15592 
 C                    -1.03851  -0.83475  -0.03624 
 C                    -2.25312  -0.8661    0.53384 
 C                    -3.06513  -2.12555   0.5966 
 C                    -2.15294  -3.34565   0.69069 
 C                    -1.03894  -3.24015  -0.30956 
 C                    -0.51379  -2.05583  -0.61921 
 O                    -2.90624   0.24622   1.01335 
 C                    -2.22952   1.44418   0.88871 
 C                    -2.86936   2.56846   1.36625 
 C                    -2.24068   3.80836   1.32459 
 C                    -0.96246   3.89889   0.82118 
 C                    -0.31635   2.76951   0.33346 
 C                    -0.94301   1.53082   0.33163 
 C                     1.95677  -0.42219  -0.05003 
 H                     5.27956  -0.92459   0.0004 
 H                     4.06821  -1.48242   1.16538 
 H                     4.2682   -2.31905  -0.37227 
 H                     4.603     0.35155  -1.98875 
 H                     2.90451   1.77662  -3.05462 
 H                     0.58528   1.78618  -2.2158 
 H                    -3.73709  -2.07129   1.45384 
 H                    -3.68555  -2.18872  -0.30591 
 H                    -1.71669  -3.40394   1.6954 
 H                    -2.72986  -4.25673   0.5299 
 H                    -0.65111  -4.15166  -0.73645 
 H                     0.30209  -1.96642  -1.31935 
 H                    -3.85941   2.45627   1.77897 
 H                    -2.75181   4.68141   1.69863 
 H                    -0.44698   4.84713   0.8028 
 H                     0.69284   2.85556  -0.03692 
 H                     1.68096  -1.03501   0.79669 
 
 ITRead=  0  0  0  0  0  0  0  0  0  0  0  0  0  0  0  0  0  0  0  0
 ITRead=  0  0  0  0  0  0  0  0  0  0  0  0  0  0  0  0  0  0
 MicOpt= -1 -1 -1 -1 -1 -1 -1 -1 -1 -1 -1 -1 -1 -1 -1 -1 -1 -1 -1 -1
 MicOpt= -1 -1 -1 -1 -1 -1 -1 -1 -1 -1 -1 -1 -1 -1 -1 -1 -1 -1
 NAtoms=     38 NQM=       38 NQMF=       0 NMMI=      0 NMMIF=      0
                NMic=       0 NMicF=      0.
                    Isotopes and Nuclear Properties:
 (Nuclear quadrupole moments (NQMom) in fm**2, nuclear magnetic moments (NMagM)
  in nuclear magnetons)

  Atom         1           2           3           4           5           6           7           8           9          10
 IAtWgt=          12          12          12          12          12          12          14          12          12          12
 AtmWgt=  12.0000000  12.0000000  12.0000000  12.0000000  12.0000000  12.0000000  14.0030740  12.0000000  12.0000000  12.0000000
 NucSpn=           0           0           0           0           0           0           2           0           0           0
 AtZEff=  -0.0000000  -0.0000000  -0.0000000  -0.0000000  -0.0000000  -0.0000000  -0.0000000  -0.0000000  -0.0000000  -0.0000000
 NQMom=    0.0000000   0.0000000   0.0000000   0.0000000   0.0000000   0.0000000   2.0440000   0.0000000   0.0000000   0.0000000
 NMagM=    0.0000000   0.0000000   0.0000000   0.0000000   0.0000000   0.0000000   0.4037610   0.0000000   0.0000000   0.0000000
 AtZNuc=   6.0000000   6.0000000   6.0000000   6.0000000   6.0000000   6.0000000   7.0000000   6.0000000   6.0000000   6.0000000

  Atom        11          12          13          14          15          16          17          18          19          20
 IAtWgt=          12          12          12          16          12          12          12          12          12          12
 AtmWgt=  12.0000000  12.0000000  12.0000000  15.9949146  12.0000000  12.0000000  12.0000000  12.0000000  12.0000000  12.0000000
 NucSpn=           0           0           0           0           0           0           0           0           0           0
 AtZEff=  -0.0000000  -0.0000000  -0.0000000  -0.0000000  -0.0000000  -0.0000000  -0.0000000  -0.0000000  -0.0000000  -0.0000000
 NQMom=    0.0000000   0.0000000   0.0000000   0.0000000   0.0000000   0.0000000   0.0000000   0.0000000   0.0000000   0.0000000
 NMagM=    0.0000000   0.0000000   0.0000000   0.0000000   0.0000000   0.0000000   0.0000000   0.0000000   0.0000000   0.0000000
 AtZNuc=   6.0000000   6.0000000   6.0000000   8.0000000   6.0000000   6.0000000   6.0000000   6.0000000   6.0000000   6.0000000

  Atom        21          22          23          24          25          26          27          28          29          30
 IAtWgt=          12           1           1           1           1           1           1           1           1           1
 AtmWgt=  12.0000000   1.0078250   1.0078250   1.0078250   1.0078250   1.0078250   1.0078250   1.0078250   1.0078250   1.0078250
 NucSpn=           0           1           1           1           1           1           1           1           1           1
 AtZEff=  -0.0000000  -0.0000000  -0.0000000  -0.0000000  -0.0000000  -0.0000000  -0.0000000  -0.0000000  -0.0000000  -0.0000000
 NQMom=    0.0000000   0.0000000   0.0000000   0.0000000   0.0000000   0.0000000   0.0000000   0.0000000   0.0000000   0.0000000
 NMagM=    0.0000000   2.7928460   2.7928460   2.7928460   2.7928460   2.7928460   2.7928460   2.7928460   2.7928460   2.7928460
 AtZNuc=   6.0000000   1.0000000   1.0000000   1.0000000   1.0000000   1.0000000   1.0000000   1.0000000   1.0000000   1.0000000

  Atom        31          32          33          34          35          36          37          38
 IAtWgt=           1           1           1           1           1           1           1           1
 AtmWgt=   1.0078250   1.0078250   1.0078250   1.0078250   1.0078250   1.0078250   1.0078250   1.0078250
 NucSpn=           1           1           1           1           1           1           1           1
 AtZEff=  -0.0000000  -0.0000000  -0.0000000  -0.0000000  -0.0000000  -0.0000000  -0.0000000  -0.0000000
 NQMom=    0.0000000   0.0000000   0.0000000   0.0000000   0.0000000   0.0000000   0.0000000   0.0000000
 NMagM=    2.7928460   2.7928460   2.7928460   2.7928460   2.7928460   2.7928460   2.7928460   2.7928460
 AtZNuc=   1.0000000   1.0000000   1.0000000   1.0000000   1.0000000   1.0000000   1.0000000   1.0000000
 Leave Link  101 at Fri Nov  4 22:12:11 2022, MaxMem=   805306368 cpu:               2.4 elap:               0.4
 (Enter /home/wykgroup/appl/g16/l103.exe)

 GradGradGradGradGradGradGradGradGradGradGradGradGradGradGradGradGradGrad
 Berny optimization.
 Initialization pass.
                           ----------------------------
                           !    Initial Parameters    !
                           ! (Angstroms and Degrees)  !
 --------------------------                            --------------------------
 ! Name  Definition              Value          Derivative Info.                !
 --------------------------------------------------------------------------------
 ! R1    R(1,2)                  1.4987         estimate D2E/DX2                !
 ! R2    R(1,22)                 1.0875         estimate D2E/DX2                !
 ! R3    R(1,23)                 1.0875         estimate D2E/DX2                !
 ! R4    R(1,24)                 1.0906         estimate D2E/DX2                !
 ! R5    R(2,3)                  1.39           estimate D2E/DX2                !
 ! R6    R(2,21)                 1.3863         estimate D2E/DX2                !
 ! R7    R(3,4)                  1.3842         estimate D2E/DX2                !
 ! R8    R(3,25)                 1.0802         estimate D2E/DX2                !
 ! R9    R(4,5)                  1.3819         estimate D2E/DX2                !
 ! R10   R(4,26)                 1.0802         estimate D2E/DX2                !
 ! R11   R(5,6)                  1.3927         estimate D2E/DX2                !
 ! R12   R(5,27)                 1.0798         estimate D2E/DX2                !
 ! R13   R(6,7)                  1.4051         estimate D2E/DX2                !
 ! R14   R(6,21)                 1.3922         estimate D2E/DX2                !
 ! R15   R(7,8)                  1.4115         estimate D2E/DX2                !
 ! R16   R(7,20)                 1.3953         estimate D2E/DX2                !
 ! R17   R(8,9)                  1.3421         estimate D2E/DX2                !
 ! R18   R(8,13)                 1.4513         estimate D2E/DX2                !
 ! R19   R(9,10)                 1.4998         estimate D2E/DX2                !
 ! R20   R(9,14)                 1.3761         estimate D2E/DX2                !
 ! R21   R(10,11)                1.5263         estimate D2E/DX2                !
 ! R22   R(10,28)                1.0906         estimate D2E/DX2                !
 ! R23   R(10,29)                1.097          estimate D2E/DX2                !
 ! R24   R(11,12)                1.5009         estimate D2E/DX2                !
 ! R25   R(11,30)                1.0969         estimate D2E/DX2                !
 ! R26   R(11,31)                1.0903         estimate D2E/DX2                !
 ! R27   R(12,13)                1.332          estimate D2E/DX2                !
 ! R28   R(12,32)                1.0787         estimate D2E/DX2                !
 ! R29   R(13,33)                1.0788         estimate D2E/DX2                !
 ! R30   R(14,15)                1.3815         estimate D2E/DX2                !
 ! R31   R(15,16)                1.3789         estimate D2E/DX2                !
 ! R32   R(15,20)                1.4046         estimate D2E/DX2                !
 ! R33   R(16,17)                1.3908         estimate D2E/DX2                !
 ! R34   R(16,34)                1.0785         estimate D2E/DX2                !
 ! R35   R(17,18)                1.3767         estimate D2E/DX2                !
 ! R36   R(17,35)                1.0786         estimate D2E/DX2                !
 ! R37   R(18,19)                1.3895         estimate D2E/DX2                !
 ! R38   R(18,36)                1.0795         estimate D2E/DX2                !
 ! R39   R(19,20)                1.3882         estimate D2E/DX2                !
 ! R40   R(19,37)                1.0784         estimate D2E/DX2                !
 ! R41   R(21,38)                1.081          estimate D2E/DX2                !
 ! A1    A(2,1,22)             110.918          estimate D2E/DX2                !
 ! A2    A(2,1,23)             110.9188         estimate D2E/DX2                !
 ! A3    A(2,1,24)             109.8862         estimate D2E/DX2                !
 ! A4    A(22,1,23)            109.0142         estimate D2E/DX2                !
 ! A5    A(22,1,24)            108.0292         estimate D2E/DX2                !
 ! A6    A(23,1,24)            107.9804         estimate D2E/DX2                !
 ! A7    A(1,2,3)              120.7879         estimate D2E/DX2                !
 ! A8    A(1,2,21)             120.3449         estimate D2E/DX2                !
 ! A9    A(3,2,21)             118.8638         estimate D2E/DX2                !
 ! A10   A(2,3,4)              120.4978         estimate D2E/DX2                !
 ! A11   A(2,3,25)             119.6259         estimate D2E/DX2                !
 ! A12   A(4,3,25)             119.8762         estimate D2E/DX2                !
 ! A13   A(3,4,5)              120.5163         estimate D2E/DX2                !
 ! A14   A(3,4,26)             119.8588         estimate D2E/DX2                !
 ! A15   A(5,4,26)             119.6221         estimate D2E/DX2                !
 ! A16   A(4,5,6)              119.6552         estimate D2E/DX2                !
 ! A17   A(4,5,27)             120.6461         estimate D2E/DX2                !
 ! A18   A(6,5,27)             119.6954         estimate D2E/DX2                !
 ! A19   A(5,6,7)              120.586          estimate D2E/DX2                !
 ! A20   A(5,6,21)             119.485          estimate D2E/DX2                !
 ! A21   A(7,6,21)             119.9222         estimate D2E/DX2                !
 ! A22   A(6,7,8)              120.3981         estimate D2E/DX2                !
 ! A23   A(6,7,20)             122.1837         estimate D2E/DX2                !
 ! A24   A(8,7,20)             117.2093         estimate D2E/DX2                !
 ! A25   A(7,8,9)              120.8439         estimate D2E/DX2                !
 ! A26   A(7,8,13)             120.427          estimate D2E/DX2                !
 ! A27   A(9,8,13)             118.5668         estimate D2E/DX2                !
 ! A28   A(8,9,10)             121.8269         estimate D2E/DX2                !
 ! A29   A(8,9,14)             123.962          estimate D2E/DX2                !
 ! A30   A(10,9,14)            114.0299         estimate D2E/DX2                !
 ! A31   A(9,10,11)            110.5042         estimate D2E/DX2                !
 ! A32   A(9,10,28)            108.947          estimate D2E/DX2                !
 ! A33   A(9,10,29)            108.67           estimate D2E/DX2                !
 ! A34   A(11,10,28)           111.0734         estimate D2E/DX2                !
 ! A35   A(11,10,29)           110.0407         estimate D2E/DX2                !
 ! A36   A(28,10,29)           107.5226         estimate D2E/DX2                !
 ! A37   A(10,11,12)           110.2626         estimate D2E/DX2                !
 ! A38   A(10,11,30)           109.672          estimate D2E/DX2                !
 ! A39   A(10,11,31)           110.0387         estimate D2E/DX2                !
 ! A40   A(12,11,30)           108.601          estimate D2E/DX2                !
 ! A41   A(12,11,31)           110.6836         estimate D2E/DX2                !
 ! A42   A(30,11,31)           107.5249         estimate D2E/DX2                !
 ! A43   A(11,12,13)           120.667          estimate D2E/DX2                !
 ! A44   A(11,12,32)           118.114          estimate D2E/DX2                !
 ! A45   A(13,12,32)           121.1704         estimate D2E/DX2                !
 ! A46   A(8,13,12)            120.8079         estimate D2E/DX2                !
 ! A47   A(8,13,33)            117.6715         estimate D2E/DX2                !
 ! A48   A(12,13,33)           121.5142         estimate D2E/DX2                !
 ! A49   A(9,14,15)            115.9119         estimate D2E/DX2                !
 ! A50   A(14,15,16)           116.6455         estimate D2E/DX2                !
 ! A51   A(14,15,20)           122.5415         estimate D2E/DX2                !
 ! A52   A(16,15,20)           120.8008         estimate D2E/DX2                !
 ! A53   A(15,16,17)           120.4473         estimate D2E/DX2                !
 ! A54   A(15,16,34)           118.2733         estimate D2E/DX2                !
 ! A55   A(17,16,34)           121.2763         estimate D2E/DX2                !
 ! A56   A(16,17,18)           119.2913         estimate D2E/DX2                !
 ! A57   A(16,17,35)           119.8019         estimate D2E/DX2                !
 ! A58   A(18,17,35)           120.9005         estimate D2E/DX2                !
 ! A59   A(17,18,19)           120.4374         estimate D2E/DX2                !
 ! A60   A(17,18,36)           120.4874         estimate D2E/DX2                !
 ! A61   A(19,18,36)           119.0748         estimate D2E/DX2                !
 ! A62   A(18,19,20)           121.0508         estimate D2E/DX2                !
 ! A63   A(18,19,37)           119.3939         estimate D2E/DX2                !
 ! A64   A(20,19,37)           119.5501         estimate D2E/DX2                !
 ! A65   A(7,20,15)            119.5002         estimate D2E/DX2                !
 ! A66   A(7,20,19)            122.5578         estimate D2E/DX2                !
 ! A67   A(15,20,19)           117.9034         estimate D2E/DX2                !
 ! A68   A(2,21,6)             120.9769         estimate D2E/DX2                !
 ! A69   A(2,21,38)            119.9211         estimate D2E/DX2                !
 ! A70   A(6,21,38)            119.102          estimate D2E/DX2                !
 ! D1    D(22,1,2,3)            29.0514         estimate D2E/DX2                !
 ! D2    D(22,1,2,21)         -151.6343         estimate D2E/DX2                !
 ! D3    D(23,1,2,3)           150.3503         estimate D2E/DX2                !
 ! D4    D(23,1,2,21)          -30.3355         estimate D2E/DX2                !
 ! D5    D(24,1,2,3)           -90.3292         estimate D2E/DX2                !
 ! D6    D(24,1,2,21)           88.985          estimate D2E/DX2                !
 ! D7    D(1,2,3,4)            178.8398         estimate D2E/DX2                !
 ! D8    D(1,2,3,25)            -1.031          estimate D2E/DX2                !
 ! D9    D(21,2,3,4)            -0.4845         estimate D2E/DX2                !
 ! D10   D(21,2,3,25)          179.6448         estimate D2E/DX2                !
 ! D11   D(1,2,21,6)          -178.8212         estimate D2E/DX2                !
 ! D12   D(1,2,21,38)            1.1665         estimate D2E/DX2                !
 ! D13   D(3,2,21,6)             0.5062         estimate D2E/DX2                !
 ! D14   D(3,2,21,38)         -179.5062         estimate D2E/DX2                !
 ! D15   D(2,3,4,5)             -0.0961         estimate D2E/DX2                !
 ! D16   D(2,3,4,26)          -179.4929         estimate D2E/DX2                !
 ! D17   D(25,3,4,5)           179.7744         estimate D2E/DX2                !
 ! D18   D(25,3,4,26)            0.3776         estimate D2E/DX2                !
 ! D19   D(3,4,5,6)              0.659          estimate D2E/DX2                !
 ! D20   D(3,4,5,27)          -178.6738         estimate D2E/DX2                !
 ! D21   D(26,4,5,6)          -179.9427         estimate D2E/DX2                !
 ! D22   D(26,4,5,27)            0.7245         estimate D2E/DX2                !
 ! D23   D(4,5,6,7)           -179.6824         estimate D2E/DX2                !
 ! D24   D(4,5,6,21)            -0.6332         estimate D2E/DX2                !
 ! D25   D(27,5,6,7)            -0.3432         estimate D2E/DX2                !
 ! D26   D(27,5,6,21)          178.706          estimate D2E/DX2                !
 ! D27   D(5,6,7,8)            124.7225         estimate D2E/DX2                !
 ! D28   D(5,6,7,20)           -60.6777         estimate D2E/DX2                !
 ! D29   D(21,6,7,8)           -54.3225         estimate D2E/DX2                !
 ! D30   D(21,6,7,20)          120.2773         estimate D2E/DX2                !
 ! D31   D(5,6,21,2)             0.0497         estimate D2E/DX2                !
 ! D32   D(5,6,21,38)         -179.938          estimate D2E/DX2                !
 ! D33   D(7,6,21,2)           179.1053         estimate D2E/DX2                !
 ! D34   D(7,6,21,38)           -0.8825         estimate D2E/DX2                !
 ! D35   D(6,7,8,9)            174.3727         estimate D2E/DX2                !
 ! D36   D(6,7,8,13)           -10.3232         estimate D2E/DX2                !
 ! D37   D(20,7,8,9)            -0.489          estimate D2E/DX2                !
 ! D38   D(20,7,8,13)          174.8151         estimate D2E/DX2                !
 ! D39   D(6,7,20,15)         -175.8468         estimate D2E/DX2                !
 ! D40   D(6,7,20,19)            1.8469         estimate D2E/DX2                !
 ! D41   D(8,7,20,15)           -1.0837         estimate D2E/DX2                !
 ! D42   D(8,7,20,19)          176.61           estimate D2E/DX2                !
 ! D43   D(7,8,9,10)           176.153          estimate D2E/DX2                !
 ! D44   D(7,8,9,14)             1.3399         estimate D2E/DX2                !
 ! D45   D(13,8,9,10)            0.7633         estimate D2E/DX2                !
 ! D46   D(13,8,9,14)         -174.0499         estimate D2E/DX2                !
 ! D47   D(7,8,13,12)          167.5512         estimate D2E/DX2                !
 ! D48   D(7,8,13,33)          -13.3564         estimate D2E/DX2                !
 ! D49   D(9,8,13,12)          -17.0392         estimate D2E/DX2                !
 ! D50   D(9,8,13,33)          162.0533         estimate D2E/DX2                !
 ! D51   D(8,9,10,11)           31.1972         estimate D2E/DX2                !
 ! D52   D(8,9,10,28)          153.4906         estimate D2E/DX2                !
 ! D53   D(8,9,10,29)          -89.6368         estimate D2E/DX2                !
 ! D54   D(14,9,10,11)        -153.512          estimate D2E/DX2                !
 ! D55   D(14,9,10,28)         -31.2186         estimate D2E/DX2                !
 ! D56   D(14,9,10,29)          85.6541         estimate D2E/DX2                !
 ! D57   D(8,9,14,15)           -0.5027         estimate D2E/DX2                !
 ! D58   D(10,9,14,15)        -175.6784         estimate D2E/DX2                !
 ! D59   D(9,10,11,12)         -46.0288         estimate D2E/DX2                !
 ! D60   D(9,10,11,30)          73.5138         estimate D2E/DX2                !
 ! D61   D(9,10,11,31)        -168.401          estimate D2E/DX2                !
 ! D62   D(28,10,11,12)       -167.0666         estimate D2E/DX2                !
 ! D63   D(28,10,11,30)        -47.524          estimate D2E/DX2                !
 ! D64   D(28,10,11,31)         70.5612         estimate D2E/DX2                !
 ! D65   D(29,10,11,12)         73.9852         estimate D2E/DX2                !
 ! D66   D(29,10,11,30)       -166.4722         estimate D2E/DX2                !
 ! D67   D(29,10,11,31)        -48.387          estimate D2E/DX2                !
 ! D68   D(10,11,12,13)         34.3627         estimate D2E/DX2                !
 ! D69   D(10,11,12,32)       -148.1451         estimate D2E/DX2                !
 ! D70   D(30,11,12,13)        -85.8271         estimate D2E/DX2                !
 ! D71   D(30,11,12,32)         91.6652         estimate D2E/DX2                !
 ! D72   D(31,11,12,13)        156.3546         estimate D2E/DX2                !
 ! D73   D(31,11,12,32)        -26.1531         estimate D2E/DX2                !
 ! D74   D(11,12,13,8)          -2.3484         estimate D2E/DX2                !
 ! D75   D(11,12,13,33)        178.5943         estimate D2E/DX2                !
 ! D76   D(32,12,13,8)        -179.7634         estimate D2E/DX2                !
 ! D77   D(32,12,13,33)          1.1794         estimate D2E/DX2                !
 ! D78   D(9,14,15,16)        -179.9037         estimate D2E/DX2                !
 ! D79   D(9,14,15,20)          -1.1629         estimate D2E/DX2                !
 ! D80   D(14,15,16,17)        177.6893         estimate D2E/DX2                !
 ! D81   D(14,15,16,34)         -1.6809         estimate D2E/DX2                !
 ! D82   D(20,15,16,17)         -1.0749         estimate D2E/DX2                !
 ! D83   D(20,15,16,34)        179.5549         estimate D2E/DX2                !
 ! D84   D(14,15,20,7)           1.9669         estimate D2E/DX2                !
 ! D85   D(14,15,20,19)       -175.8336         estimate D2E/DX2                !
 ! D86   D(16,15,20,7)        -179.3434         estimate D2E/DX2                !
 ! D87   D(16,15,20,19)          2.8561         estimate D2E/DX2                !
 ! D88   D(15,16,17,18)         -1.0604         estimate D2E/DX2                !
 ! D89   D(15,16,17,35)        179.8409         estimate D2E/DX2                !
 ! D90   D(34,16,17,18)        178.2906         estimate D2E/DX2                !
 ! D91   D(34,16,17,35)         -0.8082         estimate D2E/DX2                !
 ! D92   D(16,17,18,19)          1.3481         estimate D2E/DX2                !
 ! D93   D(16,17,18,36)       -178.4466         estimate D2E/DX2                !
 ! D94   D(35,17,18,19)       -179.5634         estimate D2E/DX2                !
 ! D95   D(35,17,18,36)          0.642          estimate D2E/DX2                !
 ! D96   D(17,18,19,20)          0.5077         estimate D2E/DX2                !
 ! D97   D(17,18,19,37)       -178.6571         estimate D2E/DX2                !
 ! D98   D(36,18,19,20)       -179.6948         estimate D2E/DX2                !
 ! D99   D(36,18,19,37)          1.1405         estimate D2E/DX2                !
 ! D100  D(18,19,20,7)         179.6969         estimate D2E/DX2                !
 ! D101  D(18,19,20,15)         -2.5745         estimate D2E/DX2                !
 ! D102  D(37,19,20,7)          -1.1397         estimate D2E/DX2                !
 ! D103  D(37,19,20,15)        176.5889         estimate D2E/DX2                !
 --------------------------------------------------------------------------------
 Trust Radius=3.00D-01 FncErr=1.00D-07 GrdErr=1.00D-06 EigMax=2.50D+02 EigMin=1.00D-04
 Number of steps in this run=    224 maximum allowed number of steps=    228.
 GradGradGradGradGradGradGradGradGradGradGradGradGradGradGradGradGradGrad

 Leave Link  103 at Fri Nov  4 22:12:11 2022, MaxMem=   805306368 cpu:               0.3 elap:               0.1
 (Enter /home/wykgroup/appl/g16/l202.exe)
                          Input orientation:                          
 ---------------------------------------------------------------------
 Center     Atomic      Atomic             Coordinates (Angstroms)
 Number     Number       Type             X           Y           Z
 ---------------------------------------------------------------------
      1          6           0        4.280419   -1.340100    0.108364
      2          6           0        3.258103   -0.447365   -0.527180
      3          6           0        3.591211    0.357203   -1.610572
      4          6           0        2.636287    1.161598   -2.208071
      5          6           0        1.336860    1.175646   -1.738002
      6          6           0        0.990565    0.383872   -0.645839
      7          7           0       -0.326330    0.378046   -0.155916
      8          6           0       -1.038513   -0.834749   -0.036241
      9          6           0       -2.253115   -0.866100    0.533844
     10          6           0       -3.065131   -2.125554    0.596601
     11          6           0       -2.152943   -3.345654    0.690686
     12          6           0       -1.038941   -3.240154   -0.309561
     13          6           0       -0.513788   -2.055828   -0.619206
     14          8           0       -2.906237    0.246224    1.013347
     15          6           0       -2.229522    1.444185    0.888714
     16          6           0       -2.869359    2.568460    1.366246
     17          6           0       -2.240676    3.808359    1.324587
     18          6           0       -0.962464    3.898889    0.821184
     19          6           0       -0.316349    2.769505    0.333462
     20          6           0       -0.943012    1.530822    0.331631
     21          6           0        1.956768   -0.422185   -0.050028
     22          1           0        5.279559   -0.924587    0.000399
     23          1           0        4.068210   -1.482425    1.165378
     24          1           0        4.268202   -2.319047   -0.372271
     25          1           0        4.603004    0.351546   -1.988751
     26          1           0        2.904507    1.776620   -3.054618
     27          1           0        0.585285    1.786177   -2.215800
     28          1           0       -3.737087   -2.071290    1.453845
     29          1           0       -3.685551   -2.188719   -0.305909
     30          1           0       -1.716690   -3.403940    1.695403
     31          1           0       -2.729860   -4.256726    0.529904
     32          1           0       -0.651105   -4.151663   -0.736453
     33          1           0        0.302094   -1.966423   -1.319348
     34          1           0       -3.859407    2.456272    1.778966
     35          1           0       -2.751815    4.681407    1.698627
     36          1           0       -0.446982    4.847133    0.802804
     37          1           0        0.692842    2.855559   -0.036917
     38          1           0        1.680962   -1.035013    0.796691
 ---------------------------------------------------------------------
                    Distance matrix (angstroms):
                    1          2          3          4          5
     1  C    0.000000
     2  C    1.498674   0.000000
     3  C    2.512088   1.389975   0.000000
     4  C    3.785173   2.408487   1.384174   0.000000
     5  C    4.289824   2.791313   2.401705   1.381909   0.000000
     6  C    3.789992   2.418008   2.773947   2.398713   1.392712
     7  N    4.923821   3.696932   4.178946   3.688142   2.430096
     8  C    5.344842   4.341889   5.033251   4.712367   3.546841
     9  C    6.564509   5.628022   6.344379   5.961200   4.713590
    10  C    7.403541   6.637958   7.439260   7.153860   5.977108
    11  C    6.763838   6.258010   7.211258   7.187129   6.206400
    12  C    5.663962   5.129485   6.005990   6.040452   5.213843
    13  C    4.901638   4.101559   4.863799   4.774861   3.888320
    14  O    7.415082   6.391664   7.008145   6.475724   5.141752
    15  C    7.123238   5.974675   6.427200   5.774602   4.437436
    16  C    8.244904   7.087034   7.449166   6.713206   5.410043
    17  C    8.397054   7.195610   7.384887   6.577977   5.395313
    18  C    7.446002   6.206545   6.260427   5.442440   4.387754
    19  C    6.170073   4.885250   4.986733   4.214596   3.092645
    20  C    5.964585   4.722303   5.070376   4.404292   3.099572
    21  C    2.503400   1.386283   2.390428   2.761749   2.405536
    22  H    1.087469   2.142981   2.662467   4.026958   4.793526
    23  H    1.087460   2.142983   3.364173   4.519006   4.791162
    24  H    1.090641   2.132485   3.025561   4.260070   4.761393
    25  H    2.713598   2.140843   1.080174   2.138285   3.377827
    26  H    4.648821   3.385127   2.138124   1.080202   2.133580
    27  H    5.369298   3.870931   3.382878   2.144007   1.079770
    28  H    8.162436   7.449448   8.306153   8.030011   6.817288
    29  H    8.021749   7.162094   7.818895   7.403274   6.212443
    30  H    6.537848   6.199176   7.297225   7.418197   6.487299
    31  H    7.604500   7.175260   8.113318   8.102486   7.154878
    32  H    5.739210   5.389576   6.252296   6.418983   5.773675
    33  H    4.272905   3.416585   4.037615   4.002849   3.334457
    34  H    9.135651   8.025483   8.450253   7.730891   6.403926
    35  H    9.393604   8.208388   8.359636   7.528810   6.388900
    36  H    7.817444   6.597592   6.503143   5.670545   4.808077
    37  H    5.522261   4.210728   4.137478   3.370518   2.475997
    38  H    2.706299   2.141341   3.373757   3.842700   3.380842
                    6          7          8          9         10
     6  C    0.000000
     7  N    1.405088   0.000000
     8  C    2.444137   1.411524   0.000000
     9  C    3.670905   2.395030   1.342102   0.000000
    10  C    4.928442   3.786202   2.484722   1.499844   0.000000
    11  C    5.057401   4.233106   2.841658   2.486528   1.526296
    12  C    4.167198   3.690907   2.420884   2.796728   2.483729
    13  C    2.866344   2.484658   1.451282   2.402132   2.827083
    14  O    4.237559   2.835572   2.399693   1.376138   2.413350
    15  C    3.721301   2.418686   2.732688   2.337500   3.677854
    16  C    4.870311   3.685361   4.111058   3.587318   4.760719
    17  C    5.103980   4.198054   4.985530   4.740886   6.034983
    18  C    4.280400   3.708871   4.811267   4.945044   6.384791
    19  C    2.891073   2.441038   3.694435   4.124177   5.620200
    20  C    2.451461   1.395310   2.395909   2.739068   4.235881
    21  C    1.392216   2.421595   3.023592   4.273299   5.342197
    22  H    4.530470   5.757368   6.318818   7.551766   8.451724
    23  H    4.029326   4.951682   5.286019   6.382620   7.184822
    24  H    4.257172   5.332058   5.520623   6.742379   7.399589
    25  H    3.854111   5.259118   6.086568   7.406249   8.462881
    26  H    3.377149   4.560350   5.610459   6.816311   8.012174
    27  H    2.143710   2.656501   3.775771   4.759373   6.044566
    28  H    5.726010   4.497092   3.321399   2.121570   1.090567
    29  H    5.347881   4.230265   2.985425   2.122823   1.097012
    30  H    5.211349   4.434400   3.171633   2.842113   2.158686
    31  H    6.062927   5.265778   3.858899   3.423981   2.158413
    32  H    4.824351   4.578293   3.412081   3.869756   3.421939
    33  H    2.539979   2.691659   2.173540   3.342772   3.877420
    34  H    5.804890   4.532706   4.699281   3.894696   4.798124
    35  H    6.162040   5.276478   6.031016   5.690365   6.902706
    36  H    4.907730   4.572356   5.773880   5.997956   7.450878
    37  H    2.562940   2.681593   4.076268   4.780708   6.271777
    38  H    2.137937   2.633139   2.851215   3.946464   4.873880
                   11         12         13         14         15
    11  C    0.000000
    12  C    1.500875   0.000000
    13  C    2.462985   1.332026   0.000000
    14  O    3.684176   4.170338   3.699795   0.000000
    15  C    4.794542   4.979597   4.179433   1.381516   0.000000
    16  C    5.995530   6.316547   5.556508   2.349186   1.378921
    17  C    7.182578   7.334586   6.414762   3.637121   2.404044
    18  C    7.342865   7.228442   6.142857   4.142117   2.763253
    19  C    6.394987   6.087005   4.922439   3.679226   2.392699
    20  C    5.037149   4.814826   3.735289   2.443190   1.404620
    21  C    5.097554   4.120993   3.016024   5.022584   4.678632
    22  H    7.847302   6.736570   5.935191   8.330913   7.923792
    23  H    6.511505   5.598933   4.950580   7.187089   6.950037
    24  H    6.588998   5.386848   4.795590   7.744231   7.613962
    25  H    8.154231   6.895762   5.818305   8.087792   7.493803
    26  H    8.114357   6.946520   5.683628   7.256389   6.482178
    27  H    6.502402   5.615680   4.303264   4.998956   4.204534
    28  H    2.171618   3.428679   3.832419   2.501045   3.866612
    29  H    2.163466   2.847819   3.189967   2.876928   4.092082
    30  H    1.096892   2.122747   2.936289   3.899220   4.941463
    31  H    1.090292   2.144138   3.327969   4.532260   5.734062
    32  H    2.223036   1.078657   2.103598   5.242979   6.037059
    33  H    3.459728   2.107234   1.078822   4.542098   4.787156
    34  H    6.144812   6.690758   6.107655   2.525672   2.115040
    35  H    8.112231   8.349724   7.468029   4.490468   3.377626
    36  H    8.369267   8.184863   7.048223   5.221170   3.842510
    37  H    6.861700   6.342801   5.090849   4.567827   3.374756
    38  H    4.477625   3.672099   2.804239   4.767693   4.631067
                   16         17         18         19         20
    16  C    0.000000
    17  C    1.390801   0.000000
    18  C    2.388175   1.376748   0.000000
    19  C    2.761326   2.400954   1.389548   0.000000
    20  C    2.420317   2.803047   2.418219   1.388181   0.000000
    21  C    5.851606   6.116013   5.287023   3.937133   3.516905
    22  H    8.970607   8.983774   7.931107   6.713527   6.697696
    23  H    8.036161   8.235277   7.374598   6.164037   5.906533
    24  H    8.823545   9.098897   8.212608   6.885458   6.517186
    25  H    8.485689   8.352468   7.173132   5.953087   6.126431
    26  H    7.314956   7.055375   5.871911   4.778998   5.131325
    27  H    5.037617   4.960809   4.010281   2.877259   2.981661
    28  H    4.721007   6.068462   6.613761   6.032413   4.694830
    29  H    5.108133   6.380527   6.763469   6.028623   4.665079
    30  H    6.091515   7.240810   7.393539   6.475126   5.177869
    31  H    6.877651   8.118892   8.350005   7.431793   6.060350
    32  H    7.382550   8.374758   8.205764   7.011373   5.789356
    33  H    6.151072   6.841358   6.370468   5.054035   4.062849
    34  H    1.078480   2.157520   3.375021   3.839382   3.384760
    35  H    2.142157   1.078601   2.141031   3.383864   3.881576
    36  H    3.373088   2.137439   1.079456   2.133983   3.386143
    37  H    3.839344   3.371505   2.136566   1.078449   2.137000
    38  H    5.832224   6.254293   5.597472   4.321828   3.699328
                   21         22         23         24         25
    21  C    0.000000
    22  H    3.360936   0.000000
    23  H    2.656973   1.770799   0.000000
    24  H    3.007433   1.762455   1.761902   0.000000
    25  H    3.370440   2.458242   3.687544   3.139612   0.000000
    26  H    3.841941   4.719165   5.457467   5.082237   2.460041
    27  H    3.383548   5.856278   5.852084   5.815096   4.272211
    28  H    6.115650   9.204746   7.832792   8.214665   9.342308
    29  H    5.917928   9.058976   7.923657   7.955097   8.830914
    30  H    5.042984   7.613655   6.118678   6.424267   8.222846
    31  H    6.083133   8.691049   7.369826   7.317198   9.019462
    32  H    4.602302   6.791889   5.745757   5.262194   7.032269
    33  H    2.594954   5.253790   4.537813   4.092836   4.931420
    34  H    6.742302   9.905262   8.873383   9.668998   9.499367
    35  H    7.160670   9.940529   9.208144  10.127962   9.297194
    36  H    5.854148   8.170060   7.783426   8.658401   7.314742
    37  H    3.513017   5.943809   5.626431   6.298588   5.036776
    38  H    1.081001   3.687300   2.456636   3.115931   4.268438
                   26         27         28         29         30
    26  H    0.000000
    27  H    2.466272   0.000000
    28  H    8.901877   6.857787   0.000000
    29  H    8.167507   6.139016   1.764420   0.000000
    30  H    8.411680   6.894484   2.432346   3.059154   0.000000
    31  H    8.999786   7.419282   2.577654   2.426639   1.764127
    32  H    7.291146   6.243001   4.318406   3.639557   2.758348
    33  H    4.877918   3.868569   4.900671   4.120411   3.902649
    34  H    8.341223   6.013524   4.540868   5.094396   6.240216
    35  H    7.938835   5.902655   6.828587   7.217247   8.151339
    36  H    5.961563   4.421199   7.688512   7.824371   8.395778
    37  H    3.893853   2.429543   6.791206   6.684864   6.927344
    38  H    4.922898   4.270214   5.555265   5.598769   4.238341
                   31         32         33         34         35
    31  H    0.000000
    32  H    2.436375   0.000000
    33  H    4.225869   2.454309   0.000000
    34  H    6.921009   7.764363   6.817468   0.000000
    35  H    9.014245   9.400304   7.913796   2.486854   0.000000
    36  H    9.389688   9.131774   7.175596   4.279457   2.478349
    37  H    7.913328   7.169149   5.004879   4.917299   4.267492
    38  H    5.468634   4.183607   2.691918   6.621905   7.289750
                   36         37         38
    36  H    0.000000
    37  H    2.443501   0.000000
    38  H    6.255224   4.099736   0.000000
 Stoichiometry    C19H17NO
 Framework group  C1[X(C19H17NO)]
 Deg. of freedom   108
 Full point group                 C1      NOp   1
 Largest Abelian subgroup         C1      NOp   1
 Largest concise Abelian subgroup C1      NOp   1
                         Standard orientation:                         
 ---------------------------------------------------------------------
 Center     Atomic      Atomic             Coordinates (Angstroms)
 Number     Number       Type             X           Y           Z
 ---------------------------------------------------------------------
      1          6           0       -4.447323    0.534804    1.544127
      2          6           0       -3.512951   -0.128883    0.578472
      3          6           0       -3.993793   -0.999097   -0.392892
      4          6           0       -3.128261   -1.590264   -1.296946
      5          6           0       -1.773314   -1.322894   -1.248940
      6          6           0       -1.274884   -0.462280   -0.273974
      7          7           0        0.098370   -0.171543   -0.211368
      8          6           0        0.547745    1.165985   -0.249819
      9          6           0        1.845742    1.460986   -0.078310
     10          6           0        2.360507    2.864557   -0.198894
     11          6           0        1.292897    3.864785    0.236230
     12          6           0       -0.030227    3.513314   -0.378942
     13          6           0       -0.370909    2.240879   -0.576771
     14          8           0        2.829090    0.518291    0.116900
     15          6           0        2.408049   -0.797288    0.140583
     16          6           0        3.380907   -1.754500    0.337340
     17          6           0        3.038834   -3.099861    0.422889
     18          6           0        1.714668   -3.465344    0.331019
     19          6           0        0.731767   -2.504596    0.126778
     20          6           0        1.058697   -1.161389    0.000449
     21          6           0       -2.151748    0.128099    0.632020
     22          1           0       -5.322920   -0.084248    1.724937
     23          1           0       -3.951038    0.731920    2.491447
     24          1           0       -4.786182    1.488097    1.136814
     25          1           0       -5.051513   -1.212595   -0.442118
     26          1           0       -3.514149   -2.258572   -2.052784
     27          1           0       -1.099068   -1.766210   -1.966413
     28          1           0        3.261705    2.964487    0.407070
     29          1           0        2.642832    3.046553   -1.243215
     30          1           0        1.188347    3.841753    1.327885
     31          1           0        1.591459    4.875337   -0.043738
     32          1           0       -0.709825    4.316619   -0.616318
     33          1           0       -1.327381    1.972004   -0.997158
     34          1           0        4.405009   -1.430021    0.432459
     35          1           0        3.808551   -3.840113    0.574362
     36          1           0        1.425062   -4.501423    0.419877
     37          1           0       -0.302301   -2.807067    0.079183
     38          1           0       -1.758317    0.795874    1.385579
 ---------------------------------------------------------------------
 Rotational constants (GHZ):           0.4026459           0.2921029           0.1839785
 Leave Link  202 at Fri Nov  4 22:12:11 2022, MaxMem=   805306368 cpu:               0.6 elap:               0.1
 (Enter /home/wykgroup/appl/g16/l301.exe)
 Standard basis: 6-31G(d) (6D, 7F)
 Ernie: Thresh=  0.10000D-02 Tol=  0.10000D-05 Strict=F.
 There are   349 symmetry adapted cartesian basis functions of A   symmetry.
 There are   349 symmetry adapted basis functions of A   symmetry.
   349 basis functions,   656 primitive gaussians,   349 cartesian basis functions
    73 alpha electrons       73 beta electrons
       nuclear repulsion energy      1598.9332805647 Hartrees.
 IExCor=  402 DFT=T Ex+Corr=B3LYP ExCW=0 ScaHFX=  0.200000
 ScaDFX=  0.800000  0.720000  1.000000  0.810000 ScalE2=  1.000000  1.000000
 IRadAn=      5 IRanWt=     -1 IRanGd=            0 ICorTp=0 IEmpDi=  4
 NAtoms=   38 NActive=   38 NUniq=   38 SFac= 1.00D+00 NAtFMM=   60 NAOKFM=F Big=F
 Integral buffers will be    131072 words long.
 Raffenetti 2 integral format.
 Two-electron integral symmetry is turned on.
 Leave Link  301 at Fri Nov  4 22:12:11 2022, MaxMem=   805306368 cpu:               0.6 elap:               0.1
 (Enter /home/wykgroup/appl/g16/l302.exe)
 NPDir=0 NMtPBC=     1 NCelOv=     1 NCel=       1 NClECP=     1 NCelD=      1
         NCelK=      1 NCelE2=     1 NClLst=     1 CellRange=     0.0.
 One-electron integrals computed using PRISM.
 One-electron integral symmetry used in STVInt
 NBasis=   349 RedAO= T EigKep=  3.53D-04  NBF=   349
 NBsUse=   349 1.00D-06 EigRej= -1.00D+00 NBFU=   349
 Precomputing XC quadrature grid using
 IXCGrd= 4 IRadAn=           5 IRanWt=          -1 IRanGd=           0 AccXCQ= 0.00D+00.
 Generated NRdTot=       0 NPtTot=           0 NUsed=           0 NTot=          32
 NSgBfM=   348   348   348   348   348 MxSgAt=    38 MxSgA2=    38.
 Leave Link  302 at Fri Nov  4 22:12:12 2022, MaxMem=   805306368 cpu:               3.1 elap:               0.5
 (Enter /home/wykgroup/appl/g16/l303.exe)
 DipDrv:  MaxL=1.
 Leave Link  303 at Fri Nov  4 22:12:12 2022, MaxMem=   805306368 cpu:               0.9 elap:               0.2
 (Enter /home/wykgroup/appl/g16/l401.exe)
 ExpMin= 1.61D-01 ExpMax= 5.48D+03 ExpMxC= 8.25D+02 IAcc=3 IRadAn=         5 AccDes= 0.00D+00
 Harris functional with IExCor=  402 and IRadAn=       5 diagonalized for initial guess.
 HarFok:  IExCor=  402 AccDes= 0.00D+00 IRadAn=         5 IDoV= 1 UseB2=F ITyADJ=14
 ICtDFT=  3500011 ScaDFX=  1.000000  1.000000  1.000000  1.000000
 FoFCou: FMM=F IPFlag=           0 FMFlag=      100000 FMFlg1=           0
         NFxFlg=           0 DoJE=T BraDBF=F KetDBF=T FulRan=T
         wScrn=  0.000000 ICntrl=       500 IOpCl=  0 I1Cent=   200000004 NGrid=           0
         NMat0=    1 NMatS0=      1 NMatT0=    0 NMatD0=    1 NMtDS0=    0 NMtDT0=    0
 Petite list used in FoFCou.
 Harris En= -864.235798525055    
 JPrj=0 DoOrth=F DoCkMO=F.
 Leave Link  401 at Fri Nov  4 22:12:14 2022, MaxMem=   805306368 cpu:              16.6 elap:               2.4
 (Enter /home/wykgroup/appl/g16/l502.exe)
 Integral symmetry usage will be decided dynamically.
 Closed shell SCF:
 Using DIIS extrapolation, IDIIS=  1040.
 NGot=   805306368 LenX=   805056418 LenY=   804934176
 Requested convergence on RMS density matrix=1.00D-08 within  32 cycles.
 Requested convergence on MAX density matrix=1.00D-06.
 Requested convergence on             energy=1.00D-06.
 No special actions if energy rises.
 Fock matrices will be formed incrementally for  20 cycles.
 Integral accuracy reduced to 1.0D-05 until final iterations.

 Cycle   1  Pass 0  IDiag  1:
 FoFJK:  IHMeth= 1 ICntrl=       0 DoSepK=F KAlg= 0 I1Cent=           0 FoldK=F
 IRaf= 800000000 NMat=       1 IRICut=       1 DoRegI=T DoRafI=F ISym2E= 0 IDoP0=0 IntGTp=1.
 FoFCou: FMM=F IPFlag=           0 FMFlag=      100000 FMFlg1=           0
         NFxFlg=           0 DoJE=F BraDBF=F KetDBF=F FulRan=T
         wScrn=  0.000000 ICntrl=         0 IOpCl=  0 I1Cent=           0 NGrid=           0
         NMat0=    1 NMatS0=      1 NMatT0=    0 NMatD0=    1 NMtDS0=    0 NMtDT0=    0
 Symmetry not used in FoFCou.
 E= -863.680901368194    
 DIIS: error= 2.57D-02 at cycle   1 NSaved=   1.
 NSaved= 1 IEnMin= 1 EnMin= -863.680901368194     IErMin= 1 ErrMin= 2.57D-02
 ErrMax= 2.57D-02  0.00D+00 EMaxC= 1.00D-01 BMatC= 4.81D-01 BMatP= 4.81D-01
 IDIUse=3 WtCom= 7.43D-01 WtEn= 2.57D-01
 Coeff-Com:  0.100D+01
 Coeff-En:   0.100D+01
 Coeff:      0.100D+01
 Gap=     0.173 Goal=   None    Shift=    0.000
 GapD=    0.173 DampG=1.000 DampE=0.500 DampFc=0.5000 IDamp=-1.
 Damping current iteration by 5.00D-01
 RMSDP=4.91D-03 MaxDP=1.35D-01              OVMax= 3.08D-01

 Cycle   2  Pass 0  IDiag  1:
 RMSU=  2.40D-03    CP:  9.73D-01
 E= -863.888703972162     Delta-E=       -0.207802603968 Rises=F Damp=T
 DIIS: error= 9.47D-03 at cycle   2 NSaved=   2.
 NSaved= 2 IEnMin= 2 EnMin= -863.888703972162     IErMin= 2 ErrMin= 9.47D-03
 ErrMax= 9.47D-03  0.00D+00 EMaxC= 1.00D-01 BMatC= 4.87D-02 BMatP= 4.81D-01
 IDIUse=3 WtCom= 9.05D-01 WtEn= 9.47D-02
 Coeff-Com:  0.952D-01 0.905D+00
 Coeff-En:   0.171D+00 0.829D+00
 Coeff:      0.102D+00 0.898D+00
 Gap=     0.148 Goal=   None    Shift=    0.000
 RMSDP=1.87D-03 MaxDP=9.19D-02 DE=-2.08D-01 OVMax= 2.90D-01

 Cycle   3  Pass 0  IDiag  1:
 RMSU=  1.76D-03    CP:  9.61D-01  7.50D-01
 E= -864.109798478722     Delta-E=       -0.221094506559 Rises=F Damp=F
 DIIS: error= 1.35D-02 at cycle   3 NSaved=   3.
 NSaved= 3 IEnMin= 3 EnMin= -864.109798478722     IErMin= 2 ErrMin= 9.47D-03
 ErrMax= 1.35D-02  0.00D+00 EMaxC= 1.00D-01 BMatC= 7.60D-02 BMatP= 4.87D-02
 IDIUse=2 WtCom= 0.00D+00 WtEn= 1.00D+00
 Coeff-En:   0.000D+00 0.000D+00 0.100D+01
 Coeff:      0.000D+00 0.000D+00 0.100D+01
 Gap=     0.188 Goal=   None    Shift=    0.000
 RMSDP=3.10D-03 MaxDP=1.15D-01 DE=-2.21D-01 OVMax= 3.26D-01

 Cycle   4  Pass 0  IDiag  1:
 RMSU=  1.56D-03    CP:  9.60D-01  1.28D+00 -3.46D-01
 E= -863.763795317250     Delta-E=        0.346003161472 Rises=F Damp=F
 DIIS: error= 3.56D-02 at cycle   4 NSaved=   4.
 NSaved= 4 IEnMin= 3 EnMin= -864.109798478722     IErMin= 2 ErrMin= 9.47D-03
 ErrMax= 3.56D-02  0.00D+00 EMaxC= 1.00D-01 BMatC= 3.87D-01 BMatP= 4.87D-02
 IDIUse=2 WtCom= 0.00D+00 WtEn= 1.00D+00
 Coeff-En:   0.000D+00 0.000D+00 0.778D+00 0.222D+00
 Coeff:      0.000D+00 0.000D+00 0.778D+00 0.222D+00
 Gap=     0.164 Goal=   None    Shift=    0.000
 RMSDP=1.56D-03 MaxDP=6.28D-02 DE= 3.46D-01 OVMax= 1.41D-01

 Cycle   5  Pass 0  IDiag  1:
 RMSU=  3.26D-04    CP:  9.62D-01  9.89D-01  2.95D-01  5.11D-01
 E= -864.163122995574     Delta-E=       -0.399327678325 Rises=F Damp=F
 DIIS: error= 9.31D-03 at cycle   5 NSaved=   5.
 NSaved= 5 IEnMin= 5 EnMin= -864.163122995574     IErMin= 5 ErrMin= 9.31D-03
 ErrMax= 9.31D-03  0.00D+00 EMaxC= 1.00D-01 BMatC= 2.93D-02 BMatP= 4.87D-02
 IDIUse=3 WtCom= 9.07D-01 WtEn= 9.31D-02
 Coeff-Com:  0.205D-03 0.167D-01 0.313D+00-0.711D-01 0.741D+00
 Coeff-En:   0.000D+00 0.000D+00 0.326D+00 0.000D+00 0.674D+00
 Coeff:      0.186D-03 0.152D-01 0.314D+00-0.644D-01 0.735D+00
 Gap=     0.131 Goal=   None    Shift=    0.000
 RMSDP=6.30D-04 MaxDP=2.25D-02 DE=-3.99D-01 OVMax= 7.02D-02

 Cycle   6  Pass 0  IDiag  1:
 RMSU=  1.31D-04    CP:  9.62D-01  8.93D-01  5.66D-01  3.14D-01  7.77D-01
 E= -864.194925150732     Delta-E=       -0.031802155157 Rises=F Damp=F
 DIIS: error= 1.10D-03 at cycle   6 NSaved=   6.
 NSaved= 6 IEnMin= 6 EnMin= -864.194925150732     IErMin= 6 ErrMin= 1.10D-03
 ErrMax= 1.10D-03  0.00D+00 EMaxC= 1.00D-01 BMatC= 5.97D-04 BMatP= 2.93D-02
 IDIUse=3 WtCom= 9.89D-01 WtEn= 1.10D-02
 Coeff-Com: -0.313D-02 0.101D-01 0.144D+00-0.786D-01 0.503D+00 0.424D+00
 Coeff-En:   0.000D+00 0.000D+00 0.000D+00 0.000D+00 0.000D+00 0.100D+01
 Coeff:     -0.310D-02 0.998D-02 0.143D+00-0.777D-01 0.498D+00 0.430D+00
 Gap=     0.130 Goal=   None    Shift=    0.000
 RMSDP=9.26D-05 MaxDP=5.00D-03 DE=-3.18D-02 OVMax= 1.26D-02

 Cycle   7  Pass 0  IDiag  1:
 RMSU=  3.79D-05    CP:  9.62D-01  8.96D-01  5.60D-01  3.11D-01  8.87D-01
                    CP:  4.26D-01
 E= -864.195478389755     Delta-E=       -0.000553239023 Rises=F Damp=F
 DIIS: error= 2.69D-04 at cycle   7 NSaved=   7.
 NSaved= 7 IEnMin= 7 EnMin= -864.195478389755     IErMin= 7 ErrMin= 2.69D-04
 ErrMax= 2.69D-04  0.00D+00 EMaxC= 1.00D-01 BMatC= 3.69D-05 BMatP= 5.97D-04
 IDIUse=3 WtCom= 9.97D-01 WtEn= 2.69D-03
 Coeff-Com: -0.133D-02 0.396D-02 0.657D-01-0.385D-01 0.234D+00 0.262D+00
 Coeff-Com:  0.474D+00
 Coeff-En:   0.000D+00 0.000D+00 0.000D+00 0.000D+00 0.000D+00 0.110D-01
 Coeff-En:   0.989D+00
 Coeff:     -0.133D-02 0.395D-02 0.655D-01-0.384D-01 0.233D+00 0.261D+00
 Coeff:      0.476D+00
 Gap=     0.130 Goal=   None    Shift=    0.000
 RMSDP=2.17D-05 MaxDP=1.16D-03 DE=-5.53D-04 OVMax= 2.84D-03

 Cycle   8  Pass 0  IDiag  1:
 RMSU=  1.20D-05    CP:  9.62D-01  8.95D-01  5.62D-01  3.12D-01  8.78D-01
                    CP:  5.09D-01  6.46D-01
 E= -864.195513198649     Delta-E=       -0.000034808894 Rises=F Damp=F
 DIIS: error= 7.19D-05 at cycle   8 NSaved=   8.
 NSaved= 8 IEnMin= 8 EnMin= -864.195513198649     IErMin= 8 ErrMin= 7.19D-05
 ErrMax= 7.19D-05  0.00D+00 EMaxC= 1.00D-01 BMatC= 3.66D-06 BMatP= 3.69D-05
 IDIUse=1 WtCom= 1.00D+00 WtEn= 0.00D+00
 Coeff-Com:  0.192D-03-0.957D-03 0.683D-02-0.398D-02 0.196D-01 0.627D-01
 Coeff-Com:  0.257D+00 0.659D+00
 Coeff:      0.192D-03-0.957D-03 0.683D-02-0.398D-02 0.196D-01 0.627D-01
 Coeff:      0.257D+00 0.659D+00
 Gap=     0.130 Goal=   None    Shift=    0.000
 RMSDP=6.16D-06 MaxDP=4.59D-04 DE=-3.48D-05 OVMax= 5.54D-04

 Initial convergence to 1.0D-05 achieved.  Increase integral accuracy.
 Cycle   9  Pass 1  IDiag  1:
 E= -864.195484688392     Delta-E=        0.000028510257 Rises=F Damp=F
 DIIS: error= 6.27D-05 at cycle   1 NSaved=   1.
 NSaved= 1 IEnMin= 1 EnMin= -864.195484688392     IErMin= 1 ErrMin= 6.27D-05
 ErrMax= 6.27D-05  0.00D+00 EMaxC= 1.00D-01 BMatC= 1.19D-06 BMatP= 1.19D-06
 IDIUse=1 WtCom= 1.00D+00 WtEn= 0.00D+00
 Coeff-Com:  0.100D+01
 Coeff:      0.100D+01
 Gap=     0.130 Goal=   None    Shift=    0.000
 RMSDP=6.16D-06 MaxDP=4.59D-04 DE= 2.85D-05 OVMax= 4.28D-04

 Cycle  10  Pass 1  IDiag  1:
 RMSU=  4.22D-05    CP:  1.00D+00
 E= -864.195485058709     Delta-E=       -0.000000370317 Rises=F Damp=F
 DIIS: error= 2.74D-05 at cycle   2 NSaved=   2.
 NSaved= 2 IEnMin= 2 EnMin= -864.195485058709     IErMin= 2 ErrMin= 2.74D-05
 ErrMax= 2.74D-05  0.00D+00 EMaxC= 1.00D-01 BMatC= 6.51D-07 BMatP= 1.19D-06
 IDIUse=1 WtCom= 1.00D+00 WtEn= 0.00D+00
 Coeff-Com:  0.395D+00 0.605D+00
 Coeff:      0.395D+00 0.605D+00
 Gap=     0.130 Goal=   None    Shift=    0.000
 RMSDP=5.08D-06 MaxDP=3.25D-04 DE=-3.70D-07 OVMax= 7.00D-04

 Cycle  11  Pass 1  IDiag  1:
 RMSU=  5.08D-06    CP:  1.00D+00  9.94D-01
 E= -864.195485285974     Delta-E=       -0.000000227265 Rises=F Damp=F
 DIIS: error= 2.36D-05 at cycle   3 NSaved=   3.
 NSaved= 3 IEnMin= 3 EnMin= -864.195485285974     IErMin= 3 ErrMin= 2.36D-05
 ErrMax= 2.36D-05  0.00D+00 EMaxC= 1.00D-01 BMatC= 4.34D-07 BMatP= 6.51D-07
 IDIUse=1 WtCom= 1.00D+00 WtEn= 0.00D+00
 Coeff-Com:  0.321D-01 0.443D+00 0.525D+00
 Coeff:      0.321D-01 0.443D+00 0.525D+00
 Gap=     0.130 Goal=   None    Shift=    0.000
 RMSDP=2.61D-06 MaxDP=1.54D-04 DE=-2.27D-07 OVMax= 3.70D-04

 Cycle  12  Pass 1  IDiag  1:
 RMSU=  8.31D-07    CP:  1.00D+00  1.00D+00  5.19D-01
 E= -864.195485749904     Delta-E=       -0.000000463930 Rises=F Damp=F
 DIIS: error= 7.18D-06 at cycle   4 NSaved=   4.
 NSaved= 4 IEnMin= 4 EnMin= -864.195485749904     IErMin= 4 ErrMin= 7.18D-06
 ErrMax= 7.18D-06  0.00D+00 EMaxC= 1.00D-01 BMatC= 3.14D-08 BMatP= 4.34D-07
 IDIUse=1 WtCom= 1.00D+00 WtEn= 0.00D+00
 Coeff-Com: -0.243D-02 0.250D+00 0.332D+00 0.420D+00
 Coeff:     -0.243D-02 0.250D+00 0.332D+00 0.420D+00
 Gap=     0.130 Goal=   None    Shift=    0.000
 RMSDP=5.32D-07 MaxDP=3.13D-05 DE=-4.64D-07 OVMax= 6.42D-05

 Cycle  13  Pass 1  IDiag  1:
 RMSU=  1.63D-07    CP:  1.00D+00  1.00D+00  5.61D-01  4.48D-01
 E= -864.195485778351     Delta-E=       -0.000000028447 Rises=F Damp=F
 DIIS: error= 6.84D-07 at cycle   5 NSaved=   5.
 NSaved= 5 IEnMin= 5 EnMin= -864.195485778351     IErMin= 5 ErrMin= 6.84D-07
 ErrMax= 6.84D-07  0.00D+00 EMaxC= 1.00D-01 BMatC= 4.97D-10 BMatP= 3.14D-08
 IDIUse=1 WtCom= 1.00D+00 WtEn= 0.00D+00
 Coeff-Com: -0.212D-02 0.133D+00 0.176D+00 0.242D+00 0.451D+00
 Coeff:     -0.212D-02 0.133D+00 0.176D+00 0.242D+00 0.451D+00
 Gap=     0.130 Goal=   None    Shift=    0.000
 RMSDP=7.32D-08 MaxDP=3.82D-06 DE=-2.84D-08 OVMax= 4.01D-06

 Cycle  14  Pass 1  IDiag  1:
 RMSU=  5.98D-08    CP:  1.00D+00  1.00D+00  5.59D-01  4.61D-01  7.64D-01
 E= -864.195485778742     Delta-E=       -0.000000000392 Rises=F Damp=F
 DIIS: error= 1.49D-07 at cycle   6 NSaved=   6.
 NSaved= 6 IEnMin= 6 EnMin= -864.195485778742     IErMin= 6 ErrMin= 1.49D-07
 ErrMax= 1.49D-07  0.00D+00 EMaxC= 1.00D-01 BMatC= 2.39D-11 BMatP= 4.97D-10
 IDIUse=1 WtCom= 1.00D+00 WtEn= 0.00D+00
 Coeff-Com: -0.745D-03 0.383D-01 0.493D-01 0.766D-01 0.198D+00 0.639D+00
 Coeff:     -0.745D-03 0.383D-01 0.493D-01 0.766D-01 0.198D+00 0.639D+00
 Gap=     0.130 Goal=   None    Shift=    0.000
 RMSDP=2.17D-08 MaxDP=8.22D-07 DE=-3.92D-10 OVMax= 1.78D-06

 Cycle  15  Pass 1  IDiag  1:
 RMSU=  1.96D-08    CP:  1.00D+00  1.00D+00  5.58D-01  4.60D-01  8.11D-01
                    CP:  9.27D-01
 E= -864.195485778771     Delta-E=       -0.000000000029 Rises=F Damp=F
 DIIS: error= 1.25D-07 at cycle   7 NSaved=   7.
 NSaved= 7 IEnMin= 7 EnMin= -864.195485778771     IErMin= 7 ErrMin= 1.25D-07
 ErrMax= 1.25D-07  0.00D+00 EMaxC= 1.00D-01 BMatC= 7.48D-12 BMatP= 2.39D-11
 IDIUse=1 WtCom= 1.00D+00 WtEn= 0.00D+00
 Coeff-Com: -0.149D-03 0.433D-02 0.420D-02 0.132D-01 0.451D-01 0.380D+00
 Coeff-Com:  0.553D+00
 Coeff:     -0.149D-03 0.433D-02 0.420D-02 0.132D-01 0.451D-01 0.380D+00
 Coeff:      0.553D+00
 Gap=     0.130 Goal=   None    Shift=    0.000
 RMSDP=1.35D-08 MaxDP=5.45D-07 DE=-2.91D-11 OVMax= 1.49D-06

 Cycle  16  Pass 1  IDiag  1:
 RMSU=  9.83D-09    CP:  1.00D+00  1.00D+00  5.58D-01  4.63D-01  8.25D-01
                    CP:  1.02D+00  6.64D-01
 E= -864.195485778767     Delta-E=        0.000000000004 Rises=F Damp=F
 DIIS: error= 5.61D-08 at cycle   8 NSaved=   8.
 NSaved= 8 IEnMin= 7 EnMin= -864.195485778771     IErMin= 8 ErrMin= 5.61D-08
 ErrMax= 5.61D-08  0.00D+00 EMaxC= 1.00D-01 BMatC= 2.22D-12 BMatP= 7.48D-12
 IDIUse=1 WtCom= 1.00D+00 WtEn= 0.00D+00
 Coeff-Com:  0.910D-04-0.701D-02-0.103D-01-0.102D-01-0.234D-01 0.101D+00
 Coeff-Com:  0.402D+00 0.547D+00
 Coeff:      0.910D-04-0.701D-02-0.103D-01-0.102D-01-0.234D-01 0.101D+00
 Coeff:      0.402D+00 0.547D+00
 Gap=     0.130 Goal=   None    Shift=    0.000
 RMSDP=6.27D-09 MaxDP=2.94D-07 DE= 4.09D-12 OVMax= 6.29D-07

 SCF Done:  E(RB3LYP) =  -864.195485779     A.U. after   16 cycles
            NFock= 16  Conv=0.63D-08     -V/T= 2.0088
 KE= 8.566842374512D+02 PE=-5.202770960778D+03 EE= 1.882957956983D+03
 Leave Link  502 at Fri Nov  4 22:13:09 2022, MaxMem=   805306368 cpu:             384.8 elap:              55.2
 (Enter /home/wykgroup/appl/g16/l508.exe)
 QCSCF skips out because SCF is already converged.
 Leave Link  508 at Fri Nov  4 22:13:09 2022, MaxMem=   805306368 cpu:               0.2 elap:               0.1
 (Enter /home/wykgroup/appl/g16/l601.exe)
 Copying SCF densities to generalized density rwf, IOpCl= 0 IROHF=0.

 **********************************************************************

            Population analysis using the SCF Density.

 **********************************************************************

 Orbital symmetries:
       Occupied  (A) (A) (A) (A) (A) (A) (A) (A) (A) (A) (A) (A)
                 (A) (A) (A) (A) (A) (A) (A) (A) (A) (A) (A) (A)
                 (A) (A) (A) (A) (A) (A) (A) (A) (A) (A) (A) (A)
                 (A) (A) (A) (A) (A) (A) (A) (A) (A) (A) (A) (A)
                 (A) (A) (A) (A) (A) (A) (A) (A) (A) (A) (A) (A)
                 (A) (A) (A) (A) (A) (A) (A) (A) (A) (A) (A) (A)
                 (A)
       Virtual   (A) (A) (A) (A) (A) (A) (A) (A) (A) (A) (A) (A)
                 (A) (A) (A) (A) (A) (A) (A) (A) (A) (A) (A) (A)
                 (A) (A) (A) (A) (A) (A) (A) (A) (A) (A) (A) (A)
                 (A) (A) (A) (A) (A) (A) (A) (A) (A) (A) (A) (A)
                 (A) (A) (A) (A) (A) (A) (A) (A) (A) (A) (A) (A)
                 (A) (A) (A) (A) (A) (A) (A) (A) (A) (A) (A) (A)
                 (A) (A) (A) (A) (A) (A) (A) (A) (A) (A) (A) (A)
                 (A) (A) (A) (A) (A) (A) (A) (A) (A) (A) (A) (A)
                 (A) (A) (A) (A) (A) (A) (A) (A) (A) (A) (A) (A)
                 (A) (A) (A) (A) (A) (A) (A) (A) (A) (A) (A) (A)
                 (A) (A) (A) (A) (A) (A) (A) (A) (A) (A) (A) (A)
                 (A) (A) (A) (A) (A) (A) (A) (A) (A) (A) (A) (A)
                 (A) (A) (A) (A) (A) (A) (A) (A) (A) (A) (A) (A)
                 (A) (A) (A) (A) (A) (A) (A) (A) (A) (A) (A) (A)
                 (A) (A) (A) (A) (A) (A) (A) (A) (A) (A) (A) (A)
                 (A) (A) (A) (A) (A) (A) (A) (A) (A) (A) (A) (A)
                 (A) (A) (A) (A) (A) (A) (A) (A) (A) (A) (A) (A)
                 (A) (A) (A) (A) (A) (A) (A) (A) (A) (A) (A) (A)
                 (A) (A) (A) (A) (A) (A) (A) (A) (A) (A) (A) (A)
                 (A) (A) (A) (A) (A) (A) (A) (A) (A) (A) (A) (A)
                 (A) (A) (A) (A) (A) (A) (A) (A) (A) (A) (A) (A)
                 (A) (A) (A) (A) (A) (A) (A) (A) (A) (A) (A) (A)
                 (A) (A) (A) (A) (A) (A) (A) (A) (A) (A) (A) (A)
 The electronic state is 1-A.
 Alpha  occ. eigenvalues --  -19.18429 -14.36280 -10.24034 -10.23164 -10.22801
 Alpha  occ. eigenvalues --  -10.22415 -10.21447 -10.19592 -10.18868 -10.18835
 Alpha  occ. eigenvalues --  -10.18669 -10.18495 -10.18346 -10.18328 -10.18300
 Alpha  occ. eigenvalues --  -10.18244 -10.18001 -10.17811 -10.17690 -10.17630
 Alpha  occ. eigenvalues --  -10.17488  -1.07857  -0.96943  -0.86095  -0.85726
 Alpha  occ. eigenvalues --   -0.82973  -0.77838  -0.76151  -0.75593  -0.75260
 Alpha  occ. eigenvalues --   -0.73077  -0.70128  -0.68900  -0.64563  -0.64001
 Alpha  occ. eigenvalues --   -0.60808  -0.59896  -0.58258  -0.56154  -0.55580
 Alpha  occ. eigenvalues --   -0.52433  -0.50514  -0.49904  -0.47796  -0.46635
 Alpha  occ. eigenvalues --   -0.46145  -0.45929  -0.45653  -0.43576  -0.43219
 Alpha  occ. eigenvalues --   -0.42819  -0.42405  -0.41722  -0.41056  -0.40849
 Alpha  occ. eigenvalues --   -0.39393  -0.38259  -0.37665  -0.36655  -0.36513
 Alpha  occ. eigenvalues --   -0.35934  -0.35034  -0.34767  -0.34395  -0.33705
 Alpha  occ. eigenvalues --   -0.33247  -0.32411  -0.28642  -0.25066  -0.24583
 Alpha  occ. eigenvalues --   -0.23546  -0.22191  -0.15141
 Alpha virt. eigenvalues --   -0.02099  -0.00708   0.00261   0.01693   0.03000
 Alpha virt. eigenvalues --    0.09121   0.09673   0.10164   0.11023   0.12164
 Alpha virt. eigenvalues --    0.13475   0.13910   0.14817   0.14962   0.15681
 Alpha virt. eigenvalues --    0.15818   0.16436   0.17251   0.17762   0.18083
 Alpha virt. eigenvalues --    0.18578   0.19032   0.19182   0.20038   0.20684
 Alpha virt. eigenvalues --    0.21330   0.22687   0.23354   0.24073   0.24747
 Alpha virt. eigenvalues --    0.26625   0.27884   0.28924   0.29894   0.30094
 Alpha virt. eigenvalues --    0.32860   0.33318   0.33511   0.35979   0.37752
 Alpha virt. eigenvalues --    0.38848   0.39393   0.40757   0.42974   0.44372
 Alpha virt. eigenvalues --    0.49005   0.49429   0.51237   0.51719   0.51945
 Alpha virt. eigenvalues --    0.52315   0.53072   0.53432   0.54343   0.55142
 Alpha virt. eigenvalues --    0.55552   0.55950   0.56895   0.57344   0.57916
 Alpha virt. eigenvalues --    0.58267   0.59185   0.59403   0.59558   0.60022
 Alpha virt. eigenvalues --    0.61005   0.61216   0.61697   0.61741   0.62112
 Alpha virt. eigenvalues --    0.62233   0.62987   0.63951   0.64218   0.64993
 Alpha virt. eigenvalues --    0.65796   0.66470   0.67334   0.68760   0.68839
 Alpha virt. eigenvalues --    0.69925   0.71866   0.73280   0.74043   0.76197
 Alpha virt. eigenvalues --    0.76481   0.78767   0.79508   0.81882   0.82447
 Alpha virt. eigenvalues --    0.83176   0.83531   0.84036   0.84554   0.85155
 Alpha virt. eigenvalues --    0.85470   0.86477   0.86709   0.87895   0.88641
 Alpha virt. eigenvalues --    0.88760   0.90240   0.90674   0.90738   0.91197
 Alpha virt. eigenvalues --    0.91759   0.92788   0.93764   0.94453   0.95040
 Alpha virt. eigenvalues --    0.96234   0.97447   0.97658   0.98051   0.99810
 Alpha virt. eigenvalues --    1.02751   1.03648   1.04383   1.05712   1.06376
 Alpha virt. eigenvalues --    1.07616   1.09190   1.10831   1.12071   1.13348
 Alpha virt. eigenvalues --    1.15705   1.16797   1.18523   1.18846   1.19762
 Alpha virt. eigenvalues --    1.20371   1.23912   1.25964   1.27533   1.28344
 Alpha virt. eigenvalues --    1.29959   1.31096   1.34208   1.36186   1.37422
 Alpha virt. eigenvalues --    1.38525   1.39223   1.40018   1.41415   1.42728
 Alpha virt. eigenvalues --    1.44612   1.46046   1.46703   1.47644   1.48249
 Alpha virt. eigenvalues --    1.49316   1.49703   1.50143   1.51095   1.51895
 Alpha virt. eigenvalues --    1.53071   1.57357   1.60827   1.65974   1.68037
 Alpha virt. eigenvalues --    1.68762   1.73125   1.74628   1.76534   1.77958
 Alpha virt. eigenvalues --    1.80492   1.81654   1.81892   1.82409   1.83898
 Alpha virt. eigenvalues --    1.85161   1.86084   1.87415   1.88072   1.88981
 Alpha virt. eigenvalues --    1.90539   1.90682   1.90997   1.91408   1.92427
 Alpha virt. eigenvalues --    1.93648   1.94140   1.95079   1.96091   1.97232
 Alpha virt. eigenvalues --    1.98839   1.99244   1.99934   2.01534   2.04624
 Alpha virt. eigenvalues --    2.06526   2.09307   2.10575   2.11623   2.12909
 Alpha virt. eigenvalues --    2.14974   2.15354   2.17523   2.18091   2.19073
 Alpha virt. eigenvalues --    2.22050   2.22721   2.24054   2.24911   2.26818
 Alpha virt. eigenvalues --    2.27170   2.28084   2.28403   2.30044   2.31210
 Alpha virt. eigenvalues --    2.32336   2.33606   2.34821   2.35908   2.37771
 Alpha virt. eigenvalues --    2.37893   2.41152   2.41900   2.44661   2.46343
 Alpha virt. eigenvalues --    2.48000   2.50917   2.51899   2.53083   2.56677
 Alpha virt. eigenvalues --    2.57849   2.61390   2.63333   2.63903   2.65483
 Alpha virt. eigenvalues --    2.66372   2.67796   2.68569   2.71134   2.72760
 Alpha virt. eigenvalues --    2.74094   2.75558   2.77443   2.77537   2.78569
 Alpha virt. eigenvalues --    2.81698   2.81865   2.85482   2.86745   2.90329
 Alpha virt. eigenvalues --    2.93699   2.94715   3.03646   3.06100   3.07442
 Alpha virt. eigenvalues --    3.17996   3.26456   3.43311   3.50575   3.54373
 Alpha virt. eigenvalues --    4.10653   4.11493   4.12348   4.14043   4.14706
 Alpha virt. eigenvalues --    4.16440   4.19800   4.21709   4.22554   4.25369
 Alpha virt. eigenvalues --    4.27494   4.37006   4.38888   4.43360   4.44867
 Alpha virt. eigenvalues --    4.46160   4.48377   4.70441   4.72918   4.78642
 Alpha virt. eigenvalues --    5.00517
          Condensed to atoms (all electrons):
               1          2          3          4          5          6
     1  C    5.216675   0.345593  -0.065254   0.007296   0.000856   0.005963
     2  C    0.345593   4.621672   0.558974  -0.011382  -0.036553  -0.006405
     3  C   -0.065254   0.558974   4.957580   0.526475  -0.046675  -0.040966
     4  C    0.007296  -0.011382   0.526475   4.887487   0.518105  -0.007757
     5  C    0.000856  -0.036553  -0.046675   0.518105   5.002026   0.534983
     6  C    0.005963  -0.006405  -0.040966  -0.007757   0.534983   4.633919
     7  N   -0.000173   0.005281   0.000835   0.005505  -0.062637   0.251639
     8  C   -0.000011   0.000074   0.000033  -0.000063   0.003024  -0.037316
     9  C   -0.000000  -0.000006   0.000000   0.000003  -0.000319   0.004879
    10  C    0.000000   0.000000  -0.000000  -0.000000   0.000002  -0.000186
    11  C   -0.000000  -0.000001   0.000000   0.000000  -0.000001   0.000044
    12  C    0.000001  -0.000028  -0.000002  -0.000001   0.000003   0.000236
    13  C   -0.000007  -0.001122   0.000014  -0.000059   0.000565  -0.000275
    14  O    0.000000   0.000000   0.000000  -0.000000   0.000001  -0.000275
    15  C   -0.000000   0.000001   0.000000   0.000004  -0.000083   0.003941
    16  C    0.000000  -0.000000  -0.000000  -0.000000  -0.000008  -0.000062
    17  C   -0.000000   0.000000   0.000000   0.000000  -0.000006  -0.000003
    18  C   -0.000000  -0.000001  -0.000001  -0.000007   0.000485   0.000432
    19  C    0.000000  -0.000030  -0.000007  -0.001075  -0.004207  -0.000519
    20  C    0.000001  -0.000070   0.000026   0.000204  -0.009552  -0.040867
    21  C   -0.056333   0.524369  -0.042404  -0.051641  -0.076818   0.515492
    22  H    0.365541  -0.028699  -0.003151   0.000165  -0.000000  -0.000114
    23  H    0.365732  -0.029055   0.003258  -0.000197  -0.000003   0.000148
    24  H    0.362503  -0.026244  -0.001818  -0.000177   0.000047  -0.000244
    25  H   -0.010382  -0.046453   0.356957  -0.047637   0.005369   0.000459
    26  H   -0.000231   0.003694  -0.039535   0.353371  -0.038313   0.003391
    27  H    0.000011   0.000534   0.004728  -0.041916   0.356283  -0.041843
    28  H    0.000000   0.000000  -0.000000  -0.000000   0.000000   0.000004
    29  H   -0.000000  -0.000000   0.000000   0.000000  -0.000000  -0.000002
    30  H   -0.000000   0.000000   0.000000   0.000000  -0.000000  -0.000006
    31  H    0.000000  -0.000000   0.000000   0.000000  -0.000000  -0.000000
    32  H    0.000000  -0.000000  -0.000000  -0.000000  -0.000000   0.000004
    33  H   -0.000019  -0.000537   0.000063   0.000073   0.000548   0.010371
    34  H   -0.000000   0.000000   0.000000   0.000000  -0.000000   0.000003
    35  H    0.000000   0.000000  -0.000000   0.000000   0.000000  -0.000000
    36  H   -0.000000  -0.000000  -0.000000  -0.000001   0.000001   0.000007
    37  H   -0.000001  -0.000112  -0.000014   0.001240   0.006781   0.008467
    38  H   -0.009868  -0.044259   0.006410   0.000056   0.006340  -0.043973
               7          8          9         10         11         12
     1  C   -0.000173  -0.000011  -0.000000   0.000000  -0.000000   0.000001
     2  C    0.005281   0.000074  -0.000006   0.000000  -0.000001  -0.000028
     3  C    0.000835   0.000033   0.000000  -0.000000   0.000000  -0.000002
     4  C    0.005505  -0.000063   0.000003  -0.000000   0.000000  -0.000001
     5  C   -0.062637   0.003024  -0.000319   0.000002  -0.000001   0.000003
     6  C    0.251639  -0.037316   0.004879  -0.000186   0.000044   0.000236
     7  N    7.394203   0.223460  -0.065288   0.005147  -0.000296   0.006469
     8  C    0.223460   4.711079   0.579166  -0.050217  -0.019463  -0.019376
     9  C   -0.065288   0.579166   4.808841   0.367869  -0.017273  -0.044505
    10  C    0.005147  -0.050217   0.367869   5.150052   0.344935  -0.027842
    11  C   -0.000296  -0.019463  -0.017273   0.344935   5.047453   0.365923
    12  C    0.006469  -0.019376  -0.044505  -0.027842   0.365923   4.975062
    13  C   -0.060915   0.409893  -0.044908  -0.026494  -0.038537   0.642743
    14  O   -0.016867  -0.035209   0.233759  -0.057130   0.001627   0.000190
    15  C   -0.051673  -0.013244  -0.007348   0.000405   0.000022  -0.000029
    16  C    0.006332   0.002361   0.000371  -0.000614   0.000005   0.000000
    17  C    0.000128  -0.000059  -0.000063   0.000005  -0.000000   0.000000
    18  C    0.005867  -0.000047  -0.000004  -0.000000  -0.000000  -0.000000
    19  C   -0.080500   0.003551   0.001582   0.000026  -0.000001   0.000003
    20  C    0.245634  -0.025292  -0.016996   0.001499  -0.000046  -0.000033
    21  C   -0.061503  -0.005740   0.000235   0.000011  -0.000063   0.000156
    22  H    0.000002  -0.000000  -0.000000   0.000000  -0.000000  -0.000000
    23  H   -0.000006   0.000002   0.000000   0.000000   0.000000  -0.000002
    24  H    0.000003  -0.000002   0.000000  -0.000000   0.000000   0.000003
    25  H    0.000004   0.000000   0.000000  -0.000000   0.000000  -0.000000
    26  H   -0.000147   0.000001  -0.000000   0.000000  -0.000000  -0.000000
    27  H   -0.006772   0.000144  -0.000010  -0.000000   0.000000   0.000000
    28  H   -0.000045   0.003519  -0.032673   0.358124  -0.028496   0.004391
    29  H   -0.000023  -0.008087  -0.036243   0.345388  -0.034570   0.002115
    30  H   -0.000080   0.003655   0.003525  -0.039816   0.361992  -0.044573
    31  H    0.000003   0.000846   0.003887  -0.034088   0.364549  -0.029724
    32  H   -0.000105   0.004056   0.000670   0.004024  -0.052077   0.362651
    33  H   -0.012164  -0.041064   0.006086  -0.000366   0.006510  -0.047802
    34  H   -0.000097  -0.000007   0.000137  -0.000018   0.000000  -0.000000
    35  H    0.000003   0.000001  -0.000000  -0.000000   0.000000  -0.000000
    36  H   -0.000108   0.000001   0.000000   0.000000  -0.000000   0.000000
    37  H   -0.012684  -0.000157  -0.000016  -0.000000   0.000000   0.000000
    38  H   -0.007496   0.003786  -0.000278   0.000001   0.000001   0.000195
              13         14         15         16         17         18
     1  C   -0.000007   0.000000  -0.000000   0.000000  -0.000000  -0.000000
     2  C   -0.001122   0.000000   0.000001  -0.000000   0.000000  -0.000001
     3  C    0.000014   0.000000   0.000000  -0.000000   0.000000  -0.000001
     4  C   -0.000059  -0.000000   0.000004  -0.000000   0.000000  -0.000007
     5  C    0.000565   0.000001  -0.000083  -0.000008  -0.000006   0.000485
     6  C   -0.000275  -0.000275   0.003941  -0.000062  -0.000003   0.000432
     7  N   -0.060915  -0.016867  -0.051673   0.006332   0.000128   0.005867
     8  C    0.409893  -0.035209  -0.013244   0.002361  -0.000059  -0.000047
     9  C   -0.044908   0.233759  -0.007348   0.000371  -0.000063  -0.000004
    10  C   -0.026494  -0.057130   0.000405  -0.000614   0.000005  -0.000000
    11  C   -0.038537   0.001627   0.000022   0.000005  -0.000000  -0.000000
    12  C    0.642743   0.000190  -0.000029   0.000000   0.000000  -0.000000
    13  C    4.930482   0.003598   0.001025   0.000007  -0.000000   0.000002
    14  O    0.003598   8.300243   0.225436  -0.059862   0.003645  -0.000048
    15  C    0.001025   0.225436   4.659711   0.537145  -0.011355  -0.045778
    16  C    0.000007  -0.059862   0.537145   5.020470   0.512491  -0.025063
    17  C   -0.000000   0.003645  -0.011355   0.512491   4.861723   0.558290
    18  C    0.000002  -0.000048  -0.045778  -0.025063   0.558290   4.856036
    19  C   -0.000356   0.004783  -0.034122  -0.052693  -0.031332   0.508661
    20  C    0.003610  -0.042772   0.443744  -0.041205  -0.039851  -0.005892
    21  C   -0.006060   0.000001  -0.000251  -0.000002   0.000000  -0.000027
    22  H   -0.000000   0.000000   0.000000  -0.000000  -0.000000   0.000000
    23  H   -0.000003  -0.000000   0.000000  -0.000000  -0.000000   0.000000
    24  H    0.000013  -0.000000  -0.000000  -0.000000   0.000000  -0.000000
    25  H   -0.000000   0.000000   0.000000   0.000000  -0.000000  -0.000000
    26  H   -0.000000  -0.000000  -0.000000   0.000000  -0.000000   0.000000
    27  H    0.000027   0.000000  -0.000171  -0.000007  -0.000002   0.000026
    28  H    0.000813   0.002492   0.000321   0.000015   0.000000   0.000000
    29  H    0.003819   0.002547  -0.000093   0.000005  -0.000000  -0.000000
    30  H   -0.007545  -0.000091  -0.000013  -0.000000  -0.000000  -0.000000
    31  H    0.003457  -0.000052   0.000001  -0.000000   0.000000  -0.000000
    32  H   -0.030521   0.000002  -0.000000  -0.000000   0.000000   0.000000
    33  H    0.355564  -0.000050   0.000003   0.000000   0.000000   0.000000
    34  H   -0.000000  -0.001066  -0.036857   0.345621  -0.043426   0.005276
    35  H    0.000000  -0.000055   0.004274  -0.042458   0.361129  -0.043420
    36  H   -0.000000   0.000002   0.001037   0.004758  -0.042854   0.359255
    37  H   -0.000001  -0.000047   0.005034   0.000599   0.004621  -0.039303
    38  H    0.003278  -0.000001  -0.000023   0.000000  -0.000000   0.000001
              19         20         21         22         23         24
     1  C    0.000000   0.000001  -0.056333   0.365541   0.365732   0.362503
     2  C   -0.000030  -0.000070   0.524369  -0.028699  -0.029055  -0.026244
     3  C   -0.000007   0.000026  -0.042404  -0.003151   0.003258  -0.001818
     4  C   -0.001075   0.000204  -0.051641   0.000165  -0.000197  -0.000177
     5  C   -0.004207  -0.009552  -0.076818  -0.000000  -0.000003   0.000047
     6  C   -0.000519  -0.040867   0.515492  -0.000114   0.000148  -0.000244
     7  N   -0.080500   0.245634  -0.061503   0.000002  -0.000006   0.000003
     8  C    0.003551  -0.025292  -0.005740  -0.000000   0.000002  -0.000002
[...]
    28  H   -0.000044   0.003570  -0.032565   0.359219  -0.028769   0.004031
    29  H   -0.000046  -0.008144  -0.034502   0.345401  -0.032188   0.001742
    30  H   -0.000038   0.003345   0.002432  -0.038858   0.361625  -0.042810
    31  H    0.000002   0.000706   0.003745  -0.032452   0.364342  -0.029177
    32  H   -0.000099   0.004115   0.000462   0.003893  -0.050416   0.361168
    33  H   -0.008941  -0.042450   0.006319  -0.000401   0.006516  -0.047476
    34  H   -0.000098   0.000005   0.000052  -0.000020   0.000000  -0.000000
    35  H    0.000003   0.000001   0.000000  -0.000000   0.000000  -0.000000
    36  H   -0.000091   0.000001   0.000000   0.000000  -0.000000   0.000000
    37  H   -0.010023  -0.000006  -0.000021  -0.000000   0.000000  -0.000000
    38  H   -0.010043   0.007802   0.000750  -0.000038   0.000059  -0.000258
              13         14         15         16         17         18
     1  C    0.000002  -0.000000  -0.000000   0.000000  -0.000000   0.000000
     2  C   -0.000273   0.000000  -0.000005  -0.000000   0.000000  -0.000002
     3  C    0.000001  -0.000000   0.000000   0.000000   0.000000  -0.000001
     4  C   -0.000106  -0.000000   0.000006  -0.000000   0.000000  -0.000001
     5  C    0.000206  -0.000001  -0.000236  -0.000001  -0.000001   0.000284
     6  C   -0.001515  -0.000201   0.002131  -0.000061   0.000011   0.000234
     7  N   -0.057818  -0.016598  -0.053340   0.006085   0.000090   0.004904
     8  C    0.410691  -0.035350  -0.011011   0.001843  -0.000045  -0.000086
     9  C   -0.044740   0.233660  -0.012658   0.001034  -0.000063  -0.000009
    10  C   -0.022543  -0.057351   0.000764  -0.000524   0.000004  -0.000000
    11  C   -0.037445   0.001839  -0.000003   0.000003  -0.000000   0.000000
    12  C    0.642843   0.000141  -0.000016   0.000000  -0.000000  -0.000000
    13  C    4.910028   0.003282   0.000897   0.000004  -0.000000   0.000002
    14  O    0.003282   8.301662   0.225131  -0.057927   0.003440  -0.000037
    15  C    0.000897   0.225131   4.662870   0.529462  -0.011535  -0.044797
    16  C    0.000004  -0.057927   0.529462   5.016844   0.514169  -0.027536
    17  C   -0.000000   0.003440  -0.011535   0.514169   4.868795   0.549824
    18  C    0.000002  -0.000037  -0.044797  -0.027536   0.549824   4.864838
    19  C   -0.000294   0.004544  -0.031437  -0.048125  -0.030960   0.513953
    20  C    0.003544  -0.042528   0.453093  -0.043321  -0.037861  -0.008652
    21  C   -0.000377  -0.000001   0.000215  -0.000015  -0.000001  -0.000058
    22  H    0.000000   0.000000   0.000000  -0.000000   0.000000   0.000000
    23  H   -0.000001  -0.000000   0.000000  -0.000000  -0.000000   0.000000
    24  H   -0.000000   0.000000  -0.000000  -0.000000   0.000000  -0.000000
    25  H    0.000000   0.000000   0.000000   0.000000  -0.000000  -0.000000
    26  H   -0.000000  -0.000000  -0.000000   0.000000  -0.000000   0.000000
    27  H   -0.000023   0.000000  -0.000033  -0.000002   0.000002   0.000002
    28  H    0.000677   0.002029   0.000256   0.000019   0.000000   0.000000
    29  H    0.003163   0.002701  -0.000092  -0.000003  -0.000000   0.000000
    30  H   -0.007432  -0.000084  -0.000010  -0.000000  -0.000000  -0.000000
    31  H    0.003037  -0.000045   0.000001  -0.000000   0.000000   0.000000
    32  H   -0.029706   0.000002  -0.000000  -0.000000   0.000000   0.000000
    33  H    0.352644  -0.000045  -0.000012   0.000000   0.000000  -0.000000
    34  H   -0.000000  -0.000692  -0.035744   0.344795  -0.042098   0.004900
    35  H    0.000000  -0.000052   0.003939  -0.040793   0.360110  -0.041801
    36  H   -0.000000   0.000001   0.000887   0.004460  -0.041771   0.358995
    37  H   -0.000003  -0.000045   0.005333   0.000502   0.004528  -0.040117
    38  H    0.000344  -0.000075   0.000008   0.000004  -0.000001   0.000003
              19         20         21         22         23         24
     1  C    0.000001  -0.000001  -0.050152   0.365073   0.365147   0.362637
     2  C   -0.000100  -0.000072   0.513973  -0.027974  -0.028326  -0.025313
     3  C   -0.000002   0.000038  -0.039545  -0.002881   0.003229  -0.001949
     4  C   -0.000538   0.000078  -0.046991   0.000137  -0.000175  -0.000128
     5  C   -0.000893  -0.008763  -0.079622   0.000000   0.000004   0.000036
     6  C   -0.000306  -0.040179   0.510179  -0.000101   0.000098  -0.000173
     7  N   -0.075439   0.244169  -0.067991   0.000001  -0.000005   0.000002
     8  C    0.003907  -0.023039  -0.000009  -0.000000   0.000002  -0.000002
     9  C    0.001416  -0.013102   0.000444  -0.000000   0.000000   0.000000
    10  C    0.000022   0.001238  -0.000003   0.000000   0.000000  -0.000000
    11  C   -0.000001  -0.000043  -0.000039  -0.000000   0.000000   0.000000
    12  C    0.000002  -0.000083  -0.000068  -0.000000  -0.000000   0.000001
    13  C   -0.000294   0.003544  -0.000377   0.000000  -0.000001  -0.000000
    14  O    0.004544  -0.042528  -0.000001   0.000000  -0.000000   0.000000
    15  C   -0.031437   0.453093   0.000215   0.000000   0.000000  -0.000000
    16  C   -0.048125  -0.043321  -0.000015  -0.000000  -0.000000  -0.000000
    17  C   -0.030960  -0.037861  -0.000001   0.000000  -0.000000   0.000000
    18  C    0.513953  -0.008652  -0.000058   0.000000   0.000000  -0.000000
    19  C    5.051715   0.501492   0.000842  -0.000000   0.000000  -0.000000
    20  C    0.501492   4.696737   0.003846  -0.000000  -0.000001   0.000000
    21  C    0.000842   0.003846   5.075674   0.002274  -0.002675  -0.001942
    22  H   -0.000000  -0.000000   0.002274   0.558150  -0.027106  -0.030870
    23  H    0.000000  -0.000001  -0.002675  -0.027106   0.553174  -0.029437
    24  H   -0.000000   0.000000  -0.001942  -0.030870  -0.029437   0.558027
    25  H    0.000000   0.000000   0.006142   0.004392   0.000036   0.000679
    26  H    0.000003  -0.000004   0.000976  -0.000003   0.000003   0.000002
    27  H   -0.000550   0.000663   0.006465  -0.000000  -0.000000  -0.000000
    28  H   -0.000001  -0.000006   0.000001   0.000000  -0.000000   0.000000
    29  H   -0.000001  -0.000009   0.000000  -0.000000   0.000000  -0.000000
    30  H    0.000000   0.000004  -0.000011  -0.000000   0.000000  -0.000000
    31  H    0.000000   0.000000  -0.000000  -0.000000   0.000000   0.000000
    32  H   -0.000000   0.000001   0.000003   0.000000  -0.000000  -0.000000
    33  H   -0.000009   0.000018   0.000366  -0.000000  -0.000001   0.000004
    34  H    0.000298   0.006299   0.000000   0.000000   0.000000   0.000000
    35  H    0.004852   0.000591   0.000000   0.000000   0.000000  -0.000000
    36  H   -0.039693   0.003497   0.000000   0.000000   0.000000   0.000000
    37  H    0.341557  -0.035434   0.000472   0.000000   0.000000  -0.000000
    38  H    0.000170   0.000913   0.349725   0.000005   0.005355   0.000432
              25         26         27         28         29         30
     1  C   -0.008880  -0.000200   0.000010   0.000000  -0.000000  -0.000000
     2  C   -0.045987   0.003452   0.000364   0.000000  -0.000000   0.000000
     3  C    0.357163  -0.038608   0.004524  -0.000000   0.000000   0.000000
     4  C   -0.045479   0.353352  -0.041852  -0.000000   0.000000  -0.000000
     5  C    0.004730  -0.036716   0.350428  -0.000000  -0.000000   0.000000
     6  C    0.000502   0.003264  -0.039617   0.000004  -0.000006  -0.000012
     7  N    0.000004  -0.000126  -0.001903  -0.000044  -0.000046  -0.000038
     8  C    0.000000   0.000001   0.000173   0.003570  -0.008144   0.003345
     9  C    0.000000  -0.000000  -0.000010  -0.032565  -0.034502   0.002432
    10  C   -0.000000   0.000000  -0.000000   0.359219   0.345401  -0.038858
    11  C    0.000000  -0.000000   0.000000  -0.028769  -0.032188   0.361625
    12  C   -0.000000  -0.000000   0.000000   0.004031   0.001742  -0.042810
    13  C    0.000000  -0.000000  -0.000023   0.000677   0.003163  -0.007432
    14  O    0.000000  -0.000000   0.000000   0.002029   0.002701  -0.000084
    15  C    0.000000  -0.000000  -0.000033   0.000256  -0.000092  -0.000010
    16  C    0.000000   0.000000  -0.000002   0.000019  -0.000003  -0.000000
    17  C   -0.000000  -0.000000   0.000002   0.000000  -0.000000  -0.000000
    18  C   -0.000000   0.000000   0.000002   0.000000   0.000000  -0.000000
    19  C    0.000000   0.000003  -0.000550  -0.000001  -0.000001   0.000000
    20  C    0.000000  -0.000004   0.000663  -0.000006  -0.000009   0.000004
    21  C    0.006142   0.000976   0.006465   0.000001   0.000000  -0.000011
    22  H    0.004392  -0.000003  -0.000000   0.000000  -0.000000  -0.000000
    23  H    0.000036   0.000003  -0.000000  -0.000000   0.000000   0.000000
    24  H    0.000679   0.000002  -0.000000   0.000000  -0.000000  -0.000000
    25  H    0.608170  -0.005292  -0.000164  -0.000000   0.000000   0.000000
    26  H   -0.005292   0.591853  -0.005386  -0.000000  -0.000000  -0.000000
    27  H   -0.000164  -0.005386   0.584438  -0.000000   0.000000   0.000000
    28  H   -0.000000  -0.000000  -0.000000   0.580058  -0.037837  -0.007675
    29  H    0.000000  -0.000000   0.000000  -0.037837   0.601905   0.006716
    30  H    0.000000  -0.000000   0.000000  -0.007675   0.006716   0.604476
    31  H   -0.000000  -0.000000   0.000000  -0.001109  -0.005388  -0.035519
    32  H    0.000000   0.000000  -0.000000  -0.000123  -0.000017   0.002482
    33  H   -0.000000  -0.000004   0.000162   0.000007   0.000044  -0.000114
    34  H    0.000000  -0.000000  -0.000000   0.000015   0.000003  -0.000000
    35  H   -0.000000   0.000000   0.000000  -0.000000   0.000000   0.000000
    36  H    0.000000   0.000000  -0.000001   0.000000  -0.000000  -0.000000
    37  H   -0.000000  -0.000018   0.000966   0.000000   0.000000   0.000000
    38  H   -0.000162   0.000017  -0.000160  -0.000004   0.000002   0.000077
              31         32         33         34         35         36
     1  C    0.000000   0.000000  -0.000003  -0.000000   0.000000  -0.000000
     2  C   -0.000000  -0.000000  -0.000335   0.000000  -0.000000   0.000000
     3  C    0.000000  -0.000000  -0.000002  -0.000000  -0.000000  -0.000000
     4  C    0.000000  -0.000000   0.000204   0.000000   0.000000  -0.000000
     5  C   -0.000000  -0.000001   0.001829  -0.000000   0.000000  -0.000002
     6  C   -0.000000   0.000001   0.008277   0.000002  -0.000000   0.000001
     7  N    0.000002  -0.000099  -0.008941  -0.000098   0.000003  -0.000091
     8  C    0.000706   0.004115  -0.042450   0.000005   0.000001   0.000001
     9  C    0.003745   0.000462   0.006319   0.000052   0.000000   0.000000
    10  C   -0.032452   0.003893  -0.000401  -0.000020  -0.000000   0.000000
    11  C    0.364342  -0.050416   0.006516   0.000000   0.000000  -0.000000
    12  C   -0.029177   0.361168  -0.047476  -0.000000  -0.000000   0.000000
    13  C    0.003037  -0.029706   0.352644  -0.000000   0.000000  -0.000000
    14  O   -0.000045   0.000002  -0.000045  -0.000692  -0.000052   0.000001
    15  C    0.000001  -0.000000  -0.000012  -0.035744   0.003939   0.000887
    16  C   -0.000000  -0.000000   0.000000   0.344795  -0.040793   0.004460
    17  C    0.000000   0.000000   0.000000  -0.042098   0.360110  -0.041771
    18  C    0.000000   0.000000  -0.000000   0.004900  -0.041801   0.358995
    19  C    0.000000  -0.000000  -0.000009   0.000298   0.004852  -0.039693
    20  C    0.000000   0.000001   0.000018   0.006299   0.000591   0.003497
    21  C   -0.000000   0.000003   0.000366   0.000000   0.000000   0.000000
    22  H   -0.000000   0.000000  -0.000000   0.000000   0.000000   0.000000
    23  H    0.000000  -0.000000  -0.000001   0.000000   0.000000   0.000000
    24  H    0.000000  -0.000000   0.000004   0.000000  -0.000000   0.000000
    25  H   -0.000000   0.000000  -0.000000   0.000000  -0.000000   0.000000
    26  H   -0.000000   0.000000  -0.000004  -0.000000   0.000000   0.000000
    27  H    0.000000  -0.000000   0.000162  -0.000000   0.000000  -0.000001
    28  H   -0.001109  -0.000123   0.000007   0.000015  -0.000000   0.000000
    29  H   -0.005388  -0.000017   0.000044   0.000003   0.000000  -0.000000
    30  H   -0.035519   0.002482  -0.000114  -0.000000   0.000000  -0.000000
    31  H    0.592995  -0.004297  -0.000149  -0.000000  -0.000000  -0.000000
    32  H   -0.004297   0.591920  -0.007189  -0.000000   0.000000  -0.000000
    33  H   -0.000149  -0.007189   0.589156   0.000000  -0.000000  -0.000000
    34  H   -0.000000  -0.000000   0.000000   0.589482  -0.005800  -0.000174
    35  H   -0.000000   0.000000  -0.000000  -0.005800   0.598121  -0.005296
    36  H   -0.000000  -0.000000  -0.000000  -0.000174  -0.005296   0.598793
    37  H    0.000000  -0.000000   0.000000   0.000014  -0.000183  -0.005540
    38  H    0.000000  -0.000002   0.000113  -0.000000  -0.000000  -0.000000
              37         38
     1  C   -0.000001  -0.009010
     2  C   -0.000126  -0.045509
     3  C   -0.000011   0.006086
     4  C    0.000927   0.000087
     5  C    0.006622   0.006029
     6  C    0.006779  -0.042240
     7  N   -0.010023  -0.010043
     8  C   -0.000006   0.007802
     9  C   -0.000021   0.000750
    10  C   -0.000000  -0.000038
    11  C    0.000000   0.000059
    12  C   -0.000000  -0.000258
    13  C   -0.000003   0.000344
    14  O   -0.000045  -0.000075
    15  C    0.005333   0.000008
    16  C    0.000502   0.000004
    17  C    0.004528  -0.000001
    18  C   -0.040117   0.000003
    19  C    0.341557   0.000170
    20  C   -0.035434   0.000913
    21  C    0.000472   0.349725
    22  H    0.000000   0.000005
    23  H    0.000000   0.005355
    24  H   -0.000000   0.000432
    25  H   -0.000000  -0.000162
    26  H   -0.000018   0.000017
    27  H    0.000966  -0.000160
    28  H    0.000000  -0.000004
    29  H    0.000000   0.000002
    30  H    0.000000   0.000077
    31  H    0.000000   0.000000
    32  H   -0.000000  -0.000002
    33  H    0.000000   0.000113
    34  H    0.000014  -0.000000
    35  H   -0.000183  -0.000000
    36  H   -0.005540  -0.000000
    37  H    0.584117  -0.000015
    38  H   -0.000015   0.593592
 Mulliken charges:
               1
     1  C   -0.529664
     2  C    0.166994
     3  C   -0.170968
     4  C   -0.139565
     5  C   -0.159326
     6  C    0.222728
     7  N   -0.683498
     8  C    0.283351
     9  C    0.259370
    10  C   -0.340826
    11  C   -0.304669
    12  C   -0.141468
    13  C   -0.129087
    14  O   -0.567402
    15  C    0.315937
    16  C   -0.200918
    17  C   -0.136639
    18  C   -0.134843
    19  C   -0.196426
    20  C    0.336879
    21  C   -0.182097
    22  H    0.158903
    23  H    0.160679
    24  H    0.167994
    25  H    0.124144
    26  H    0.133435
    27  H    0.141507
    28  H    0.158249
    29  H    0.156553
    30  H    0.151405
    31  H    0.143309
    32  H    0.127805
    33  H    0.141471
    34  H    0.138761
    35  H    0.126310
    36  H    0.125935
    37  H    0.139728
    38  H    0.135947
 Sum of Mulliken charges =  -0.00000
 Mulliken charges with hydrogens summed into heavy atoms:
               1
     1  C   -0.042088
     2  C    0.166994
     3  C   -0.046823
     4  C   -0.006131
     5  C   -0.017819
     6  C    0.222728
     7  N   -0.683498
     8  C    0.283351
     9  C    0.259370
    10  C   -0.026024
    11  C   -0.009955
    12  C   -0.013663
    13  C    0.012385
    14  O   -0.567402
    15  C    0.315937
    16  C   -0.062156
    17  C   -0.010329
    18  C   -0.008908
    19  C   -0.056698
    20  C    0.336879
    21  C   -0.046150
 Electronic spatial extent (au):  <R**2>=           5945.0189
 Charge=              0.0000 electrons
 Dipole moment (field-independent basis, Debye):
    X=             -1.7687    Y=              0.7218    Z=              0.3019  Tot=              1.9341
 Quadrupole moment (field-independent basis, Debye-Ang):
   XX=           -112.6710   YY=           -113.3504   ZZ=           -120.0120
   XY=              1.9985   XZ=              1.2508   YZ=              2.3403
 Traceless Quadrupole moment (field-independent basis, Debye-Ang):
   XX=              2.6735   YY=              1.9940   ZZ=             -4.6675
   XY=              1.9985   XZ=              1.2508   YZ=              2.3403
 Octapole moment (field-independent basis, Debye-Ang**2):
  XXX=            -23.4187  YYY=             10.1465  ZZZ=              2.6810  XYY=             20.5617
  XXY=             -5.6868  XXZ=             11.0935  XZZ=            -11.6854  YZZ=              3.0916
  YYZ=             -1.2440  XYZ=             -9.7877
 Hexadecapole moment (field-independent basis, Debye-Ang**3):
 XXXX=          -3968.0752 YYYY=          -3024.3835 ZZZZ=           -693.2115 XXXY=             17.8856
 XXXZ=             14.2627 YYYX=             -9.7302 YYYZ=             -5.6754 ZZZX=             11.1047
 ZZZY=             24.5188 XXYY=          -1193.4307 XXZZ=           -796.5532 YYZZ=           -673.8725
 XXYZ=              0.1461 YYXZ=             35.3718 ZZXY=             19.1579
 N-N= 1.588041072565D+03 E-N=-5.180532367432D+03  KE= 8.559105994980D+02
 No NMR shielding tensors so no spin-rotation constants.
 Leave Link  601 at Fri Nov  4 22:39:18 2022, MaxMem=   805306368 cpu:               1.5 elap:               0.3
 (Enter /home/wykgroup/appl/g16/l9999.exe)
 1\1\GINC-NODE89\FOpt\RB3LYP\6-31G(d)\C19H17N1O1\WYKGROUP\04-Nov-2022\0
 \\#p b3lyp/6-31g(d) opt SCF=XQC\\Gaussian input prepared by ASE\\0,1\C
 ,4.1918997489,-1.049894117,0.5982151747\C,3.2145510482,-0.3394665791,-
 0.3098875502\C,3.644575263,0.2542829905,-1.5053199448\C,2.7373894629,0
 .8837902119,-2.3566917481\C,1.3806894663,0.9306321926,-2.0314851754\C,
 0.9380544104,0.3588497729,-0.8347628364\N,-0.4561851507,0.4065106919,-
 0.4918742884\C,-1.1260257565,-0.8254778497,-0.239286388\C,-2.130234834
 1,-0.9128459133,0.6534498292\C,-2.9576413496,-2.1551481931,0.809611987
 6\C,-2.1382939967,-3.4118528251,0.4687746143\C,-1.2979055629,-3.210107
 671,-0.771194903\C,-0.813004136,-1.9939642561,-1.0682291892\O,-2.59103
 31274,0.1612272969,1.3879547406\C,-2.0321127363,1.3973013998,1.0974720
 887\C,-2.5682075311,2.4900299883,1.7647321148\C,-2.0434123865,3.769084
 1645,1.5576575719\C,-0.9814445601,3.9324460044,0.6743735932\C,-0.45139
 43305,2.8312976406,-0.0055155814\C,-0.9648770963,1.5450752,0.18888202\
 C,1.8557845527,-0.2704476496,0.0151104391\H,5.1725560403,-0.5618305768
 ,0.5915484864\H,3.8328255926,-1.0752792728,1.6321052246\H,4.3446205757
 ,-2.0897935462,0.279848957\H,4.6987643354,0.2195829268,-1.7707069643\H
 ,3.0857889101,1.3330226503,-3.2829244394\H,0.6600193751,1.3970219783,-
 2.6964035734\H,-3.3361856827,-2.2104857757,1.836363992\H,-3.8425614654
 ,-2.0843980666,0.1549173776\H,-1.4708761868,-3.6494200533,1.3145944955
 \H,-2.8068313044,-4.2724324943,0.3552891668\H,-1.0486213404,-4.0695454
 857,-1.3877074561\H,-0.1732124939,-1.8374443474,-1.9316135571\H,-3.387
 2591684,2.3152682836,2.4556530707\H,-2.4625087054,4.6187612485,2.08822
 21527\H,-0.5535871704,4.9162162159,0.5034857288\H,0.3808258548,2.96960
 17733,-0.6862633392\H,1.4950704362,-0.7101679577,0.941606108\\Version=
 ES64L-G16RevB.01\State=1-A\HF=-864.2007156\RMSD=2.778e-09\RMSF=1.206e-
 05\Dipole=0.6382363,-0.3892891,-0.1418094\Quadrupole=1.1140886,1.38720
 16,-2.5012902,1.0661996,-2.6875731,-1.4574982\PG=C01 [X(C19H17N1O1)]\\
 @


 CHILDREN YOU ARE VERY LITTLE,
 AND YOUR BONES ARE VERY BRITTLE;
 IF YOU WOULD GROW GREAT AND STATELY
 YOU MUST TRY TO WALK SEDATELY.
 YOU MUST STILL BE BRIGHT AND QUIET,
 AND CONTENT WITH SIMPLE DIET;
 AND REMAIN, THROUGH ALL BEWILD'RING
 INNOCENT AND HONEST CHILDREN.
     -- A CHILD'S GARDEN OF VERSE,
        ROBERT LOUIS STEVENSON
 Job cpu time:       0 days  2 hours 57 minutes 40.4 seconds.
 Elapsed time:       0 days  0 hours 27 minutes  4.7 seconds.
 File lengths (MBytes):  RWF=     82 Int=      0 D2E=      0 Chk=     12 Scr=      1
 Normal termination of Gaussian 16 at Fri Nov  4 22:39:18 2022.
