 Entering Gaussian System, Link 0=/home/wykgroup/appl/g16/g16
 Input=./calculation/no_transfer_pubchem_sampling_6_b3lyp/154692953.com
 Output=./calculation/no_transfer_pubchem_sampling_6_b3lyp/154692953.log
 Initial command:
 /home/wykgroup/appl/g16/l1.exe "/userdata/scratch/wykgroup/khs/./calculation/no_transfer_pubchem_sampling_6_b3lyp/154692953/Gau-25068.inp" -scrdir="/userdata/scratch/wykgroup/khs/./calculation/no_transfer_pubchem_sampling_6_b3lyp/154692953/"
 Entering Link 1 = /home/wykgroup/appl/g16/l1.exe PID=     25069.
  
 Copyright (c) 1988-2017, Gaussian, Inc.  All Rights Reserved.
  
 This is part of the Gaussian(R) 16 program.  It is based on
 the Gaussian(R) 09 system (copyright 2009, Gaussian, Inc.),
 the Gaussian(R) 03 system (copyright 2003, Gaussian, Inc.),
 the Gaussian(R) 98 system (copyright 1998, Gaussian, Inc.),
 the Gaussian(R) 94 system (copyright 1995, Gaussian, Inc.),
 the Gaussian 92(TM) system (copyright 1992, Gaussian, Inc.),
 the Gaussian 90(TM) system (copyright 1990, Gaussian, Inc.),
 the Gaussian 88(TM) system (copyright 1988, Gaussian, Inc.),
 the Gaussian 86(TM) system (copyright 1986, Carnegie Mellon
 University), and the Gaussian 82(TM) system (copyright 1983,
 Carnegie Mellon University). Gaussian is a federally registered
 trademark of Gaussian, Inc.
  
 This software contains proprietary and confidential information,
 including trade secrets, belonging to Gaussian, Inc.
  
 This software is provided under written license and may be
 used, copied, transmitted, or stored only in accord with that
 written license.
  
 The following legend is applicable only to US Government
 contracts under FAR:
  
                    RESTRICTED RIGHTS LEGEND
  
 Use, reproduction and disclosure by the US Government is
 subject to restrictions as set forth in subparagraphs (a)
 and (c) of the Commercial Computer Software - Restricted
 Rights clause in FAR 52.227-19.
  
 Gaussian, Inc.
 340 Quinnipiac St., Bldg. 40, Wallingford CT 06492
  
  
 ---------------------------------------------------------------
 Warning -- This program may not be used in any manner that
 competes with the business of Gaussian, Inc. or will provide
 assistance to any competitor of Gaussian, Inc.  The licensee
 of this program is prohibited from giving any competitor of
 Gaussian, Inc. access to this program.  By using this program,
 the user acknowledges that Gaussian, Inc. is engaged in the
 business of creating and licensing software in the field of
 computational chemistry and represents and warrants to the
 licensee that it is not a competitor of Gaussian, Inc. and that
 it will not use this program in any manner prohibited above.
 ---------------------------------------------------------------
  

 Cite this work as:
 Gaussian 16, Revision B.01,
 M. J. Frisch, G. W. Trucks, H. B. Schlegel, G. E. Scuseria, 
 M. A. Robb, J. R. Cheeseman, G. Scalmani, V. Barone, 
 G. A. Petersson, H. Nakatsuji, X. Li, M. Caricato, A. V. Marenich, 
 J. Bloino, B. G. Janesko, R. Gomperts, B. Mennucci, H. P. Hratchian, 
 J. V. Ortiz, A. F. Izmaylov, J. L. Sonnenberg, D. Williams-Young, 
 F. Ding, F. Lipparini, F. Egidi, J. Goings, B. Peng, A. Petrone, 
 T. Henderson, D. Ranasinghe, V. G. Zakrzewski, J. Gao, N. Rega, 
 G. Zheng, W. Liang, M. Hada, M. Ehara, K. Toyota, R. Fukuda, 
 J. Hasegawa, M. Ishida, T. Nakajima, Y. Honda, O. Kitao, H. Nakai, 
 T. Vreven, K. Throssell, J. A. Montgomery, Jr., J. E. Peralta, 
 F. Ogliaro, M. J. Bearpark, J. J. Heyd, E. N. Brothers, K. N. Kudin, 
 V. N. Staroverov, T. A. Keith, R. Kobayashi, J. Normand, 
 K. Raghavachari, A. P. Rendell, J. C. Burant, S. S. Iyengar, 
 J. Tomasi, M. Cossi, J. M. Millam, M. Klene, C. Adamo, R. Cammi, 
 J. W. Ochterski, R. L. Martin, K. Morokuma, O. Farkas, 
 J. B. Foresman, and D. J. Fox, Gaussian, Inc., Wallingford CT, 2016.
 
 ******************************************
 Gaussian 16:  ES64L-G16RevB.01 20-Dec-2017
                 4-Nov-2022 
 ******************************************
 %chk=./calculation/no_transfer_pubchem_sampling_6_b3lyp/154692953.chk
 %nprocshared=7
 Will use up to    7 processors via shared memory.
 %mem=6GB
 -----------------------------
 #p b3lyp/6-31g(d) opt SCF=XQC
 -----------------------------
 1/18=20,19=15,26=3,38=1/1,3;
 2/9=110,12=2,17=6,18=5,40=1/2;
 3/5=1,6=6,7=1,11=2,25=1,30=1,71=1,74=-5/1,2,3;
 4//1;
 5/5=2,8=3,13=1,38=5/2,8;
 6/7=2,8=2,9=2,10=2,28=1/1;
 7//1,2,3,16;
 1/18=20,19=15,26=3/3(2);
 2/9=110/2;
 99//99;
 2/9=110/2;
 3/5=1,6=6,7=1,11=2,25=1,30=1,71=1,74=-5/1,2,3;
 4/5=5,16=3,69=1/1;
 5/5=2,8=3,13=1,38=5/2,8;
 7//1,2,3,16;
 1/18=20,19=15,26=3/3(-5);
 2/9=110/2;
 6/7=2,8=2,9=2,10=2,19=2,28=1/1;
 99/9=1/99;
 Leave Link    1 at Fri Nov  4 22:20:33 2022, MaxMem=   805306368 cpu:               1.0 elap:               0.2
 (Enter /home/wykgroup/appl/g16/l101.exe)
 ------------------------------
 Gaussian input prepared by ASE
 ------------------------------
 Symbolic Z-matrix:
 Charge =  0 Multiplicity = 1
 B                     6.23994  -1.37577  -0.55323 
 N                     5.35814  -2.18594   0.19001 
 C                     5.6392   -3.39088   0.79777 
 C                     4.53501  -3.83741   1.46279 
 C                     3.49962  -2.90701   1.24885 
 C                     4.00808  -1.89217   0.4578 
 C                     3.40975  -0.73114  -0.09436 
 C                     1.97248  -0.49291   0.01213 
 C                     1.05863  -1.53257  -0.18889 
 C                    -0.30729  -1.32486  -0.09683 
 C                    -0.76712  -0.05907   0.1968 
 C                     0.13287   0.9992    0.39118 
 C                     1.49442   0.78845   0.30086 
 C                    -0.63022   2.20415   0.6775 
 C                    -0.22524   3.50276   0.9372 
 C                    -1.19349   4.46466   1.17721 
 C                    -2.54116   4.1388    1.1585 
 C                    -2.95482   2.83916   0.89775 
 C                    -1.99458   1.88109   0.65881 
 C                    -2.1907    0.41532   0.35312 
 C                    -3.04819   0.16808  -0.86395 
 C                    -2.84371   0.60109  -2.15549 
 C                    -3.77455   0.25184  -3.12466 
 C                    -4.884    -0.51445  -2.80056 
 C                    -5.09227  -0.95219  -1.50242 
 C                    -4.16765  -0.60794  -0.53033 
 C                    -4.11067  -0.91157   0.89088 
 C                    -4.96339  -1.63782   1.70563 
 C                    -4.649    -1.76469   3.04924 
 C                    -3.50561  -1.17916   3.57174 
 C                    -2.64637  -0.44939   2.76124 
 C                    -2.95654  -0.32081   1.42532 
 C                     4.21632   0.17724  -0.77763 
 C                     3.94461   1.20749  -1.66082 
 C                     5.16742   1.76065  -2.09695 
 C                     6.19728   1.10278  -1.51379 
 N                     5.67634   0.06866  -0.65301 
 H                     6.62457  -3.80885   0.73182 
 H                     4.46398  -4.73943   2.03937 
 H                     2.49659  -2.97876   1.61967 
 H                     1.43131  -2.51119  -0.45042 
 H                    -0.99899  -2.13888  -0.26032 
 H                     2.18833   1.599     0.46889 
 H                     0.82339   3.76149   0.95193 
 H                    -0.89539   5.48295   1.38164 
 H                    -3.27821   4.90524   1.34852 
 H                    -4.00475   2.58455   0.88217 
 H                    -1.97899   1.19798  -2.40704 
 H                    -3.63287   0.58111  -4.14364 
 H                    -5.59506  -0.77348  -3.57172 
 H                    -5.95767  -1.54918  -1.2551 
 H                    -5.85475  -2.09623   1.30337 
 H                    -5.30288  -2.32764   3.69956 
 H                    -3.28078  -1.29226   4.62222 
 H                    -1.75521   0.00714   3.16722 
 H                     2.96795   1.48696  -2.00019 
 H                     5.26391   2.57137  -2.79381 
 H                     7.25673   1.21924  -1.61399 
 H                     5.91527   0.31518   0.31347 
 
 ITRead=  0  0  0  0  0  0  0  0  0  0  0  0  0  0  0  0  0  0  0  0
 ITRead=  0  0  0  0  0  0  0  0  0  0  0  0  0  0  0  0  0  0  0  0
 ITRead=  0  0  0  0  0  0  0  0  0  0  0  0  0  0  0  0  0  0  0
 MicOpt= -1 -1 -1 -1 -1 -1 -1 -1 -1 -1 -1 -1 -1 -1 -1 -1 -1 -1 -1 -1
 MicOpt= -1 -1 -1 -1 -1 -1 -1 -1 -1 -1 -1 -1 -1 -1 -1 -1 -1 -1 -1 -1
 MicOpt= -1 -1 -1 -1 -1 -1 -1 -1 -1 -1 -1 -1 -1 -1 -1 -1 -1 -1 -1
 NAtoms=     59 NQM=       59 NQMF=       0 NMMI=      0 NMMIF=      0
                NMic=       0 NMicF=      0.
                    Isotopes and Nuclear Properties:
 (Nuclear quadrupole moments (NQMom) in fm**2, nuclear magnetic moments (NMagM)
  in nuclear magnetons)

  Atom         1           2           3           4           5           6           7           8           9          10
 IAtWgt=          11          14          12          12          12          12          12          12          12          12
 AtmWgt=  11.0093053  14.0030740  12.0000000  12.0000000  12.0000000  12.0000000  12.0000000  12.0000000  12.0000000  12.0000000
 NucSpn=           3           2           0           0           0           0           0           0           0           0
 AtZEff=  -0.0000000  -0.0000000  -0.0000000  -0.0000000  -0.0000000  -0.0000000  -0.0000000  -0.0000000  -0.0000000  -0.0000000
 NQMom=    4.0590000   2.0440000   0.0000000   0.0000000   0.0000000   0.0000000   0.0000000   0.0000000   0.0000000   0.0000000
 NMagM=    2.6886370   0.4037610   0.0000000   0.0000000   0.0000000   0.0000000   0.0000000   0.0000000   0.0000000   0.0000000
 AtZNuc=   5.0000000   7.0000000   6.0000000   6.0000000   6.0000000   6.0000000   6.0000000   6.0000000   6.0000000   6.0000000

  Atom        11          12          13          14          15          16          17          18          19          20
 IAtWgt=          12          12          12          12          12          12          12          12          12          12
 AtmWgt=  12.0000000  12.0000000  12.0000000  12.0000000  12.0000000  12.0000000  12.0000000  12.0000000  12.0000000  12.0000000
 NucSpn=           0           0           0           0           0           0           0           0           0           0
 AtZEff=  -0.0000000  -0.0000000  -0.0000000  -0.0000000  -0.0000000  -0.0000000  -0.0000000  -0.0000000  -0.0000000  -0.0000000
 NQMom=    0.0000000   0.0000000   0.0000000   0.0000000   0.0000000   0.0000000   0.0000000   0.0000000   0.0000000   0.0000000
 NMagM=    0.0000000   0.0000000   0.0000000   0.0000000   0.0000000   0.0000000   0.0000000   0.0000000   0.0000000   0.0000000
 AtZNuc=   6.0000000   6.0000000   6.0000000   6.0000000   6.0000000   6.0000000   6.0000000   6.0000000   6.0000000   6.0000000

  Atom        21          22          23          24          25          26          27          28          29          30
 IAtWgt=          12          12          12          12          12          12          12          12          12          12
 AtmWgt=  12.0000000  12.0000000  12.0000000  12.0000000  12.0000000  12.0000000  12.0000000  12.0000000  12.0000000  12.0000000
 NucSpn=           0           0           0           0           0           0           0           0           0           0
 AtZEff=  -0.0000000  -0.0000000  -0.0000000  -0.0000000  -0.0000000  -0.0000000  -0.0000000  -0.0000000  -0.0000000  -0.0000000
 NQMom=    0.0000000   0.0000000   0.0000000   0.0000000   0.0000000   0.0000000   0.0000000   0.0000000   0.0000000   0.0000000
 NMagM=    0.0000000   0.0000000   0.0000000   0.0000000   0.0000000   0.0000000   0.0000000   0.0000000   0.0000000   0.0000000
 AtZNuc=   6.0000000   6.0000000   6.0000000   6.0000000   6.0000000   6.0000000   6.0000000   6.0000000   6.0000000   6.0000000

  Atom        31          32          33          34          35          36          37          38          39          40
 IAtWgt=          12          12          12          12          12          12          14           1           1           1
 AtmWgt=  12.0000000  12.0000000  12.0000000  12.0000000  12.0000000  12.0000000  14.0030740   1.0078250   1.0078250   1.0078250
 NucSpn=           0           0           0           0           0           0           2           1           1           1
 AtZEff=  -0.0000000  -0.0000000  -0.0000000  -0.0000000  -0.0000000  -0.0000000  -0.0000000  -0.0000000  -0.0000000  -0.0000000
 NQMom=    0.0000000   0.0000000   0.0000000   0.0000000   0.0000000   0.0000000   2.0440000   0.0000000   0.0000000   0.0000000
 NMagM=    0.0000000   0.0000000   0.0000000   0.0000000   0.0000000   0.0000000   0.4037610   2.7928460   2.7928460   2.7928460
 AtZNuc=   6.0000000   6.0000000   6.0000000   6.0000000   6.0000000   6.0000000   7.0000000   1.0000000   1.0000000   1.0000000

  Atom        41          42          43          44          45          46          47          48          49          50
 IAtWgt=           1           1           1           1           1           1           1           1           1           1
 AtmWgt=   1.0078250   1.0078250   1.0078250   1.0078250   1.0078250   1.0078250   1.0078250   1.0078250   1.0078250   1.0078250
 NucSpn=           1           1           1           1           1           1           1           1           1           1
 AtZEff=  -0.0000000  -0.0000000  -0.0000000  -0.0000000  -0.0000000  -0.0000000  -0.0000000  -0.0000000  -0.0000000  -0.0000000
 NQMom=    0.0000000   0.0000000   0.0000000   0.0000000   0.0000000   0.0000000   0.0000000   0.0000000   0.0000000   0.0000000
 NMagM=    2.7928460   2.7928460   2.7928460   2.7928460   2.7928460   2.7928460   2.7928460   2.7928460   2.7928460   2.7928460
 AtZNuc=   1.0000000   1.0000000   1.0000000   1.0000000   1.0000000   1.0000000   1.0000000   1.0000000   1.0000000   1.0000000

  Atom        51          52          53          54          55          56          57          58          59
 IAtWgt=           1           1           1           1           1           1           1           1           1
 AtmWgt=   1.0078250   1.0078250   1.0078250   1.0078250   1.0078250   1.0078250   1.0078250   1.0078250   1.0078250
 NucSpn=           1           1           1           1           1           1           1           1           1
 AtZEff=  -0.0000000  -0.0000000  -0.0000000  -0.0000000  -0.0000000  -0.0000000  -0.0000000  -0.0000000  -0.0000000
 NQMom=    0.0000000   0.0000000   0.0000000   0.0000000   0.0000000   0.0000000   0.0000000   0.0000000   0.0000000
 NMagM=    2.7928460   2.7928460   2.7928460   2.7928460   2.7928460   2.7928460   2.7928460   2.7928460   2.7928460
 AtZNuc=   1.0000000   1.0000000   1.0000000   1.0000000   1.0000000   1.0000000   1.0000000   1.0000000   1.0000000
 Leave Link  101 at Fri Nov  4 22:20:33 2022, MaxMem=   805306368 cpu:               2.2 elap:               0.4
 (Enter /home/wykgroup/appl/g16/l103.exe)

 GradGradGradGradGradGradGradGradGradGradGradGradGradGradGradGradGradGrad
 Berny optimization.
 Initialization pass.
                           ----------------------------
                           !    Initial Parameters    !
                           ! (Angstroms and Degrees)  !
 --------------------------                            --------------------------
 ! Name  Definition              Value          Derivative Info.                !
 --------------------------------------------------------------------------------
 ! R1    R(1,2)                  1.4094         estimate D2E/DX2                !
 ! R2    R(1,37)                 1.5537         estimate D2E/DX2                !
 ! R3    R(2,3)                  1.3785         estimate D2E/DX2                !
 ! R4    R(2,6)                  1.4074         estimate D2E/DX2                !
 ! R5    R(3,4)                  1.3641         estimate D2E/DX2                !
 ! R6    R(3,38)                 1.0724         estimate D2E/DX2                !
 ! R7    R(4,5)                  1.4083         estimate D2E/DX2                !
 ! R8    R(4,39)                 1.0729         estimate D2E/DX2                !
 ! R9    R(5,6)                  1.3835         estimate D2E/DX2                !
 ! R10   R(5,40)                 1.0718         estimate D2E/DX2                !
 ! R11   R(6,7)                  1.4181         estimate D2E/DX2                !
 ! R12   R(7,8)                  1.4608         estimate D2E/DX2                !
 ! R13   R(7,33)                 1.3938         estimate D2E/DX2                !
 ! R14   R(8,9)                  1.3987         estimate D2E/DX2                !
 ! R15   R(8,13)                 1.3978         estimate D2E/DX2                !
 ! R16   R(9,10)                 1.3847         estimate D2E/DX2                !
 ! R17   R(9,41)                 1.0794         estimate D2E/DX2                !
 ! R18   R(10,11)                1.3784         estimate D2E/DX2                !
 ! R19   R(10,42)                1.0807         estimate D2E/DX2                !
 ! R20   R(11,12)                1.4028         estimate D2E/DX2                !
 ! R21   R(11,20)                1.5087         estimate D2E/DX2                !
 ! R22   R(12,13)                1.3807         estimate D2E/DX2                !
 ! R23   R(12,14)                1.4547         estimate D2E/DX2                !
 ! R24   R(13,43)                1.0802         estimate D2E/DX2                !
 ! R25   R(14,15)                1.3849         estimate D2E/DX2                !
 ! R26   R(14,19)                1.4022         estimate D2E/DX2                !
 ! R27   R(15,16)                1.3858         estimate D2E/DX2                !
 ! R28   R(15,44)                1.0802         estimate D2E/DX2                !
 ! R29   R(16,17)                1.3866         estimate D2E/DX2                !
 ! R30   R(16,45)                1.0805         estimate D2E/DX2                !
 ! R31   R(17,18)                1.3886         estimate D2E/DX2                !
 ! R32   R(17,46)                1.0802         estimate D2E/DX2                !
 ! R33   R(18,19)                1.3773         estimate D2E/DX2                !
 ! R34   R(18,47)                1.0805         estimate D2E/DX2                !
 ! R35   R(19,20)                1.5101         estimate D2E/DX2                !
 ! R36   R(20,21)                1.5092         estimate D2E/DX2                !
 ! R37   R(20,32)                1.5093         estimate D2E/DX2                !
 ! R38   R(21,22)                1.3775         estimate D2E/DX2                !
 ! R39   R(21,26)                1.4024         estimate D2E/DX2                !
 ! R40   R(22,23)                1.3884         estimate D2E/DX2                !
 ! R41   R(22,48)                1.0804         estimate D2E/DX2                !
 ! R42   R(23,24)                1.3868         estimate D2E/DX2                !
 ! R43   R(23,49)                1.0802         estimate D2E/DX2                !
 ! R44   R(24,25)                1.3857         estimate D2E/DX2                !
 ! R45   R(24,50)                1.0805         estimate D2E/DX2                !
 ! R46   R(25,26)                1.3851         estimate D2E/DX2                !
 ! R47   R(25,51)                1.08           estimate D2E/DX2                !
 ! R48   R(26,27)                1.4544         estimate D2E/DX2                !
 ! R49   R(27,28)                1.3851         estimate D2E/DX2                !
 ! R50   R(27,32)                1.4024         estimate D2E/DX2                !
 ! R51   R(28,29)                1.3857         estimate D2E/DX2                !
 ! R52   R(28,52)                1.08           estimate D2E/DX2                !
 ! R53   R(29,30)                1.3868         estimate D2E/DX2                !
 ! R54   R(29,53)                1.0805         estimate D2E/DX2                !
 ! R55   R(30,31)                1.3884         estimate D2E/DX2                !
 ! R56   R(30,54)                1.0802         estimate D2E/DX2                !
 ! R57   R(31,32)                1.3775         estimate D2E/DX2                !
 ! R58   R(31,55)                1.0805         estimate D2E/DX2                !
 ! R59   R(33,34)                1.3839         estimate D2E/DX2                !
 ! R60   R(33,37)                1.4693         estimate D2E/DX2                !
 ! R61   R(34,35)                1.4112         estimate D2E/DX2                !
 ! R62   R(34,56)                1.071          estimate D2E/DX2                !
 ! R63   R(35,36)                1.3541         estimate D2E/DX2                !
 ! R64   R(35,57)                1.0734         estimate D2E/DX2                !
 ! R65   R(36,37)                1.4428         estimate D2E/DX2                !
 ! R66   R(36,58)                1.0705         estimate D2E/DX2                !
 ! R67   R(37,59)                1.0256         estimate D2E/DX2                !
 ! A1    A(2,1,37)             109.9572         estimate D2E/DX2                !
 ! A2    A(1,2,3)              127.402          estimate D2E/DX2                !
 ! A3    A(1,2,6)              125.4886         estimate D2E/DX2                !
 ! A4    A(3,2,6)              107.1069         estimate D2E/DX2                !
 ! A5    A(2,3,4)              109.6342         estimate D2E/DX2                !
 ! A6    A(2,3,38)             120.0603         estimate D2E/DX2                !
 ! A7    A(4,3,38)             130.2539         estimate D2E/DX2                !
 ! A8    A(3,4,5)              107.7455         estimate D2E/DX2                !
 ! A9    A(3,4,39)             126.2114         estimate D2E/DX2                !
 ! A10   A(5,4,39)             126.0414         estimate D2E/DX2                !
 ! A11   A(4,5,6)              107.5326         estimate D2E/DX2                !
 ! A12   A(4,5,40)             126.2446         estimate D2E/DX2                !
 ! A13   A(6,5,40)             126.2177         estimate D2E/DX2                !
 ! A14   A(2,6,5)              107.952          estimate D2E/DX2                !
 ! A15   A(2,6,7)              120.1042         estimate D2E/DX2                !
 ! A16   A(5,6,7)              131.9225         estimate D2E/DX2                !
 ! A17   A(6,7,8)              121.3518         estimate D2E/DX2                !
 ! A18   A(6,7,33)             118.7067         estimate D2E/DX2                !
 ! A19   A(8,7,33)             119.9236         estimate D2E/DX2                !
 ! A20   A(7,8,9)              120.7401         estimate D2E/DX2                !
 ! A21   A(7,8,13)             120.0708         estimate D2E/DX2                !
 ! A22   A(9,8,13)             119.184          estimate D2E/DX2                !
 ! A23   A(8,9,10)             121.5634         estimate D2E/DX2                !
 ! A24   A(8,9,41)             118.892          estimate D2E/DX2                !
 ! A25   A(10,9,41)            119.5195         estimate D2E/DX2                !
 ! A26   A(9,10,11)            118.7507         estimate D2E/DX2                !
 ! A27   A(9,10,42)            120.5539         estimate D2E/DX2                !
 ! A28   A(11,10,42)           120.6936         estimate D2E/DX2                !
 ! A29   A(10,11,12)           120.55           estimate D2E/DX2                !
 ! A30   A(10,11,20)           128.7281         estimate D2E/DX2                !
 ! A31   A(12,11,20)           110.7217         estimate D2E/DX2                !
 ! A32   A(11,12,13)           120.5616         estimate D2E/DX2                !
 ! A33   A(11,12,14)           108.3977         estimate D2E/DX2                !
 ! A34   A(13,12,14)           131.0402         estimate D2E/DX2                !
 ! A35   A(8,13,12)            119.3868         estimate D2E/DX2                !
 ! A36   A(8,13,43)            120.0207         estimate D2E/DX2                !
 ! A37   A(12,13,43)           120.5829         estimate D2E/DX2                !
 ! A38   A(12,14,15)           131.3175         estimate D2E/DX2                !
 ! A39   A(12,14,19)           108.4782         estimate D2E/DX2                !
 ! A40   A(15,14,19)           120.2041         estimate D2E/DX2                !
 ! A41   A(14,15,16)           118.6236         estimate D2E/DX2                !
 ! A42   A(14,15,44)           120.7341         estimate D2E/DX2                !
 ! A43   A(16,15,44)           120.6423         estimate D2E/DX2                !
 ! A44   A(15,16,17)           120.905          estimate D2E/DX2                !
 ! A45   A(15,16,45)           119.6134         estimate D2E/DX2                !
 ! A46   A(17,16,45)           119.4816         estimate D2E/DX2                !
 ! A47   A(16,17,18)           120.7976         estimate D2E/DX2                !
 ! A48   A(16,17,46)           119.6072         estimate D2E/DX2                !
 ! A49   A(18,17,46)           119.5952         estimate D2E/DX2                !
 ! A50   A(17,18,19)           118.4201         estimate D2E/DX2                !
 ! A51   A(17,18,47)           120.8458         estimate D2E/DX2                !
 ! A52   A(19,18,47)           120.7341         estimate D2E/DX2                !
 ! A53   A(14,19,18)           121.0495         estimate D2E/DX2                !
 ! A54   A(14,19,20)           110.6524         estimate D2E/DX2                !
 ! A55   A(18,19,20)           128.298          estimate D2E/DX2                !
 ! A56   A(11,20,19)           101.7498         estimate D2E/DX2                !
 ! A57   A(11,20,21)           113.6448         estimate D2E/DX2                !
 ! A58   A(11,20,32)           113.5184         estimate D2E/DX2                !
 ! A59   A(19,20,21)           113.3314         estimate D2E/DX2                !
 ! A60   A(19,20,32)           113.2973         estimate D2E/DX2                !
 ! A61   A(21,20,32)           101.811          estimate D2E/DX2                !
 ! A62   A(20,21,22)           128.3373         estimate D2E/DX2                !
 ! A63   A(20,21,26)           110.6316         estimate D2E/DX2                !
 ! A64   A(22,21,26)           121.0311         estimate D2E/DX2                !
 ! A65   A(21,22,23)           118.418          estimate D2E/DX2                !
 ! A66   A(21,22,48)           120.7164         estimate D2E/DX2                !
 ! A67   A(23,22,48)           120.8656         estimate D2E/DX2                !
 ! A68   A(22,23,24)           120.8117         estimate D2E/DX2                !
 ! A69   A(22,23,49)           119.5954         estimate D2E/DX2                !
 ! A70   A(24,23,49)           119.5928         estimate D2E/DX2                !
 ! A71   A(23,24,25)           120.9131         estimate D2E/DX2                !
 ! A72   A(23,24,50)           119.4837         estimate D2E/DX2                !
 ! A73   A(25,24,50)           119.6033         estimate D2E/DX2                !
 ! A74   A(24,25,26)           118.5968         estimate D2E/DX2                !
 ! A75   A(24,25,51)           120.6346         estimate D2E/DX2                !
 ! A76   A(26,25,51)           120.7686         estimate D2E/DX2                !
 ! A77   A(21,26,25)           120.2293         estimate D2E/DX2                !
 ! A78   A(21,26,27)           108.4641         estimate D2E/DX2                !
 ! A79   A(25,26,27)           131.3066         estimate D2E/DX2                !
 ! A80   A(26,27,28)           131.3124         estimate D2E/DX2                !
 ! A81   A(26,27,32)           108.4634         estimate D2E/DX2                !
 ! A82   A(28,27,32)           120.2242         estimate D2E/DX2                !
 ! A83   A(27,28,29)           118.6002         estimate D2E/DX2                !
 ! A84   A(27,28,52)           120.7679         estimate D2E/DX2                !
 ! A85   A(29,28,52)           120.6319         estimate D2E/DX2                !
 ! A86   A(28,29,30)           120.9118         estimate D2E/DX2                !
 ! A87   A(28,29,53)           119.6043         estimate D2E/DX2                !
 ! A88   A(30,29,53)           119.4839         estimate D2E/DX2                !
 ! A89   A(29,30,31)           120.8117         estimate D2E/DX2                !
 ! A90   A(29,30,54)           119.5903         estimate D2E/DX2                !
 ! A91   A(31,30,54)           119.598          estimate D2E/DX2                !
 ! A92   A(30,31,32)           118.415          estimate D2E/DX2                !
 ! A93   A(30,31,55)           120.8752         estimate D2E/DX2                !
 ! A94   A(32,31,55)           120.7098         estimate D2E/DX2                !
 ! A95   A(20,32,27)           110.6295         estimate D2E/DX2                !
 ! A96   A(20,32,31)           128.3334         estimate D2E/DX2                !
 ! A97   A(27,32,31)           121.0371         estimate D2E/DX2                !
 ! A98   A(7,33,34)            133.1899         estimate D2E/DX2                !
 ! A99   A(7,33,37)            119.0313         estimate D2E/DX2                !
 ! A100  A(34,33,37)           107.7119         estimate D2E/DX2                !
 ! A101  A(33,34,35)           108.5967         estimate D2E/DX2                !
 ! A102  A(33,34,56)           125.1338         estimate D2E/DX2                !
 ! A103  A(35,34,56)           126.1532         estimate D2E/DX2                !
 ! A104  A(34,35,36)           109.603          estimate D2E/DX2                !
 ! A105  A(34,35,57)           125.0705         estimate D2E/DX2                !
 ! A106  A(36,35,57)           125.3227         estimate D2E/DX2                !
 ! A107  A(35,36,37)           109.3023         estimate D2E/DX2                !
 ! A108  A(35,36,58)           131.2646         estimate D2E/DX2                !
 ! A109  A(37,36,58)           119.4149         estimate D2E/DX2                !
 ! A110  A(1,37,33)            115.7593         estimate D2E/DX2                !
 ! A111  A(1,37,36)            125.0061         estimate D2E/DX2                !
 ! A112  A(1,37,59)             94.4985         estimate D2E/DX2                !
 ! A113  A(33,37,36)           104.7854         estimate D2E/DX2                !
 ! A114  A(33,37,59)           107.0764         estimate D2E/DX2                !
 ! A115  A(36,37,59)           107.8067         estimate D2E/DX2                !
 ! D1    D(37,1,2,3)          -161.3737         estimate D2E/DX2                !
 ! D2    D(37,1,2,6)            17.9782         estimate D2E/DX2                !
 ! D3    D(2,1,37,33)          -36.2352         estimate D2E/DX2                !
 ! D4    D(2,1,37,36)         -169.3842         estimate D2E/DX2                !
 ! D5    D(2,1,37,59)           75.1735         estimate D2E/DX2                !
 ! D6    D(1,2,3,4)            177.6803         estimate D2E/DX2                !
 ! D7    D(1,2,3,38)             0.0345         estimate D2E/DX2                !
 ! D8    D(6,2,3,4)             -1.7676         estimate D2E/DX2                !
 ! D9    D(6,2,3,38)          -179.4134         estimate D2E/DX2                !
 ! D10   D(1,2,6,5)           -178.1089         estimate D2E/DX2                !
 ! D11   D(1,2,6,7)              3.3728         estimate D2E/DX2                !
 ! D12   D(3,2,6,5)              1.3525         estimate D2E/DX2                !
 ! D13   D(3,2,6,7)           -177.1658         estimate D2E/DX2                !
 ! D14   D(2,3,4,5)              1.493          estimate D2E/DX2                !
 ! D15   D(2,3,4,39)          -178.9564         estimate D2E/DX2                !
 ! D16   D(38,3,4,5)           178.8231         estimate D2E/DX2                !
 ! D17   D(38,3,4,39)           -1.6264         estimate D2E/DX2                !
 ! D18   D(3,4,5,6)             -0.6203         estimate D2E/DX2                !
 ! D19   D(3,4,5,40)           178.597          estimate D2E/DX2                !
 ! D20   D(39,4,5,6)           179.8282         estimate D2E/DX2                !
 ! D21   D(39,4,5,40)           -0.9545         estimate D2E/DX2                !
 ! D22   D(4,5,6,2)             -0.458          estimate D2E/DX2                !
 ! D23   D(4,5,6,7)            177.8192         estimate D2E/DX2                !
 ! D24   D(40,5,6,2)          -179.6756         estimate D2E/DX2                !
 ! D25   D(40,5,6,7)            -1.3984         estimate D2E/DX2                !
 ! D26   D(2,6,7,8)            171.5621         estimate D2E/DX2                !
 ! D27   D(2,6,7,33)            -6.8948         estimate D2E/DX2                !
 ! D28   D(5,6,7,8)             -6.5433         estimate D2E/DX2                !
 ! D29   D(5,6,7,33)           174.9997         estimate D2E/DX2                !
 ! D30   D(6,7,8,9)            -42.3004         estimate D2E/DX2                !
 ! D31   D(6,7,8,13)           138.5257         estimate D2E/DX2                !
 ! D32   D(33,7,8,9)           136.1381         estimate D2E/DX2                !
 ! D33   D(33,7,8,13)          -43.0358         estimate D2E/DX2                !
 ! D34   D(6,7,33,34)          163.1728         estimate D2E/DX2                !
 ! D35   D(6,7,33,37)          -13.4405         estimate D2E/DX2                !
 ! D36   D(8,7,33,34)          -15.3068         estimate D2E/DX2                !
 ! D37   D(8,7,33,37)          168.0799         estimate D2E/DX2                !
 ! D38   D(7,8,9,10)          -179.7669         estimate D2E/DX2                !
 ! D39   D(7,8,9,41)            -1.6007         estimate D2E/DX2                !
 ! D40   D(13,8,9,10)           -0.5857         estimate D2E/DX2                !
 ! D41   D(13,8,9,41)          177.5805         estimate D2E/DX2                !
 ! D42   D(7,8,13,12)          179.6548         estimate D2E/DX2                !
 ! D43   D(7,8,13,43)           -1.4619         estimate D2E/DX2                !
 ! D44   D(9,8,13,12)            0.468          estimate D2E/DX2                !
 ! D45   D(9,8,13,43)          179.3514         estimate D2E/DX2                !
 ! D46   D(8,9,10,11)            0.1765         estimate D2E/DX2                !
 ! D47   D(8,9,10,42)          179.6815         estimate D2E/DX2                !
 ! D48   D(41,9,10,11)        -177.9785         estimate D2E/DX2                !
 ! D49   D(41,9,10,42)           1.5265         estimate D2E/DX2                !
 ! D50   D(9,10,11,12)           0.344          estimate D2E/DX2                !
 ! D51   D(9,10,11,20)        -179.8226         estimate D2E/DX2                !
 ! D52   D(42,10,11,12)       -179.1603         estimate D2E/DX2                !
 ! D53   D(42,10,11,20)          0.6731         estimate D2E/DX2                !
 ! D54   D(10,11,12,13)         -0.4561         estimate D2E/DX2                !
 ! D55   D(10,11,12,14)        179.7512         estimate D2E/DX2                !
 ! D56   D(20,11,12,13)        179.6829         estimate D2E/DX2                !
 ! D57   D(20,11,12,14)         -0.1098         estimate D2E/DX2                !
 ! D58   D(10,11,20,19)       -179.7207         estimate D2E/DX2                !
 ! D59   D(10,11,20,21)        -57.5351         estimate D2E/DX2                !
 ! D60   D(10,11,20,32)         58.2006         estimate D2E/DX2                !
 ! D61   D(12,11,20,19)          0.1259         estimate D2E/DX2                !
 ! D62   D(12,11,20,21)        122.3115         estimate D2E/DX2                !
 ! D63   D(12,11,20,32)       -121.9528         estimate D2E/DX2                !
 ! D64   D(11,12,13,8)           0.0395         estimate D2E/DX2                !
 ! D65   D(11,12,13,43)       -178.8374         estimate D2E/DX2                !
 ! D66   D(14,12,13,8)         179.7787         estimate D2E/DX2                !
 ! D67   D(14,12,13,43)          0.9018         estimate D2E/DX2                !
 ! D68   D(11,12,14,15)       -179.7705         estimate D2E/DX2                !
 ! D69   D(11,12,14,19)          0.0435         estimate D2E/DX2                !
 ! D70   D(13,12,14,15)          0.4662         estimate D2E/DX2                !
 ! D71   D(13,12,14,19)       -179.7198         estimate D2E/DX2                !
 ! D72   D(12,14,15,16)        179.8686         estimate D2E/DX2                !
 ! D73   D(12,14,15,44)         -0.0932         estimate D2E/DX2                !
 ! D74   D(19,14,15,16)          0.0727         estimate D2E/DX2                !
 ! D75   D(19,14,15,44)       -179.8891         estimate D2E/DX2                !
 ! D76   D(12,14,19,18)       -179.9147         estimate D2E/DX2                !
 ! D77   D(12,14,19,20)          0.0394         estimate D2E/DX2                !
 ! D78   D(15,14,19,18)         -0.0763         estimate D2E/DX2                !
 ! D79   D(15,14,19,20)        179.8777         estimate D2E/DX2                !
 ! D80   D(14,15,16,17)         -0.017          estimate D2E/DX2                !
 ! D81   D(14,15,16,45)        179.996          estimate D2E/DX2                !
 ! D82   D(44,15,16,17)        179.9449         estimate D2E/DX2                !
 ! D83   D(44,15,16,45)         -0.0421         estimate D2E/DX2                !
 ! D84   D(15,16,17,18)         -0.0376         estimate D2E/DX2                !
 ! D85   D(15,16,17,46)        179.9963         estimate D2E/DX2                !
 ! D86   D(45,16,17,18)        179.9494         estimate D2E/DX2                !
 ! D87   D(45,16,17,46)         -0.0167         estimate D2E/DX2                !
 ! D88   D(16,17,18,19)          0.0349         estimate D2E/DX2                !
 ! D89   D(16,17,18,47)       -179.9487         estimate D2E/DX2                !
 ! D90   D(46,17,18,19)       -179.999          estimate D2E/DX2                !
 ! D91   D(46,17,18,47)          0.0174         estimate D2E/DX2                !
 ! D92   D(17,18,19,14)          0.0215         estimate D2E/DX2                !
 ! D93   D(17,18,19,20)       -179.9238         estimate D2E/DX2                !
 ! D94   D(47,18,19,14)       -179.9949         estimate D2E/DX2                !
 ! D95   D(47,18,19,20)          0.0599         estimate D2E/DX2                !
 ! D96   D(14,19,20,11)         -0.0984         estimate D2E/DX2                !
 ! D97   D(14,19,20,21)       -122.4995         estimate D2E/DX2                !
 ! D98   D(14,19,20,32)        122.1325         estimate D2E/DX2                !
 ! D99   D(18,19,20,11)        179.8514         estimate D2E/DX2                !
 ! D100  D(18,19,20,21)         57.4504         estimate D2E/DX2                !
 ! D101  D(18,19,20,32)        -57.9177         estimate D2E/DX2                !
 ! D102  D(11,20,21,22)        -57.3963         estimate D2E/DX2                !
 ! D103  D(11,20,21,26)        122.6536         estimate D2E/DX2                !
 ! D104  D(19,20,21,22)         58.1307         estimate D2E/DX2                !
 ! D105  D(19,20,21,26)       -121.8193         estimate D2E/DX2                !
 ! D106  D(32,20,21,22)       -179.8481         estimate D2E/DX2                !
 ! D107  D(32,20,21,26)          0.2019         estimate D2E/DX2                !
 ! D108  D(11,20,32,27)       -122.7341         estimate D2E/DX2                !
 ! D109  D(11,20,32,31)         57.2745         estimate D2E/DX2                !
 ! D110  D(19,20,32,27)        121.849          estimate D2E/DX2                !
 ! D111  D(19,20,32,31)        -58.1424         estimate D2E/DX2                !
 ! D112  D(21,20,32,27)         -0.1957         estimate D2E/DX2                !
 ! D113  D(21,20,32,31)        179.8128         estimate D2E/DX2                !
 ! D114  D(20,21,22,23)       -179.9074         estimate D2E/DX2                !
 ! D115  D(20,21,22,48)          0.1108         estimate D2E/DX2                !
 ! D116  D(26,21,22,23)          0.038          estimate D2E/DX2                !
 ! D117  D(26,21,22,48)       -179.9438         estimate D2E/DX2                !
 ! D118  D(20,21,26,25)        179.8978         estimate D2E/DX2                !
 ! D119  D(20,21,26,27)         -0.1401         estimate D2E/DX2                !
 ! D120  D(22,21,26,25)         -0.0564         estimate D2E/DX2                !
 ! D121  D(22,21,26,27)        179.9056         estimate D2E/DX2                !
 ! D122  D(21,22,23,24)          0.0119         estimate D2E/DX2                !
 ! D123  D(21,22,23,49)       -179.9927         estimate D2E/DX2                !
 ! D124  D(48,22,23,24)        179.9937         estimate D2E/DX2                !
 ! D125  D(48,22,23,49)         -0.0109         estimate D2E/DX2                !
 ! D126  D(22,23,24,25)         -0.0446         estimate D2E/DX2                !
 ! D127  D(22,23,24,50)        179.9763         estimate D2E/DX2                !
 ! D128  D(49,23,24,25)        179.96           estimate D2E/DX2                !
 ! D129  D(49,23,24,50)         -0.0191         estimate D2E/DX2                !
 ! D130  D(23,24,25,26)          0.0262         estimate D2E/DX2                !
 ! D131  D(23,24,25,51)       -179.971          estimate D2E/DX2                !
 ! D132  D(50,24,25,26)       -179.9948         estimate D2E/DX2                !
 ! D133  D(50,24,25,51)          0.008          estimate D2E/DX2                !
 ! D134  D(24,25,26,21)          0.0234         estimate D2E/DX2                !
 ! D135  D(24,25,26,27)       -179.9287         estimate D2E/DX2                !
 ! D136  D(51,25,26,21)       -179.9793         estimate D2E/DX2                !
 ! D137  D(51,25,26,27)          0.0685         estimate D2E/DX2                !
 ! D138  D(21,26,27,28)       -179.9368         estimate D2E/DX2                !
 ! D139  D(21,26,27,32)          0.0098         estimate D2E/DX2                !
 ! D140  D(25,26,27,28)          0.0196         estimate D2E/DX2                !
 ! D141  D(25,26,27,32)        179.9662         estimate D2E/DX2                !
 ! D142  D(26,27,28,29)        179.9101         estimate D2E/DX2                !
 ! D143  D(26,27,28,52)         -0.0778         estimate D2E/DX2                !
 ! D144  D(32,27,28,29)         -0.0313         estimate D2E/DX2                !
 ! D145  D(32,27,28,52)        179.9808         estimate D2E/DX2                !
 ! D146  D(26,27,32,20)          0.1242         estimate D2E/DX2                !
 ! D147  D(26,27,32,31)       -179.8836         estimate D2E/DX2                !
 ! D148  D(28,27,32,20)       -179.9222         estimate D2E/DX2                !
 ! D149  D(28,27,32,31)          0.07           estimate D2E/DX2                !
 ! D150  D(27,28,29,30)         -0.0251         estimate D2E/DX2                !
 ! D151  D(27,28,29,53)        179.996          estimate D2E/DX2                !
 ! D152  D(52,28,29,30)        179.9628         estimate D2E/DX2                !
 ! D153  D(52,28,29,53)         -0.0161         estimate D2E/DX2                !
 ! D154  D(28,29,30,31)          0.045          estimate D2E/DX2                !
 ! D155  D(28,29,30,54)       -179.9558         estimate D2E/DX2                !
 ! D156  D(53,29,30,31)       -179.9761         estimate D2E/DX2                !
 ! D157  D(53,29,30,54)          0.0232         estimate D2E/DX2                !
 ! D158  D(29,30,31,32)         -0.0069         estimate D2E/DX2                !
 ! D159  D(29,30,31,55)       -179.993          estimate D2E/DX2                !
 ! D160  D(54,30,31,32)        179.9939         estimate D2E/DX2                !
 ! D161  D(54,30,31,55)          0.0077         estimate D2E/DX2                !
 ! D162  D(30,31,32,20)        179.9407         estimate D2E/DX2                !
 ! D163  D(30,31,32,27)         -0.0499         estimate D2E/DX2                !
 ! D164  D(55,31,32,20)         -0.0731         estimate D2E/DX2                !
 ! D165  D(55,31,32,27)        179.9362         estimate D2E/DX2                !
 ! D166  D(7,33,34,35)        -177.1494         estimate D2E/DX2                !
 ! D167  D(7,33,34,56)          -0.8736         estimate D2E/DX2                !
 ! D168  D(37,33,34,35)         -0.2577         estimate D2E/DX2                !
 ! D169  D(37,33,34,56)        176.0182         estimate D2E/DX2                !
 ! D170  D(7,33,37,1)           35.8399         estimate D2E/DX2                !
 ! D171  D(7,33,37,36)         177.6656         estimate D2E/DX2                !
 ! D172  D(7,33,37,59)         -68.0074         estimate D2E/DX2                !
 ! D173  D(34,33,37,1)        -141.5686         estimate D2E/DX2                !
 ! D174  D(34,33,37,36)          0.257          estimate D2E/DX2                !
 ! D175  D(34,33,37,59)        114.5841         estimate D2E/DX2                !
 ! D176  D(33,34,35,36)          0.1582         estimate D2E/DX2                !
 ! D177  D(33,34,35,57)        179.4783         estimate D2E/DX2                !
 ! D178  D(56,34,35,36)       -176.0697         estimate D2E/DX2                !
 ! D179  D(56,34,35,57)          3.2503         estimate D2E/DX2                !
 ! D180  D(34,35,36,37)          0.0114         estimate D2E/DX2                !
 ! D181  D(34,35,36,58)        178.4133         estimate D2E/DX2                !
 ! D182  D(57,35,36,37)       -179.3066         estimate D2E/DX2                !
 ! D183  D(57,35,36,58)         -0.9046         estimate D2E/DX2                !
 ! D184  D(35,36,37,1)         137.0256         estimate D2E/DX2                !
 ! D185  D(35,36,37,33)         -0.1636         estimate D2E/DX2                !
 ! D186  D(35,36,37,59)       -113.9769         estimate D2E/DX2                !
 ! D187  D(58,36,37,1)         -41.5955         estimate D2E/DX2                !
 ! D188  D(58,36,37,33)       -178.7846         estimate D2E/DX2                !
 ! D189  D(58,36,37,59)         67.402          estimate D2E/DX2                !
 --------------------------------------------------------------------------------
 Trust Radius=3.00D-01 FncErr=1.00D-07 GrdErr=1.00D-06 EigMax=2.50D+02 EigMin=1.00D-04
 Number of steps in this run=    354 maximum allowed number of steps=    354.
 GradGradGradGradGradGradGradGradGradGradGradGradGradGradGradGradGradGrad

 Leave Link  103 at Fri Nov  4 22:20:33 2022, MaxMem=   805306368 cpu:               0.3 elap:               0.1
 (Enter /home/wykgroup/appl/g16/l202.exe)
 Stoichiometry    C34H22BN2
 Framework group  C1[X(C34H22BN2)]
 Deg. of freedom   171
 Full point group                 C1      NOp   1
 Largest Abelian subgroup         C1      NOp   1
 Largest concise Abelian subgroup C1      NOp   1
                         Standard orientation:                         
 ---------------------------------------------------------------------
 Center     Atomic      Atomic             Coordinates (Angstroms)
 Number     Number       Type             X           Y           Z
 ---------------------------------------------------------------------
      1          5           0       -6.312740   -0.434138    0.418794
      2          7           0       -5.488554   -1.526743    0.082190
      3          6           0       -5.874630   -2.833264   -0.128068
      4          6           0       -4.790139   -3.579955   -0.484716
      5          6           0       -3.663759   -2.734654   -0.471215
      6          6           0       -4.096205   -1.469692   -0.114765
      7          6           0       -3.397760   -0.253154    0.092801
      8          6           0       -1.937992   -0.202304    0.075074
      9          6           0       -1.180312   -1.196045    0.703418
     10          6           0        0.203961   -1.162168    0.701233
     11          6           0        0.840601   -0.118201    0.065058
     12          6           0        0.098495    0.893894   -0.561571
     13          6           0       -1.281704    0.856164   -0.559544
     14          6           0        1.026895    1.854455   -1.137399
     15          6           0        0.809699    3.022797   -1.848484
     16          6           0        1.906888    3.751622   -2.279008
     17          6           0        3.197445    3.324375   -2.005730
     18          6           0        3.423020    2.154598   -1.292345
     19          6           0        2.334317    1.428244   -0.863184
     20          6           0        2.320375    0.138545   -0.077769
     21          6           0        3.048213    0.233862    1.240880
     22          6           0        2.806163    1.092660    2.290292
     23          6           0        3.611797    1.002187    3.417458
     24          6           0        4.636042    0.069762    3.485518
     25          6           0        4.881722   -0.796044    2.431857
     26          6           0        4.081817   -0.711826    1.304276
     27          6           0        4.091096   -1.468040    0.061962
     28          6           0        4.902374   -2.503238   -0.372310
     29          6           0        4.673710   -3.043270   -1.627812
     30          6           0        3.655007   -2.561213   -2.435932
     31          6           0        2.838038   -1.523527   -2.007521
     32          6           0        3.063313   -0.984066   -0.760265
     33          6           0       -4.130705    0.904203    0.349519
     34          6           0       -3.796164    2.140353    0.874190
     35          6           0       -4.967736    2.921422    0.968035
     36          6           0       -6.027103    2.207054    0.519809
     37          7           0       -5.579640    0.899433    0.105522
     38          1           0       -6.907149   -3.109130   -0.039746
     39          1           0       -4.791839   -4.625604   -0.725047
     40          1           0       -2.653446   -3.021747   -0.684672
     41          1           0       -1.692036   -1.989946    1.225779
     42          1           0        0.773191   -1.935925    1.196291
     43          1           0       -1.853236    1.625353   -1.057977
     44          1           0       -0.193828    3.360031   -2.062978
     45          1           0        1.755880    4.665646   -2.835184
     46          1           0        4.037514    3.908785   -2.351446
     47          1           0        4.428289    1.821393   -1.078258
     48          1           0        2.007880    1.818707    2.236377
     49          1           0        3.438703    1.666294    4.251611
     50          1           0        5.250183    0.018266    4.372965
     51          1           0        5.680352   -1.520827    2.489857
     52          1           0        5.696660   -2.882556    0.253561
     53          1           0        5.296909   -3.851327   -1.982856
     54          1           0        3.495213   -2.998462   -3.410681
     55          1           0        2.043989   -1.147234   -2.636243
     56          1           0       -2.819483    2.423314    1.210581
     57          1           0       -5.011586    3.924298    1.348177
     58          1           0       -7.067754    2.450567    0.458302
     59          1           0       -5.714013    0.828743   -0.908820
 ---------------------------------------------------------------------
 Rotational constants (GHZ):           0.1847336           0.0653406           0.0592142
 Leave Link  202 at Fri Nov  4 22:20:33 2022, MaxMem=   805306368 cpu:               0.2 elap:               0.1
 (Enter /home/wykgroup/appl/g16/l301.exe)
 Standard basis: 6-31G(d) (6D, 7F)
 Ernie: Thresh=  0.10000D-02 Tol=  0.10000D-05 Strict=F.
 The combination of multiplicity 1 and   245 electrons is impossible.
 Error termination via Lnk1e in /home/wykgroup/appl/g16/l301.exe at Fri Nov  4 22:20:33 2022.
 Job cpu time:       0 days  0 hours  0 minutes  4.2 seconds.
 Elapsed time:       0 days  0 hours  0 minutes  0.7 seconds.
 File lengths (MBytes):  RWF=     10 Int=      0 D2E=      0 Chk=      1 Scr=      1
