 Entering Gaussian System, Link 0=/home/wykgroup/appl/g16/g16
 Input=calculation/no_transfer_pubchem_sampling_6_b3lyp/156420564_rwf.com
 Output=calculation/no_transfer_pubchem_sampling_6_b3lyp/156420564_rwf.log
 Initial command:
 /home/wykgroup/appl/g16/l1.exe "/userdata/scratch/wykgroup/khs/calculation/no_transfer_pubchem_sampling_6_b3lyp/156420564_rwf/Gau-18742.inp" -scrdir="/userdata/scratch/wykgroup/khs/calculation/no_transfer_pubchem_sampling_6_b3lyp/156420564_rwf/"
 Entering Link 1 = /home/wykgroup/appl/g16/l1.exe PID=     18743.
  
 Copyright (c) 1988-2017, Gaussian, Inc.  All Rights Reserved.
  
 This is part of the Gaussian(R) 16 program.  It is based on
 the Gaussian(R) 09 system (copyright 2009, Gaussian, Inc.),
 the Gaussian(R) 03 system (copyright 2003, Gaussian, Inc.),
 the Gaussian(R) 98 system (copyright 1998, Gaussian, Inc.),
 the Gaussian(R) 94 system (copyright 1995, Gaussian, Inc.),
 the Gaussian 92(TM) system (copyright 1992, Gaussian, Inc.),
 the Gaussian 90(TM) system (copyright 1990, Gaussian, Inc.),
 the Gaussian 88(TM) system (copyright 1988, Gaussian, Inc.),
 the Gaussian 86(TM) system (copyright 1986, Carnegie Mellon
 University), and the Gaussian 82(TM) system (copyright 1983,
 Carnegie Mellon University). Gaussian is a federally registered
 trademark of Gaussian, Inc.
  
 This software contains proprietary and confidential information,
 including trade secrets, belonging to Gaussian, Inc.
  
 This software is provided under written license and may be
 used, copied, transmitted, or stored only in accord with that
 written license.
  
 The following legend is applicable only to US Government
 contracts under FAR:
  
                    RESTRICTED RIGHTS LEGEND
  
 Use, reproduction and disclosure by the US Government is
 subject to restrictions as set forth in subparagraphs (a)
 and (c) of the Commercial Computer Software - Restricted
 Rights clause in FAR 52.227-19.
  
 Gaussian, Inc.
 340 Quinnipiac St., Bldg. 40, Wallingford CT 06492
  
  
 ---------------------------------------------------------------
 Warning -- This program may not be used in any manner that
 competes with the business of Gaussian, Inc. or will provide
 assistance to any competitor of Gaussian, Inc.  The licensee
 of this program is prohibited from giving any competitor of
 Gaussian, Inc. access to this program.  By using this program,
 the user acknowledges that Gaussian, Inc. is engaged in the
 business of creating and licensing software in the field of
 computational chemistry and represents and warrants to the
 licensee that it is not a competitor of Gaussian, Inc. and that
 it will not use this program in any manner prohibited above.
 ---------------------------------------------------------------
  

 Cite this work as:
 Gaussian 16, Revision B.01,
 M. J. Frisch, G. W. Trucks, H. B. Schlegel, G. E. Scuseria, 
 M. A. Robb, J. R. Cheeseman, G. Scalmani, V. Barone, 
 G. A. Petersson, H. Nakatsuji, X. Li, M. Caricato, A. V. Marenich, 
 J. Bloino, B. G. Janesko, R. Gomperts, B. Mennucci, H. P. Hratchian, 
 J. V. Ortiz, A. F. Izmaylov, J. L. Sonnenberg, D. Williams-Young, 
 F. Ding, F. Lipparini, F. Egidi, J. Goings, B. Peng, A. Petrone, 
 T. Henderson, D. Ranasinghe, V. G. Zakrzewski, J. Gao, N. Rega, 
 G. Zheng, W. Liang, M. Hada, M. Ehara, K. Toyota, R. Fukuda, 
 J. Hasegawa, M. Ishida, T. Nakajima, Y. Honda, O. Kitao, H. Nakai, 
 T. Vreven, K. Throssell, J. A. Montgomery, Jr., J. E. Peralta, 
 F. Ogliaro, M. J. Bearpark, J. J. Heyd, E. N. Brothers, K. N. Kudin, 
 V. N. Staroverov, T. A. Keith, R. Kobayashi, J. Normand, 
 K. Raghavachari, A. P. Rendell, J. C. Burant, S. S. Iyengar, 
 J. Tomasi, M. Cossi, J. M. Millam, M. Klene, C. Adamo, R. Cammi, 
 J. W. Ochterski, R. L. Martin, K. Morokuma, O. Farkas, 
 J. B. Foresman, and D. J. Fox, Gaussian, Inc., Wallingford CT, 2016.
 
 ******************************************
 Gaussian 16:  ES64L-G16RevB.01 20-Dec-2017
                 5-Nov-2022 
 ******************************************
 %chk=calculation/no_transfer_pubchem_sampling_6_b3lyp/156420564_rwf.chk
 %rwf=calculation/no_transfer_pubchem_sampling_6_b3lyp/156420564_rwf.rwf
 %nprocshared=14
 Will use up to   14 processors via shared memory.
 %mem=3GB
 -------------------------------------------------------------------
 #p b3lyp/6-31g(d) 6D 10F nosymm GFInput td=(50-50,nstate=2) SCF=XQC
 -------------------------------------------------------------------
 1/38=1,172=1/1;
 2/12=2,15=1,17=6,18=5,40=1/2;
 3/5=1,6=6,7=1,8=22,11=9,24=10,25=1,30=1,74=-5/1,2,3,8;
 4//1;
 5/5=2,8=3,13=1,38=5/2,8;
 8/6=1,10=2,108=2/1;
 9/41=2,42=1,48=2,70=2/14;
 6/7=2,8=2,9=2,10=2/1;
 99/5=1,9=1/99;
 Leave Link    1 at Sat Nov  5 09:32:26 2022, MaxMem=   402653184 cpu:               1.2 elap:               0.1
 (Enter /home/wykgroup/appl/g16/l101.exe)
 ------------------------------
 Gaussian input prepared by ASE
 ------------------------------
 Symbolic Z-matrix:
 Charge =  0 Multiplicity = 1
 F                     10.13001   1.23818   0.23832 
 C                     9.49682   0.32569  -0.52891 
 F                     10.21548  -0.82209  -0.41852 
 F                     9.66087   0.76559  -1.80323 
 C                     8.02732   0.09769  -0.21507 
 C                     7.37627   0.65466   0.91517 
 C                     8.03456   1.38936   1.96224 
 C                     7.3449    1.9148    3.02213 
 C                     5.9381    1.76267   3.1286 
 C                     5.26489   1.05594   2.17238 
 C                     5.94229   0.46737   1.05436 
 C                     5.22283  -0.28822   0.10671 
 C                     3.73975  -0.45399   0.25108 
 C                     3.213    -1.52038   1.00901 
 C                     1.84013  -1.69549   1.15436 
 C                     0.97748  -0.79025   0.53242 
 S                    -0.78643  -0.8245    0.58587 
 C                    -0.87041   0.62185  -0.429 
 C                    -2.05292   1.25032  -0.85064 
 C                    -3.40281   0.73051  -0.46225 
 C                    -4.02182   1.19378   0.71946 
 C                    -3.39245   2.15476   1.57548 
 C                    -4.00094   2.59728   2.71944 
 C                    -5.28484   2.10671   3.08601 
 C                    -5.92396   1.18767   2.29754 
 C                    -5.32763   0.69532   1.09111 
 C                    -5.98094  -0.25082   0.27161 
 C                    -7.33302  -0.76832   0.65847 
 C                    -7.45866  -1.91663   1.45464 
 C                    -8.71769  -2.39936   1.81548 
 C                    -9.87113  -1.74088   1.38546 
 C                    -9.75853  -0.59727   0.59277 
 C                    -8.49916  -0.11506   0.23231 
 C                    -5.36256  -0.71052  -0.91154 
 C                    -5.99552  -1.66675  -1.77089 
 C                    -5.3901   -2.10634  -2.91764 
 C                    -4.10565  -1.61692  -3.28383 
 C                    -3.46319  -0.70206  -2.49328 
 C                    -4.05666  -0.21324  -1.28447 
 C                    -1.91687   2.38879  -1.65307 
 C                    -0.65676   2.88193  -2.02098 
 C                     0.50405   2.24745  -1.59463 
 C                     0.40943   1.1036   -0.78908 
 C                     1.47711   0.28691  -0.23291 
 C                     2.86467   0.44235  -0.36527 
 C                     5.89317  -0.90567  -0.96931 
 C                     5.18126  -1.71909  -1.90975 
 C                     5.82275  -2.34047  -2.9452 
 C                     7.22538  -2.18442  -3.09742 
 C                     7.94449  -1.4057   -2.23016 
 C                     7.3176   -0.72261  -1.13287 
 H                     9.10349   1.51652   1.93526 
 H                     7.88829   2.45265   3.79442 
 H                     5.40443   2.19522   3.97018 
 H                     4.19282   0.91984   2.25144 
 H                     3.89586  -2.21678   1.4873 
 H                     1.4514   -2.52236   1.74157 
 H                    -2.41401   2.53278   1.2998 
 H                    -3.50234   3.32639   3.35246 
 H                    -5.75814   2.46474   3.99633 
 H                    -6.90269   0.81617   2.5801 
 H                    -6.56186  -2.43054   1.79037 
 H                    -8.7964   -3.29038   2.43296 
 H                    -10.85147  -2.11654   1.66627 
 H                    -10.65145  -0.07859   0.25358 
 H                    -8.41362   0.77535  -0.38493 
 H                    -6.97496  -2.04166  -1.49535 
 H                    -5.89084  -2.83203  -3.55287 
 H                    -3.63393  -1.97267  -4.19588 
 H                    -2.48468  -0.33076  -2.77772 
 H                    -2.81564   2.89521  -1.9937 
 H                    -0.59066   3.76845  -2.64519 
 H                     1.47794   2.63379  -1.88263 
 H                     3.26722   1.26484  -0.95043 
 H                     4.11232  -1.84086  -1.77982 
 H                     5.26533  -2.95727  -3.64451 
 H                     7.73853  -2.69215  -3.90957 
 H                     9.01105  -1.32349  -2.37627 
 
 ITRead=  0  0  0  0  0  0  0  0  0  0  0  0  0  0  0  0  0  0  0  0
 ITRead=  0  0  0  0  0  0  0  0  0  0  0  0  0  0  0  0  0  0  0  0
 ITRead=  0  0  0  0  0  0  0  0  0  0  0  0  0  0  0  0  0  0  0  0
 ITRead=  0  0  0  0  0  0  0  0  0  0  0  0  0  0  0  0  0  0
 MicOpt= -1 -1 -1 -1 -1 -1 -1 -1 -1 -1 -1 -1 -1 -1 -1 -1 -1 -1 -1 -1
 MicOpt= -1 -1 -1 -1 -1 -1 -1 -1 -1 -1 -1 -1 -1 -1 -1 -1 -1 -1 -1 -1
 MicOpt= -1 -1 -1 -1 -1 -1 -1 -1 -1 -1 -1 -1 -1 -1 -1 -1 -1 -1 -1 -1
 MicOpt= -1 -1 -1 -1 -1 -1 -1 -1 -1 -1 -1 -1 -1 -1 -1 -1 -1 -1
 NAtoms=     78 NQM=       78 NQMF=       0 NMMI=      0 NMMIF=      0
                NMic=       0 NMicF=      0.
                    Isotopes and Nuclear Properties:
 (Nuclear quadrupole moments (NQMom) in fm**2, nuclear magnetic moments (NMagM)
  in nuclear magnetons)

  Atom         1           2           3           4           5           6           7           8           9          10
 IAtWgt=          19          12          19          19          12          12          12          12          12          12
 AtmWgt=  18.9984032  12.0000000  18.9984032  18.9984032  12.0000000  12.0000000  12.0000000  12.0000000  12.0000000  12.0000000
 NucSpn=           1           0           1           1           0           0           0           0           0           0
 AtZEff=  -0.0000000  -0.0000000  -0.0000000  -0.0000000  -0.0000000  -0.0000000  -0.0000000  -0.0000000  -0.0000000  -0.0000000
 NQMom=    0.0000000   0.0000000   0.0000000   0.0000000   0.0000000   0.0000000   0.0000000   0.0000000   0.0000000   0.0000000
 NMagM=    2.6288670   0.0000000   2.6288670   2.6288670   0.0000000   0.0000000   0.0000000   0.0000000   0.0000000   0.0000000
 AtZNuc=   9.0000000   6.0000000   9.0000000   9.0000000   6.0000000   6.0000000   6.0000000   6.0000000   6.0000000   6.0000000

  Atom        11          12          13          14          15          16          17          18          19          20
 IAtWgt=          12          12          12          12          12          12          32          12          12          12
 AtmWgt=  12.0000000  12.0000000  12.0000000  12.0000000  12.0000000  12.0000000  31.9720718  12.0000000  12.0000000  12.0000000
 NucSpn=           0           0           0           0           0           0           0           0           0           0
 AtZEff=  -0.0000000  -0.0000000  -0.0000000  -0.0000000  -0.0000000  -0.0000000  -0.0000000  -0.0000000  -0.0000000  -0.0000000
 NQMom=    0.0000000   0.0000000   0.0000000   0.0000000   0.0000000   0.0000000   0.0000000   0.0000000   0.0000000   0.0000000
 NMagM=    0.0000000   0.0000000   0.0000000   0.0000000   0.0000000   0.0000000   0.0000000   0.0000000   0.0000000   0.0000000
 AtZNuc=   6.0000000   6.0000000   6.0000000   6.0000000   6.0000000   6.0000000  16.0000000   6.0000000   6.0000000   6.0000000

  Atom        21          22          23          24          25          26          27          28          29          30
 IAtWgt=          12          12          12          12          12          12          12          12          12          12
 AtmWgt=  12.0000000  12.0000000  12.0000000  12.0000000  12.0000000  12.0000000  12.0000000  12.0000000  12.0000000  12.0000000
 NucSpn=           0           0           0           0           0           0           0           0           0           0
 AtZEff=  -0.0000000  -0.0000000  -0.0000000  -0.0000000  -0.0000000  -0.0000000  -0.0000000  -0.0000000  -0.0000000  -0.0000000
 NQMom=    0.0000000   0.0000000   0.0000000   0.0000000   0.0000000   0.0000000   0.0000000   0.0000000   0.0000000   0.0000000
 NMagM=    0.0000000   0.0000000   0.0000000   0.0000000   0.0000000   0.0000000   0.0000000   0.0000000   0.0000000   0.0000000
 AtZNuc=   6.0000000   6.0000000   6.0000000   6.0000000   6.0000000   6.0000000   6.0000000   6.0000000   6.0000000   6.0000000

  Atom        31          32          33          34          35          36          37          38          39          40
 IAtWgt=          12          12          12          12          12          12          12          12          12          12
 AtmWgt=  12.0000000  12.0000000  12.0000000  12.0000000  12.0000000  12.0000000  12.0000000  12.0000000  12.0000000  12.0000000
 NucSpn=           0           0           0           0           0           0           0           0           0           0
 AtZEff=  -0.0000000  -0.0000000  -0.0000000  -0.0000000  -0.0000000  -0.0000000  -0.0000000  -0.0000000  -0.0000000  -0.0000000
 NQMom=    0.0000000   0.0000000   0.0000000   0.0000000   0.0000000   0.0000000   0.0000000   0.0000000   0.0000000   0.0000000
 NMagM=    0.0000000   0.0000000   0.0000000   0.0000000   0.0000000   0.0000000   0.0000000   0.0000000   0.0000000   0.0000000
 AtZNuc=   6.0000000   6.0000000   6.0000000   6.0000000   6.0000000   6.0000000   6.0000000   6.0000000   6.0000000   6.0000000

  Atom        41          42          43          44          45          46          47          48          49          50
 IAtWgt=          12          12          12          12          12          12          12          12          12          12
 AtmWgt=  12.0000000  12.0000000  12.0000000  12.0000000  12.0000000  12.0000000  12.0000000  12.0000000  12.0000000  12.0000000
 NucSpn=           0           0           0           0           0           0           0           0           0           0
 AtZEff=  -0.0000000  -0.0000000  -0.0000000  -0.0000000  -0.0000000  -0.0000000  -0.0000000  -0.0000000  -0.0000000  -0.0000000
 NQMom=    0.0000000   0.0000000   0.0000000   0.0000000   0.0000000   0.0000000   0.0000000   0.0000000   0.0000000   0.0000000
 NMagM=    0.0000000   0.0000000   0.0000000   0.0000000   0.0000000   0.0000000   0.0000000   0.0000000   0.0000000   0.0000000
 AtZNuc=   6.0000000   6.0000000   6.0000000   6.0000000   6.0000000   6.0000000   6.0000000   6.0000000   6.0000000   6.0000000

  Atom        51          52          53          54          55          56          57          58          59          60
 IAtWgt=          12           1           1           1           1           1           1           1           1           1
 AtmWgt=  12.0000000   1.0078250   1.0078250   1.0078250   1.0078250   1.0078250   1.0078250   1.0078250   1.0078250   1.0078250
 NucSpn=           0           1           1           1           1           1           1           1           1           1
 AtZEff=  -0.0000000  -0.0000000  -0.0000000  -0.0000000  -0.0000000  -0.0000000  -0.0000000  -0.0000000  -0.0000000  -0.0000000
 NQMom=    0.0000000   0.0000000   0.0000000   0.0000000   0.0000000   0.0000000   0.0000000   0.0000000   0.0000000   0.0000000
 NMagM=    0.0000000   2.7928460   2.7928460   2.7928460   2.7928460   2.7928460   2.7928460   2.7928460   2.7928460   2.7928460
 AtZNuc=   6.0000000   1.0000000   1.0000000   1.0000000   1.0000000   1.0000000   1.0000000   1.0000000   1.0000000   1.0000000

  Atom        61          62          63          64          65          66          67          68          69          70
 IAtWgt=           1           1           1           1           1           1           1           1           1           1
 AtmWgt=   1.0078250   1.0078250   1.0078250   1.0078250   1.0078250   1.0078250   1.0078250   1.0078250   1.0078250   1.0078250
 NucSpn=           1           1           1           1           1           1           1           1           1           1
 AtZEff=  -0.0000000  -0.0000000  -0.0000000  -0.0000000  -0.0000000  -0.0000000  -0.0000000  -0.0000000  -0.0000000  -0.0000000
 NQMom=    0.0000000   0.0000000   0.0000000   0.0000000   0.0000000   0.0000000   0.0000000   0.0000000   0.0000000   0.0000000
 NMagM=    2.7928460   2.7928460   2.7928460   2.7928460   2.7928460   2.7928460   2.7928460   2.7928460   2.7928460   2.7928460
 AtZNuc=   1.0000000   1.0000000   1.0000000   1.0000000   1.0000000   1.0000000   1.0000000   1.0000000   1.0000000   1.0000000

  Atom        71          72          73          74          75          76          77          78
 IAtWgt=           1           1           1           1           1           1           1           1
 AtmWgt=   1.0078250   1.0078250   1.0078250   1.0078250   1.0078250   1.0078250   1.0078250   1.0078250
 NucSpn=           1           1           1           1           1           1           1           1
 AtZEff=  -0.0000000  -0.0000000  -0.0000000  -0.0000000  -0.0000000  -0.0000000  -0.0000000  -0.0000000
 NQMom=    0.0000000   0.0000000   0.0000000   0.0000000   0.0000000   0.0000000   0.0000000   0.0000000
 NMagM=    2.7928460   2.7928460   2.7928460   2.7928460   2.7928460   2.7928460   2.7928460   2.7928460
 AtZNuc=   1.0000000   1.0000000   1.0000000   1.0000000   1.0000000   1.0000000   1.0000000   1.0000000
 Leave Link  101 at Sat Nov  5 09:32:27 2022, MaxMem=   402653184 cpu:               2.0 elap:               0.2
 (Enter /home/wykgroup/appl/g16/l202.exe)
 Symmetry turned off by external request.
 Stoichiometry    C47H27F3S
 Framework group  C1[X(C47H27F3S)]
 Deg. of freedom   228
 Full point group                 C1      NOp   1
                          Input orientation:                          
 ---------------------------------------------------------------------
 Center     Atomic      Atomic             Coordinates (Angstroms)
 Number     Number       Type             X           Y           Z
 ---------------------------------------------------------------------
      1          9           0       10.130007    1.238178    0.238316
      2          6           0        9.496824    0.325688   -0.528913
      3          9           0       10.215478   -0.822087   -0.418521
      4          9           0        9.660873    0.765587   -1.803234
      5          6           0        8.027320    0.097694   -0.215066
      6          6           0        7.376269    0.654663    0.915171
      7          6           0        8.034562    1.389359    1.962243
      8          6           0        7.344896    1.914802    3.022126
      9          6           0        5.938097    1.762671    3.128602
     10          6           0        5.264892    1.055940    2.172377
     11          6           0        5.942294    0.467373    1.054362
     12          6           0        5.222831   -0.288221    0.106706
     13          6           0        3.739746   -0.453994    0.251077
     14          6           0        3.213001   -1.520376    1.009012
     15          6           0        1.840133   -1.695490    1.154356
     16          6           0        0.977479   -0.790252    0.532423
     17         16           0       -0.786427   -0.824503    0.585873
     18          6           0       -0.870413    0.621848   -0.428996
     19          6           0       -2.052922    1.250317   -0.850642
     20          6           0       -3.402814    0.730511   -0.462252
     21          6           0       -4.021816    1.193783    0.719459
     22          6           0       -3.392449    2.154759    1.575485
     23          6           0       -4.000935    2.597279    2.719441
     24          6           0       -5.284838    2.106714    3.086009
     25          6           0       -5.923960    1.187669    2.297539
     26          6           0       -5.327628    0.695315    1.091112
     27          6           0       -5.980940   -0.250821    0.271614
     28          6           0       -7.333021   -0.768317    0.658469
     29          6           0       -7.458656   -1.916629    1.454640
     30          6           0       -8.717689   -2.399364    1.815485
     31          6           0       -9.871134   -1.740883    1.385460
     32          6           0       -9.758527   -0.597269    0.592772
     33          6           0       -8.499156   -0.115059    0.232307
     34          6           0       -5.362560   -0.710523   -0.911537
     35          6           0       -5.995522   -1.666753   -1.770886
     36          6           0       -5.390104   -2.106339   -2.917638
     37          6           0       -4.105655   -1.616925   -3.283831
     38          6           0       -3.463189   -0.702059   -2.493277
     39          6           0       -4.056659   -0.213244   -1.284470
     40          6           0       -1.916869    2.388794   -1.653070
     41          6           0       -0.656756    2.881927   -2.020980
     42          6           0        0.504054    2.247452   -1.594625
     43          6           0        0.409430    1.103603   -0.789082
     44          6           0        1.477111    0.286913   -0.232909
     45          6           0        2.864669    0.442347   -0.365267
     46          6           0        5.893172   -0.905673   -0.969315
     47          6           0        5.181265   -1.719089   -1.909747
     48          6           0        5.822746   -2.340471   -2.945200
     49          6           0        7.225384   -2.184420   -3.097420
     50          6           0        7.944486   -1.405697   -2.230164
     51          6           0        7.317601   -0.722610   -1.132867
     52          1           0        9.103494    1.516524    1.935261
     53          1           0        7.888288    2.452652    3.794416
     54          1           0        5.404433    2.195219    3.970175
     55          1           0        4.192820    0.919841    2.251438
     56          1           0        3.895856   -2.216784    1.487296
     57          1           0        1.451401   -2.522360    1.741566
     58          1           0       -2.414008    2.532779    1.299798
     59          1           0       -3.502337    3.326393    3.352455
     60          1           0       -5.758136    2.464740    3.996334
     61          1           0       -6.902690    0.816175    2.580098
     62          1           0       -6.561863   -2.430537    1.790367
     63          1           0       -8.796398   -3.290378    2.432956
     64          1           0      -10.851465   -2.116536    1.666266
     65          1           0      -10.651449   -0.078589    0.253583
     66          1           0       -8.413618    0.775348   -0.384927
     67          1           0       -6.974957   -2.041663   -1.495351
     68          1           0       -5.890843   -2.832027   -3.552874
     69          1           0       -3.633926   -1.972668   -4.195879
     70          1           0       -2.484681   -0.330757   -2.777715
     71          1           0       -2.815637    2.895206   -1.993703
     72          1           0       -0.590657    3.768447   -2.645194
     73          1           0        1.477936    2.633791   -1.882628
     74          1           0        3.267223    1.264836   -0.950429
     75          1           0        4.112320   -1.840861   -1.779821
     76          1           0        5.265327   -2.957269   -3.644507
     77          1           0        7.738534   -2.692147   -3.909572
     78          1           0        9.011047   -1.323492   -2.376272
 ---------------------------------------------------------------------
 Rotational constants (GHZ):           0.1538584           0.0194632           0.0185254
 Leave Link  202 at Sat Nov  5 09:32:27 2022, MaxMem=   402653184 cpu:               1.2 elap:               0.1
 (Enter /home/wykgroup/appl/g16/l301.exe)
 Standard basis: 6-31G(d) (6D, 10F)
 Ernie: Thresh=  0.10000D-02 Tol=  0.10000D-05 Strict=F.
 AO basis set in the form of general basis input (Overlap normalization):
      1 0
 S   6 1.00       0.000000000000
      0.7001713090D+04  0.1819616901D-02
      0.1051366090D+04  0.1391607961D-01
      0.2392856900D+03  0.6840532453D-01
      0.6739744530D+02  0.2331857601D+00
      0.2151995730D+02  0.4712674392D+00
      0.7403101300D+01  0.3566185462D+00
 SP   3 1.00       0.000000000000
      0.2084795280D+02 -0.1085069751D+00  0.7162872424D-01
      0.4808308340D+01 -0.1464516581D+00  0.3459121027D+00
      0.1344069860D+01  0.1128688581D+01  0.7224699564D+00
 SP   1 1.00       0.000000000000
      0.3581513930D+00  0.1000000000D+01  0.1000000000D+01
 D   1 1.00       0.000000000000
      0.8000000000D+00  0.1000000000D+01
 ****
      2 0
 S   6 1.00       0.000000000000
      0.3047524880D+04  0.1834737132D-02
      0.4573695180D+03  0.1403732281D-01
      0.1039486850D+03  0.6884262226D-01
      0.2921015530D+02  0.2321844432D+00
      0.9286662960D+01  0.4679413484D+00
      0.3163926960D+01  0.3623119853D+00
 SP   3 1.00       0.000000000000
      0.7868272350D+01 -0.1193324198D+00  0.6899906659D-01
      0.1881288540D+01 -0.1608541517D+00  0.3164239610D+00
      0.5442492580D+00  0.1143456438D+01  0.7443082909D+00
 SP   1 1.00       0.000000000000
      0.1687144782D+00  0.1000000000D+01  0.1000000000D+01
 D   1 1.00       0.000000000000
      0.8000000000D+00  0.1000000000D+01
 ****
      3 0
 S   6 1.00       0.000000000000
      0.7001713090D+04  0.1819616901D-02
      0.1051366090D+04  0.1391607961D-01
      0.2392856900D+03  0.6840532453D-01
      0.6739744530D+02  0.2331857601D+00
      0.2151995730D+02  0.4712674392D+00
      0.7403101300D+01  0.3566185462D+00
 SP   3 1.00       0.000000000000
      0.2084795280D+02 -0.1085069751D+00  0.7162872424D-01
      0.4808308340D+01 -0.1464516581D+00  0.3459121027D+00
      0.1344069860D+01  0.1128688581D+01  0.7224699564D+00
 SP   1 1.00       0.000000000000
      0.3581513930D+00  0.1000000000D+01  0.1000000000D+01
 D   1 1.00       0.000000000000
      0.8000000000D+00  0.1000000000D+01
 ****
      4 0
 S   6 1.00       0.000000000000
      0.7001713090D+04  0.1819616901D-02
      0.1051366090D+04  0.1391607961D-01
      0.2392856900D+03  0.6840532453D-01
      0.6739744530D+02  0.2331857601D+00
      0.2151995730D+02  0.4712674392D+00
      0.7403101300D+01  0.3566185462D+00
 SP   3 1.00       0.000000000000
      0.2084795280D+02 -0.1085069751D+00  0.7162872424D-01
      0.4808308340D+01 -0.1464516581D+00  0.3459121027D+00
      0.1344069860D+01  0.1128688581D+01  0.7224699564D+00
 SP   1 1.00       0.000000000000
      0.3581513930D+00  0.1000000000D+01  0.1000000000D+01
 D   1 1.00       0.000000000000
      0.8000000000D+00  0.1000000000D+01
 ****
      5 0
 S   6 1.00       0.000000000000
      0.3047524880D+04  0.1834737132D-02
      0.4573695180D+03  0.1403732281D-01
      0.1039486850D+03  0.6884262226D-01
      0.2921015530D+02  0.2321844432D+00
      0.9286662960D+01  0.4679413484D+00
      0.3163926960D+01  0.3623119853D+00
 SP   3 1.00       0.000000000000
      0.7868272350D+01 -0.1193324198D+00  0.6899906659D-01
      0.1881288540D+01 -0.1608541517D+00  0.3164239610D+00
      0.5442492580D+00  0.1143456438D+01  0.7443082909D+00
 SP   1 1.00       0.000000000000
      0.1687144782D+00  0.1000000000D+01  0.1000000000D+01
 D   1 1.00       0.000000000000
      0.8000000000D+00  0.1000000000D+01
 ****
      6 0
 S   6 1.00       0.000000000000
      0.3047524880D+04  0.1834737132D-02
      0.4573695180D+03  0.1403732281D-01
      0.1039486850D+03  0.6884262226D-01
      0.2921015530D+02  0.2321844432D+00
      0.9286662960D+01  0.4679413484D+00
      0.3163926960D+01  0.3623119853D+00
 SP   3 1.00       0.000000000000
      0.7868272350D+01 -0.1193324198D+00  0.6899906659D-01
      0.1881288540D+01 -0.1608541517D+00  0.3164239610D+00
      0.5442492580D+00  0.1143456438D+01  0.7443082909D+00
 SP   1 1.00       0.000000000000
      0.1687144782D+00  0.1000000000D+01  0.1000000000D+01
 D   1 1.00       0.000000000000
      0.8000000000D+00  0.1000000000D+01
 ****
      7 0
 S   6 1.00       0.000000000000
      0.3047524880D+04  0.1834737132D-02
      0.4573695180D+03  0.1403732281D-01
      0.1039486850D+03  0.6884262226D-01
      0.2921015530D+02  0.2321844432D+00
      0.9286662960D+01  0.4679413484D+00
      0.3163926960D+01  0.3623119853D+00
 SP   3 1.00       0.000000000000
      0.7868272350D+01 -0.1193324198D+00  0.6899906659D-01
      0.1881288540D+01 -0.1608541517D+00  0.3164239610D+00
      0.5442492580D+00  0.1143456438D+01  0.7443082909D+00
 SP   1 1.00       0.000000000000
      0.1687144782D+00  0.1000000000D+01  0.1000000000D+01
 D   1 1.00       0.000000000000
      0.8000000000D+00  0.1000000000D+01
 ****
      8 0
 S   6 1.00       0.000000000000
      0.3047524880D+04  0.1834737132D-02
      0.4573695180D+03  0.1403732281D-01
      0.1039486850D+03  0.6884262226D-01
      0.2921015530D+02  0.2321844432D+00
      0.9286662960D+01  0.4679413484D+00
      0.3163926960D+01  0.3623119853D+00
 SP   3 1.00       0.000000000000
      0.7868272350D+01 -0.1193324198D+00  0.6899906659D-01
      0.1881288540D+01 -0.1608541517D+00  0.3164239610D+00
      0.5442492580D+00  0.1143456438D+01  0.7443082909D+00
 SP   1 1.00       0.000000000000
      0.1687144782D+00  0.1000000000D+01  0.1000000000D+01
 D   1 1.00       0.000000000000
      0.8000000000D+00  0.1000000000D+01
 ****
      9 0
 S   6 1.00       0.000000000000
      0.3047524880D+04  0.1834737132D-02
      0.4573695180D+03  0.1403732281D-01
      0.1039486850D+03  0.6884262226D-01
      0.2921015530D+02  0.2321844432D+00
      0.9286662960D+01  0.4679413484D+00
      0.3163926960D+01  0.3623119853D+00
 SP   3 1.00       0.000000000000
      0.7868272350D+01 -0.1193324198D+00  0.6899906659D-01
      0.1881288540D+01 -0.1608541517D+00  0.3164239610D+00
      0.5442492580D+00  0.1143456438D+01  0.7443082909D+00
 SP   1 1.00       0.000000000000
      0.1687144782D+00  0.1000000000D+01  0.1000000000D+01
 D   1 1.00       0.000000000000
      0.8000000000D+00  0.1000000000D+01
 ****
     10 0
 S   6 1.00       0.000000000000
      0.3047524880D+04  0.1834737132D-02
      0.4573695180D+03  0.1403732281D-01
      0.1039486850D+03  0.6884262226D-01
      0.2921015530D+02  0.2321844432D+00
      0.9286662960D+01  0.4679413484D+00
      0.3163926960D+01  0.3623119853D+00
 SP   3 1.00       0.000000000000
      0.7868272350D+01 -0.1193324198D+00  0.6899906659D-01
      0.1881288540D+01 -0.1608541517D+00  0.3164239610D+00
      0.5442492580D+00  0.1143456438D+01  0.7443082909D+00
 SP   1 1.00       0.000000000000
      0.1687144782D+00  0.1000000000D+01  0.1000000000D+01
 D   1 1.00       0.000000000000
      0.8000000000D+00  0.1000000000D+01
 ****
     11 0
 S   6 1.00       0.000000000000
      0.3047524880D+04  0.1834737132D-02
      0.4573695180D+03  0.1403732281D-01
      0.1039486850D+03  0.6884262226D-01
      0.2921015530D+02  0.2321844432D+00
      0.9286662960D+01  0.4679413484D+00
      0.3163926960D+01  0.3623119853D+00
 SP   3 1.00       0.000000000000
      0.7868272350D+01 -0.1193324198D+00  0.6899906659D-01
      0.1881288540D+01 -0.1608541517D+00  0.3164239610D+00
      0.5442492580D+00  0.1143456438D+01  0.7443082909D+00
 SP   1 1.00       0.000000000000
      0.1687144782D+00  0.1000000000D+01  0.1000000000D+01
 D   1 1.00       0.000000000000
      0.8000000000D+00  0.1000000000D+01
 ****
     12 0
 S   6 1.00       0.000000000000
      0.3047524880D+04  0.1834737132D-02
      0.4573695180D+03  0.1403732281D-01
      0.1039486850D+03  0.6884262226D-01
      0.2921015530D+02  0.2321844432D+00
      0.9286662960D+01  0.4679413484D+00
      0.3163926960D+01  0.3623119853D+00
 SP   3 1.00       0.000000000000
      0.7868272350D+01 -0.1193324198D+00  0.6899906659D-01
      0.1881288540D+01 -0.1608541517D+00  0.3164239610D+00
      0.5442492580D+00  0.1143456438D+01  0.7443082909D+00
 SP   1 1.00       0.000000000000
      0.1687144782D+00  0.1000000000D+01  0.1000000000D+01
 D   1 1.00       0.000000000000
      0.8000000000D+00  0.1000000000D+01
 ****
     13 0
 S   6 1.00       0.000000000000
      0.3047524880D+04  0.1834737132D-02
      0.4573695180D+03  0.1403732281D-01
      0.1039486850D+03  0.6884262226D-01
      0.2921015530D+02  0.2321844432D+00
      0.9286662960D+01  0.4679413484D+00
      0.3163926960D+01  0.3623119853D+00
 SP   3 1.00       0.000000000000
      0.7868272350D+01 -0.1193324198D+00  0.6899906659D-01
      0.1881288540D+01 -0.1608541517D+00  0.3164239610D+00
      0.5442492580D+00  0.1143456438D+01  0.7443082909D+00
 SP   1 1.00       0.000000000000
      0.1687144782D+00  0.1000000000D+01  0.1000000000D+01
 D   1 1.00       0.000000000000
      0.8000000000D+00  0.1000000000D+01
 ****
     14 0
 S   6 1.00       0.000000000000
      0.3047524880D+04  0.1834737132D-02
      0.4573695180D+03  0.1403732281D-01
      0.1039486850D+03  0.6884262226D-01
      0.2921015530D+02  0.2321844432D+00
      0.9286662960D+01  0.4679413484D+00
      0.3163926960D+01  0.3623119853D+00
 SP   3 1.00       0.000000000000
      0.7868272350D+01 -0.1193324198D+00  0.6899906659D-01
      0.1881288540D+01 -0.1608541517D+00  0.3164239610D+00
      0.5442492580D+00  0.1143456438D+01  0.7443082909D+00
 SP   1 1.00       0.000000000000
      0.1687144782D+00  0.1000000000D+01  0.1000000000D+01
 D   1 1.00       0.000000000000
      0.8000000000D+00  0.1000000000D+01
 ****
     15 0
 S   6 1.00       0.000000000000
      0.3047524880D+04  0.1834737132D-02
      0.4573695180D+03  0.1403732281D-01
      0.1039486850D+03  0.6884262226D-01
      0.2921015530D+02  0.2321844432D+00
      0.9286662960D+01  0.4679413484D+00
      0.3163926960D+01  0.3623119853D+00
 SP   3 1.00       0.000000000000
      0.7868272350D+01 -0.1193324198D+00  0.6899906659D-01
      0.1881288540D+01 -0.1608541517D+00  0.3164239610D+00
      0.5442492580D+00  0.1143456438D+01  0.7443082909D+00
 SP   1 1.00       0.000000000000
      0.1687144782D+00  0.1000000000D+01  0.1000000000D+01
 D   1 1.00       0.000000000000
      0.8000000000D+00  0.1000000000D+01
 ****
     16 0
 S   6 1.00       0.000000000000
      0.3047524880D+04  0.1834737132D-02
      0.4573695180D+03  0.1403732281D-01
      0.1039486850D+03  0.6884262226D-01
      0.2921015530D+02  0.2321844432D+00
      0.9286662960D+01  0.4679413484D+00
      0.3163926960D+01  0.3623119853D+00
 SP   3 1.00       0.000000000000
      0.7868272350D+01 -0.1193324198D+00  0.6899906659D-01
      0.1881288540D+01 -0.1608541517D+00  0.3164239610D+00
      0.5442492580D+00  0.1143456438D+01  0.7443082909D+00
 SP   1 1.00       0.000000000000
      0.1687144782D+00  0.1000000000D+01  0.1000000000D+01
 D   1 1.00       0.000000000000
      0.8000000000D+00  0.1000000000D+01
 ****
     17 0
 S   6 1.00       0.000000000000
      0.2191710000D+05  0.1869240849D-02
      0.3301490000D+04  0.1423030646D-01
      0.7541460000D+03  0.6969623166D-01
      0.2127110000D+03  0.2384871083D+00
      0.6798960000D+02  0.4833072195D+00
      0.2305150000D+02  0.3380741536D+00
 SP   6 1.00       0.000000000000
      0.4237350000D+03 -0.2376770499D-02  0.4061009982D-02
      0.1007100000D+03 -0.3169300665D-01  0.3068129986D-01
      0.3215990000D+02 -0.1133170238D+00  0.1304519994D+00
      0.1180790000D+02  0.5609001177D-01  0.3272049985D+00
      0.4631100000D+01  0.5922551243D+00  0.4528509980D+00
      0.1870250000D+01  0.4550060955D+00  0.2560419989D+00
 SP   3 1.00       0.000000000000
      0.2615840000D+01 -0.2503731142D+00 -0.1451048955D-01
      0.9221670000D+00  0.6695676310D-01  0.3102627765D+00
      0.3412870000D+00  0.1054506269D+01  0.7544824565D+00
 SP   1 1.00       0.000000000000
      0.1171670000D+00  0.1000000000D+01  0.1000000000D+01
 D   1 1.00       0.000000000000
      0.6500000000D+00  0.1000000000D+01
 ****
     18 0
 S   6 1.00       0.000000000000
      0.3047524880D+04  0.1834737132D-02
      0.4573695180D+03  0.1403732281D-01
      0.1039486850D+03  0.6884262226D-01
      0.2921015530D+02  0.2321844432D+00
      0.9286662960D+01  0.4679413484D+00
      0.3163926960D+01  0.3623119853D+00
 SP   3 1.00       0.000000000000
      0.7868272350D+01 -0.1193324198D+00  0.6899906659D-01
      0.1881288540D+01 -0.1608541517D+00  0.3164239610D+00
      0.5442492580D+00  0.1143456438D+01  0.7443082909D+00
 SP   1 1.00       0.000000000000
      0.1687144782D+00  0.1000000000D+01  0.1000000000D+01
 D   1 1.00       0.000000000000
      0.8000000000D+00  0.1000000000D+01
 ****
     19 0
 S   6 1.00       0.000000000000
      0.3047524880D+04  0.1834737132D-02
      0.4573695180D+03  0.1403732281D-01
      0.1039486850D+03  0.6884262226D-01
      0.2921015530D+02  0.2321844432D+00
      0.9286662960D+01  0.4679413484D+00
      0.3163926960D+01  0.3623119853D+00
 SP   3 1.00       0.000000000000
      0.7868272350D+01 -0.1193324198D+00  0.6899906659D-01
      0.1881288540D+01 -0.1608541517D+00  0.3164239610D+00
      0.5442492580D+00  0.1143456438D+01  0.7443082909D+00
 SP   1 1.00       0.000000000000
      0.1687144782D+00  0.1000000000D+01  0.1000000000D+01
 D   1 1.00       0.000000000000
      0.8000000000D+00  0.1000000000D+01
 ****
     20 0
 S   6 1.00       0.000000000000
      0.3047524880D+04  0.1834737132D-02
      0.4573695180D+03  0.1403732281D-01
      0.1039486850D+03  0.6884262226D-01
      0.2921015530D+02  0.2321844432D+00
      0.9286662960D+01  0.4679413484D+00
      0.3163926960D+01  0.3623119853D+00
 SP   3 1.00       0.000000000000
      0.7868272350D+01 -0.1193324198D+00  0.6899906659D-01
      0.1881288540D+01 -0.1608541517D+00  0.3164239610D+00
      0.5442492580D+00  0.1143456438D+01  0.7443082909D+00
 SP   1 1.00       0.000000000000
      0.1687144782D+00  0.1000000000D+01  0.1000000000D+01
 D   1 1.00       0.000000000000
      0.8000000000D+00  0.1000000000D+01
 ****
     21 0
 S   6 1.00       0.000000000000
      0.3047524880D+04  0.1834737132D-02
      0.4573695180D+03  0.1403732281D-01
      0.1039486850D+03  0.6884262226D-01
      0.2921015530D+02  0.2321844432D+00
      0.9286662960D+01  0.4679413484D+00
      0.3163926960D+01  0.3623119853D+00
 SP   3 1.00       0.000000000000
      0.7868272350D+01 -0.1193324198D+00  0.6899906659D-01
      0.1881288540D+01 -0.1608541517D+00  0.3164239610D+00
      0.5442492580D+00  0.1143456438D+01  0.7443082909D+00
 SP   1 1.00       0.000000000000
      0.1687144782D+00  0.1000000000D+01  0.1000000000D+01
 D   1 1.00       0.000000000000
      0.8000000000D+00  0.1000000000D+01
 ****
     22 0
 S   6 1.00       0.000000000000
      0.3047524880D+04  0.1834737132D-02
      0.4573695180D+03  0.1403732281D-01
      0.1039486850D+03  0.6884262226D-01
      0.2921015530D+02  0.2321844432D+00
      0.9286662960D+01  0.4679413484D+00
      0.3163926960D+01  0.3623119853D+00
 SP   3 1.00       0.000000000000
      0.7868272350D+01 -0.1193324198D+00  0.6899906659D-01
      0.1881288540D+01 -0.1608541517D+00  0.3164239610D+00
      0.5442492580D+00  0.1143456438D+01  0.7443082909D+00
 SP   1 1.00       0.000000000000
      0.1687144782D+00  0.1000000000D+01  0.1000000000D+01
 D   1 1.00       0.000000000000
      0.8000000000D+00  0.1000000000D+01
 ****
     23 0
 S   6 1.00       0.000000000000
      0.3047524880D+04  0.1834737132D-02
      0.4573695180D+03  0.1403732281D-01
      0.1039486850D+03  0.6884262226D-01
      0.2921015530D+02  0.2321844432D+00
      0.9286662960D+01  0.4679413484D+00
      0.3163926960D+01  0.3623119853D+00
 SP   3 1.00       0.000000000000
      0.7868272350D+01 -0.1193324198D+00  0.6899906659D-01
      0.1881288540D+01 -0.1608541517D+00  0.3164239610D+00
      0.5442492580D+00  0.1143456438D+01  0.7443082909D+00
 SP   1 1.00       0.000000000000
      0.1687144782D+00  0.1000000000D+01  0.1000000000D+01
 D   1 1.00       0.000000000000
      0.8000000000D+00  0.1000000000D+01
 ****
     24 0
 S   6 1.00       0.000000000000
      0.3047524880D+04  0.1834737132D-02
      0.4573695180D+03  0.1403732281D-01
      0.1039486850D+03  0.6884262226D-01
      0.2921015530D+02  0.2321844432D+00
      0.9286662960D+01  0.4679413484D+00
      0.3163926960D+01  0.3623119853D+00
 SP   3 1.00       0.000000000000
      0.7868272350D+01 -0.1193324198D+00  0.6899906659D-01
      0.1881288540D+01 -0.1608541517D+00  0.3164239610D+00
      0.5442492580D+00  0.1143456438D+01  0.7443082909D+00
 SP   1 1.00       0.000000000000
      0.1687144782D+00  0.1000000000D+01  0.1000000000D+01
 D   1 1.00       0.000000000000
      0.8000000000D+00  0.1000000000D+01
 ****
     25 0
 S   6 1.00       0.000000000000
      0.3047524880D+04  0.1834737132D-02
      0.4573695180D+03  0.1403732281D-01
      0.1039486850D+03  0.6884262226D-01
      0.2921015530D+02  0.2321844432D+00
      0.9286662960D+01  0.4679413484D+00
      0.3163926960D+01  0.3623119853D+00
 SP   3 1.00       0.000000000000
      0.7868272350D+01 -0.1193324198D+00  0.6899906659D-01
      0.1881288540D+01 -0.1608541517D+00  0.3164239610D+00
      0.5442492580D+00  0.1143456438D+01  0.7443082909D+00
 SP   1 1.00       0.000000000000
      0.1687144782D+00  0.1000000000D+01  0.1000000000D+01
 D   1 1.00       0.000000000000
      0.8000000000D+00  0.1000000000D+01
 ****
     26 0
 S   6 1.00       0.000000000000
      0.3047524880D+04  0.1834737132D-02
      0.4573695180D+03  0.1403732281D-01
      0.1039486850D+03  0.6884262226D-01
      0.2921015530D+02  0.2321844432D+00
      0.9286662960D+01  0.4679413484D+00
      0.3163926960D+01  0.3623119853D+00
 SP   3 1.00       0.000000000000
      0.7868272350D+01 -0.1193324198D+00  0.6899906659D-01
      0.1881288540D+01 -0.1608541517D+00  0.3164239610D+00
      0.5442492580D+00  0.1143456438D+01  0.7443082909D+00
 SP   1 1.00       0.000000000000
      0.1687144782D+00  0.1000000000D+01  0.1000000000D+01
 D   1 1.00       0.000000000000
      0.8000000000D+00  0.1000000000D+01
 ****
     27 0
 S   6 1.00       0.000000000000
      0.3047524880D+04  0.1834737132D-02
      0.4573695180D+03  0.1403732281D-01
      0.1039486850D+03  0.6884262226D-01
      0.2921015530D+02  0.2321844432D+00
      0.9286662960D+01  0.4679413484D+00
      0.3163926960D+01  0.3623119853D+00
 SP   3 1.00       0.000000000000
      0.7868272350D+01 -0.1193324198D+00  0.6899906659D-01
      0.1881288540D+01 -0.1608541517D+00  0.3164239610D+00
      0.5442492580D+00  0.1143456438D+01  0.7443082909D+00
 SP   1 1.00       0.000000000000
      0.1687144782D+00  0.1000000000D+01  0.1000000000D+01
 D   1 1.00       0.000000000000
      0.8000000000D+00  0.1000000000D+01
 ****
     28 0
 S   6 1.00       0.000000000000
      0.3047524880D+04  0.1834737132D-02
      0.4573695180D+03  0.1403732281D-01
      0.1039486850D+03  0.6884262226D-01
      0.2921015530D+02  0.2321844432D+00
      0.9286662960D+01  0.4679413484D+00
      0.3163926960D+01  0.3623119853D+00
 SP   3 1.00       0.000000000000
      0.7868272350D+01 -0.1193324198D+00  0.6899906659D-01
      0.1881288540D+01 -0.1608541517D+00  0.3164239610D+00
      0.5442492580D+00  0.1143456438D+01  0.7443082909D+00
 SP   1 1.00       0.000000000000
      0.1687144782D+00  0.1000000000D+01  0.1000000000D+01
 D   1 1.00       0.000000000000
      0.8000000000D+00  0.1000000000D+01
 ****
     29 0
 S   6 1.00       0.000000000000
      0.3047524880D+04  0.1834737132D-02
      0.4573695180D+03  0.1403732281D-01
      0.1039486850D+03  0.6884262226D-01
      0.2921015530D+02  0.2321844432D+00
      0.9286662960D+01  0.4679413484D+00
      0.3163926960D+01  0.3623119853D+00
 SP   3 1.00       0.000000000000
      0.7868272350D+01 -0.1193324198D+00  0.6899906659D-01
      0.1881288540D+01 -0.1608541517D+00  0.3164239610D+00
      0.5442492580D+00  0.1143456438D+01  0.7443082909D+00
 SP   1 1.00       0.000000000000
      0.1687144782D+00  0.1000000000D+01  0.1000000000D+01
 D   1 1.00       0.000000000000
      0.8000000000D+00  0.1000000000D+01
 ****
     30 0
 S   6 1.00       0.000000000000
      0.3047524880D+04  0.1834737132D-02
      0.4573695180D+03  0.1403732281D-01
      0.1039486850D+03  0.6884262226D-01
      0.2921015530D+02  0.2321844432D+00
      0.9286662960D+01  0.4679413484D+00
      0.3163926960D+01  0.3623119853D+00
 SP   3 1.00       0.000000000000
      0.7868272350D+01 -0.1193324198D+00  0.6899906659D-01
      0.1881288540D+01 -0.1608541517D+00  0.3164239610D+00
      0.5442492580D+00  0.1143456438D+01  0.7443082909D+00
 SP   1 1.00       0.000000000000
      0.1687144782D+00  0.1000000000D+01  0.1000000000D+01
 D   1 1.00       0.000000000000
      0.8000000000D+00  0.1000000000D+01
 ****
     31 0
 S   6 1.00       0.000000000000
      0.3047524880D+04  0.1834737132D-02
      0.4573695180D+03  0.1403732281D-01
      0.1039486850D+03  0.6884262226D-01
      0.2921015530D+02  0.2321844432D+00
      0.9286662960D+01  0.4679413484D+00
      0.3163926960D+01  0.3623119853D+00
 SP   3 1.00       0.000000000000
      0.7868272350D+01 -0.1193324198D+00  0.6899906659D-01
      0.1881288540D+01 -0.1608541517D+00  0.3164239610D+00
      0.5442492580D+00  0.1143456438D+01  0.7443082909D+00
 SP   1 1.00       0.000000000000
      0.1687144782D+00  0.1000000000D+01  0.1000000000D+01
 D   1 1.00       0.000000000000
      0.8000000000D+00  0.1000000000D+01
 ****
     32 0
 S   6 1.00       0.000000000000
      0.3047524880D+04  0.1834737132D-02
      0.4573695180D+03  0.1403732281D-01
      0.1039486850D+03  0.6884262226D-01
      0.2921015530D+02  0.2321844432D+00
      0.9286662960D+01  0.4679413484D+00
      0.3163926960D+01  0.3623119853D+00
 SP   3 1.00       0.000000000000
      0.7868272350D+01 -0.1193324198D+00  0.6899906659D-01
      0.1881288540D+01 -0.1608541517D+00  0.3164239610D+00
      0.5442492580D+00  0.1143456438D+01  0.7443082909D+00
 SP   1 1.00       0.000000000000
      0.1687144782D+00  0.1000000000D+01  0.1000000000D+01
 D   1 1.00       0.000000000000
      0.8000000000D+00  0.1000000000D+01
 ****
     33 0
 S   6 1.00       0.000000000000
      0.3047524880D+04  0.1834737132D-02
      0.4573695180D+03  0.1403732281D-01
      0.1039486850D+03  0.6884262226D-01
      0.2921015530D+02  0.2321844432D+00
      0.9286662960D+01  0.4679413484D+00
      0.3163926960D+01  0.3623119853D+00
 SP   3 1.00       0.000000000000
      0.7868272350D+01 -0.1193324198D+00  0.6899906659D-01
      0.1881288540D+01 -0.1608541517D+00  0.3164239610D+00
      0.5442492580D+00  0.1143456438D+01  0.7443082909D+00
 SP   1 1.00       0.000000000000
      0.1687144782D+00  0.1000000000D+01  0.1000000000D+01
 D   1 1.00       0.000000000000
      0.8000000000D+00  0.1000000000D+01
 ****
     34 0
 S   6 1.00       0.000000000000
      0.3047524880D+04  0.1834737132D-02
      0.4573695180D+03  0.1403732281D-01
      0.1039486850D+03  0.6884262226D-01
      0.2921015530D+02  0.2321844432D+00
      0.9286662960D+01  0.4679413484D+00
      0.3163926960D+01  0.3623119853D+00
 SP   3 1.00       0.000000000000
      0.7868272350D+01 -0.1193324198D+00  0.6899906659D-01
      0.1881288540D+01 -0.1608541517D+00  0.3164239610D+00
      0.5442492580D+00  0.1143456438D+01  0.7443082909D+00
 SP   1 1.00       0.000000000000
      0.1687144782D+00  0.1000000000D+01  0.1000000000D+01
 D   1 1.00       0.000000000000
      0.8000000000D+00  0.1000000000D+01
 ****
     35 0
 S   6 1.00       0.000000000000
      0.3047524880D+04  0.1834737132D-02
      0.4573695180D+03  0.1403732281D-01
      0.1039486850D+03  0.6884262226D-01
      0.2921015530D+02  0.2321844432D+00
      0.9286662960D+01  0.4679413484D+00
      0.3163926960D+01  0.3623119853D+00
 SP   3 1.00       0.000000000000
      0.7868272350D+01 -0.1193324198D+00  0.6899906659D-01
      0.1881288540D+01 -0.1608541517D+00  0.3164239610D+00
      0.5442492580D+00  0.1143456438D+01  0.7443082909D+00
 SP   1 1.00       0.000000000000
      0.1687144782D+00  0.1000000000D+01  0.1000000000D+01
 D   1 1.00       0.000000000000
      0.8000000000D+00  0.1000000000D+01
 ****
     36 0
 S   6 1.00       0.000000000000
      0.3047524880D+04  0.1834737132D-02
      0.4573695180D+03  0.1403732281D-01
      0.1039486850D+03  0.6884262226D-01
      0.2921015530D+02  0.2321844432D+00
      0.9286662960D+01  0.4679413484D+00
      0.3163926960D+01  0.3623119853D+00
 SP   3 1.00       0.000000000000
      0.7868272350D+01 -0.1193324198D+00  0.6899906659D-01
      0.1881288540D+01 -0.1608541517D+00  0.3164239610D+00
      0.5442492580D+00  0.1143456438D+01  0.7443082909D+00
 SP   1 1.00       0.000000000000
      0.1687144782D+00  0.1000000000D+01  0.1000000000D+01
 D   1 1.00       0.000000000000
      0.8000000000D+00  0.1000000000D+01
 ****
     37 0
 S   6 1.00       0.000000000000
      0.3047524880D+04  0.1834737132D-02
      0.4573695180D+03  0.1403732281D-01
      0.1039486850D+03  0.6884262226D-01
      0.2921015530D+02  0.2321844432D+00
      0.9286662960D+01  0.4679413484D+00
      0.3163926960D+01  0.3623119853D+00
 SP   3 1.00       0.000000000000
      0.7868272350D+01 -0.1193324198D+00  0.6899906659D-01
      0.1881288540D+01 -0.1608541517D+00  0.3164239610D+00
      0.5442492580D+00  0.1143456438D+01  0.7443082909D+00
 SP   1 1.00       0.000000000000
      0.1687144782D+00  0.1000000000D+01  0.1000000000D+01
 D   1 1.00       0.000000000000
      0.8000000000D+00  0.1000000000D+01
 ****
     38 0
 S   6 1.00       0.000000000000
      0.3047524880D+04  0.1834737132D-02
      0.4573695180D+03  0.1403732281D-01
      0.1039486850D+03  0.6884262226D-01
      0.2921015530D+02  0.2321844432D+00
      0.9286662960D+01  0.4679413484D+00
      0.3163926960D+01  0.3623119853D+00
 SP   3 1.00       0.000000000000
      0.7868272350D+01 -0.1193324198D+00  0.6899906659D-01
      0.1881288540D+01 -0.1608541517D+00  0.3164239610D+00
      0.5442492580D+00  0.1143456438D+01  0.7443082909D+00
 SP   1 1.00       0.000000000000
      0.1687144782D+00  0.1000000000D+01  0.1000000000D+01
 D   1 1.00       0.000000000000
      0.8000000000D+00  0.1000000000D+01
 ****
     39 0
 S   6 1.00       0.000000000000
      0.3047524880D+04  0.1834737132D-02
      0.4573695180D+03  0.1403732281D-01
      0.1039486850D+03  0.6884262226D-01
      0.2921015530D+02  0.2321844432D+00
      0.9286662960D+01  0.4679413484D+00
      0.3163926960D+01  0.3623119853D+00
 SP   3 1.00       0.000000000000
      0.7868272350D+01 -0.1193324198D+00  0.6899906659D-01
      0.1881288540D+01 -0.1608541517D+00  0.3164239610D+00
      0.5442492580D+00  0.1143456438D+01  0.7443082909D+00
 SP   1 1.00       0.000000000000
      0.1687144782D+00  0.1000000000D+01  0.1000000000D+01
 D   1 1.00       0.000000000000
      0.8000000000D+00  0.1000000000D+01
 ****
     40 0
 S   6 1.00       0.000000000000
      0.3047524880D+04  0.1834737132D-02
      0.4573695180D+03  0.1403732281D-01
      0.1039486850D+03  0.6884262226D-01
      0.2921015530D+02  0.2321844432D+00
      0.9286662960D+01  0.4679413484D+00
      0.3163926960D+01  0.3623119853D+00
 SP   3 1.00       0.000000000000
      0.7868272350D+01 -0.1193324198D+00  0.6899906659D-01
      0.1881288540D+01 -0.1608541517D+00  0.3164239610D+00
      0.5442492580D+00  0.1143456438D+01  0.7443082909D+00
 SP   1 1.00       0.000000000000
      0.1687144782D+00  0.1000000000D+01  0.1000000000D+01
 D   1 1.00       0.000000000000
      0.8000000000D+00  0.1000000000D+01
 ****
     41 0
 S   6 1.00       0.000000000000
      0.3047524880D+04  0.1834737132D-02
      0.4573695180D+03  0.1403732281D-01
      0.1039486850D+03  0.6884262226D-01
      0.2921015530D+02  0.2321844432D+00
      0.9286662960D+01  0.4679413484D+00
      0.3163926960D+01  0.3623119853D+00
 SP   3 1.00       0.000000000000
      0.7868272350D+01 -0.1193324198D+00  0.6899906659D-01
      0.1881288540D+01 -0.1608541517D+00  0.3164239610D+00
      0.5442492580D+00  0.1143456438D+01  0.7443082909D+00
 SP   1 1.00       0.000000000000
      0.1687144782D+00  0.1000000000D+01  0.1000000000D+01
 D   1 1.00       0.000000000000
      0.8000000000D+00  0.1000000000D+01
 ****
     42 0
 S   6 1.00       0.000000000000
      0.3047524880D+04  0.1834737132D-02
      0.4573695180D+03  0.1403732281D-01
      0.1039486850D+03  0.6884262226D-01
      0.2921015530D+02  0.2321844432D+00
      0.9286662960D+01  0.4679413484D+00
      0.3163926960D+01  0.3623119853D+00
 SP   3 1.00       0.000000000000
      0.7868272350D+01 -0.1193324198D+00  0.6899906659D-01
      0.1881288540D+01 -0.1608541517D+00  0.3164239610D+00
      0.5442492580D+00  0.1143456438D+01  0.7443082909D+00
 SP   1 1.00       0.000000000000
      0.1687144782D+00  0.1000000000D+01  0.1000000000D+01
 D   1 1.00       0.000000000000
      0.8000000000D+00  0.1000000000D+01
 ****
     43 0
 S   6 1.00       0.000000000000
      0.3047524880D+04  0.1834737132D-02
      0.4573695180D+03  0.1403732281D-01
      0.1039486850D+03  0.6884262226D-01
      0.2921015530D+02  0.2321844432D+00
      0.9286662960D+01  0.4679413484D+00
      0.3163926960D+01  0.3623119853D+00
 SP   3 1.00       0.000000000000
      0.7868272350D+01 -0.1193324198D+00  0.6899906659D-01
      0.1881288540D+01 -0.1608541517D+00  0.3164239610D+00
      0.5442492580D+00  0.1143456438D+01  0.7443082909D+00
 SP   1 1.00       0.000000000000
      0.1687144782D+00  0.1000000000D+01  0.1000000000D+01
 D   1 1.00       0.000000000000
      0.8000000000D+00  0.1000000000D+01
 ****
     44 0
 S   6 1.00       0.000000000000
      0.3047524880D+04  0.1834737132D-02
      0.4573695180D+03  0.1403732281D-01
      0.1039486850D+03  0.6884262226D-01
      0.2921015530D+02  0.2321844432D+00
      0.9286662960D+01  0.4679413484D+00
      0.3163926960D+01  0.3623119853D+00
 SP   3 1.00       0.000000000000
      0.7868272350D+01 -0.1193324198D+00  0.6899906659D-01
      0.1881288540D+01 -0.1608541517D+00  0.3164239610D+00
      0.5442492580D+00  0.1143456438D+01  0.7443082909D+00
 SP   1 1.00       0.000000000000
      0.1687144782D+00  0.1000000000D+01  0.1000000000D+01
 D   1 1.00       0.000000000000
      0.8000000000D+00  0.1000000000D+01
 ****
     45 0
 S   6 1.00       0.000000000000
      0.3047524880D+04  0.1834737132D-02
      0.4573695180D+03  0.1403732281D-01
      0.1039486850D+03  0.6884262226D-01
      0.2921015530D+02  0.2321844432D+00
      0.9286662960D+01  0.4679413484D+00
      0.3163926960D+01  0.3623119853D+00
 SP   3 1.00       0.000000000000
      0.7868272350D+01 -0.1193324198D+00  0.6899906659D-01
      0.1881288540D+01 -0.1608541517D+00  0.3164239610D+00
      0.5442492580D+00  0.1143456438D+01  0.7443082909D+00
 SP   1 1.00       0.000000000000
      0.1687144782D+00  0.1000000000D+01  0.1000000000D+01
 D   1 1.00       0.000000000000
      0.8000000000D+00  0.1000000000D+01
 ****
     46 0
 S   6 1.00       0.000000000000
      0.3047524880D+04  0.1834737132D-02
      0.4573695180D+03  0.1403732281D-01
      0.1039486850D+03  0.6884262226D-01
      0.2921015530D+02  0.2321844432D+00
      0.9286662960D+01  0.4679413484D+00
      0.3163926960D+01  0.3623119853D+00
 SP   3 1.00       0.000000000000
      0.7868272350D+01 -0.1193324198D+00  0.6899906659D-01
      0.1881288540D+01 -0.1608541517D+00  0.3164239610D+00
      0.5442492580D+00  0.1143456438D+01  0.7443082909D+00
 SP   1 1.00       0.000000000000
      0.1687144782D+00  0.1000000000D+01  0.1000000000D+01
 D   1 1.00       0.000000000000
      0.8000000000D+00  0.1000000000D+01
 ****
     47 0
 S   6 1.00       0.000000000000
      0.3047524880D+04  0.1834737132D-02
      0.4573695180D+03  0.1403732281D-01
      0.1039486850D+03  0.6884262226D-01
      0.2921015530D+02  0.2321844432D+00
      0.9286662960D+01  0.4679413484D+00
      0.3163926960D+01  0.3623119853D+00
 SP   3 1.00       0.000000000000
      0.7868272350D+01 -0.1193324198D+00  0.6899906659D-01
      0.1881288540D+01 -0.1608541517D+00  0.3164239610D+00
      0.5442492580D+00  0.1143456438D+01  0.7443082909D+00
 SP   1 1.00       0.000000000000
      0.1687144782D+00  0.1000000000D+01  0.1000000000D+01
 D   1 1.00       0.000000000000
      0.8000000000D+00  0.1000000000D+01
 ****
     48 0
 S   6 1.00       0.000000000000
      0.3047524880D+04  0.1834737132D-02
      0.4573695180D+03  0.1403732281D-01
      0.1039486850D+03  0.6884262226D-01
      0.2921015530D+02  0.2321844432D+00
      0.9286662960D+01  0.4679413484D+00
      0.3163926960D+01  0.3623119853D+00
 SP   3 1.00       0.000000000000
      0.7868272350D+01 -0.1193324198D+00  0.6899906659D-01
      0.1881288540D+01 -0.1608541517D+00  0.3164239610D+00
      0.5442492580D+00  0.1143456438D+01  0.7443082909D+00
 SP   1 1.00       0.000000000000
      0.1687144782D+00  0.1000000000D+01  0.1000000000D+01
 D   1 1.00       0.000000000000
      0.8000000000D+00  0.1000000000D+01
 ****
     49 0
 S   6 1.00       0.000000000000
      0.3047524880D+04  0.1834737132D-02
      0.4573695180D+03  0.1403732281D-01
      0.1039486850D+03  0.6884262226D-01
      0.2921015530D+02  0.2321844432D+00
      0.9286662960D+01  0.4679413484D+00
      0.3163926960D+01  0.3623119853D+00
 SP   3 1.00       0.000000000000
      0.7868272350D+01 -0.1193324198D+00  0.6899906659D-01
      0.1881288540D+01 -0.1608541517D+00  0.3164239610D+00
      0.5442492580D+00  0.1143456438D+01  0.7443082909D+00
 SP   1 1.00       0.000000000000
      0.1687144782D+00  0.1000000000D+01  0.1000000000D+01
 D   1 1.00       0.000000000000
      0.8000000000D+00  0.1000000000D+01
 ****
     50 0
 S   6 1.00       0.000000000000
      0.3047524880D+04  0.1834737132D-02
      0.4573695180D+03  0.1403732281D-01
      0.1039486850D+03  0.6884262226D-01
      0.2921015530D+02  0.2321844432D+00
      0.9286662960D+01  0.4679413484D+00
      0.3163926960D+01  0.3623119853D+00
 SP   3 1.00       0.000000000000
      0.7868272350D+01 -0.1193324198D+00  0.6899906659D-01
      0.1881288540D+01 -0.1608541517D+00  0.3164239610D+00
      0.5442492580D+00  0.1143456438D+01  0.7443082909D+00
 SP   1 1.00       0.000000000000
      0.1687144782D+00  0.1000000000D+01  0.1000000000D+01
 D   1 1.00       0.000000000000
      0.8000000000D+00  0.1000000000D+01
 ****
     51 0
 S   6 1.00       0.000000000000
      0.3047524880D+04  0.1834737132D-02
      0.4573695180D+03  0.1403732281D-01
      0.1039486850D+03  0.6884262226D-01
      0.2921015530D+02  0.2321844432D+00
      0.9286662960D+01  0.4679413484D+00
      0.3163926960D+01  0.3623119853D+00
 SP   3 1.00       0.000000000000
      0.7868272350D+01 -0.1193324198D+00  0.6899906659D-01
      0.1881288540D+01 -0.1608541517D+00  0.3164239610D+00
      0.5442492580D+00  0.1143456438D+01  0.7443082909D+00
 SP   1 1.00       0.000000000000
      0.1687144782D+00  0.1000000000D+01  0.1000000000D+01
 D   1 1.00       0.000000000000
      0.8000000000D+00  0.1000000000D+01
 ****
     52 0
 S   3 1.00       0.000000000000
      0.1873113696D+02  0.3349460434D-01
      0.2825394365D+01  0.2347269535D+00
      0.6401216923D+00  0.8137573261D+00
 S   1 1.00       0.000000000000
      0.1612777588D+00  0.1000000000D+01
 ****
     53 0
 S   3 1.00       0.000000000000
      0.1873113696D+02  0.3349460434D-01
      0.2825394365D+01  0.2347269535D+00
      0.6401216923D+00  0.8137573261D+00
 S   1 1.00       0.000000000000
      0.1612777588D+00  0.1000000000D+01
 ****
     54 0
 S   3 1.00       0.000000000000
      0.1873113696D+02  0.3349460434D-01
      0.2825394365D+01  0.2347269535D+00
      0.6401216923D+00  0.8137573261D+00
 S   1 1.00       0.000000000000
      0.1612777588D+00  0.1000000000D+01
 ****
     55 0
 S   3 1.00       0.000000000000
      0.1873113696D+02  0.3349460434D-01
      0.2825394365D+01  0.2347269535D+00
      0.6401216923D+00  0.8137573261D+00
 S   1 1.00       0.000000000000
      0.1612777588D+00  0.1000000000D+01
 ****
     56 0
 S   3 1.00       0.000000000000
      0.1873113696D+02  0.3349460434D-01
      0.2825394365D+01  0.2347269535D+00
      0.6401216923D+00  0.8137573261D+00
 S   1 1.00       0.000000000000
      0.1612777588D+00  0.1000000000D+01
 ****
     57 0
 S   3 1.00       0.000000000000
      0.1873113696D+02  0.3349460434D-01
      0.2825394365D+01  0.2347269535D+00
      0.6401216923D+00  0.8137573261D+00
 S   1 1.00       0.000000000000
      0.1612777588D+00  0.1000000000D+01
 ****
     58 0
 S   3 1.00       0.000000000000
      0.1873113696D+02  0.3349460434D-01
      0.2825394365D+01  0.2347269535D+00
      0.6401216923D+00  0.8137573261D+00
 S   1 1.00       0.000000000000
      0.1612777588D+00  0.1000000000D+01
 ****
     59 0
 S   3 1.00       0.000000000000
      0.1873113696D+02  0.3349460434D-01
      0.2825394365D+01  0.2347269535D+00
      0.6401216923D+00  0.8137573261D+00
 S   1 1.00       0.000000000000
      0.1612777588D+00  0.1000000000D+01
 ****
     60 0
 S   3 1.00       0.000000000000
      0.1873113696D+02  0.3349460434D-01
      0.2825394365D+01  0.2347269535D+00
      0.6401216923D+00  0.8137573261D+00
 S   1 1.00       0.000000000000
      0.1612777588D+00  0.1000000000D+01
 ****
     61 0
 S   3 1.00       0.000000000000
      0.1873113696D+02  0.3349460434D-01
      0.2825394365D+01  0.2347269535D+00
      0.6401216923D+00  0.8137573261D+00
 S   1 1.00       0.000000000000
      0.1612777588D+00  0.1000000000D+01
 ****
     62 0
 S   3 1.00       0.000000000000
      0.1873113696D+02  0.3349460434D-01
      0.2825394365D+01  0.2347269535D+00
      0.6401216923D+00  0.8137573261D+00
 S   1 1.00       0.000000000000
      0.1612777588D+00  0.1000000000D+01
 ****
     63 0
 S   3 1.00       0.000000000000
      0.1873113696D+02  0.3349460434D-01
      0.2825394365D+01  0.2347269535D+00
      0.6401216923D+00  0.8137573261D+00
 S   1 1.00       0.000000000000
      0.1612777588D+00  0.1000000000D+01
 ****
     64 0
 S   3 1.00       0.000000000000
      0.1873113696D+02  0.3349460434D-01
      0.2825394365D+01  0.2347269535D+00
      0.6401216923D+00  0.8137573261D+00
 S   1 1.00       0.000000000000
      0.1612777588D+00  0.1000000000D+01
 ****
     65 0
 S   3 1.00       0.000000000000
      0.1873113696D+02  0.3349460434D-01
      0.2825394365D+01  0.2347269535D+00
      0.6401216923D+00  0.8137573261D+00
 S   1 1.00       0.000000000000
      0.1612777588D+00  0.1000000000D+01
 ****
     66 0
 S   3 1.00       0.000000000000
      0.1873113696D+02  0.3349460434D-01
      0.2825394365D+01  0.2347269535D+00
      0.6401216923D+00  0.8137573261D+00
 S   1 1.00       0.000000000000
      0.1612777588D+00  0.1000000000D+01
 ****
     67 0
 S   3 1.00       0.000000000000
      0.1873113696D+02  0.3349460434D-01
      0.2825394365D+01  0.2347269535D+00
      0.6401216923D+00  0.8137573261D+00
 S   1 1.00       0.000000000000
      0.1612777588D+00  0.1000000000D+01
 ****
     68 0
 S   3 1.00       0.000000000000
      0.1873113696D+02  0.3349460434D-01
      0.2825394365D+01  0.2347269535D+00
      0.6401216923D+00  0.8137573261D+00
 S   1 1.00       0.000000000000
      0.1612777588D+00  0.1000000000D+01
 ****
     69 0
 S   3 1.00       0.000000000000
      0.1873113696D+02  0.3349460434D-01
      0.2825394365D+01  0.2347269535D+00
      0.6401216923D+00  0.8137573261D+00
 S   1 1.00       0.000000000000
      0.1612777588D+00  0.1000000000D+01
 ****
     70 0
 S   3 1.00       0.000000000000
      0.1873113696D+02  0.3349460434D-01
      0.2825394365D+01  0.2347269535D+00
      0.6401216923D+00  0.8137573261D+00
 S   1 1.00       0.000000000000
      0.1612777588D+00  0.1000000000D+01
 ****
     71 0
 S   3 1.00       0.000000000000
      0.1873113696D+02  0.3349460434D-01
      0.2825394365D+01  0.2347269535D+00
      0.6401216923D+00  0.8137573261D+00
 S   1 1.00       0.000000000000
      0.1612777588D+00  0.1000000000D+01
 ****
     72 0
 S   3 1.00       0.000000000000
      0.1873113696D+02  0.3349460434D-01
      0.2825394365D+01  0.2347269535D+00
      0.6401216923D+00  0.8137573261D+00
 S   1 1.00       0.000000000000
      0.1612777588D+00  0.1000000000D+01
 ****
     73 0
 S   3 1.00       0.000000000000
      0.1873113696D+02  0.3349460434D-01
      0.2825394365D+01  0.2347269535D+00
      0.6401216923D+00  0.8137573261D+00
 S   1 1.00       0.000000000000
      0.1612777588D+00  0.1000000000D+01
 ****
     74 0
 S   3 1.00       0.000000000000
      0.1873113696D+02  0.3349460434D-01
      0.2825394365D+01  0.2347269535D+00
      0.6401216923D+00  0.8137573261D+00
 S   1 1.00       0.000000000000
      0.1612777588D+00  0.1000000000D+01
 ****
     75 0
 S   3 1.00       0.000000000000
      0.1873113696D+02  0.3349460434D-01
      0.2825394365D+01  0.2347269535D+00
      0.6401216923D+00  0.8137573261D+00
 S   1 1.00       0.000000000000
      0.1612777588D+00  0.1000000000D+01
 ****
     76 0
 S   3 1.00       0.000000000000
      0.1873113696D+02  0.3349460434D-01
      0.2825394365D+01  0.2347269535D+00
      0.6401216923D+00  0.8137573261D+00
 S   1 1.00       0.000000000000
      0.1612777588D+00  0.1000000000D+01
 ****
     77 0
 S   3 1.00       0.000000000000
      0.1873113696D+02  0.3349460434D-01
      0.2825394365D+01  0.2347269535D+00
      0.6401216923D+00  0.8137573261D+00
 S   1 1.00       0.000000000000
      0.1612777588D+00  0.1000000000D+01
 ****
     78 0
 S   3 1.00       0.000000000000
      0.1873113696D+02  0.3349460434D-01
      0.2825394365D+01  0.2347269535D+00
      0.6401216923D+00  0.8137573261D+00
 S   1 1.00       0.000000000000
      0.1612777588D+00  0.1000000000D+01
 ****

   823 basis functions,  1560 primitive gaussians,   823 cartesian basis functions
   176 alpha electrons      176 beta electrons
       nuclear repulsion energy      5977.6661672738 Hartrees.
 IExCor=  402 DFT=T Ex+Corr=B3LYP ExCW=0 ScaHFX=  0.200000
 ScaDFX=  0.800000  0.720000  1.000000  0.810000 ScalE2=  1.000000  1.000000
 IRadAn=      5 IRanWt=     -1 IRanGd=            0 ICorTp=0 IEmpDi=  4
 NAtoms=   78 NActive=   78 NUniq=   78 SFac= 1.00D+00 NAtFMM=   60 NAOKFM=T Big=T
 Integral buffers will be    131072 words long.
 Regular integral format.
 Two-electron integral symmetry is turned off.
 Leave Link  301 at Sat Nov  5 09:32:27 2022, MaxMem=   402653184 cpu:               1.0 elap:               0.1
 (Enter /home/wykgroup/appl/g16/l302.exe)
 NPDir=0 NMtPBC=     1 NCelOv=     1 NCel=       1 NClECP=     1 NCelD=      1
         NCelK=      1 NCelE2=     1 NClLst=     1 CellRange=     0.0.
 One-electron integrals computed using PRISM.
 NBasis=   823 RedAO= T EigKep=  1.44D-04  NBF=   823
 NBsUse=   823 1.00D-06 EigRej= -1.00D+00 NBFU=   823
 Precomputing XC quadrature grid using
 IXCGrd= 4 IRadAn=           5 IRanWt=          -1 IRanGd=           0 AccXCQ= 0.00D+00.
 Generated NRdTot=       0 NPtTot=           0 NUsed=           0 NTot=          32
 NSgBfM=   751   751   751   751   751 MxSgAt=    78 MxSgA2=    78.
 Leave Link  302 at Sat Nov  5 09:32:28 2022, MaxMem=   402653184 cpu:              19.3 elap:               1.4
 (Enter /home/wykgroup/appl/g16/l303.exe)
 DipDrv:  MaxL=1.
 Leave Link  303 at Sat Nov  5 09:32:29 2022, MaxMem=   402653184 cpu:               1.2 elap:               0.1
 (Enter /home/wykgroup/appl/g16/l308.exe)
 Leave Link  308 at Sat Nov  5 09:32:29 2022, MaxMem=   402653184 cpu:               2.1 elap:               0.2
 (Enter /home/wykgroup/appl/g16/l401.exe)
 ExpMin= 1.17D-01 ExpMax= 2.19D+04 ExpMxC= 3.30D+03 IAcc=3 IRadAn=         5 AccDes= 0.00D+00
 Harris functional with IExCor=  402 and IRadAn=       5 diagonalized for initial guess.
 HarFok:  IExCor=  402 AccDes= 0.00D+00 IRadAn=         5 IDoV= 1 UseB2=F ITyADJ=14
 ICtDFT=  3500011 ScaDFX=  1.000000  1.000000  1.000000  1.000000
 FoFCou: FMM=F IPFlag=           0 FMFlag=      100000 FMFlg1=        2001
         NFxFlg=           0 DoJE=T BraDBF=F KetDBF=T FulRan=T
         wScrn=  0.000000 ICntrl=       500 IOpCl=  0 I1Cent=   200000004 NGrid=           0
         NMat0=    1 NMatS0=      1 NMatT0=    0 NMatD0=    1 NMtDS0=    0 NMtDT0=    0
 Symmetry not used in FoFCou.
 Harris En= -2504.96329656639    
 JPrj=0 DoOrth=F DoCkMO=F.
 Leave Link  401 at Sat Nov  5 09:32:39 2022, MaxMem=   402653184 cpu:             133.3 elap:              10.0
 (Enter /home/wykgroup/appl/g16/l502.exe)
 Two-electron integral symmetry not used.
 Closed shell SCF:
 Using DIIS extrapolation, IDIIS=  1040.
 NGot=   402653184 LenX=   401280305 LenY=   400602153
 Requested convergence on RMS density matrix=1.00D-08 within  32 cycles.
 Requested convergence on MAX density matrix=1.00D-06.
 Requested convergence on             energy=1.00D-06.
 No special actions if energy rises.
 Fock matrices will be formed incrementally for  20 cycles.
 Integral accuracy reduced to 1.0D-05 until final iterations.

 Cycle   1  Pass 0  IDiag  1:
 FoFJK:  IHMeth= 1 ICntrl=       0 DoSepK=F KAlg= 0 I1Cent=           0 FoldK=F
 IRaf= 700000000 NMat=       1 IRICut=       1 DoRegI=T DoRafI=F ISym2E= 0 IDoP0=0 IntGTp=1.
 FoFCou: FMM=T IPFlag=           0 FMFlag=      100000 FMFlg1=        2001
         NFxFlg=           0 DoJE=F BraDBF=F KetDBF=F FulRan=T
         wScrn=  0.000000 ICntrl=         0 IOpCl=  0 I1Cent=           0 NGrid=           0
         NMat0=    1 NMatS0=      1 NMatT0=    0 NMatD0=    1 NMtDS0=    0 NMtDT0=    0
 Symmetry not used in FoFCou.
 FMM levels:  10  Number of levels for PrismC:   9
 E= -2504.05666568811    
 DIIS: error= 3.08D-02 at cycle   1 NSaved=   1.
 NSaved= 1 IEnMin= 1 EnMin= -2504.05666568811     IErMin= 1 ErrMin= 3.08D-02
 ErrMax= 3.08D-02  0.00D+00 EMaxC= 1.00D-01 BMatC= 9.31D-01 BMatP= 9.31D-01
 IDIUse=3 WtCom= 6.92D-01 WtEn= 3.08D-01
 Coeff-Com:  0.100D+01
 Coeff-En:   0.100D+01
 Coeff:      0.100D+01
 Gap=     0.264 Goal=   None    Shift=    0.000
 GapD=    0.264 DampG=1.000 DampE=0.500 DampFc=0.5000 IDamp=-1.
 Damping current iteration by 5.00D-01
 RMSDP=3.29D-03 MaxDP=2.22D-01              OVMax= 2.33D-01

 Cycle   2  Pass 0  IDiag  1:
 RMSU=  1.57D-03    CP:  9.63D-01
 E= -2504.48489517691     Delta-E=       -0.428229488800 Rises=F Damp=T
 DIIS: error= 7.70D-03 at cycle   2 NSaved=   2.
 NSaved= 2 IEnMin= 2 EnMin= -2504.48489517691     IErMin= 2 ErrMin= 7.70D-03
 ErrMax= 7.70D-03  0.00D+00 EMaxC= 1.00D-01 BMatC= 7.88D-02 BMatP= 9.31D-01
 IDIUse=3 WtCom= 9.23D-01 WtEn= 7.70D-02
 Coeff-Com:  0.510D-01 0.949D+00
 Coeff-En:   0.102D+00 0.898D+00
 Coeff:      0.549D-01 0.945D+00
 Gap=     0.227 Goal=   None    Shift=    0.000
 RMSDP=1.33D-03 MaxDP=1.07D-01 DE=-4.28D-01 OVMax= 3.11D-01

 Cycle   3  Pass 0  IDiag  1:
 RMSU=  1.28D-03    CP:  9.35D-01  9.87D-01
 E= -2504.91807463729     Delta-E=       -0.433179460375 Rises=F Damp=F
 DIIS: error= 9.42D-03 at cycle   3 NSaved=   3.
 NSaved= 3 IEnMin= 3 EnMin= -2504.91807463729     IErMin= 2 ErrMin= 7.70D-03
 ErrMax= 9.42D-03  0.00D+00 EMaxC= 1.00D-01 BMatC= 1.10D-01 BMatP= 7.88D-02
 IDIUse=3 WtCom= 9.34D-02 WtEn= 9.07D-01
 Coeff-Com: -0.393D-01 0.566D+00 0.473D+00
 Coeff-En:   0.000D+00 0.000D+00 0.100D+01
 Coeff:     -0.367D-02 0.529D-01 0.951D+00
 Gap=     0.157 Goal=   None    Shift=    0.000
 RMSDP=1.63D-03 MaxDP=1.27D-01 DE=-4.33D-01 OVMax= 3.71D-01

 Cycle   4  Pass 0  IDiag  1:
 RMSU=  1.04D-03    CP:  9.38D-01  1.35D+00  1.21D-01
 E= -2504.43288205755     Delta-E=        0.485192579741 Rises=F Damp=F
 DIIS: error= 2.37D-02 at cycle   4 NSaved=   4.
 NSaved= 4 IEnMin= 3 EnMin= -2504.91807463729     IErMin= 2 ErrMin= 7.70D-03
 ErrMax= 2.37D-02  0.00D+00 EMaxC= 1.00D-01 BMatC= 5.34D-01 BMatP= 7.88D-02
 IDIUse=2 WtCom= 0.00D+00 WtEn= 1.00D+00
 Coeff-En:   0.000D+00 0.000D+00 0.769D+00 0.231D+00
 Coeff:      0.000D+00 0.000D+00 0.769D+00 0.231D+00
 Gap=     0.132 Goal=   None    Shift=    0.000
 RMSDP=8.47D-04 MaxDP=6.67D-02 DE= 4.85D-01 OVMax= 2.31D-01

 Cycle   5  Pass 0  IDiag  1:
 RMSU=  2.00D-04    CP:  9.37D-01  1.18D+00  5.30D-01  4.47D-01
 E= -2505.00223337436     Delta-E=       -0.569351316808 Rises=F Damp=F
 DIIS: error= 4.72D-03 at cycle   5 NSaved=   5.
 NSaved= 5 IEnMin= 5 EnMin= -2505.00223337436     IErMin= 5 ErrMin= 4.72D-03
 ErrMax= 4.72D-03  0.00D+00 EMaxC= 1.00D-01 BMatC= 3.75D-02 BMatP= 7.88D-02
 IDIUse=3 WtCom= 9.53D-01 WtEn= 4.72D-02
 Coeff-Com:  0.118D-01-0.134D-01 0.369D+00 0.112D-01 0.621D+00
 Coeff-En:   0.000D+00 0.000D+00 0.303D+00 0.000D+00 0.697D+00
 Coeff:      0.112D-01-0.127D-01 0.366D+00 0.107D-01 0.625D+00
 Gap=     0.118 Goal=   None    Shift=    0.000
 RMSDP=3.22D-04 MaxDP=3.24D-02 DE=-5.69D-01 OVMax= 6.47D-02

 Cycle   6  Pass 0  IDiag  1:
 RMSU=  8.87D-05    CP:  9.37D-01  1.09D+00  7.02D-01  2.96D-01  5.96D-01
 E= -2505.04297162477     Delta-E=       -0.040738250413 Rises=F Damp=F
 DIIS: error= 1.03D-03 at cycle   6 NSaved=   6.
 NSaved= 6 IEnMin= 6 EnMin= -2505.04297162477     IErMin= 6 ErrMin= 1.03D-03
 ErrMax= 1.03D-03  0.00D+00 EMaxC= 1.00D-01 BMatC= 9.85D-04 BMatP= 3.75D-02
 IDIUse=3 WtCom= 9.90D-01 WtEn= 1.03D-02
 Coeff-Com:  0.622D-02-0.157D-01 0.151D+00-0.356D-01 0.410D+00 0.483D+00
 Coeff-En:   0.000D+00 0.000D+00 0.000D+00 0.000D+00 0.000D+00 0.100D+01
 Coeff:      0.616D-02-0.156D-01 0.150D+00-0.352D-01 0.406D+00 0.489D+00
 Gap=     0.117 Goal=   None    Shift=    0.000
 RMSDP=6.04D-05 MaxDP=3.50D-03 DE=-4.07D-02 OVMax= 1.66D-02

 Cycle   7  Pass 0  IDiag  1:
 RMSU=  3.13D-05    CP:  9.36D-01  1.10D+00  7.06D-01  2.92D-01  7.15D-01
                    CP:  4.89D-01
 E= -2505.04394877476     Delta-E=       -0.000977149990 Rises=F Damp=F
 DIIS: error= 4.23D-04 at cycle   7 NSaved=   7.
 NSaved= 7 IEnMin= 7 EnMin= -2505.04394877476     IErMin= 7 ErrMin= 4.23D-04
 ErrMax= 4.23D-04  0.00D+00 EMaxC= 1.00D-01 BMatC= 1.61D-04 BMatP= 9.85D-04
 IDIUse=3 WtCom= 9.96D-01 WtEn= 4.23D-03
 Coeff-Com:  0.292D-02-0.815D-02 0.648D-01-0.270D-01 0.215D+00 0.340D+00
 Coeff-Com:  0.413D+00
 Coeff-En:   0.000D+00 0.000D+00 0.000D+00 0.000D+00 0.000D+00 0.126D+00
 Coeff-En:   0.874D+00
 Coeff:      0.290D-02-0.812D-02 0.645D-01-0.268D-01 0.214D+00 0.339D+00
 Coeff:      0.415D+00
 Gap=     0.117 Goal=   None    Shift=    0.000
 RMSDP=2.09D-05 MaxDP=1.41D-03 DE=-9.77D-04 OVMax= 6.30D-03

 Cycle   8  Pass 0  IDiag  1:
 RMSU=  9.10D-06    CP:  9.37D-01  1.10D+00  7.06D-01  2.90D-01  7.15D-01
                    CP:  5.73D-01  4.49D-01
 E= -2505.04412930206     Delta-E=       -0.000180527299 Rises=F Damp=F
 DIIS: error= 1.06D-04 at cycle   8 NSaved=   8.
 NSaved= 8 IEnMin= 8 EnMin= -2505.04412930206     IErMin= 8 ErrMin= 1.06D-04
 ErrMax= 1.06D-04  0.00D+00 EMaxC= 1.00D-01 BMatC= 8.54D-06 BMatP= 1.61D-04
 IDIUse=3 WtCom= 9.99D-01 WtEn= 1.06D-03
 Coeff-Com:  0.110D-02-0.301D-02 0.232D-01-0.121D-01 0.827D-01 0.146D+00
 Coeff-Com:  0.240D+00 0.522D+00
 Coeff-En:   0.000D+00 0.000D+00 0.000D+00 0.000D+00 0.000D+00 0.000D+00
 Coeff-En:   0.000D+00 0.100D+01
 Coeff:      0.110D-02-0.301D-02 0.231D-01-0.121D-01 0.826D-01 0.146D+00
 Coeff:      0.240D+00 0.522D+00
 Gap=     0.117 Goal=   None    Shift=    0.000
 RMSDP=6.72D-06 MaxDP=3.84D-04 DE=-1.81D-04 OVMax= 1.72D-03

 Initial convergence to 1.0D-05 achieved.  Increase integral accuracy.
 Cycle   9  Pass 1  IDiag  1:
 E= -2505.04422544326     Delta-E=       -0.000096141206 Rises=F Damp=F
 DIIS: error= 3.30D-04 at cycle   1 NSaved=   1.
 NSaved= 1 IEnMin= 1 EnMin= -2505.04422544326     IErMin= 1 ErrMin= 3.30D-04
 ErrMax= 3.30D-04  0.00D+00 EMaxC= 1.00D-01 BMatC= 3.65D-05 BMatP= 3.65D-05
 IDIUse=3 WtCom= 9.97D-01 WtEn= 3.30D-03
 Coeff-Com:  0.100D+01
 Coeff-En:   0.100D+01
 Coeff:      0.100D+01
 Gap=     0.117 Goal=   None    Shift=    0.000
 RMSDP=6.72D-06 MaxDP=3.84D-04 DE=-9.61D-05 OVMax= 1.99D-03

 Cycle  10  Pass 1  IDiag  1:
 RMSU=  1.82D-04    CP:  1.00D+00
 E= -2505.04423803647     Delta-E=       -0.000012593206 Rises=F Damp=F
 DIIS: error= 1.13D-04 at cycle   2 NSaved=   2.
 NSaved= 2 IEnMin= 2 EnMin= -2505.04423803647     IErMin= 2 ErrMin= 1.13D-04
 ErrMax= 1.13D-04  0.00D+00 EMaxC= 1.00D-01 BMatC= 1.52D-05 BMatP= 3.65D-05
 IDIUse=3 WtCom= 9.99D-01 WtEn= 1.13D-03
 Coeff-Com:  0.331D+00 0.669D+00
 Coeff-En:   0.241D+00 0.759D+00
 Coeff:      0.331D+00 0.669D+00
 Gap=     0.117 Goal=   None    Shift=    0.000
 RMSDP=1.41D-05 MaxDP=7.89D-04 DE=-1.26D-05 OVMax= 3.67D-03

 Cycle  11  Pass 1  IDiag  1:
 RMSU=  1.40D-05    CP:  1.00D+00  1.00D+00
 E= -2505.04422050635     Delta-E=        0.000017530123 Rises=F Damp=F
 DIIS: error= 1.73D-04 at cycle   3 NSaved=   3.
 NSaved= 3 IEnMin= 2 EnMin= -2505.04423803647     IErMin= 2 ErrMin= 1.13D-04
 ErrMax= 1.73D-04  0.00D+00 EMaxC= 1.00D-01 BMatC= 3.01D-05 BMatP= 1.52D-05
 IDIUse=3 WtCom= 4.32D-01 WtEn= 5.68D-01
 Coeff-Com:  0.334D-02 0.584D+00 0.412D+00
 Coeff-En:   0.000D+00 0.619D+00 0.381D+00
 Coeff:      0.144D-02 0.604D+00 0.395D+00
 Gap=     0.117 Goal=   None    Shift=    0.000
 RMSDP=7.83D-06 MaxDP=4.55D-04 DE= 1.75D-05 OVMax= 2.24D-03

 Cycle  12  Pass 1  IDiag  1:
 RMSU=  1.56D-06    CP:  1.00D+00  1.01D+00  4.57D-01
 E= -2505.04425505048     Delta-E=       -0.000034544139 Rises=F Damp=F
 DIIS: error= 2.97D-05 at cycle   4 NSaved=   4.
 NSaved= 4 IEnMin= 4 EnMin= -2505.04425505048     IErMin= 4 ErrMin= 2.97D-05
 ErrMax= 2.97D-05  0.00D+00 EMaxC= 1.00D-01 BMatC= 5.31D-07 BMatP= 1.52D-05
 IDIUse=1 WtCom= 1.00D+00 WtEn= 0.00D+00
 Coeff-Com: -0.337D-02 0.384D+00 0.248D+00 0.371D+00
 Coeff:     -0.337D-02 0.384D+00 0.248D+00 0.371D+00
 Gap=     0.117 Goal=   None    Shift=    0.000
 RMSDP=1.14D-06 MaxDP=1.04D-04 DE=-3.45D-05 OVMax= 1.84D-04

 Cycle  13  Pass 1  IDiag  1:
 RMSU=  3.78D-07    CP:  1.00D+00  1.01D+00  4.19D-01  4.03D-01
 E= -2505.04425563588     Delta-E=       -0.000000585400 Rises=F Damp=F
 DIIS: error= 3.75D-06 at cycle   5 NSaved=   5.
 NSaved= 5 IEnMin= 5 EnMin= -2505.04425563588     IErMin= 5 ErrMin= 3.75D-06
 ErrMax= 3.75D-06  0.00D+00 EMaxC= 1.00D-01 BMatC= 1.13D-08 BMatP= 5.31D-07
 IDIUse=1 WtCom= 1.00D+00 WtEn= 0.00D+00
 Coeff-Com: -0.230D-02 0.236D+00 0.152D+00 0.242D+00 0.372D+00
 Coeff:     -0.230D-02 0.236D+00 0.152D+00 0.242D+00 0.372D+00
 Gap=     0.117 Goal=   None    Shift=    0.000
 RMSDP=1.73D-07 MaxDP=1.38D-05 DE=-5.85D-07 OVMax= 3.31D-05

 Cycle  14  Pass 1  IDiag  1:
 RMSU=  1.29D-07    CP:  1.00D+00  1.01D+00  4.19D-01  4.24D-01  7.06D-01
 E= -2505.04425564793     Delta-E=       -0.000000012045 Rises=F Damp=F
 DIIS: error= 5.88D-07 at cycle   6 NSaved=   6.
 NSaved= 6 IEnMin= 6 EnMin= -2505.04425564793     IErMin= 6 ErrMin= 5.88D-07
 ErrMax= 5.88D-07  0.00D+00 EMaxC= 1.00D-01 BMatC= 4.10D-10 BMatP= 1.13D-08
 IDIUse=1 WtCom= 1.00D+00 WtEn= 0.00D+00
 Coeff-Com: -0.110D-02 0.110D+00 0.707D-01 0.113D+00 0.214D+00 0.494D+00
 Coeff:     -0.110D-02 0.110D+00 0.707D-01 0.113D+00 0.214D+00 0.494D+00
 Gap=     0.117 Goal=   None    Shift=    0.000
 RMSDP=4.78D-08 MaxDP=2.58D-06 DE=-1.20D-08 OVMax= 1.06D-05

 Cycle  15  Pass 1  IDiag  1:
 RMSU=  4.22D-08    CP:  1.00D+00  1.01D+00  4.19D-01  4.22D-01  7.31D-01
                    CP:  8.48D-01
 E= -2505.04425564830     Delta-E=       -0.000000000375 Rises=F Damp=F
 DIIS: error= 3.53D-07 at cycle   7 NSaved=   7.
 NSaved= 7 IEnMin= 7 EnMin= -2505.04425564830     IErMin= 7 ErrMin= 3.53D-07
 ErrMax= 3.53D-07  0.00D+00 EMaxC= 1.00D-01 BMatC= 1.33D-10 BMatP= 4.10D-10
 IDIUse=1 WtCom= 1.00D+00 WtEn= 0.00D+00
 Coeff-Com: -0.269D-03 0.256D-01 0.166D-01 0.263D-01 0.694D-01 0.366D+00
 Coeff-Com:  0.496D+00
 Coeff:     -0.269D-03 0.256D-01 0.166D-01 0.263D-01 0.694D-01 0.366D+00
 Coeff:      0.496D+00
 Gap=     0.117 Goal=   None    Shift=    0.000
 RMSDP=2.18D-08 MaxDP=1.36D-06 DE=-3.75D-10 OVMax= 5.78D-06

 Cycle  16  Pass 1  IDiag  1:
 RMSU=  1.36D-08    CP:  1.00D+00  1.01D+00  4.19D-01  4.24D-01  7.35D-01
                    CP:  8.89D-01  6.26D-01
[...]
 Alpha virt. eigenvalues --    0.12483   0.13186   0.13325   0.14206   0.14405
 Alpha virt. eigenvalues --    0.14442   0.14808   0.14960   0.15490   0.15509
 Alpha virt. eigenvalues --    0.15678   0.16066   0.16256   0.16574   0.16830
 Alpha virt. eigenvalues --    0.17080   0.17678   0.17776   0.18161   0.18283
 Alpha virt. eigenvalues --    0.18442   0.18551   0.19094   0.19109   0.19569
 Alpha virt. eigenvalues --    0.19656   0.19950   0.20741   0.21323   0.21517
 Alpha virt. eigenvalues --    0.22183   0.22914   0.24033   0.24330   0.24663
 Alpha virt. eigenvalues --    0.25249   0.25663   0.26302   0.26516   0.27022
 Alpha virt. eigenvalues --    0.27112   0.27525   0.27659   0.28243   0.28642
 Alpha virt. eigenvalues --    0.29646   0.29994   0.30397   0.30771   0.31085
 Alpha virt. eigenvalues --    0.31585   0.31594   0.32537   0.32713   0.32847
 Alpha virt. eigenvalues --    0.33086   0.33179   0.34373   0.34461   0.35960
 Alpha virt. eigenvalues --    0.36200   0.36257   0.36955   0.37284   0.38415
 Alpha virt. eigenvalues --    0.38578   0.39464   0.39567   0.40055   0.40698
 Alpha virt. eigenvalues --    0.43101   0.44146   0.45039   0.45747   0.45769
 Alpha virt. eigenvalues --    0.46322   0.47151   0.47519   0.48277   0.48678
 Alpha virt. eigenvalues --    0.49679   0.49821   0.50041   0.50829   0.50887
 Alpha virt. eigenvalues --    0.51468   0.51727   0.51880   0.52276   0.52350
 Alpha virt. eigenvalues --    0.52653   0.53059   0.53423   0.53698   0.53745
 Alpha virt. eigenvalues --    0.54046   0.54282   0.54390   0.54796   0.54903
 Alpha virt. eigenvalues --    0.54948   0.55283   0.55557   0.55707   0.56139
 Alpha virt. eigenvalues --    0.56172   0.56474   0.56750   0.57016   0.57044
 Alpha virt. eigenvalues --    0.57334   0.57436   0.57587   0.57757   0.57794
 Alpha virt. eigenvalues --    0.57802   0.57883   0.58258   0.58496   0.59130
 Alpha virt. eigenvalues --    0.59322   0.59655   0.59694   0.59828   0.59957
 Alpha virt. eigenvalues --    0.60145   0.60427   0.60633   0.60682   0.60871
 Alpha virt. eigenvalues --    0.60936   0.61164   0.61328   0.61391   0.61555
 Alpha virt. eigenvalues --    0.61643   0.61765   0.61799   0.62217   0.62272
 Alpha virt. eigenvalues --    0.62365   0.62428   0.62502   0.63250   0.63660
 Alpha virt. eigenvalues --    0.64008   0.64242   0.64738   0.65644   0.66994
 Alpha virt. eigenvalues --    0.67076   0.68233   0.68625   0.68942   0.69075
 Alpha virt. eigenvalues --    0.70320   0.70880   0.71706   0.72443   0.73724
 Alpha virt. eigenvalues --    0.74137   0.74430   0.74839   0.75264   0.75445
 Alpha virt. eigenvalues --    0.75967   0.76220   0.76400   0.76799   0.77144
 Alpha virt. eigenvalues --    0.78390   0.78915   0.79335   0.80998   0.81055
 Alpha virt. eigenvalues --    0.81394   0.81733   0.81941   0.82101   0.82117
 Alpha virt. eigenvalues --    0.82322   0.82830   0.82843   0.83085   0.83593
 Alpha virt. eigenvalues --    0.83745   0.83858   0.84018   0.84271   0.84321
 Alpha virt. eigenvalues --    0.84517   0.84983   0.85622   0.85868   0.86316
 Alpha virt. eigenvalues --    0.86335   0.86648   0.86759   0.86821   0.87016
 Alpha virt. eigenvalues --    0.87274   0.87703   0.88231   0.89750   0.90051
 Alpha virt. eigenvalues --    0.90279   0.90489   0.91152   0.91450   0.91714
 Alpha virt. eigenvalues --    0.91799   0.92156   0.92637   0.92707   0.93541
 Alpha virt. eigenvalues --    0.93744   0.94534   0.94578   0.95051   0.95684
 Alpha virt. eigenvalues --    0.95734   0.96729   0.96977   0.97676   0.98271
 Alpha virt. eigenvalues --    1.00051   1.00409   1.00524   1.01733   1.02116
 Alpha virt. eigenvalues --    1.02563   1.03038   1.03744   1.03865   1.03944
 Alpha virt. eigenvalues --    1.04950   1.05245   1.06141   1.06507   1.06747
 Alpha virt. eigenvalues --    1.07467   1.07960   1.08695   1.09609   1.10359
 Alpha virt. eigenvalues --    1.10408   1.10738   1.10942   1.11615   1.12289
 Alpha virt. eigenvalues --    1.12659   1.12842   1.13183   1.13536   1.14453
 Alpha virt. eigenvalues --    1.14760   1.15344   1.16211   1.16678   1.17287
 Alpha virt. eigenvalues --    1.17839   1.18483   1.18619   1.18822   1.19354
 Alpha virt. eigenvalues --    1.19582   1.19841   1.21097   1.21282   1.22083
 Alpha virt. eigenvalues --    1.22922   1.23436   1.23716   1.24091   1.25345
 Alpha virt. eigenvalues --    1.25574   1.25721   1.26839   1.27210   1.27824
 Alpha virt. eigenvalues --    1.28217   1.28575   1.29341   1.29892   1.31024
 Alpha virt. eigenvalues --    1.31397   1.32178   1.33481   1.33965   1.34202
 Alpha virt. eigenvalues --    1.34737   1.35007   1.35919   1.36625   1.37141
 Alpha virt. eigenvalues --    1.37959   1.38792   1.39109   1.39527   1.40923
 Alpha virt. eigenvalues --    1.41816   1.43118   1.43293   1.43612   1.44068
 Alpha virt. eigenvalues --    1.44326   1.44398   1.44519   1.44751   1.45046
 Alpha virt. eigenvalues --    1.45680   1.46260   1.46739   1.47228   1.47302
 Alpha virt. eigenvalues --    1.47656   1.47950   1.47991   1.48070   1.48209
 Alpha virt. eigenvalues --    1.48417   1.48916   1.49296   1.49338   1.49847
 Alpha virt. eigenvalues --    1.50136   1.50182   1.50354   1.50610   1.51058
 Alpha virt. eigenvalues --    1.51086   1.51814   1.52588   1.53076   1.54186
 Alpha virt. eigenvalues --    1.54344   1.54594   1.55824   1.56409   1.57446
 Alpha virt. eigenvalues --    1.58557   1.60305   1.60482   1.62019   1.63193
 Alpha virt. eigenvalues --    1.64481   1.65872   1.67589   1.67779   1.70085
 Alpha virt. eigenvalues --    1.70678   1.71310   1.73118   1.73652   1.74110
 Alpha virt. eigenvalues --    1.74666   1.76408   1.77030   1.77462   1.77808
 Alpha virt. eigenvalues --    1.78357   1.79297   1.79369   1.79668   1.80173
 Alpha virt. eigenvalues --    1.80567   1.80648   1.81458   1.82302   1.82508
 Alpha virt. eigenvalues --    1.83787   1.84396   1.84735   1.84833   1.85296
 Alpha virt. eigenvalues --    1.85797   1.86190   1.86668   1.87415   1.88287
 Alpha virt. eigenvalues --    1.88682   1.88851   1.89724   1.90127   1.90747
 Alpha virt. eigenvalues --    1.91129   1.91465   1.91660   1.91783   1.92269
 Alpha virt. eigenvalues --    1.92788   1.93188   1.93503   1.93824   1.94119
 Alpha virt. eigenvalues --    1.94795   1.95379   1.95822   1.96147   1.96566
 Alpha virt. eigenvalues --    1.97194   1.97278   1.97665   1.98509   1.98599
 Alpha virt. eigenvalues --    1.98922   1.99172   1.99297   1.99704   2.02007
 Alpha virt. eigenvalues --    2.02407   2.02605   2.04247   2.04619   2.05508
 Alpha virt. eigenvalues --    2.05911   2.06261   2.06306   2.06426   2.07251
 Alpha virt. eigenvalues --    2.07890   2.08366   2.09082   2.09193   2.09672
 Alpha virt. eigenvalues --    2.10722   2.10972   2.12524   2.12757   2.13702
 Alpha virt. eigenvalues --    2.14028   2.14121   2.14423   2.15367   2.15605
 Alpha virt. eigenvalues --    2.16205   2.16348   2.16689   2.17097   2.17730
 Alpha virt. eigenvalues --    2.18079   2.19184   2.20025   2.20702   2.21170
 Alpha virt. eigenvalues --    2.21426   2.21529   2.21993   2.22442   2.23633
 Alpha virt. eigenvalues --    2.24241   2.24321   2.24917   2.25123   2.25589
 Alpha virt. eigenvalues --    2.26244   2.26361   2.26519   2.26566   2.27158
 Alpha virt. eigenvalues --    2.28389   2.29127   2.30209   2.30926   2.30939
 Alpha virt. eigenvalues --    2.31376   2.31766   2.33340   2.33875   2.34518
 Alpha virt. eigenvalues --    2.36279   2.36400   2.37181   2.37537   2.39359
 Alpha virt. eigenvalues --    2.40043   2.40712   2.41092   2.41422   2.41540
 Alpha virt. eigenvalues --    2.42579   2.42893   2.43719   2.44054   2.44589
 Alpha virt. eigenvalues --    2.46210   2.46797   2.47434   2.49191   2.50430
 Alpha virt. eigenvalues --    2.50838   2.51218   2.55898   2.56128   2.57030
 Alpha virt. eigenvalues --    2.57197   2.57891   2.58951   2.60619   2.61160
 Alpha virt. eigenvalues --    2.62247   2.62855   2.63596   2.64067   2.64833
 Alpha virt. eigenvalues --    2.65130   2.65625   2.66427   2.66590   2.67008
 Alpha virt. eigenvalues --    2.67117   2.67314   2.67392   2.67536   2.67920
 Alpha virt. eigenvalues --    2.68901   2.69606   2.69979   2.72641   2.73540
 Alpha virt. eigenvalues --    2.73753   2.73969   2.74875   2.75258   2.75539
 Alpha virt. eigenvalues --    2.75773   2.75796   2.76912   2.77304   2.78191
 Alpha virt. eigenvalues --    2.78591   2.78991   2.79849   2.81114   2.81818
 Alpha virt. eigenvalues --    2.82945   2.83559   2.83964   2.85828   2.86265
 Alpha virt. eigenvalues --    2.86839   2.87347   2.89336   2.93123   2.94919
 Alpha virt. eigenvalues --    2.95812   2.95873   2.97667   2.99478   3.02349
 Alpha virt. eigenvalues --    3.02916   3.03376   3.04089   3.05769   3.05921
 Alpha virt. eigenvalues --    3.06318   3.14129   3.16567   3.17507   3.20242
 Alpha virt. eigenvalues --    3.23011   3.26967   3.28855   3.30520   3.32620
 Alpha virt. eigenvalues --    3.40717   3.45006   3.45653   3.45914   3.49252
 Alpha virt. eigenvalues --    3.51288   3.96141   4.06107   4.07864   4.07953
 Alpha virt. eigenvalues --    4.08539   4.08755   4.09363   4.09647   4.09869
 Alpha virt. eigenvalues --    4.11339   4.11678   4.11895   4.12361   4.12445
 Alpha virt. eigenvalues --    4.12813   4.13078   4.13876   4.13985   4.15205
 Alpha virt. eigenvalues --    4.18735   4.22553   4.23607   4.25896   4.26333
 Alpha virt. eigenvalues --    4.26667   4.28695   4.30425   4.31689   4.32787
 Alpha virt. eigenvalues --    4.33582   4.33786   4.34750   4.35454   4.35758
 Alpha virt. eigenvalues --    4.39390   4.41292   4.43273   4.46450   4.47957
 Alpha virt. eigenvalues --    4.51500   4.53736   4.56860   4.65261   4.65939
 Alpha virt. eigenvalues --    4.69394   4.71760   4.80228   4.88789   4.91765
 Alpha virt. eigenvalues --    4.99336   5.67228
          Condensed to atoms (all electrons):
 Mulliken charges:
               1
     1  F   -0.265554
     2  C    0.805286
     3  F   -0.274230
     4  F   -0.274521
     5  C   -0.131985
     6  C    0.088187
     7  C   -0.206380
     8  C   -0.131168
     9  C   -0.133276
    10  C   -0.195493
    11  C    0.100851
    12  C   -0.067647
    13  C   -0.019911
    14  C   -0.134250
    15  C   -0.188646
    16  C   -0.135234
    17  S    0.235144
    18  C   -0.189348
    19  C   -0.026706
    20  C   -0.110509
    21  C    0.115493
    22  C   -0.194013
    23  C   -0.133955
    24  C   -0.134301
    25  C   -0.197538
    26  C    0.104151
    27  C   -0.076512
    28  C    0.002340
    29  C   -0.147001
    30  C   -0.132573
    31  C   -0.126218
    32  C   -0.132530
    33  C   -0.147219
    34  C    0.104126
    35  C   -0.197537
    36  C   -0.134287
    37  C   -0.133961
    38  C   -0.194027
    39  C    0.115501
    40  C   -0.134365
    41  C   -0.149903
    42  C   -0.167353
    43  C    0.116231
    44  C    0.103648
    45  C   -0.194672
    46  C    0.101993
    47  C   -0.192221
    48  C   -0.133021
    49  C   -0.134804
    50  C   -0.181770
    51  C    0.072172
    52  H    0.159085
    53  H    0.134564
    54  H    0.134638
    55  H    0.152094
    56  H    0.143756
    57  H    0.147947
    58  H    0.146168
    59  H    0.130236
    60  H    0.129960
    61  H    0.147757
    62  H    0.139441
    63  H    0.132979
    64  H    0.131355
    65  H    0.132727
    66  H    0.137813
    67  H    0.147758
    68  H    0.129972
    69  H    0.130259
    70  H    0.146160
    71  H    0.141326
    72  H    0.136359
    73  H    0.138328
    74  H    0.143151
    75  H    0.151531
    76  H    0.134639
    77  H    0.135509
    78  H    0.154007
 Sum of Mulliken charges =  -0.00000
 Mulliken charges with hydrogens summed into heavy atoms:
               1
     1  F   -0.265554
     2  C    0.805286
     3  F   -0.274230
     4  F   -0.274521
     5  C   -0.131985
     6  C    0.088187
     7  C   -0.047295
     8  C    0.003396
     9  C    0.001362
    10  C   -0.043399
    11  C    0.100851
    12  C   -0.067647
    13  C   -0.019911
    14  C    0.009505
    15  C   -0.040699
    16  C   -0.135234
    17  S    0.235144
    18  C   -0.189348
    19  C   -0.026706
    20  C   -0.110509
    21  C    0.115493
    22  C   -0.047846
    23  C   -0.003719
    24  C   -0.004341
    25  C   -0.049781
    26  C    0.104151
    27  C   -0.076512
    28  C    0.002340
    29  C   -0.007560
    30  C    0.000406
    31  C    0.005137
    32  C    0.000197
    33  C   -0.009406
    34  C    0.104126
    35  C   -0.049779
    36  C   -0.004315
    37  C   -0.003702
    38  C   -0.047867
    39  C    0.115501
    40  C    0.006962
    41  C   -0.013543
    42  C   -0.029025
    43  C    0.116231
    44  C    0.103648
    45  C   -0.051521
    46  C    0.101993
    47  C   -0.040691
    48  C    0.001618
    49  C    0.000705
    50  C   -0.027763
    51  C    0.072172
 Electronic spatial extent (au):  <R**2>=          53516.1329
 Charge=             -0.0000 electrons
 Dipole moment (field-independent basis, Debye):
    X=             -3.2445    Y=             -0.0712    Z=              0.3019  Tot=              3.2593
 Quadrupole moment (field-independent basis, Debye-Ang):
   XX=           -301.0889   YY=           -280.3868   ZZ=           -276.4688
   XY=              1.9615   XZ=              1.3415   YZ=              4.7075
 Traceless Quadrupole moment (field-independent basis, Debye-Ang):
   XX=            -15.1074   YY=              5.5947   ZZ=              9.5127
   XY=              1.9615   XZ=              1.3415   YZ=              4.7075
 Octapole moment (field-independent basis, Debye-Ang**2):
  XXX=           -894.6070  YYY=              2.4215  ZZZ=             19.5001  XYY=           -111.7086
  XXY=            -55.5631  XXZ=             83.2693  XZZ=            -70.4238  YZZ=             -2.5856
  YYZ=              6.5774  XYZ=             53.5152
 Hexadecapole moment (field-independent basis, Debye-Ang**3):
 XXXX=         -61905.3297 YYYY=          -4042.2878 ZZZZ=          -5249.3850 XXXY=           -337.3955
 XXXZ=           1095.2778 YYYX=           -674.1742 YYYZ=           -834.4417 ZZZX=           1082.9693
 ZZZY=           -548.9427 XXYY=         -10692.3812 XXZZ=         -10660.8082 YYZZ=          -1333.6398
 XXYZ=             35.5539 YYXZ=            285.8244 ZZXY=           -224.9117
 N-N= 5.977666167274D+03 E-N=-1.779999419682D+04  KE= 2.484298991782D+03
 Leave Link  601 at Sat Nov  5 10:02:20 2022, MaxMem=   402653184 cpu:               2.9 elap:               0.3
 (Enter /home/wykgroup/appl/g16/l9999.exe)
 Electronic transition elements 
                 1             2             3             4 
      1  -0.250498D+04 -0.250498D+04 -0.250494D+04 -0.250493D+04
      2   0.000000D+00  0.000000D+00 -0.114832D+00 -0.197756D+01
      3   0.000000D+00  0.000000D+00 -0.100254D-01 -0.254549D+00
      4   0.000000D+00  0.000000D+00  0.743944D-02  0.189575D+00
      5   0.000000D+00  0.000000D+00  0.131241D-01  0.247393D+00
      6   0.000000D+00  0.000000D+00  0.116628D-02  0.339536D-01
      7   0.000000D+00  0.000000D+00 -0.918494D-03 -0.249499D-01
      8   0.000000D+00  0.000000D+00  0.320933D-04  0.108880D-02
      9   0.000000D+00  0.000000D+00 -0.105144D-01 -0.852232D-02
     10   0.000000D+00  0.000000D+00 -0.153187D-01 -0.273708D-01
     11   0.000000D+00  0.000000D+00  0.339122D-01  0.193120D+01
     12   0.000000D+00  0.000000D+00 -0.918274D-03 -0.426500D-01
     13   0.000000D+00  0.000000D+00  0.420594D-03 -0.994027D-02
     14   0.000000D+00  0.000000D+00 -0.814792D-02 -0.411797D-01
     15   0.000000D+00  0.000000D+00  0.497004D-02  0.265035D-01
     16   0.000000D+00  0.000000D+00  0.114344D-02  0.303660D-01
 1\1\GINC-NODE92\SP\RB3LYP TD-FC\6-31G(d)\C47H27F3S1\WYKGROUP\05-Nov-20
 22\0\\#p b3lyp/6-31g(d) 6D 10F nosymm GFInput td=(50-50,nstate=2) SCF=
 XQC\\Gaussian input prepared by ASE\\0,1\F,0,10.130006786,1.2381782567
 ,0.2383162949\C,0,9.4968240948,0.3256882834,-0.5289126158\F,0,10.21547
 83751,-0.8220873176,-0.4185206395\F,0,9.6608727308,0.7655872838,-1.803
 2338243\C,0,8.0273204975,0.0976944341,-0.215065803\C,0,7.3762687776,0.
 6546634027,0.9151713977\C,0,8.0345615681,1.3893592618,1.9622428295\C,0
 ,7.3448963385,1.9148022018,3.0221264387\C,0,5.9380973351,1.762671128,3
 .1286024212\C,0,5.2648920904,1.0559398544,2.1723770292\C,0,5.942294286
 2,0.467373211,1.0543619263\C,0,5.2228314706,-0.2882207179,0.1067061033
 \C,0,3.7397461781,-0.4539936327,0.251076682\C,0,3.2130007962,-1.520376
 2044,1.0090116758\C,0,1.8401331169,-1.6954902619,1.1543555339\C,0,0.97
 7478985,-0.7902518773,0.5324231409\S,0,-0.7864267432,-0.8245029009,0.5
 858726604\C,0,-0.8704126154,0.6218477925,-0.4289964707\C,0,-2.05292227
 62,1.2503166237,-0.85064165\C,0,-3.4028141829,0.7305110837,-0.46225164
 73\C,0,-4.0218155182,1.1937828269,0.7194587639\C,0,-3.3924487993,2.154
 7593699,1.5754845042\C,0,-4.0009352117,2.5972791666,2.7194406172\C,0,-
 5.2848376181,2.1067136119,3.0860091942\C,0,-5.9239597046,1.1876693314,
 2.2975391447\C,0,-5.3276275456,0.6953151727,1.0911119934\C,0,-5.980940
 1868,-0.2508206915,0.2716141297\C,0,-7.3330209757,-0.7683174474,0.6584
 694478\C,0,-7.4586562441,-1.9166289643,1.454639637\C,0,-8.717688577,-2
 .3993642421,1.8154846747\C,0,-9.8711344742,-1.7408829138,1.3854604033\
 C,0,-9.7585267308,-0.5972689203,0.5927718266\C,0,-8.4991559665,-0.1150
 586953,0.2323066418\C,0,-5.3625604003,-0.7105234587,-0.9115369288\C,0,
 -5.9955216854,-1.666753011,-1.7708859896\C,0,-5.3901040569,-2.10633935
 83,-2.9176380805\C,0,-4.1056547731,-1.6169246428,-3.2838305962\C,0,-3.
 4631885038,-0.7020593136,-2.4932770175\C,0,-4.056658633,-0.2132440959,
 -1.284470481\C,0,-1.9168690341,2.3887943013,-1.6530696197\C,0,-0.65675
 64643,2.8819272435,-2.0209802769\C,0,0.5040543988,2.2474518293,-1.5946
 250011\C,0,0.4094300242,1.1036030297,-0.7890816491\C,0,1.4771114225,0.
 286912828,-0.23290909\C,0,2.8646691504,0.442346588,-0.3652672211\C,0,5
 .8931718878,-0.905673298,-0.9693148891\C,0,5.181264917,-1.7190888362,-
 1.9097471787\C,0,5.8227463953,-2.3404714337,-2.9451997043\C,0,7.225383
 7492,-2.184420173,-3.0974200968\C,0,7.9444861788,-1.4056973489,-2.2301
 642453\C,0,7.3176008248,-0.7226103217,-1.1328669798\H,0,9.103494485,1.
 516523719,1.9352605064\H,0,7.8882875907,2.4526522814,3.7944161962\H,0,
 5.4044333591,2.1952186625,3.9701753957\H,0,4.1928200352,0.9198412032,2
 .251437944\H,0,3.8958555462,-2.2167842156,1.4872964486\H,0,1.451400545
 6,-2.5223604475,1.7415657214\H,0,-2.4140076174,2.5327790385,1.29979759
 93\H,0,-3.5023367107,3.3263932059,3.3524551618\H,0,-5.758136087,2.4647
 403624,3.9963337259\H,0,-6.9026900866,0.8161748369,2.5800981612\H,0,-6
 .5618632561,-2.43053679,1.790366705\H,0,-8.7963975998,-3.2903775871,2.
 4329558491\H,0,-10.8514653327,-2.116536365,1.6662662486\H,0,-10.651449
 0147,-0.0785887221,0.2535830247\H,0,-8.4136183935,0.7753482464,-0.3849
 274296\H,0,-6.9749565611,-2.0416633496,-1.4953514445\H,0,-5.8908427687
 ,-2.8320268116,-3.5528738488\H,0,-3.6339263667,-1.9726676096,-4.195879
 4059\H,0,-2.4846809077,-0.3307573926,-2.7777154331\H,0,-2.8156369051,2
 .895206137,-1.9937033512\H,0,-0.5906569699,3.7684474681,-2.6451938863\
 H,0,1.4779356047,2.6337914755,-1.8826281673\H,0,3.2672225244,1.2648363
 353,-0.9504293226\H,0,4.1123198754,-1.8408611477,-1.7798206839\H,0,5.2
 653272598,-2.9572685635,-3.644507353\H,0,7.7385339352,-2.6921470065,-3
 .9095719941\H,0,9.0110473621,-1.3234920012,-2.3762717835\\Version=ES64
 L-G16RevB.01\HF=-2505.0442556\RMSD=7.104e-09\PG=C01 [X(C47H27F3S1)]\\@


 CHINESE FORTUNE COOKIE OF JAN 1 1967 SAY....
 ALL THINGS ARE DIFFICULT BEFORE THEY ARE EASY.
 WE LEARN SO LITTLE AND FORGET SO MUCH.
 YOU WILL OVERCOME OBSTACLES TO ACHIEVE SUCCESS.
 AH SO.
 Job cpu time:       0 days  5 hours 24 minutes 41.9 seconds.
 Elapsed time:       0 days  0 hours 29 minutes 50.4 seconds.
 File lengths (MBytes):  RWF=   3660 Int=      0 D2E=      0 Chk=    138 Scr=      1
 Normal termination of Gaussian 16 at Sat Nov  5 10:02:20 2022.
