 Entering Gaussian System, Link 0=/home/wykgroup/appl/g16/g16
 Input=./calculation/no_transfer_pubchem_sampling_6_b3lyp/158895219.com
 Output=./calculation/no_transfer_pubchem_sampling_6_b3lyp/158895219.log
 Initial command:
 /home/wykgroup/appl/g16/l1.exe "/userdata/scratch/wykgroup/khs/./calculation/no_transfer_pubchem_sampling_6_b3lyp/158895219/Gau-11085.inp" -scrdir="/userdata/scratch/wykgroup/khs/./calculation/no_transfer_pubchem_sampling_6_b3lyp/158895219/"
 Entering Link 1 = /home/wykgroup/appl/g16/l1.exe PID=     11086.
  
 Copyright (c) 1988-2017, Gaussian, Inc.  All Rights Reserved.
  
 This is part of the Gaussian(R) 16 program.  It is based on
 the Gaussian(R) 09 system (copyright 2009, Gaussian, Inc.),
 the Gaussian(R) 03 system (copyright 2003, Gaussian, Inc.),
 the Gaussian(R) 98 system (copyright 1998, Gaussian, Inc.),
 the Gaussian(R) 94 system (copyright 1995, Gaussian, Inc.),
 the Gaussian 92(TM) system (copyright 1992, Gaussian, Inc.),
 the Gaussian 90(TM) system (copyright 1990, Gaussian, Inc.),
 the Gaussian 88(TM) system (copyright 1988, Gaussian, Inc.),
 the Gaussian 86(TM) system (copyright 1986, Carnegie Mellon
 University), and the Gaussian 82(TM) system (copyright 1983,
 Carnegie Mellon University). Gaussian is a federally registered
 trademark of Gaussian, Inc.
  
 This software contains proprietary and confidential information,
 including trade secrets, belonging to Gaussian, Inc.
  
 This software is provided under written license and may be
 used, copied, transmitted, or stored only in accord with that
 written license.
  
 The following legend is applicable only to US Government
 contracts under FAR:
  
                    RESTRICTED RIGHTS LEGEND
  
 Use, reproduction and disclosure by the US Government is
 subject to restrictions as set forth in subparagraphs (a)
 and (c) of the Commercial Computer Software - Restricted
 Rights clause in FAR 52.227-19.
  
 Gaussian, Inc.
 340 Quinnipiac St., Bldg. 40, Wallingford CT 06492
  
  
 ---------------------------------------------------------------
 Warning -- This program may not be used in any manner that
 competes with the business of Gaussian, Inc. or will provide
 assistance to any competitor of Gaussian, Inc.  The licensee
 of this program is prohibited from giving any competitor of
 Gaussian, Inc. access to this program.  By using this program,
 the user acknowledges that Gaussian, Inc. is engaged in the
 business of creating and licensing software in the field of
 computational chemistry and represents and warrants to the
 licensee that it is not a competitor of Gaussian, Inc. and that
 it will not use this program in any manner prohibited above.
 ---------------------------------------------------------------
  

 Cite this work as:
 Gaussian 16, Revision B.01,
 M. J. Frisch, G. W. Trucks, H. B. Schlegel, G. E. Scuseria, 
 M. A. Robb, J. R. Cheeseman, G. Scalmani, V. Barone, 
 G. A. Petersson, H. Nakatsuji, X. Li, M. Caricato, A. V. Marenich, 
 J. Bloino, B. G. Janesko, R. Gomperts, B. Mennucci, H. P. Hratchian, 
 J. V. Ortiz, A. F. Izmaylov, J. L. Sonnenberg, D. Williams-Young, 
 F. Ding, F. Lipparini, F. Egidi, J. Goings, B. Peng, A. Petrone, 
 T. Henderson, D. Ranasinghe, V. G. Zakrzewski, J. Gao, N. Rega, 
 G. Zheng, W. Liang, M. Hada, M. Ehara, K. Toyota, R. Fukuda, 
 J. Hasegawa, M. Ishida, T. Nakajima, Y. Honda, O. Kitao, H. Nakai, 
 T. Vreven, K. Throssell, J. A. Montgomery, Jr., J. E. Peralta, 
 F. Ogliaro, M. J. Bearpark, J. J. Heyd, E. N. Brothers, K. N. Kudin, 
 V. N. Staroverov, T. A. Keith, R. Kobayashi, J. Normand, 
 K. Raghavachari, A. P. Rendell, J. C. Burant, S. S. Iyengar, 
 J. Tomasi, M. Cossi, J. M. Millam, M. Klene, C. Adamo, R. Cammi, 
 J. W. Ochterski, R. L. Martin, K. Morokuma, O. Farkas, 
 J. B. Foresman, and D. J. Fox, Gaussian, Inc., Wallingford CT, 2016.
 
 ******************************************
 Gaussian 16:  ES64L-G16RevB.01 20-Dec-2017
                 4-Nov-2022 
 ******************************************
 %chk=./calculation/no_transfer_pubchem_sampling_6_b3lyp/158895219.chk
 %nprocshared=7
 Will use up to    7 processors via shared memory.
 %mem=6GB
 -----------------------------
 #p b3lyp/6-31g(d) opt SCF=XQC
 -----------------------------
 1/18=20,19=15,26=3,38=1/1,3;
 2/9=110,12=2,17=6,18=5,40=1/2;
 3/5=1,6=6,7=1,11=2,25=1,30=1,71=1,74=-5/1,2,3;
 4//1;
 5/5=2,8=3,13=1,38=5/2,8;
 6/7=2,8=2,9=2,10=2,28=1/1;
 7//1,2,3,16;
 1/18=20,19=15,26=3/3(2);
 2/9=110/2;
 99//99;
 2/9=110/2;
 3/5=1,6=6,7=1,11=2,25=1,30=1,71=1,74=-5/1,2,3;
 4/5=5,16=3,69=1/1;
 5/5=2,8=3,13=1,38=5/2,8;
 7//1,2,3,16;
 1/18=20,19=15,26=3/3(-5);
 2/9=110/2;
 6/7=2,8=2,9=2,10=2,19=2,28=1/1;
 99/9=1/99;
 Leave Link    1 at Fri Nov  4 21:53:03 2022, MaxMem=   805306368 cpu:               1.0 elap:               0.2
 (Enter /home/wykgroup/appl/g16/l101.exe)
 ------------------------------
 Gaussian input prepared by ASE
 ------------------------------
 Symbolic Z-matrix:
 Charge =  0 Multiplicity = 1
 C                     4.52327   0.76609   2.2589 
 C                     3.94913   0.96935   0.8839 
 C                     4.13606   2.19548   0.25932 
 C                     3.6616    2.42257  -1.01886 
 C                     2.99946   1.41278  -1.68938 
 C                     2.78827   0.17916  -1.08962 
 C                     2.08343  -0.89842  -1.85546 
 C                     3.26156  -0.04504   0.20854 
 C                     3.00731  -1.37919   0.85792 
 C                     1.55328  -1.57529   1.24198 
 O                     0.90051  -2.5466    0.89454 
 C                     0.86809  -0.42847   1.97514 
 N                    -0.04164   0.17937   1.02339 
 C                     0.32085   1.3088    0.31954 
 C                    -0.30214   1.6453   -0.84123 
 C                    -1.32432   0.84224  -1.36483 
 C                    -1.71949  -0.28993  -0.63116 
 C                    -2.87012  -1.15115  -1.08266 
 C                    -4.06197  -0.8916   -0.19911 
 C                    -4.74662   0.31414  -0.29168 
 C                    -5.8235    0.57796   0.53433 
 C                    -6.23012  -0.36134   1.46728 
 C                    -5.55175  -1.56331   1.56935 
 C                    -4.47313  -1.82493   0.74238 
 C                    -1.08982  -0.5824    0.54416 
 H                     4.99048   1.68403   2.60753 
 H                     5.28517  -0.01336   2.24352 
 H                     3.76197   0.47885   2.98355 
 H                     4.66535   2.98041   0.78076 
 H                     3.81511   3.38145  -1.49132 
 H                     2.63649   1.58122  -2.69275 
 H                     1.70704  -0.50898  -2.79792 
 H                     1.24516  -1.30637  -1.29614 
 H                     2.76693  -1.72011  -2.07203 
 H                     3.60255  -1.4829    1.76656 
 H                     3.28106  -2.19155   0.18141 
 H                     1.57138   0.32295   2.32954 
 H                     0.28184  -0.82401   2.81329 
 H                     1.10955   1.90287   0.75112 
 H                    -0.00027   2.54494  -1.35408 
 H                    -1.80352   1.09425  -2.2953 
 H                    -2.58717  -2.20327  -1.0227 
 H                    -3.11541  -0.91276  -2.11914 
 H                    -4.42911   1.05047  -1.01608 
 H                    -6.34855   1.51853   0.45013 
 H                    -7.07261  -0.15688   2.11155 
 H                    -5.86395  -2.30053   2.29491 
 H                    -3.9486   -2.76634   0.82582 
 H                    -1.3691   -1.42848   1.14893 
 
 ITRead=  0  0  0  0  0  0  0  0  0  0  0  0  0  0  0  0  0  0  0  0
 ITRead=  0  0  0  0  0  0  0  0  0  0  0  0  0  0  0  0  0  0  0  0
 ITRead=  0  0  0  0  0  0  0  0  0
 MicOpt= -1 -1 -1 -1 -1 -1 -1 -1 -1 -1 -1 -1 -1 -1 -1 -1 -1 -1 -1 -1
 MicOpt= -1 -1 -1 -1 -1 -1 -1 -1 -1 -1 -1 -1 -1 -1 -1 -1 -1 -1 -1 -1
 MicOpt= -1 -1 -1 -1 -1 -1 -1 -1 -1
 NAtoms=     49 NQM=       49 NQMF=       0 NMMI=      0 NMMIF=      0
                NMic=       0 NMicF=      0.
                    Isotopes and Nuclear Properties:
 (Nuclear quadrupole moments (NQMom) in fm**2, nuclear magnetic moments (NMagM)
  in nuclear magnetons)

  Atom         1           2           3           4           5           6           7           8           9          10
 IAtWgt=          12          12          12          12          12          12          12          12          12          12
 AtmWgt=  12.0000000  12.0000000  12.0000000  12.0000000  12.0000000  12.0000000  12.0000000  12.0000000  12.0000000  12.0000000
 NucSpn=           0           0           0           0           0           0           0           0           0           0
 AtZEff=  -0.0000000  -0.0000000  -0.0000000  -0.0000000  -0.0000000  -0.0000000  -0.0000000  -0.0000000  -0.0000000  -0.0000000
 NQMom=    0.0000000   0.0000000   0.0000000   0.0000000   0.0000000   0.0000000   0.0000000   0.0000000   0.0000000   0.0000000
 NMagM=    0.0000000   0.0000000   0.0000000   0.0000000   0.0000000   0.0000000   0.0000000   0.0000000   0.0000000   0.0000000
 AtZNuc=   6.0000000   6.0000000   6.0000000   6.0000000   6.0000000   6.0000000   6.0000000   6.0000000   6.0000000   6.0000000

  Atom        11          12          13          14          15          16          17          18          19          20
 IAtWgt=          16          12          14          12          12          12          12          12          12          12
 AtmWgt=  15.9949146  12.0000000  14.0030740  12.0000000  12.0000000  12.0000000  12.0000000  12.0000000  12.0000000  12.0000000
 NucSpn=           0           0           2           0           0           0           0           0           0           0
 AtZEff=  -0.0000000  -0.0000000  -0.0000000  -0.0000000  -0.0000000  -0.0000000  -0.0000000  -0.0000000  -0.0000000  -0.0000000
 NQMom=    0.0000000   0.0000000   2.0440000   0.0000000   0.0000000   0.0000000   0.0000000   0.0000000   0.0000000   0.0000000
 NMagM=    0.0000000   0.0000000   0.4037610   0.0000000   0.0000000   0.0000000   0.0000000   0.0000000   0.0000000   0.0000000
 AtZNuc=   8.0000000   6.0000000   7.0000000   6.0000000   6.0000000   6.0000000   6.0000000   6.0000000   6.0000000   6.0000000

  Atom        21          22          23          24          25          26          27          28          29          30
 IAtWgt=          12          12          12          12          12           1           1           1           1           1
 AtmWgt=  12.0000000  12.0000000  12.0000000  12.0000000  12.0000000   1.0078250   1.0078250   1.0078250   1.0078250   1.0078250
 NucSpn=           0           0           0           0           0           1           1           1           1           1
 AtZEff=  -0.0000000  -0.0000000  -0.0000000  -0.0000000  -0.0000000  -0.0000000  -0.0000000  -0.0000000  -0.0000000  -0.0000000
 NQMom=    0.0000000   0.0000000   0.0000000   0.0000000   0.0000000   0.0000000   0.0000000   0.0000000   0.0000000   0.0000000
 NMagM=    0.0000000   0.0000000   0.0000000   0.0000000   0.0000000   2.7928460   2.7928460   2.7928460   2.7928460   2.7928460
 AtZNuc=   6.0000000   6.0000000   6.0000000   6.0000000   6.0000000   1.0000000   1.0000000   1.0000000   1.0000000   1.0000000

  Atom        31          32          33          34          35          36          37          38          39          40
 IAtWgt=           1           1           1           1           1           1           1           1           1           1
 AtmWgt=   1.0078250   1.0078250   1.0078250   1.0078250   1.0078250   1.0078250   1.0078250   1.0078250   1.0078250   1.0078250
 NucSpn=           1           1           1           1           1           1           1           1           1           1
 AtZEff=  -0.0000000  -0.0000000  -0.0000000  -0.0000000  -0.0000000  -0.0000000  -0.0000000  -0.0000000  -0.0000000  -0.0000000
 NQMom=    0.0000000   0.0000000   0.0000000   0.0000000   0.0000000   0.0000000   0.0000000   0.0000000   0.0000000   0.0000000
 NMagM=    2.7928460   2.7928460   2.7928460   2.7928460   2.7928460   2.7928460   2.7928460   2.7928460   2.7928460   2.7928460
 AtZNuc=   1.0000000   1.0000000   1.0000000   1.0000000   1.0000000   1.0000000   1.0000000   1.0000000   1.0000000   1.0000000

  Atom        41          42          43          44          45          46          47          48          49
 IAtWgt=           1           1           1           1           1           1           1           1           1
 AtmWgt=   1.0078250   1.0078250   1.0078250   1.0078250   1.0078250   1.0078250   1.0078250   1.0078250   1.0078250
 NucSpn=           1           1           1           1           1           1           1           1           1
 AtZEff=  -0.0000000  -0.0000000  -0.0000000  -0.0000000  -0.0000000  -0.0000000  -0.0000000  -0.0000000  -0.0000000
 NQMom=    0.0000000   0.0000000   0.0000000   0.0000000   0.0000000   0.0000000   0.0000000   0.0000000   0.0000000
 NMagM=    2.7928460   2.7928460   2.7928460   2.7928460   2.7928460   2.7928460   2.7928460   2.7928460   2.7928460
 AtZNuc=   1.0000000   1.0000000   1.0000000   1.0000000   1.0000000   1.0000000   1.0000000   1.0000000   1.0000000
 Leave Link  101 at Fri Nov  4 21:53:03 2022, MaxMem=   805306368 cpu:               1.5 elap:               0.3
 (Enter /home/wykgroup/appl/g16/l103.exe)

 GradGradGradGradGradGradGradGradGradGradGradGradGradGradGradGradGradGrad
 Berny optimization.
 Initialization pass.
                           ----------------------------
                           !    Initial Parameters    !
                           ! (Angstroms and Degrees)  !
 --------------------------                            --------------------------
 ! Name  Definition              Value          Derivative Info.                !
 --------------------------------------------------------------------------------
 ! R1    R(1,2)                  1.5039         estimate D2E/DX2                !
 ! R2    R(1,26)                 1.0874         estimate D2E/DX2                !
 ! R3    R(1,27)                 1.0901         estimate D2E/DX2                !
 ! R4    R(1,28)                 1.0896         estimate D2E/DX2                !
 ! R5    R(2,3)                  1.3887         estimate D2E/DX2                !
 ! R6    R(2,8)                  1.3992         estimate D2E/DX2                !
 ! R7    R(3,4)                  1.3822         estimate D2E/DX2                !
 ! R8    R(3,29)                 1.0808         estimate D2E/DX2                !
 ! R9    R(4,5)                  1.3812         estimate D2E/DX2                !
 ! R10   R(4,30)                 1.0799         estimate D2E/DX2                !
 ! R11   R(5,6)                  1.3879         estimate D2E/DX2                !
 ! R12   R(5,31)                 1.0802         estimate D2E/DX2                !
 ! R13   R(6,7)                  1.4982         estimate D2E/DX2                !
 ! R14   R(6,8)                  1.3998         estimate D2E/DX2                !
 ! R15   R(7,32)                 1.087          estimate D2E/DX2                !
 ! R16   R(7,33)                 1.0872         estimate D2E/DX2                !
 ! R17   R(7,34)                 1.0905         estimate D2E/DX2                !
 ! R18   R(8,9)                  1.5054         estimate D2E/DX2                !
 ! R19   R(9,10)                 1.5166         estimate D2E/DX2                !
 ! R20   R(9,35)                 1.0912         estimate D2E/DX2                !
 ! R21   R(9,36)                 1.092          estimate D2E/DX2                !
 ! R22   R(10,11)                1.2208         estimate D2E/DX2                !
 ! R23   R(10,12)                1.5239         estimate D2E/DX2                !
 ! R24   R(12,13)                1.4501         estimate D2E/DX2                !
 ! R25   R(12,37)                1.0885         estimate D2E/DX2                !
 ! R26   R(12,38)                1.0967         estimate D2E/DX2                !
 ! R27   R(13,14)                1.3793         estimate D2E/DX2                !
 ! R28   R(13,25)                1.3815         estimate D2E/DX2                !
 ! R29   R(14,15)                1.3597         estimate D2E/DX2                !
 ! R30   R(14,39)                1.0776         estimate D2E/DX2                !
 ! R31   R(15,16)                1.4014         estimate D2E/DX2                !
 ! R32   R(15,40)                1.0786         estimate D2E/DX2                !
 ! R33   R(16,17)                1.4058         estimate D2E/DX2                !
 ! R34   R(16,41)                1.0765         estimate D2E/DX2                !
 ! R35   R(17,18)                1.5065         estimate D2E/DX2                !
 ! R36   R(17,25)                1.3651         estimate D2E/DX2                !
 ! R37   R(18,19)                1.5062         estimate D2E/DX2                !
 ! R38   R(18,42)                1.0912         estimate D2E/DX2                !
 ! R39   R(18,43)                1.0915         estimate D2E/DX2                !
 ! R40   R(19,20)                1.3897         estimate D2E/DX2                !
 ! R41   R(19,24)                1.388          estimate D2E/DX2                !
 ! R42   R(20,21)                1.3826         estimate D2E/DX2                !
 ! R43   R(20,44)                1.0806         estimate D2E/DX2                !
 ! R44   R(21,22)                1.3849         estimate D2E/DX2                !
 ! R45   R(21,45)                1.0805         estimate D2E/DX2                !
 ! R46   R(22,23)                1.384          estimate D2E/DX2                !
 ! R47   R(22,46)                1.0801         estimate D2E/DX2                !
 ! R48   R(23,24)                1.3841         estimate D2E/DX2                !
 ! R49   R(23,47)                1.0805         estimate D2E/DX2                !
 ! R50   R(24,48)                1.0809         estimate D2E/DX2                !
 ! R51   R(25,49)                1.0768         estimate D2E/DX2                !
 ! A1    A(2,1,26)             110.0644         estimate D2E/DX2                !
 ! A2    A(2,1,27)             110.523          estimate D2E/DX2                !
 ! A3    A(2,1,28)             112.1462         estimate D2E/DX2                !
 ! A4    A(26,1,27)            107.9278         estimate D2E/DX2                !
 ! A5    A(26,1,28)            108.0301         estimate D2E/DX2                !
 ! A6    A(27,1,28)            108.0133         estimate D2E/DX2                !
 ! A7    A(1,2,3)              118.6318         estimate D2E/DX2                !
 ! A8    A(1,2,8)              122.0677         estimate D2E/DX2                !
 ! A9    A(3,2,8)              119.2856         estimate D2E/DX2                !
 ! A10   A(2,3,4)              120.9829         estimate D2E/DX2                !
 ! A11   A(2,3,29)             119.3512         estimate D2E/DX2                !
 ! A12   A(4,3,29)             119.6651         estimate D2E/DX2                !
 ! A13   A(3,4,5)              119.5629         estimate D2E/DX2                !
 ! A14   A(3,4,30)             120.1103         estimate D2E/DX2                !
 ! A15   A(5,4,30)             120.3252         estimate D2E/DX2                !
 ! A16   A(4,5,6)              120.8641         estimate D2E/DX2                !
 ! A17   A(4,5,31)             119.8683         estimate D2E/DX2                !
 ! A18   A(6,5,31)             119.2673         estimate D2E/DX2                !
 ! A19   A(5,6,7)              119.3415         estimate D2E/DX2                !
 ! A20   A(5,6,8)              119.4513         estimate D2E/DX2                !
 ! A21   A(7,6,8)              121.1938         estimate D2E/DX2                !
 ! A22   A(6,7,32)             110.3912         estimate D2E/DX2                !
 ! A23   A(6,7,33)             111.6948         estimate D2E/DX2                !
 ! A24   A(6,7,34)             110.4017         estimate D2E/DX2                !
 ! A25   A(32,7,33)            108.2704         estimate D2E/DX2                !
 ! A26   A(32,7,34)            108.3481         estimate D2E/DX2                !
 ! A27   A(33,7,34)            107.6203         estimate D2E/DX2                !
 ! A28   A(2,8,6)              119.8442         estimate D2E/DX2                !
 ! A29   A(2,8,9)              121.1495         estimate D2E/DX2                !
 ! A30   A(6,8,9)              119.0041         estimate D2E/DX2                !
 ! A31   A(8,9,10)             112.6899         estimate D2E/DX2                !
 ! A32   A(8,9,35)             110.5665         estimate D2E/DX2                !
 ! A33   A(8,9,36)             110.4688         estimate D2E/DX2                !
 ! A34   A(10,9,35)            107.4472         estimate D2E/DX2                !
 ! A35   A(10,9,36)            107.5191         estimate D2E/DX2                !
 ! A36   A(35,9,36)            107.9639         estimate D2E/DX2                !
 ! A37   A(9,10,11)            122.9196         estimate D2E/DX2                !
 ! A38   A(9,10,12)            117.1037         estimate D2E/DX2                !
 ! A39   A(11,10,12)           119.6884         estimate D2E/DX2                !
 ! A40   A(10,12,13)           106.3651         estimate D2E/DX2                !
 ! A41   A(10,12,37)           112.684          estimate D2E/DX2                !
 ! A42   A(10,12,38)           109.6725         estimate D2E/DX2                !
 ! A43   A(13,12,37)           109.2476         estimate D2E/DX2                !
 ! A44   A(13,12,38)           108.5075         estimate D2E/DX2                !
 ! A45   A(37,12,38)           110.2151         estimate D2E/DX2                !
 ! A46   A(12,13,14)           120.8828         estimate D2E/DX2                !
 ! A47   A(12,13,25)           118.1972         estimate D2E/DX2                !
 ! A48   A(14,13,25)           118.2871         estimate D2E/DX2                !
 ! A49   A(13,14,15)           121.191          estimate D2E/DX2                !
 ! A50   A(13,14,39)           116.0656         estimate D2E/DX2                !
 ! A51   A(15,14,39)           122.7393         estimate D2E/DX2                !
 ! A52   A(14,15,16)           120.7538         estimate D2E/DX2                !
 ! A53   A(14,15,40)           118.9526         estimate D2E/DX2                !
 ! A54   A(16,15,40)           120.2931         estimate D2E/DX2                !
 ! A55   A(15,16,17)           118.1348         estimate D2E/DX2                !
 ! A56   A(15,16,41)           120.8953         estimate D2E/DX2                !
 ! A57   A(17,16,41)           120.9632         estimate D2E/DX2                !
 ! A58   A(16,17,18)           121.2448         estimate D2E/DX2                !
 ! A59   A(16,17,25)           119.4879         estimate D2E/DX2                !
 ! A60   A(18,17,25)           119.2006         estimate D2E/DX2                !
 ! A61   A(17,18,19)           109.2729         estimate D2E/DX2                !
 ! A62   A(17,18,42)           109.6761         estimate D2E/DX2                !
 ! A63   A(17,18,43)           109.3533         estimate D2E/DX2                !
 ! A64   A(19,18,42)           109.8234         estimate D2E/DX2                !
 ! A65   A(19,18,43)           109.9742         estimate D2E/DX2                !
 ! A66   A(42,18,43)           108.7269         estimate D2E/DX2                !
 ! A67   A(18,19,20)           120.02           estimate D2E/DX2                !
 ! A68   A(18,19,24)           121.0938         estimate D2E/DX2                !
 ! A69   A(20,19,24)           118.8604         estimate D2E/DX2                !
 ! A70   A(19,20,21)           120.6308         estimate D2E/DX2                !
 ! A71   A(19,20,44)           119.414          estimate D2E/DX2                !
 ! A72   A(21,20,44)           119.955          estimate D2E/DX2                !
 ! A73   A(20,21,22)           120.1144         estimate D2E/DX2                !
 ! A74   A(20,21,45)           119.8707         estimate D2E/DX2                !
 ! A75   A(22,21,45)           120.0149         estimate D2E/DX2                !
 ! A76   A(21,22,23)           119.6573         estimate D2E/DX2                !
 ! A77   A(21,22,46)           120.1615         estimate D2E/DX2                !
 ! A78   A(23,22,46)           120.1812         estimate D2E/DX2                !
 ! A79   A(22,23,24)           120.1381         estimate D2E/DX2                !
 ! A80   A(22,23,47)           120.0324         estimate D2E/DX2                !
 ! A81   A(24,23,47)           119.8294         estimate D2E/DX2                !
 ! A82   A(19,24,23)           120.5978         estimate D2E/DX2                !
 ! A83   A(19,24,48)           119.6208         estimate D2E/DX2                !
 ! A84   A(23,24,48)           119.7806         estimate D2E/DX2                !
 ! A85   A(13,25,17)           122.0389         estimate D2E/DX2                !
 ! A86   A(13,25,49)           115.7975         estimate D2E/DX2                !
 ! A87   A(17,25,49)           122.1582         estimate D2E/DX2                !
 ! D1    D(26,1,2,3)             2.9205         estimate D2E/DX2                !
 ! D2    D(26,1,2,8)          -178.4942         estimate D2E/DX2                !
 ! D3    D(27,1,2,3)          -116.1995         estimate D2E/DX2                !
 ! D4    D(27,1,2,8)            62.3857         estimate D2E/DX2                !
 ! D5    D(28,1,2,3)           123.213          estimate D2E/DX2                !
 ! D6    D(28,1,2,8)           -58.2017         estimate D2E/DX2                !
 ! D7    D(1,2,3,4)            178.1832         estimate D2E/DX2                !
 ! D8    D(1,2,3,29)            -1.4919         estimate D2E/DX2                !
 ! D9    D(8,2,3,4)             -0.4422         estimate D2E/DX2                !
 ! D10   D(8,2,3,29)           179.8827         estimate D2E/DX2                !
 ! D11   D(1,2,8,6)           -177.6885         estimate D2E/DX2                !
 ! D12   D(1,2,8,9)              2.8562         estimate D2E/DX2                !
 ! D13   D(3,2,8,6)              0.8878         estimate D2E/DX2                !
 ! D14   D(3,2,8,9)           -178.5676         estimate D2E/DX2                !
 ! D15   D(2,3,4,5)             -0.4425         estimate D2E/DX2                !
 ! D16   D(2,3,4,30)          -179.9825         estimate D2E/DX2                !
 ! D17   D(29,3,4,5)           179.2316         estimate D2E/DX2                !
 ! D18   D(29,3,4,30)           -0.3084         estimate D2E/DX2                !
 ! D19   D(3,4,5,6)              0.8889         estimate D2E/DX2                !
 ! D20   D(3,4,5,31)          -179.3043         estimate D2E/DX2                !
 ! D21   D(30,4,5,6)          -179.5721         estimate D2E/DX2                !
 ! D22   D(30,4,5,31)            0.2347         estimate D2E/DX2                !
 ! D23   D(4,5,6,7)           -179.1236         estimate D2E/DX2                !
 ! D24   D(4,5,6,8)             -0.4395         estimate D2E/DX2                !
 ! D25   D(31,5,6,7)             1.0684         estimate D2E/DX2                !
 ! D26   D(31,5,6,8)           179.7525         estimate D2E/DX2                !
 ! D27   D(5,6,7,32)            -6.8881         estimate D2E/DX2                !
 ! D28   D(5,6,7,33)          -127.4085         estimate D2E/DX2                !
 ! D29   D(5,6,7,34)           112.8849         estimate D2E/DX2                !
 ! D30   D(8,6,7,32)           174.4514         estimate D2E/DX2                !
 ! D31   D(8,6,7,33)            53.9309         estimate D2E/DX2                !
 ! D32   D(8,6,7,34)           -65.7756         estimate D2E/DX2                !
 ! D33   D(5,6,8,2)             -0.455          estimate D2E/DX2                !
 ! D34   D(5,6,8,9)            179.0121         estimate D2E/DX2                !
 ! D35   D(7,6,8,2)            178.2041         estimate D2E/DX2                !
 ! D36   D(7,6,8,9)             -2.3288         estimate D2E/DX2                !
 ! D37   D(2,8,9,10)           107.9308         estimate D2E/DX2                !
 ! D38   D(2,8,9,35)           -12.3326         estimate D2E/DX2                !
 ! D39   D(2,8,9,36)          -131.7826         estimate D2E/DX2                !
 ! D40   D(6,8,9,10)           -71.5291         estimate D2E/DX2                !
 ! D41   D(6,8,9,35)           168.2076         estimate D2E/DX2                !
 ! D42   D(6,8,9,36)            48.7576         estimate D2E/DX2                !
 ! D43   D(8,9,10,11)          126.7185         estimate D2E/DX2                !
 ! D44   D(8,9,10,12)          -47.0858         estimate D2E/DX2                !
 ! D45   D(35,9,10,11)        -111.2403         estimate D2E/DX2                !
 ! D46   D(35,9,10,12)          74.9553         estimate D2E/DX2                !
 ! D47   D(36,9,10,11)           4.7504         estimate D2E/DX2                !
 ! D48   D(36,9,10,12)        -169.054          estimate D2E/DX2                !
 ! D49   D(9,10,12,13)         107.2079         estimate D2E/DX2                !
 ! D50   D(9,10,12,37)         -12.4695         estimate D2E/DX2                !
 ! D51   D(9,10,12,38)        -135.642          estimate D2E/DX2                !
 ! D52   D(11,10,12,13)        -66.8061         estimate D2E/DX2                !
 ! D53   D(11,10,12,37)        173.5165         estimate D2E/DX2                !
 ! D54   D(11,10,12,38)         50.3439         estimate D2E/DX2                !
 ! D55   D(10,12,13,14)        -97.532          estimate D2E/DX2                !
 ! D56   D(10,12,13,25)         63.7627         estimate D2E/DX2                !
 ! D57   D(37,12,13,14)         24.3562         estimate D2E/DX2                !
 ! D58   D(37,12,13,25)       -174.3491         estimate D2E/DX2                !
 ! D59   D(38,12,13,14)        144.5446         estimate D2E/DX2                !
 ! D60   D(38,12,13,25)        -54.1607         estimate D2E/DX2                !
 ! D61   D(12,13,14,15)        159.0553         estimate D2E/DX2                !
 ! D62   D(12,13,14,39)        -21.6673         estimate D2E/DX2                !
 ! D63   D(25,13,14,15)         -2.2231         estimate D2E/DX2                !
 ! D64   D(25,13,14,39)        177.0543         estimate D2E/DX2                !
 ! D65   D(12,13,25,17)       -158.1885         estimate D2E/DX2                !
 ! D66   D(12,13,25,49)         20.9855         estimate D2E/DX2                !
 ! D67   D(14,13,25,17)          3.5983         estimate D2E/DX2                !
 ! D68   D(14,13,25,49)       -177.2277         estimate D2E/DX2                !
 ! D69   D(13,14,15,16)         -0.7223         estimate D2E/DX2                !
 ! D70   D(13,14,15,40)        179.0407         estimate D2E/DX2                !
 ! D71   D(39,14,15,16)       -179.9506         estimate D2E/DX2                !
 ! D72   D(39,14,15,40)         -0.1876         estimate D2E/DX2                !
 ! D73   D(14,15,16,17)          2.3549         estimate D2E/DX2                !
 ! D74   D(14,15,16,41)       -178.575          estimate D2E/DX2                !
 ! D75   D(40,15,16,17)       -177.4049         estimate D2E/DX2                !
 ! D76   D(40,15,16,41)          1.6652         estimate D2E/DX2                !
 ! D77   D(15,16,17,18)        175.9829         estimate D2E/DX2                !
 ! D78   D(15,16,17,25)         -1.0254         estimate D2E/DX2                !
 ! D79   D(41,16,17,18)         -3.0866         estimate D2E/DX2                !
 ! D80   D(41,16,17,25)        179.9051         estimate D2E/DX2                !
 ! D81   D(16,17,18,19)       -105.7166         estimate D2E/DX2                !
 ! D82   D(16,17,18,42)        133.848          estimate D2E/DX2                !
 ! D83   D(16,17,18,43)         14.7055         estimate D2E/DX2                !
 ! D84   D(25,17,18,19)         71.3001         estimate D2E/DX2                !
 ! D85   D(25,17,18,42)        -49.1353         estimate D2E/DX2                !
 ! D86   D(25,17,18,43)       -168.2777         estimate D2E/DX2                !
 ! D87   D(16,17,25,13)         -1.966          estimate D2E/DX2                !
 ! D88   D(16,17,25,49)        178.9125         estimate D2E/DX2                !
 ! D89   D(18,17,25,13)       -179.0359         estimate D2E/DX2                !
 ! D90   D(18,17,25,49)          1.8426         estimate D2E/DX2                !
 ! D91   D(17,18,19,20)         71.0893         estimate D2E/DX2                !
 ! D92   D(17,18,19,24)       -107.0425         estimate D2E/DX2                !
 ! D93   D(42,18,19,20)       -168.5655         estimate D2E/DX2                !
 ! D94   D(42,18,19,24)         13.3027         estimate D2E/DX2                !
 ! D95   D(43,18,19,20)        -48.9521         estimate D2E/DX2                !
 ! D96   D(43,18,19,24)        132.9161         estimate D2E/DX2                !
 ! D97   D(18,19,20,21)       -178.5162         estimate D2E/DX2                !
 ! D98   D(18,19,20,44)          1.3349         estimate D2E/DX2                !
 ! D99   D(24,19,20,21)         -0.3428         estimate D2E/DX2                !
 ! D100  D(24,19,20,44)        179.5083         estimate D2E/DX2                !
 ! D101  D(18,19,24,23)        178.5593         estimate D2E/DX2                !
 ! D102  D(18,19,24,48)         -1.7695         estimate D2E/DX2                !
 ! D103  D(20,19,24,23)          0.4063         estimate D2E/DX2                !
 ! D104  D(20,19,24,48)       -179.9225         estimate D2E/DX2                !
 ! D105  D(19,20,21,22)          0.091          estimate D2E/DX2                !
 ! D106  D(19,20,21,45)       -179.8451         estimate D2E/DX2                !
 ! D107  D(44,20,21,22)       -179.7593         estimate D2E/DX2                !
 ! D108  D(44,20,21,45)          0.3046         estimate D2E/DX2                !
 ! D109  D(20,21,22,23)          0.1028         estimate D2E/DX2                !
 ! D110  D(20,21,22,46)       -179.8711         estimate D2E/DX2                !
 ! D111  D(45,21,22,23)       -179.9613         estimate D2E/DX2                !
 ! D112  D(45,21,22,46)          0.0649         estimate D2E/DX2                !
 ! D113  D(21,22,23,24)         -0.0396         estimate D2E/DX2                !
 ! D114  D(21,22,23,47)       -179.9849         estimate D2E/DX2                !
 ! D115  D(46,22,23,24)        179.9343         estimate D2E/DX2                !
 ! D116  D(46,22,23,47)         -0.011          estimate D2E/DX2                !
 ! D117  D(22,23,24,19)         -0.2184         estimate D2E/DX2                !
 ! D118  D(22,23,24,48)       -179.8891         estimate D2E/DX2                !
 ! D119  D(47,23,24,19)        179.727          estimate D2E/DX2                !
 ! D120  D(47,23,24,48)          0.0563         estimate D2E/DX2                !
 --------------------------------------------------------------------------------
 Trust Radius=3.00D-01 FncErr=1.00D-07 GrdErr=1.00D-06 EigMax=2.50D+02 EigMin=1.00D-04
 Number of steps in this run=    268 maximum allowed number of steps=    294.
 GradGradGradGradGradGradGradGradGradGradGradGradGradGradGradGradGradGrad

 Leave Link  103 at Fri Nov  4 21:53:03 2022, MaxMem=   805306368 cpu:               0.3 elap:               0.1
 (Enter /home/wykgroup/appl/g16/l202.exe)
                          Input orientation:                          
 ---------------------------------------------------------------------
 Center     Atomic      Atomic             Coordinates (Angstroms)
 Number     Number       Type             X           Y           Z
 ---------------------------------------------------------------------
      1          6           0        4.523266    0.766087    2.258900
      2          6           0        3.949134    0.969351    0.883897
      3          6           0        4.136064    2.195478    0.259317
      4          6           0        3.661596    2.422572   -1.018860
      5          6           0        2.999457    1.412780   -1.689384
      6          6           0        2.788272    0.179157   -1.089619
      7          6           0        2.083431   -0.898424   -1.855460
      8          6           0        3.261565   -0.045042    0.208539
      9          6           0        3.007312   -1.379193    0.857921
     10          6           0        1.553279   -1.575292    1.241975
     11          8           0        0.900510   -2.546598    0.894543
     12          6           0        0.868091   -0.428475    1.975137
     13          7           0       -0.041637    0.179368    1.023391
     14          6           0        0.320847    1.308796    0.319538
     15          6           0       -0.302141    1.645302   -0.841226
     16          6           0       -1.324315    0.842239   -1.364835
     17          6           0       -1.719489   -0.289925   -0.631162
     18          6           0       -2.870122   -1.151149   -1.082659
     19          6           0       -4.061970   -0.891604   -0.199108
     20          6           0       -4.746620    0.314139   -0.291677
     21          6           0       -5.823501    0.577958    0.534329
     22          6           0       -6.230117   -0.361336    1.467284
     23          6           0       -5.551754   -1.563307    1.569346
     24          6           0       -4.473125   -1.824932    0.742384
     25          6           0       -1.089821   -0.582401    0.544163
     26          1           0        4.990484    1.684027    2.607532
     27          1           0        5.285168   -0.013359    2.243519
     28          1           0        3.761968    0.478848    2.983553
     29          1           0        4.665352    2.980412    0.780756
     30          1           0        3.815109    3.381447   -1.491325
     31          1           0        2.636494    1.581222   -2.692747
     32          1           0        1.707038   -0.508982   -2.797920
     33          1           0        1.245158   -1.306370   -1.296143
     34          1           0        2.766931   -1.720110   -2.072035
     35          1           0        3.602550   -1.482897    1.766563
     36          1           0        3.281062   -2.191547    0.181413
     37          1           0        1.571382    0.322954    2.329535
     38          1           0        0.281838   -0.824014    2.813293
     39          1           0        1.109554    1.902873    0.751118
     40          1           0       -0.000270    2.544937   -1.354076
     41          1           0       -1.803519    1.094253   -2.295297
     42          1           0       -2.587174   -2.203271   -1.022705
     43          1           0       -3.115414   -0.912757   -2.119140
     44          1           0       -4.429114    1.050475   -1.016079
     45          1           0       -6.348553    1.518530    0.450131
     46          1           0       -7.072605   -0.156877    2.111551
     47          1           0       -5.863953   -2.300533    2.294909
     48          1           0       -3.948596   -2.766339    0.825817
     49          1           0       -1.369104   -1.428477    1.148929
 ---------------------------------------------------------------------
                    Distance matrix (angstroms):
                    1          2          3          4          5
     1  C    0.000000
     2  C    1.503854   0.000000
     3  C    2.488256   1.388680   0.000000
     4  C    3.772285   2.411435   1.382182   0.000000
     5  C    4.281256   2.778542   2.387871   1.381199   0.000000
     6  C    3.816709   2.422142   2.775198   2.408446   1.387856
     7  C    5.064716   3.804406   4.272916   3.770878   2.491656
     8  C    2.540433   1.399233   2.405672   2.784898   2.407501
     9  C    2.977094   2.530486   3.796141   4.289967   3.779410
    10  C    3.916251   3.513339   4.674945   5.053642   4.428643
    11  O    5.095068   4.653613   5.775778   5.998113   5.172904
    12  C    3.855879   3.554933   4.528666   4.989605   4.621867
    13  N    4.765403   4.070600   4.701244   4.787138   4.257782
    14  C    4.660041   3.687572   3.917360   3.767281   3.349855
    15  C    5.802444   4.637489   4.605600   4.043132   3.416722
    16  C    6.879787   5.734302   5.855328   5.241800   4.373312
    17  C    6.959857   6.001206   6.423214   6.038545   5.127133
    18  C    8.336906   7.407166   7.879559   7.445730   6.433801
    19  C    9.082732   8.295411   8.772001   8.444480   7.575940
    20  C    9.624993   8.799285   9.096434   8.698988   7.947472
    21  C   10.491193   9.786714  10.093806   9.786831   9.137090
    22  C   10.841263  10.282423  10.744961  10.572466   9.914488
    23  C   10.363763   9.856524  10.473703  10.366863   9.622870
    24  C    9.484106   8.874824   9.513947   9.344354   8.499162
    25  C    6.022084   5.283410   5.925169   5.835141   5.068696
    26  H    1.087405   2.136841   2.550634   3.932190   4.743549
    27  H    1.090076   2.144592   3.183781   4.383248   4.767188
    28  H    1.089589   2.164297   3.241640   4.450556   4.825971
    29  H    2.666146   2.137282   1.080817   2.134790   3.366640
    30  H    4.626638   3.387898   2.138757   1.079921   2.140132
    31  H    5.361265   3.858729   3.367596   2.135556   1.080209
    32  H    5.926919   4.557218   4.749838   3.947069   2.567560
    33  H    5.261122   4.152465   4.799972   4.452086   3.259752
    34  H    5.293665   4.167533   4.758315   4.367084   3.164726
    35  H    2.479525   2.629208   4.010844   4.797370   4.548872
    36  H    3.821861   3.306218   4.470244   4.782840   4.070670
    37  H    2.985796   2.856817   3.790745   4.470922   4.402140
    38  H    4.563495   4.515283   5.522244   6.053799   5.715138
    39  H    3.901170   2.992042   3.080138   3.148941   3.125376
    40  H    6.056426   4.805080   4.453585   3.679213   3.223752
    41  H    7.802346   6.573879   6.558764   5.767252   4.851511
    42  H    8.375224   7.511590   8.136000   7.774674   6.688104
    43  H    8.962990   7.903696   8.240274   7.633014   6.556254
    44  H    9.536848   8.591364   8.734984   8.206232   7.467816
    45  H   11.046913  10.321440  10.508181  10.157673   9.590308
    46  H   11.633478  11.146940  11.601664  11.475021  10.879217
    47  H   10.830503  10.439338  11.151596  11.136646  10.403044
    48  H    9.290006   8.736870   9.502751   9.393757   8.489212
    49  H    6.384996   5.839818   6.650664   6.696105   5.934061
                    6          7          8          9         10
     6  C    0.000000
     7  C    1.498163   0.000000
     8  C    1.399816   2.525144   0.000000
     9  C    2.503866   2.906395   1.505423   0.000000
    10  C    3.168538   3.214548   2.515531   1.516629   0.000000
    11  O    3.863972   3.417352   3.507558   2.408898   1.220758
    12  C    3.667293   4.046156   2.999434   2.593897   1.523876
    13  N    3.531741   3.737021   3.409616   3.428203   2.381253
    14  C    3.057776   3.564988   3.239293   3.838259   3.269211
    15  C    3.429567   3.631827   4.081577   4.794491   4.260814
    16  C    4.174781   3.857895   4.928800   5.351485   4.573889
    17  C    4.555231   4.041210   5.057268   5.074102   3.983945
    18  C    5.812674   5.019838   6.363037   6.193713   5.015006
    19  C    6.990376   6.364708   7.383563   7.164482   5.837394
    20  C    7.578227   7.110930   8.031827   8.019501   6.753574
    21  C    8.772621   8.391088   9.112227   9.050878   7.717131
    22  C    9.389421   8.969068   9.580005   9.313294   7.880717
    23  C    8.925374   8.394487   9.046077   8.590554   7.112580
    24  C    7.752451   7.113061   7.954774   7.494596   6.052227
    25  C    4.276543   3.990939   4.397267   4.185668   2.908393
    26  H    4.558870   5.919316   3.425494   4.046904   4.929735
    27  H    4.169096   5.275992   2.870038   2.995666   4.167700
    28  H    4.198646   5.303811   2.868025   2.922351   3.482943
    29  H    3.856003   5.353627   3.383995   4.664891   5.536440
    30  H    3.386801   4.631263   3.864813   5.369840   6.095578
    31  H    2.135145   2.674990   3.384215   4.637758   5.159358
    32  H    2.135625   1.086999   3.416224   3.976575   4.181078
    33  H    2.151893   1.087179   2.814412   2.783968   2.570856
    34  H    2.138413   1.090525   2.872548   2.959501   3.532221
    35  H    3.403416   3.970942   2.147355   1.091189   2.117367
    36  H    2.734703   2.693573   2.146765   1.092026   2.118914
    37  H    3.632095   4.389549   2.736926   2.669240   2.187796
    38  H    4.745659   5.004850   4.033647   3.399987   2.156390
    39  H    3.029456   3.948411   2.952951   3.792736   3.540546
    40  H    3.666445   4.055852   4.448520   5.416390   5.111681
    41  H    4.834832   4.390056   5.763875   6.261374   5.559393
    42  H    5.880124   4.920432   6.354656   5.959373   4.760932
    43  H    6.091445   5.205547   6.843747   6.824091   5.790746
    44  H    7.270162   6.849526   7.864247   8.044600   6.912487
    45  H    9.361962   9.069497   9.739481   9.802821   8.522775
    46  H   10.372912  10.006001  10.508522  10.230853   8.784869
    47  H    9.615867   9.074822   9.628876   9.033999   7.526618
    48  H    7.598041   6.860299   7.731294   7.092944   5.644680
    49  H    4.987921   4.607310   4.923547   4.386356   2.927547
                   11         12         13         14         15
    11  O    0.000000
    12  C    2.378062   0.000000
    13  N    2.887063   1.450137   0.000000
    14  C    3.940901   2.461421   1.379280   0.000000
    15  C    4.693750   3.688075   2.386131   1.359678   0.000000
    16  C    4.640996   4.192466   2.790749   2.400281   1.401398
    17  C    3.779516   3.675263   2.402700   2.760926   2.407926
    18  C    4.480431   4.883299   3.769091   4.266119   3.804334
    19  C    5.344276   5.408080   4.336423   4.931515   4.580887
    20  C    6.440575   6.100402   4.887170   5.200207   4.671980
    21  C    7.423269   6.918543   5.816184   6.191387   5.789369
    22  C    7.479922   7.116669   6.227896   6.857244   6.670586
    23  C    6.561549   6.531992   5.804857   6.655707   6.607909
    24  C    5.424012   5.656710   4.871783   5.742928   5.652208
    25  C    2.818200   2.429979   1.381536   2.370036   2.739052
    26  H    6.128655   4.675116   5.485959   5.213562   6.317224
    27  H    5.240445   4.444650   5.468154   5.485825   6.594303
    28  H    4.658887   3.196038   4.289445   4.430248   5.701450
    29  H    6.688410   5.240825   5.482743   4.677793   5.393453
    30  H    7.023458   5.934372   5.608172   4.448030   4.515371
    31  H    5.737698   5.381010   4.790330   3.809238   3.473875
    32  H    4.293791   4.846894   4.258415   3.865797   3.536437
    33  H    2.540876   3.407954   3.040312   3.209964   3.363548
    34  H    3.600999   4.653333   4.591049   4.569159   4.718060
    35  H    3.031980   2.938124   4.073761   4.544998   5.642057
    36  H    2.510308   3.485441   4.167792   4.586322   5.348508
    37  H    3.277743   1.088513   2.080495   2.564335   3.913109
    38  H    2.651726   1.096654   2.077296   3.281648   4.449052
    39  H    4.456687   2.644184   2.090417   1.077612   2.143545
    40  H    5.638388   4.547405   3.354099   2.105266   1.078649
    41  H    5.544604   5.262395   3.867160   3.375844   2.161507
    42  H    3.994703   4.906711   4.042676   4.753190   4.479489
    43  H    5.280091   5.732883   4.529497   4.763438   4.011388
    44  H    6.707779   6.260595   4.916118   4.940924   4.173284
    45  H    8.322961   7.628658   6.472957   6.673975   6.184074
    46  H    8.412041   7.946511   7.122616   7.747428   7.603021
    47  H    6.912274   6.994804   6.454923   7.428399   7.505912
    48  H    4.854569   5.476041   4.896995   5.923782   5.961397
    49  H    2.542843   2.586052   2.088801   3.322121   3.814085
                   16         17         18         19         20
    16  C    0.000000
    17  C    1.405785   0.000000
    18  C    2.538254   1.506490   0.000000
    19  C    3.443818   2.456808   1.506164   0.000000
    20  C    3.625290   3.105426   2.508778   1.389651   0.000000
    21  C    4.890739   4.353677   3.785090   2.408429   1.382591
    22  C    5.791060   4.975374   4.291338   2.785481   2.398119
    23  C    5.680431   4.598912   3.793963   2.407918   2.763413
    24  C    4.633484   3.438806   2.520791   1.388004   2.391590
    25  C    2.393503   1.365069   2.477800   3.079241   3.856759
    26  H    7.507663   7.707747   9.134816   9.821305  10.251498
    27  H    7.578755   7.576642   8.880697   9.700862  10.352355
    28  H    6.701553   6.610866   7.948307   8.556955   9.118680
    29  H    6.712039   7.311280   8.793491   9.597854   9.840953
    30  H    5.733870   6.697061   8.087258   9.054124   9.173371
    31  H    4.242341   5.169711   6.354609   7.563236   7.866449
    32  H    3.615056   4.060038   4.929999   6.338902   6.971979
    33  H    3.350139   3.203824   4.123736   5.435175   6.287798
    34  H    4.878940   4.924378   5.751429   7.129388   7.985067
    35  H    6.283781   5.957882   7.079802   7.934630   8.784892
    36  H    5.727498   5.411280   6.365325   7.466912   8.422942
    37  H    4.722615   4.468913   5.791632   6.293158   6.840174
    38  H    4.776282   4.019307   5.021982   5.286567   6.018440
    39  H    3.394985   3.836997   5.341124   5.954552   6.156807
    40  H    2.156941   3.393341   4.687299   5.444371   5.350980
    41  H    1.076525   2.166184   2.765856   3.665820   3.644848
    42  H    3.314663   2.137071   1.091152   2.138646   3.396316
    43  H    2.618591   2.133215   1.091463   2.140780   2.739658
    44  H    3.131256   3.047442   2.698525   2.138669   1.080629
    45  H    5.384648   5.086054   4.645010   3.385073   2.137060
    46  H    6.791636   6.016314   5.371445   3.865603   3.377509
    47  H    6.624127   5.457199   4.657476   3.384131   3.843875
    48  H    4.970678   3.636528   2.722908   2.139616   3.372682
    49  H    3.387796   2.141914   2.703692   3.058916   4.064440
                   21         22         23         24         25
    21  C    0.000000
    22  C    1.384925   0.000000
    23  C    2.393767   1.383953   0.000000
    24  C    2.764178   2.398877   1.384107   0.000000
    25  C    4.873833   5.227204   4.682095   3.609698   0.000000
    26  H   11.066337  11.462354  11.079792  10.264086   6.809134
    27  H   11.254932  11.546662  10.967941  10.037903   6.622092
    28  H    9.893924  10.141338   9.639284   8.840079   5.533239
    29  H   10.763296  11.417086  11.209662  10.324949   6.772860
    30  H   10.240391  11.120627  11.025262  10.039455   6.626737
    31  H    9.109998   9.984798   9.751969   8.599343   5.389275
    32  H    8.306283   9.011781   8.536666   7.242920   4.358593
    33  H    7.541038   8.025544   7.380722   6.092886   3.059900
    34  H    9.266594   9.763192   9.082112   7.768549   4.797230
    35  H    9.727073   9.900950   9.156781   8.147543   4.931886
    36  H    9.523012   9.770653   8.963240   7.783092   4.671783
    37  H    7.613940   7.878776   7.407761   6.608217   3.330048
    38  H    6.665910   6.665686   6.010387   5.282062   2.662475
    39  H    7.061844   7.714292   7.553603   6.712891   3.325157
    40  H    6.430015   7.430847   7.499536   6.595251   3.817156
    41  H    4.943035   5.989201   6.003945   4.987579   3.373880
    42  H    4.542400   4.781611   3.989614   2.610650   2.706355
    43  H    4.073924   4.782037   4.468098   3.296022   3.362342
    44  H    2.138071   3.376968   3.844034   3.370770   4.031317
    45  H    1.080484   2.140684   3.374204   3.844656   5.663657
    46  H    2.141932   1.080125   2.141266   3.378508   6.199313
    47  H    3.374462   2.139982   1.080469   2.137974   5.367441
    48  H    3.845069   3.376516   2.137812   1.080898   3.608533
    49  H    4.923938   4.986942   4.205888   3.155536   1.076840
                   26         27         28         29         30
    26  H    0.000000
    27  H    1.760813   0.000000
    28  H    1.761562   1.763535   0.000000
    29  H    2.263502   3.389176   3.453440   0.000000
    30  H    4.589485   5.256885   5.334083   2.458880   0.000000
    31  H    5.800413   5.824507   5.890866   4.259016   2.464418
    32  H    6.693968   6.201996   6.214819   5.808133   4.613739
    33  H    6.181312   5.524741   5.276091   5.864106   5.349614
    34  H    6.199249   5.280012   5.602186   5.816986   5.240399
    35  H    3.558510   2.284345   2.314071   4.692813   5.858400
    36  H    4.881419   3.607385   3.900547   5.387451   5.843074
    37  H    3.690537   3.729975   2.291443   4.362735   5.384019
    38  H    5.338909   5.100501   3.719911   6.149802   6.978512
    39  H    4.307643   4.830627   3.747921   3.715598   3.812448
    40  H    6.429863   6.886467   6.102310   5.149289   3.908414
    41  H    8.399050   8.489825   7.695428   7.407158   6.119363
    42  H    9.258002   8.799869   7.972168   9.095173   8.508696
    43  H    9.736031   9.508496   8.675968   9.170959   8.177193
    44  H   10.112407  10.301650   9.133325   9.469033   8.580588
    45  H   11.543636  11.870400  10.474818  11.115418  10.513788
    46  H   12.212823  12.359311  10.888182  12.222653  12.001782
    47  H   11.566904  11.381420  10.042786  11.876335  11.845029
    48  H   10.143344   9.739157   8.639437  10.355061  10.170523
    49  H    7.229077   6.890574   5.773355   7.482547   7.548666
                   31         32         33         34         35
    31  H    0.000000
    32  H    2.289957   0.000000
    33  H    3.496356   1.761958   0.000000
    34  H    3.361710   1.765535   1.757550   0.000000
    35  H    5.496138   5.037457   3.868931   3.935652   0.000000
    36  H    4.786444   3.766298   2.666761   2.358942   1.765854
    37  H    5.285927   5.196279   3.988315   4.997726   2.775550
    38  H    6.453374   5.797943   4.248307   5.553836   3.543572
    39  H    3.780901   4.332401   3.809056   4.882940   4.325459
    40  H    3.110195   3.784971   4.048088   5.134540   6.240364
    41  H    4.484286   3.891914   4.006960   5.372103   7.236434
    42  H    6.663192   4.945934   3.945373   5.477314   6.827271
    43  H    6.295507   4.886699   4.454980   5.937678   7.781696
    44  H    7.281190   6.577174   6.150652   7.782946   8.869537
    45  H    9.519070   8.919259   8.288184   9.997108  10.476928
    46  H   10.971275  10.065238   9.061948  10.805672  10.762726
    47  H   10.592561   9.298735   8.026424   9.690163   9.516426
    48  H    8.639734   7.086136   5.797353   7.388534   7.716997
    49  H    6.313602   5.087803   3.581571   5.250375   5.010167
                   36         37         38         39         40
    36  H    0.000000
    37  H    3.722922   0.000000
    38  H    4.218090   1.792339   0.000000
    39  H    4.669506   2.280533   3.517611   0.000000
    40  H    5.963149   4.579989   5.366226   2.464914   0.000000
    41  H    6.540912   5.777017   5.841759   4.291911   2.498417
    42  H    5.990511   5.908715   4.984823   5.802815   5.417320
    43  H    6.916846   6.579039   5.989832   5.832367   4.716471
    44  H    8.449349   6.908572   6.353807   5.875918   4.686397
    45  H   10.323099   8.227207   7.418499   7.474067   6.679025
    46  H   10.726777   8.660038   7.417907   8.546407   8.326361
    47  H    9.386695   7.884674   6.341891   8.287443   8.436614
    48  H    7.281044   6.501927   5.061548   6.884185   6.967845
    49  H    4.810655   3.620468   2.420968   4.171317   4.891499
                   41         42         43         44         45
    41  H    0.000000
    42  H    3.620396   0.000000
    43  H    2.404202   1.773875   0.000000
    44  H    2.920970   3.738937   2.607073   0.000000
    45  H    5.326793   5.492634   4.792233   2.460304   0.000000
    46  H    6.982042   5.842121   5.842042   4.269404   2.468108
    47  H    7.005833   4.664044   5.381842   4.924496   4.268875
    48  H    5.408038   2.363800   3.578090   4.265155   4.925550
    49  H    4.291337   2.607680   3.741102   4.494010   5.828215
                   46         47         48         49
    46  H    0.000000
    47  H    2.467736   0.000000
    48  H    4.268704   2.458414   0.000000
    49  H    5.922291   4.719897   2.923707   0.000000
 Stoichiometry    C23H24NO
 Framework group  C1[X(C23H24NO)]
 Deg. of freedom   141
 Full point group                 C1      NOp   1
 Largest Abelian subgroup         C1      NOp   1
 Largest concise Abelian subgroup C1      NOp   1
                         Standard orientation:                         
 ---------------------------------------------------------------------
 Center     Atomic      Atomic             Coordinates (Angstroms)
 Number     Number       Type             X           Y           Z
 ---------------------------------------------------------------------
      1          6           0        4.637821    1.448265   -1.651091
      2          6           0        4.143757    0.280858   -0.841993
      3          6           0        4.537240   -0.998723   -1.211146
      4          6           0        4.142374   -2.103257   -0.480042
      5          6           0        3.352133   -1.932280    0.639777
      6          6           0        2.934283   -0.667650    1.029978
      7          6           0        2.094231   -0.519574    2.261595
      8          6           0        3.327837    0.448410    0.282308
      9          6           0        2.850380    1.813166    0.701565
     10          6           0        1.372644    2.023958    0.433187
     11          8           0        0.587908    2.391026    1.293246
     12          6           0        0.851833    1.619168   -0.940531
     13          7           0        0.076392    0.409733   -0.743409
     14          6           0        0.630616   -0.832063   -0.974038
     15          6           0        0.102528   -1.953614   -0.415496
     16          6           0       -1.015592   -1.876905    0.425837
     17          6           0       -1.603416   -0.616987    0.633929
     18          6           0       -2.859568   -0.466253    1.451774
     19          6           0       -4.022780   -0.201974    0.532195
     20          6           0       -4.509094   -1.216865   -0.283050
     21          6           0       -5.556387   -0.979940   -1.154027
     22          6           0       -6.131596    0.277980   -1.223209
     23          6           0       -5.651190    1.295875   -0.417960
     24          6           0       -4.601802    1.056960    0.452360
     25          6           0       -1.062343    0.484061    0.035307
     26          1           0        5.231024    1.095420   -2.491365
     27          1           0        5.269763    2.095040   -1.042324
     28          1           0        3.819751    2.050535   -2.045090
     29          1           0        5.165916   -1.129532   -2.080527
     30          1           0        4.456846   -3.091966   -0.779695
     31          1           0        3.050014   -2.791062    1.221214
     32          1           0        1.811287   -1.495896    2.646697
     33          1           0        1.186407    0.044814    2.063404
     34          1           0        2.648255    0.008480    3.038422
     35          1           0        3.394745    2.591479    0.164361
     36          1           0        3.015075    1.963624    1.770564
     37          1           0        1.652154    1.420469   -1.651070
     38          1           0        0.186406    2.400069   -1.327892
     39          1           0        1.488561   -0.854048   -1.625724
     40          1           0        0.555525   -2.908122   -0.632737
     41          1           0       -1.421726   -2.760605    0.887396
     42          1           0       -2.745113    0.363190    2.151444
     43          1           0       -3.033652   -1.382076    2.019449
     44          1           0       -4.059617   -2.198354   -0.233974
     45          1           0       -5.926475   -1.778681   -1.780521
     46          1           0       -6.951179    0.463375   -1.901871
     47          1           0       -6.095600    2.279505   -0.466817
     48          1           0       -4.232337    1.855700    1.079936
     49          1           0       -1.487494    1.466605    0.151227
 ---------------------------------------------------------------------
 Rotational constants (GHZ):           0.5211432           0.1196377           0.1124741
 Leave Link  202 at Fri Nov  4 21:53:04 2022, MaxMem=   805306368 cpu:               0.5 elap:               0.1
 (Enter /home/wykgroup/appl/g16/l301.exe)
 Standard basis: 6-31G(d) (6D, 7F)
 Ernie: Thresh=  0.10000D-02 Tol=  0.10000D-05 Strict=F.
 The combination of multiplicity 1 and   177 electrons is impossible.
 Error termination via Lnk1e in /home/wykgroup/appl/g16/l301.exe at Fri Nov  4 21:53:04 2022.
 Job cpu time:       0 days  0 hours  0 minutes  3.6 seconds.
 Elapsed time:       0 days  0 hours  0 minutes  0.7 seconds.
 File lengths (MBytes):  RWF=      6 Int=      0 D2E=      0 Chk=      2 Scr=      1
