 Entering Gaussian System, Link 0=/home/wykgroup/appl/g16/g16
 Input=./calculation/no_transfer_pubchem_sampling_6_b3lyp/271391.com
 Output=./calculation/no_transfer_pubchem_sampling_6_b3lyp/271391.log
 Initial command:
 /home/wykgroup/appl/g16/l1.exe "/userdata/scratch/wykgroup/khs/./calculation/no_transfer_pubchem_sampling_6_b3lyp/271391/Gau-20211.inp" -scrdir="/userdata/scratch/wykgroup/khs/./calculation/no_transfer_pubchem_sampling_6_b3lyp/271391/"
 Entering Link 1 = /home/wykgroup/appl/g16/l1.exe PID=     20212.
  
 Copyright (c) 1988-2017, Gaussian, Inc.  All Rights Reserved.
  
 This is part of the Gaussian(R) 16 program.  It is based on
 the Gaussian(R) 09 system (copyright 2009, Gaussian, Inc.),
 the Gaussian(R) 03 system (copyright 2003, Gaussian, Inc.),
 the Gaussian(R) 98 system (copyright 1998, Gaussian, Inc.),
 the Gaussian(R) 94 system (copyright 1995, Gaussian, Inc.),
 the Gaussian 92(TM) system (copyright 1992, Gaussian, Inc.),
 the Gaussian 90(TM) system (copyright 1990, Gaussian, Inc.),
 the Gaussian 88(TM) system (copyright 1988, Gaussian, Inc.),
 the Gaussian 86(TM) system (copyright 1986, Carnegie Mellon
 University), and the Gaussian 82(TM) system (copyright 1983,
 Carnegie Mellon University). Gaussian is a federally registered
 trademark of Gaussian, Inc.
  
 This software contains proprietary and confidential information,
 including trade secrets, belonging to Gaussian, Inc.
  
 This software is provided under written license and may be
 used, copied, transmitted, or stored only in accord with that
 written license.
  
 The following legend is applicable only to US Government
 contracts under FAR:
  
                    RESTRICTED RIGHTS LEGEND
  
 Use, reproduction and disclosure by the US Government is
 subject to restrictions as set forth in subparagraphs (a)
 and (c) of the Commercial Computer Software - Restricted
 Rights clause in FAR 52.227-19.
  
 Gaussian, Inc.
 340 Quinnipiac St., Bldg. 40, Wallingford CT 06492
  
  
 ---------------------------------------------------------------
 Warning -- This program may not be used in any manner that
 competes with the business of Gaussian, Inc. or will provide
 assistance to any competitor of Gaussian, Inc.  The licensee
 of this program is prohibited from giving any competitor of
 Gaussian, Inc. access to this program.  By using this program,
 the user acknowledges that Gaussian, Inc. is engaged in the
 business of creating and licensing software in the field of
 computational chemistry and represents and warrants to the
 licensee that it is not a competitor of Gaussian, Inc. and that
 it will not use this program in any manner prohibited above.
 ---------------------------------------------------------------
  

 Cite this work as:
 Gaussian 16, Revision B.01,
 M. J. Frisch, G. W. Trucks, H. B. Schlegel, G. E. Scuseria, 
 M. A. Robb, J. R. Cheeseman, G. Scalmani, V. Barone, 
 G. A. Petersson, H. Nakatsuji, X. Li, M. Caricato, A. V. Marenich, 
 J. Bloino, B. G. Janesko, R. Gomperts, B. Mennucci, H. P. Hratchian, 
 J. V. Ortiz, A. F. Izmaylov, J. L. Sonnenberg, D. Williams-Young, 
 F. Ding, F. Lipparini, F. Egidi, J. Goings, B. Peng, A. Petrone, 
 T. Henderson, D. Ranasinghe, V. G. Zakrzewski, J. Gao, N. Rega, 
 G. Zheng, W. Liang, M. Hada, M. Ehara, K. Toyota, R. Fukuda, 
 J. Hasegawa, M. Ishida, T. Nakajima, Y. Honda, O. Kitao, H. Nakai, 
 T. Vreven, K. Throssell, J. A. Montgomery, Jr., J. E. Peralta, 
 F. Ogliaro, M. J. Bearpark, J. J. Heyd, E. N. Brothers, K. N. Kudin, 
 V. N. Staroverov, T. A. Keith, R. Kobayashi, J. Normand, 
 K. Raghavachari, A. P. Rendell, J. C. Burant, S. S. Iyengar, 
 J. Tomasi, M. Cossi, J. M. Millam, M. Klene, C. Adamo, R. Cammi, 
 J. W. Ochterski, R. L. Martin, K. Morokuma, O. Farkas, 
 J. B. Foresman, and D. J. Fox, Gaussian, Inc., Wallingford CT, 2016.
 
 ******************************************
 Gaussian 16:  ES64L-G16RevB.01 20-Dec-2017
                 4-Nov-2022 
 ******************************************
 %chk=./calculation/no_transfer_pubchem_sampling_6_b3lyp/271391.chk
 %nprocshared=7
 Will use up to    7 processors via shared memory.
 %mem=6GB
 -----------------------------
 #p b3lyp/6-31g(d) opt SCF=XQC
 -----------------------------
 1/18=20,19=15,26=3,38=1/1,3;
 2/9=110,12=2,17=6,18=5,40=1/2;
 3/5=1,6=6,7=1,11=2,25=1,30=1,71=1,74=-5/1,2,3;
 4//1;
 5/5=2,8=3,13=1,38=5/2,8;
 6/7=2,8=2,9=2,10=2,28=1/1;
 7//1,2,3,16;
 1/18=20,19=15,26=3/3(2);
 2/9=110/2;
 99//99;
 2/9=110/2;
 3/5=1,6=6,7=1,11=2,25=1,30=1,71=1,74=-5/1,2,3;
 4/5=5,16=3,69=1/1;
 5/5=2,8=3,13=1,38=5/2,8;
 7//1,2,3,16;
 1/18=20,19=15,26=3/3(-5);
 2/9=110/2;
 6/7=2,8=2,9=2,10=2,19=2,28=1/1;
 99/9=1/99;
 Leave Link    1 at Fri Nov  4 22:02:26 2022, MaxMem=   805306368 cpu:               0.6 elap:               0.1
 (Enter /home/wykgroup/appl/g16/l101.exe)
 ------------------------------
 Gaussian input prepared by ASE
 ------------------------------
 Symbolic Z-matrix:
 Charge =  0 Multiplicity = 1
 C                     3.22362  -2.94329   3.25612 
 C                     2.87041  -2.01181   2.13885 
 C                     3.08105  -2.38787   0.81555 
 C                     2.77872  -1.52338  -0.22106 
 C                     2.26269  -0.27718   0.07411 
 S                     1.83462   0.83817  -1.2521 
 O                     2.61355   0.50921  -2.40735 
 O                     1.85818   2.18304  -0.7613 
 N                     0.23753   0.42257  -1.56397 
 C                    -0.8483    1.19186  -1.11736 
 C                    -0.85813   2.50421  -1.42919 
 C                    -1.77439   3.54459  -0.98061 
 C                    -1.21466   4.71069  -0.45099 
 C                    -2.02197   5.73784  -0.00559 
 C                    -3.4008    5.63282  -0.11063 
 C                    -3.96227   4.49737  -0.6682 
 C                    -3.1591    3.45709  -1.10209 
 C                    -1.81072   0.55193  -0.19786 
 O                    -2.96629   0.89858  -0.07098 
 C                    -1.24756  -0.50611   0.69514 
 C                    -1.46722  -0.33392   2.05873 
 C                    -1.04885  -1.28448   2.96884 
 C                    -0.43195  -2.43903   2.51535 
 C                    -0.23161  -2.62954   1.16266 
 C                    -0.62528  -1.66904   0.23188 
 C                    -0.39661  -1.91583  -1.19698 
 C                    -0.5657   -3.19022  -1.73518 
 C                    -0.27846  -3.44633  -3.06204 
 C                     0.19264  -2.43109  -3.87897 
 C                     0.34512  -1.15418  -3.37077 
 C                     0.04082  -0.89137  -2.04224 
 C                     2.03998   0.11859   1.37759 
 C                     2.3492   -0.75006   2.40806 
 H                     2.63945  -2.72223   4.14554 
 H                     4.27823  -2.83283   3.50911 
 H                     3.05687  -3.978     2.96669 
 H                     3.48819  -3.36427   0.59739 
 H                     2.94562  -1.78994  -1.25273 
 H                    -0.00066   2.86388  -1.98447 
 H                    -0.13955   4.78316  -0.37111 
 H                    -1.57773   6.62653   0.41889 
 H                    -4.03253   6.43935   0.23204 
 H                    -5.0349    4.41906  -0.76744 
 H                    -3.60286   2.5853   -1.55234 
 H                    -1.97562   0.5596    2.38961 
 H                    -1.21585  -1.13308   4.02455 
 H                    -0.11336  -3.19587   3.21645 
 H                     0.25428  -3.52854   0.81457 
 H                    -0.93974  -3.98209  -1.10331 
 H                    -0.41839  -4.44065  -3.45899 
 H                     0.43049  -2.63088  -4.9125 
 H                     0.71343  -0.34818  -3.98436 
 H                     1.64183   1.10352   1.56359 
 H                     2.18456  -0.44768   3.4314 
 
 ITRead=  0  0  0  0  0  0  0  0  0  0  0  0  0  0  0  0  0  0  0  0
 ITRead=  0  0  0  0  0  0  0  0  0  0  0  0  0  0  0  0  0  0  0  0
 ITRead=  0  0  0  0  0  0  0  0  0  0  0  0  0  0
 MicOpt= -1 -1 -1 -1 -1 -1 -1 -1 -1 -1 -1 -1 -1 -1 -1 -1 -1 -1 -1 -1
 MicOpt= -1 -1 -1 -1 -1 -1 -1 -1 -1 -1 -1 -1 -1 -1 -1 -1 -1 -1 -1 -1
 MicOpt= -1 -1 -1 -1 -1 -1 -1 -1 -1 -1 -1 -1 -1 -1
 NAtoms=     54 NQM=       54 NQMF=       0 NMMI=      0 NMMIF=      0
                NMic=       0 NMicF=      0.
                    Isotopes and Nuclear Properties:
 (Nuclear quadrupole moments (NQMom) in fm**2, nuclear magnetic moments (NMagM)
  in nuclear magnetons)

  Atom         1           2           3           4           5           6           7           8           9          10
 IAtWgt=          12          12          12          12          12          32          16          16          14          12
 AtmWgt=  12.0000000  12.0000000  12.0000000  12.0000000  12.0000000  31.9720718  15.9949146  15.9949146  14.0030740  12.0000000
 NucSpn=           0           0           0           0           0           0           0           0           2           0
 AtZEff=  -0.0000000  -0.0000000  -0.0000000  -0.0000000  -0.0000000  -0.0000000  -0.0000000  -0.0000000  -0.0000000  -0.0000000
 NQMom=    0.0000000   0.0000000   0.0000000   0.0000000   0.0000000   0.0000000   0.0000000   0.0000000   2.0440000   0.0000000
 NMagM=    0.0000000   0.0000000   0.0000000   0.0000000   0.0000000   0.0000000   0.0000000   0.0000000   0.4037610   0.0000000
 AtZNuc=   6.0000000   6.0000000   6.0000000   6.0000000   6.0000000  16.0000000   8.0000000   8.0000000   7.0000000   6.0000000

  Atom        11          12          13          14          15          16          17          18          19          20
 IAtWgt=          12          12          12          12          12          12          12          12          16          12
 AtmWgt=  12.0000000  12.0000000  12.0000000  12.0000000  12.0000000  12.0000000  12.0000000  12.0000000  15.9949146  12.0000000
 NucSpn=           0           0           0           0           0           0           0           0           0           0
 AtZEff=  -0.0000000  -0.0000000  -0.0000000  -0.0000000  -0.0000000  -0.0000000  -0.0000000  -0.0000000  -0.0000000  -0.0000000
 NQMom=    0.0000000   0.0000000   0.0000000   0.0000000   0.0000000   0.0000000   0.0000000   0.0000000   0.0000000   0.0000000
 NMagM=    0.0000000   0.0000000   0.0000000   0.0000000   0.0000000   0.0000000   0.0000000   0.0000000   0.0000000   0.0000000
 AtZNuc=   6.0000000   6.0000000   6.0000000   6.0000000   6.0000000   6.0000000   6.0000000   6.0000000   8.0000000   6.0000000

  Atom        21          22          23          24          25          26          27          28          29          30
 IAtWgt=          12          12          12          12          12          12          12          12          12          12
 AtmWgt=  12.0000000  12.0000000  12.0000000  12.0000000  12.0000000  12.0000000  12.0000000  12.0000000  12.0000000  12.0000000
 NucSpn=           0           0           0           0           0           0           0           0           0           0
 AtZEff=  -0.0000000  -0.0000000  -0.0000000  -0.0000000  -0.0000000  -0.0000000  -0.0000000  -0.0000000  -0.0000000  -0.0000000
 NQMom=    0.0000000   0.0000000   0.0000000   0.0000000   0.0000000   0.0000000   0.0000000   0.0000000   0.0000000   0.0000000
 NMagM=    0.0000000   0.0000000   0.0000000   0.0000000   0.0000000   0.0000000   0.0000000   0.0000000   0.0000000   0.0000000
 AtZNuc=   6.0000000   6.0000000   6.0000000   6.0000000   6.0000000   6.0000000   6.0000000   6.0000000   6.0000000   6.0000000

  Atom        31          32          33          34          35          36          37          38          39          40
 IAtWgt=          12          12          12           1           1           1           1           1           1           1
 AtmWgt=  12.0000000  12.0000000  12.0000000   1.0078250   1.0078250   1.0078250   1.0078250   1.0078250   1.0078250   1.0078250
 NucSpn=           0           0           0           1           1           1           1           1           1           1
 AtZEff=  -0.0000000  -0.0000000  -0.0000000  -0.0000000  -0.0000000  -0.0000000  -0.0000000  -0.0000000  -0.0000000  -0.0000000
 NQMom=    0.0000000   0.0000000   0.0000000   0.0000000   0.0000000   0.0000000   0.0000000   0.0000000   0.0000000   0.0000000
 NMagM=    0.0000000   0.0000000   0.0000000   2.7928460   2.7928460   2.7928460   2.7928460   2.7928460   2.7928460   2.7928460
 AtZNuc=   6.0000000   6.0000000   6.0000000   1.0000000   1.0000000   1.0000000   1.0000000   1.0000000   1.0000000   1.0000000

  Atom        41          42          43          44          45          46          47          48          49          50
 IAtWgt=           1           1           1           1           1           1           1           1           1           1
 AtmWgt=   1.0078250   1.0078250   1.0078250   1.0078250   1.0078250   1.0078250   1.0078250   1.0078250   1.0078250   1.0078250
 NucSpn=           1           1           1           1           1           1           1           1           1           1
 AtZEff=  -0.0000000  -0.0000000  -0.0000000  -0.0000000  -0.0000000  -0.0000000  -0.0000000  -0.0000000  -0.0000000  -0.0000000
 NQMom=    0.0000000   0.0000000   0.0000000   0.0000000   0.0000000   0.0000000   0.0000000   0.0000000   0.0000000   0.0000000
 NMagM=    2.7928460   2.7928460   2.7928460   2.7928460   2.7928460   2.7928460   2.7928460   2.7928460   2.7928460   2.7928460
 AtZNuc=   1.0000000   1.0000000   1.0000000   1.0000000   1.0000000   1.0000000   1.0000000   1.0000000   1.0000000   1.0000000

  Atom        51          52          53          54
 IAtWgt=           1           1           1           1
 AtmWgt=   1.0078250   1.0078250   1.0078250   1.0078250
 NucSpn=           1           1           1           1
 AtZEff=  -0.0000000  -0.0000000  -0.0000000  -0.0000000
 NQMom=    0.0000000   0.0000000   0.0000000   0.0000000
 NMagM=    2.7928460   2.7928460   2.7928460   2.7928460
 AtZNuc=   1.0000000   1.0000000   1.0000000   1.0000000
 Leave Link  101 at Fri Nov  4 22:02:26 2022, MaxMem=   805306368 cpu:               1.3 elap:               0.2
 (Enter /home/wykgroup/appl/g16/l103.exe)

 GradGradGradGradGradGradGradGradGradGradGradGradGradGradGradGradGradGrad
 Berny optimization.
 Initialization pass.
                           ----------------------------
                           !    Initial Parameters    !
                           ! (Angstroms and Degrees)  !
 --------------------------                            --------------------------
 ! Name  Definition              Value          Derivative Info.                !
 --------------------------------------------------------------------------------
 ! R1    R(1,2)                  1.4969         estimate D2E/DX2                !
 ! R2    R(1,34)                 1.0868         estimate D2E/DX2                !
 ! R3    R(1,35)                 1.0901         estimate D2E/DX2                !
 ! R4    R(1,36)                 1.0873         estimate D2E/DX2                !
 ! R5    R(2,3)                  1.3917         estimate D2E/DX2                !
 ! R6    R(2,33)                 1.3915         estimate D2E/DX2                !
 ! R7    R(3,4)                  1.3832         estimate D2E/DX2                !
 ! R8    R(3,37)                 1.0801         estimate D2E/DX2                !
 ! R9    R(4,5)                  1.3807         estimate D2E/DX2                !
 ! R10   R(4,38)                 1.0785         estimate D2E/DX2                !
 ! R11   R(5,6)                  1.785          estimate D2E/DX2                !
 ! R12   R(5,32)                 1.3803         estimate D2E/DX2                !
 ! R13   R(6,7)                  1.4316         estimate D2E/DX2                !
 ! R14   R(6,8)                  1.4318         estimate D2E/DX2                !
 ! R15   R(6,9)                  1.6795         estimate D2E/DX2                !
 ! R16   R(9,10)                 1.4037         estimate D2E/DX2                !
 ! R17   R(9,31)                 1.412          estimate D2E/DX2                !
 ! R18   R(10,11)                1.3489         estimate D2E/DX2                !
 ! R19   R(10,18)                1.4769         estimate D2E/DX2                !
 ! R20   R(11,12)                1.4571         estimate D2E/DX2                !
 ! R21   R(11,39)                1.083          estimate D2E/DX2                !
 ! R22   R(12,13)                1.3977         estimate D2E/DX2                !
 ! R23   R(12,17)                1.3928         estimate D2E/DX2                !
 ! R24   R(13,14)                1.3803         estimate D2E/DX2                !
 ! R25   R(13,40)                1.0805         estimate D2E/DX2                !
 ! R26   R(14,15)                1.3868         estimate D2E/DX2                !
 ! R27   R(14,41)                1.0804         estimate D2E/DX2                !
 ! R28   R(15,16)                1.384          estimate D2E/DX2                !
 ! R29   R(15,42)                1.0803         estimate D2E/DX2                !
 ! R30   R(16,17)                1.384          estimate D2E/DX2                !
 ! R31   R(16,43)                1.0801         estimate D2E/DX2                !
 ! R32   R(17,44)                1.0769         estimate D2E/DX2                !
 ! R33   R(18,19)                1.2131         estimate D2E/DX2                !
 ! R34   R(18,20)                1.4947         estimate D2E/DX2                !
 ! R35   R(20,21)                1.3919         estimate D2E/DX2                !
 ! R36   R(20,25)                1.3979         estimate D2E/DX2                !
 ! R37   R(21,22)                1.3809         estimate D2E/DX2                !
 ! R38   R(21,45)                1.08           estimate D2E/DX2                !
 ! R39   R(22,23)                1.3854         estimate D2E/DX2                !
 ! R40   R(22,46)                1.0795         estimate D2E/DX2                !
 ! R41   R(23,24)                1.3807         estimate D2E/DX2                !
 ! R42   R(23,47)                1.0797         estimate D2E/DX2                !
 ! R43   R(24,25)                1.3942         estimate D2E/DX2                !
 ! R44   R(24,48)                1.0796         estimate D2E/DX2                !
 ! R45   R(25,26)                1.4679         estimate D2E/DX2                !
 ! R46   R(26,27)                1.3937         estimate D2E/DX2                !
 ! R47   R(26,31)                1.3983         estimate D2E/DX2                !
 ! R48   R(27,28)                1.3815         estimate D2E/DX2                !
 ! R49   R(27,49)                1.0799         estimate D2E/DX2                !
 ! R50   R(28,29)                1.3856         estimate D2E/DX2                !
 ! R51   R(28,50)                1.0797         estimate D2E/DX2                !
 ! R52   R(29,30)                1.3828         estimate D2E/DX2                !
 ! R53   R(29,51)                1.0792         estimate D2E/DX2                !
 ! R54   R(30,31)                1.388          estimate D2E/DX2                !
 ! R55   R(30,52)                1.0779         estimate D2E/DX2                !
 ! R56   R(32,33)                1.3828         estimate D2E/DX2                !
 ! R57   R(32,53)                1.0785         estimate D2E/DX2                !
 ! R58   R(33,54)                1.0797         estimate D2E/DX2                !
 ! A1    A(2,1,34)             110.9419         estimate D2E/DX2                !
 ! A2    A(2,1,35)             109.7817         estimate D2E/DX2                !
 ! A3    A(2,1,36)             110.9351         estimate D2E/DX2                !
 ! A4    A(34,1,35)            108.0259         estimate D2E/DX2                !
 ! A5    A(34,1,36)            109.2062         estimate D2E/DX2                !
 ! A6    A(35,1,36)            107.8527         estimate D2E/DX2                !
 ! A7    A(1,2,3)              120.3867         estimate D2E/DX2                !
 ! A8    A(1,2,33)             120.547          estimate D2E/DX2                !
 ! A9    A(3,2,33)             119.0569         estimate D2E/DX2                !
 ! A10   A(2,3,4)              120.7046         estimate D2E/DX2                !
 ! A11   A(2,3,37)             119.5606         estimate D2E/DX2                !
 ! A12   A(4,3,37)             119.7345         estimate D2E/DX2                !
 ! A13   A(3,4,5)              119.0492         estimate D2E/DX2                !
 ! A14   A(3,4,38)             121.908          estimate D2E/DX2                !
 ! A15   A(5,4,38)             119.0385         estimate D2E/DX2                !
 ! A16   A(4,5,6)              119.6544         estimate D2E/DX2                !
 ! A17   A(4,5,32)             121.397          estimate D2E/DX2                !
 ! A18   A(6,5,32)             118.9321         estimate D2E/DX2                !
 ! A19   A(5,6,7)              108.9955         estimate D2E/DX2                !
 ! A20   A(5,6,8)              109.1648         estimate D2E/DX2                !
 ! A21   A(5,6,9)              102.2041         estimate D2E/DX2                !
 ! A22   A(7,6,8)              118.913          estimate D2E/DX2                !
 ! A23   A(7,6,9)              108.1005         estimate D2E/DX2                !
 ! A24   A(8,6,9)              108.1635         estimate D2E/DX2                !
 ! A25   A(6,9,10)             122.7453         estimate D2E/DX2                !
 ! A26   A(6,9,31)             115.191          estimate D2E/DX2                !
 ! A27   A(10,9,31)            120.6624         estimate D2E/DX2                !
 ! A28   A(9,10,11)            117.7284         estimate D2E/DX2                !
 ! A29   A(9,10,18)            117.6916         estimate D2E/DX2                !
 ! A30   A(11,10,18)           124.1056         estimate D2E/DX2                !
 ! A31   A(10,11,12)           128.907          estimate D2E/DX2                !
 ! A32   A(10,11,39)           115.839          estimate D2E/DX2                !
 ! A33   A(12,11,39)           114.7455         estimate D2E/DX2                !
 ! A34   A(11,12,13)           117.4206         estimate D2E/DX2                !
 ! A35   A(11,12,17)           123.606          estimate D2E/DX2                !
 ! A36   A(13,12,17)           118.9211         estimate D2E/DX2                !
 ! A37   A(12,13,14)           120.5901         estimate D2E/DX2                !
 ! A38   A(12,13,40)           118.8442         estimate D2E/DX2                !
 ! A39   A(14,13,40)           120.5446         estimate D2E/DX2                !
 ! A40   A(13,14,15)           120.0487         estimate D2E/DX2                !
 ! A41   A(13,14,41)           119.8935         estimate D2E/DX2                !
 ! A42   A(15,14,41)           120.0565         estimate D2E/DX2                !
 ! A43   A(14,15,16)           119.736          estimate D2E/DX2                !
 ! A44   A(14,15,42)           120.057          estimate D2E/DX2                !
 ! A45   A(16,15,42)           120.2038         estimate D2E/DX2                !
 ! A46   A(15,16,17)           120.4994         estimate D2E/DX2                !
 ! A47   A(15,16,43)           119.9613         estimate D2E/DX2                !
 ! A48   A(17,16,43)           119.5393         estimate D2E/DX2                !
 ! A49   A(12,17,16)           120.1583         estimate D2E/DX2                !
 ! A50   A(12,17,44)           119.8027         estimate D2E/DX2                !
 ! A51   A(16,17,44)           120.0284         estimate D2E/DX2                !
 ! A52   A(10,18,19)           124.1971         estimate D2E/DX2                !
 ! A53   A(10,18,20)           115.6684         estimate D2E/DX2                !
 ! A54   A(19,18,20)           119.9142         estimate D2E/DX2                !
 ! A55   A(18,20,21)           115.9948         estimate D2E/DX2                !
 ! A56   A(18,20,25)           123.959          estimate D2E/DX2                !
 ! A57   A(21,20,25)           119.8556         estimate D2E/DX2                !
 ! A58   A(20,21,22)           120.8445         estimate D2E/DX2                !
 ! A59   A(20,21,45)           118.4766         estimate D2E/DX2                !
 ! A60   A(22,21,45)           120.6786         estimate D2E/DX2                !
 ! A61   A(21,22,23)           119.5279         estimate D2E/DX2                !
 ! A62   A(21,22,46)           120.0744         estimate D2E/DX2                !
 ! A63   A(23,22,46)           120.3914         estimate D2E/DX2                !
 ! A64   A(22,23,24)           120.0219         estimate D2E/DX2                !
 ! A65   A(22,23,47)           120.1986         estimate D2E/DX2                !
 ! A66   A(24,23,47)           119.7777         estimate D2E/DX2                !
 ! A67   A(23,24,25)           121.2005         estimate D2E/DX2                !
 ! A68   A(23,24,48)           119.7436         estimate D2E/DX2                !
 ! A69   A(25,24,48)           119.0466         estimate D2E/DX2                !
 ! A70   A(20,25,24)           118.5259         estimate D2E/DX2                !
 ! A71   A(20,25,26)           122.1246         estimate D2E/DX2                !
 ! A72   A(24,25,26)           119.3414         estimate D2E/DX2                !
 ! A73   A(25,26,27)           120.7121         estimate D2E/DX2                !
 ! A74   A(25,26,31)           120.9275         estimate D2E/DX2                !
 ! A75   A(27,26,31)           118.323          estimate D2E/DX2                !
 ! A76   A(26,27,28)           121.0094         estimate D2E/DX2                !
 ! A77   A(26,27,49)           119.116          estimate D2E/DX2                !
 ! A78   A(28,27,49)           119.8696         estimate D2E/DX2                !
 ! A79   A(27,28,29)           120.0724         estimate D2E/DX2                !
 ! A80   A(27,28,50)           119.7926         estimate D2E/DX2                !
 ! A81   A(29,28,50)           120.1345         estimate D2E/DX2                !
 ! A82   A(28,29,30)           119.8286         estimate D2E/DX2                !
 ! A83   A(28,29,51)           120.259          estimate D2E/DX2                !
 ! A84   A(30,29,51)           119.9091         estimate D2E/DX2                !
 ! A85   A(29,30,31)           120.1613         estimate D2E/DX2                !
 ! A86   A(29,30,52)           121.2649         estimate D2E/DX2                !
 ! A87   A(31,30,52)           118.5675         estimate D2E/DX2                !
 ! A88   A(9,31,26)            121.3703         estimate D2E/DX2                !
 ! A89   A(9,31,30)            118.0226         estimate D2E/DX2                !
 ! A90   A(26,31,30)           120.5595         estimate D2E/DX2                !
 ! A91   A(5,32,33)            119.1789         estimate D2E/DX2                !
 ! A92   A(5,32,53)            118.9641         estimate D2E/DX2                !
 ! A93   A(33,32,53)           121.8515         estimate D2E/DX2                !
 ! A94   A(2,33,32)            120.612          estimate D2E/DX2                !
 ! A95   A(2,33,54)            119.6336         estimate D2E/DX2                !
 ! A96   A(32,33,54)           119.7545         estimate D2E/DX2                !
 ! D1    D(34,1,2,3)          -155.5921         estimate D2E/DX2                !
 ! D2    D(34,1,2,33)           25.5334         estimate D2E/DX2                !
 ! D3    D(35,1,2,3)            85.0834         estimate D2E/DX2                !
 ! D4    D(35,1,2,33)          -93.7911         estimate D2E/DX2                !
 ! D5    D(36,1,2,3)           -34.022          estimate D2E/DX2                !
 ! D6    D(36,1,2,33)          147.1034         estimate D2E/DX2                !
 ! D7    D(1,2,3,4)           -178.871          estimate D2E/DX2                !
 ! D8    D(1,2,3,37)             0.919          estimate D2E/DX2                !
 ! D9    D(33,2,3,4)             0.0202         estimate D2E/DX2                !
 ! D10   D(33,2,3,37)          179.8102         estimate D2E/DX2                !
 ! D11   D(1,2,33,32)          179.089          estimate D2E/DX2                !
 ! D12   D(1,2,33,54)           -0.9452         estimate D2E/DX2                !
 ! D13   D(3,2,33,32)            0.1996         estimate D2E/DX2                !
 ! D14   D(3,2,33,54)         -179.8346         estimate D2E/DX2                !
 ! D15   D(2,3,4,5)             -0.0172         estimate D2E/DX2                !
 ! D16   D(2,3,4,38)           179.222          estimate D2E/DX2                !
 ! D17   D(37,3,4,5)          -179.8068         estimate D2E/DX2                !
 ! D18   D(37,3,4,38)           -0.5677         estimate D2E/DX2                !
 ! D19   D(3,4,5,6)           -178.7168         estimate D2E/DX2                !
 ! D20   D(3,4,5,32)            -0.2079         estimate D2E/DX2                !
 ! D21   D(38,4,5,6)             2.0219         estimate D2E/DX2                !
 ! D22   D(38,4,5,32)         -179.4692         estimate D2E/DX2                !
 ! D23   D(4,5,6,7)            -25.0697         estimate D2E/DX2                !
 ! D24   D(4,5,6,8)           -156.4433         estimate D2E/DX2                !
 ! D25   D(4,5,6,9)             89.1746         estimate D2E/DX2                !
 ! D26   D(32,5,6,7)           156.3845         estimate D2E/DX2                !
 ! D27   D(32,5,6,8)            25.0109         estimate D2E/DX2                !
 ! D28   D(32,5,6,9)           -89.3712         estimate D2E/DX2                !
 ! D29   D(4,5,32,33)            0.424          estimate D2E/DX2                !
 ! D30   D(4,5,32,53)          179.5838         estimate D2E/DX2                !
 ! D31   D(6,5,32,33)          178.9434         estimate D2E/DX2                !
 ! D32   D(6,5,32,53)           -1.8968         estimate D2E/DX2                !
 ! D33   D(5,6,9,10)           102.4499         estimate D2E/DX2                !
 ! D34   D(5,6,9,31)           -64.0974         estimate D2E/DX2                !
 ! D35   D(7,6,9,10)          -142.649          estimate D2E/DX2                !
 ! D36   D(7,6,9,31)            50.8036         estimate D2E/DX2                !
 ! D37   D(8,6,9,10)           -12.6658         estimate D2E/DX2                !
 ! D38   D(8,6,9,31)          -179.2132         estimate D2E/DX2                !
 ! D39   D(6,9,10,11)           53.5266         estimate D2E/DX2                !
 ! D40   D(6,9,10,18)         -118.8996         estimate D2E/DX2                !
 ! D41   D(31,9,10,11)        -140.6394         estimate D2E/DX2                !
 ! D42   D(31,9,10,18)          46.9343         estimate D2E/DX2                !
 ! D43   D(6,9,31,26)          100.813          estimate D2E/DX2                !
 ! D44   D(6,9,31,30)          -76.6927         estimate D2E/DX2                !
 ! D45   D(10,9,31,26)         -66.0385         estimate D2E/DX2                !
 ! D46   D(10,9,31,30)         116.4557         estimate D2E/DX2                !
 ! D47   D(9,10,11,12)        -172.8716         estimate D2E/DX2                !
 ! D48   D(9,10,11,39)          -1.5632         estimate D2E/DX2                !
 ! D49   D(18,10,11,12)         -0.9743         estimate D2E/DX2                !
 ! D50   D(18,10,11,39)        170.3341         estimate D2E/DX2                !
 ! D51   D(9,10,18,19)        -155.3397         estimate D2E/DX2                !
 ! D52   D(9,10,18,20)          30.0781         estimate D2E/DX2                !
 ! D53   D(11,10,18,19)         32.7603         estimate D2E/DX2                !
 ! D54   D(11,10,18,20)       -141.822          estimate D2E/DX2                !
 ! D55   D(10,11,12,13)        128.7051         estimate D2E/DX2                !
 ! D56   D(10,11,12,17)        -53.9583         estimate D2E/DX2                !
 ! D57   D(39,11,12,13)        -42.6819         estimate D2E/DX2                !
 ! D58   D(39,11,12,17)        134.6546         estimate D2E/DX2                !
 ! D59   D(11,12,13,14)       -179.9615         estimate D2E/DX2                !
 ! D60   D(11,12,13,40)         -1.6238         estimate D2E/DX2                !
 ! D61   D(17,12,13,14)          2.5727         estimate D2E/DX2                !
 ! D62   D(17,12,13,40)       -179.0895         estimate D2E/DX2                !
 ! D63   D(11,12,17,16)       -179.0897         estimate D2E/DX2                !
 ! D64   D(11,12,17,44)         -0.273          estimate D2E/DX2                !
 ! D65   D(13,12,17,16)         -1.7908         estimate D2E/DX2                !
 ! D66   D(13,12,17,44)        177.026          estimate D2E/DX2                !
 ! D67   D(12,13,14,15)         -1.5587         estimate D2E/DX2                !
 ! D68   D(12,13,14,41)        178.8508         estimate D2E/DX2                !
 ! D69   D(40,13,14,15)       -179.8681         estimate D2E/DX2                !
 ! D70   D(40,13,14,41)          0.5414         estimate D2E/DX2                !
 ! D71   D(13,14,15,16)         -0.2604         estimate D2E/DX2                !
 ! D72   D(13,14,15,42)       -179.6029         estimate D2E/DX2                !
 ! D73   D(41,14,15,16)        179.3294         estimate D2E/DX2                !
 ! D74   D(41,14,15,42)         -0.013          estimate D2E/DX2                !
 ! D75   D(14,15,16,17)          1.0369         estimate D2E/DX2                !
 ! D76   D(14,15,16,43)       -178.9411         estimate D2E/DX2                !
 ! D77   D(42,15,16,17)       -179.6216         estimate D2E/DX2                !
 ! D78   D(42,15,16,43)          0.4004         estimate D2E/DX2                !
 ! D79   D(15,16,17,12)          0.0068         estimate D2E/DX2                !
 ! D80   D(15,16,17,44)       -178.8073         estimate D2E/DX2                !
 ! D81   D(43,16,17,12)        179.9849         estimate D2E/DX2                !
 ! D82   D(43,16,17,44)          1.1708         estimate D2E/DX2                !
 ! D83   D(10,18,20,21)        125.4031         estimate D2E/DX2                !
 ! D84   D(10,18,20,25)        -59.6358         estimate D2E/DX2                !
 ! D85   D(19,18,20,21)        -49.4278         estimate D2E/DX2                !
 ! D86   D(19,18,20,25)        125.5333         estimate D2E/DX2                !
 ! D87   D(18,20,21,22)        176.762          estimate D2E/DX2                !
 ! D88   D(18,20,21,45)         -3.054          estimate D2E/DX2                !
 ! D89   D(25,20,21,22)          1.5805         estimate D2E/DX2                !
 ! D90   D(25,20,21,45)       -178.2355         estimate D2E/DX2                !
 ! D91   D(18,20,25,24)       -175.1555         estimate D2E/DX2                !
 ! D92   D(18,20,25,26)          3.8075         estimate D2E/DX2                !
 ! D93   D(21,20,25,24)         -0.3782         estimate D2E/DX2                !
 ! D94   D(21,20,25,26)        178.5847         estimate D2E/DX2                !
 ! D95   D(20,21,22,23)         -1.5901         estimate D2E/DX2                !
 ! D96   D(20,21,22,46)        179.316          estimate D2E/DX2                !
 ! D97   D(45,21,22,23)        178.2218         estimate D2E/DX2                !
 ! D98   D(45,21,22,46)         -0.8721         estimate D2E/DX2                !
 ! D99   D(21,22,23,24)          0.4015         estimate D2E/DX2                !
 ! D100  D(21,22,23,47)       -179.1176         estimate D2E/DX2                !
 ! D101  D(46,22,23,24)        179.4925         estimate D2E/DX2                !
 ! D102  D(46,22,23,47)         -0.0266         estimate D2E/DX2                !
 ! D103  D(22,23,24,25)          0.7983         estimate D2E/DX2                !
 ! D104  D(22,23,24,48)        179.6776         estimate D2E/DX2                !
 ! D105  D(47,23,24,25)       -179.6806         estimate D2E/DX2                !
 ! D106  D(47,23,24,48)         -0.8012         estimate D2E/DX2                !
 ! D107  D(23,24,25,20)         -0.8012         estimate D2E/DX2                !
 ! D108  D(23,24,25,26)       -179.7937         estimate D2E/DX2                !
 ! D109  D(48,24,25,20)       -179.6882         estimate D2E/DX2                !
 ! D110  D(48,24,25,26)          1.3193         estimate D2E/DX2                !
 ! D111  D(20,25,26,27)       -140.6539         estimate D2E/DX2                !
 ! D112  D(20,25,26,31)         41.6071         estimate D2E/DX2                !
 ! D113  D(24,25,26,27)         38.3009         estimate D2E/DX2                !
 ! D114  D(24,25,26,31)       -139.4382         estimate D2E/DX2                !
 ! D115  D(25,26,27,28)       -176.2494         estimate D2E/DX2                !
 ! D116  D(25,26,27,49)          4.5671         estimate D2E/DX2                !
 ! D117  D(31,26,27,28)          1.5474         estimate D2E/DX2                !
 ! D118  D(31,26,27,49)       -177.6361         estimate D2E/DX2                !
 ! D119  D(25,26,31,9)          -2.0142         estimate D2E/DX2                !
 ! D120  D(25,26,31,30)        175.4287         estimate D2E/DX2                !
 ! D121  D(27,26,31,9)        -179.8061         estimate D2E/DX2                !
 ! D122  D(27,26,31,30)         -2.3631         estimate D2E/DX2                !
 ! D123  D(26,27,28,29)          0.3629         estimate D2E/DX2                !
 ! D124  D(26,27,28,50)       -179.8879         estimate D2E/DX2                !
 ! D125  D(49,27,28,29)        179.5403         estimate D2E/DX2                !
 ! D126  D(49,27,28,50)         -0.7104         estimate D2E/DX2                !
 ! D127  D(27,28,29,30)         -1.4915         estimate D2E/DX2                !
 ! D128  D(27,28,29,51)        179.1802         estimate D2E/DX2                !
 ! D129  D(50,28,29,30)        178.7601         estimate D2E/DX2                !
 ! D130  D(50,28,29,51)         -0.5682         estimate D2E/DX2                !
 ! D131  D(28,29,30,31)          0.6727         estimate D2E/DX2                !
 ! D132  D(28,29,30,52)        179.7477         estimate D2E/DX2                !
 ! D133  D(51,29,30,31)       -179.9966         estimate D2E/DX2                !
 ! D134  D(51,29,30,52)         -0.9216         estimate D2E/DX2                !
 ! D135  D(29,30,31,9)         178.807          estimate D2E/DX2                !
 ! D136  D(29,30,31,26)          1.2802         estimate D2E/DX2                !
 ! D137  D(52,30,31,9)          -0.2927         estimate D2E/DX2                !
 ! D138  D(52,30,31,26)       -177.8196         estimate D2E/DX2                !
 ! D139  D(5,32,33,2)           -0.4175         estimate D2E/DX2                !
 ! D140  D(5,32,33,54)         179.6168         estimate D2E/DX2                !
 ! D141  D(53,32,33,2)        -179.552          estimate D2E/DX2                !
 ! D142  D(53,32,33,54)          0.4822         estimate D2E/DX2                !
 --------------------------------------------------------------------------------
 Trust Radius=3.00D-01 FncErr=1.00D-07 GrdErr=1.00D-06 EigMax=2.50D+02 EigMin=1.00D-04
 Number of steps in this run=    306 maximum allowed number of steps=    324.
 GradGradGradGradGradGradGradGradGradGradGradGradGradGradGradGradGradGrad

 Leave Link  103 at Fri Nov  4 22:02:26 2022, MaxMem=   805306368 cpu:               0.1 elap:               0.0
 (Enter /home/wykgroup/appl/g16/l202.exe)
 Stoichiometry    C28H21NO3S
 Framework group  C1[X(C28H21NO3S)]
 Deg. of freedom   156
 Full point group                 C1      NOp   1
 Largest Abelian subgroup         C1      NOp   1
 Largest concise Abelian subgroup C1      NOp   1
                         Standard orientation:                         
 ---------------------------------------------------------------------
 Center     Atomic      Atomic             Coordinates (Angstroms)
 Number     Number       Type             X           Y           Z
 ---------------------------------------------------------------------
      1          6           0        4.848850   -2.857114    0.725610
      2          6           0        3.707907   -1.934732    1.022553
      3          6           0        3.921199   -0.563856    1.132587
      4          6           0        2.875919    0.291962    1.429705
      5          6           0        1.612380   -0.232505    1.616342
      6         16           0        0.245340    0.860535    1.966427
      7          8           0        0.748799    2.059166    2.565889
      8          8           0       -0.781768    0.127011    2.642508
      9          7           0       -0.309026    1.239993    0.427152
     10          6           0       -1.455152    0.654282   -0.132876
     11          6           0       -2.601263    0.715211    0.575867
     12          6           0       -3.882197    0.077371    0.301060
     13          6           0       -4.469109   -0.659320    1.333739
     14          6           0       -5.681560   -1.291240    1.144559
     15          6           0       -6.344917   -1.172414   -0.067496
     16          6           0       -5.788887   -0.414002   -1.082887
     17          6           0       -4.565876    0.209058   -0.905205
     18          6           0       -1.288441   -0.132136   -1.371828
     19          8           0       -2.171415   -0.324929   -2.181027
     20          6           0        0.033618   -0.809931   -1.535485
     21          6           0       -0.008541   -2.182300   -1.763757
     22          6           0        1.149839   -2.897413   -1.995406
     23          6           0        2.365572   -2.234267   -2.033312
     24          6           0        2.414428   -0.869236   -1.832036
     25          6           0        1.257623   -0.135606   -1.572279
     26          6           0        1.356172    1.314851   -1.369079
     27          6           0        2.239659    2.081345   -2.126878
     28          6           0        2.393426    3.433517   -1.888884
     29          6           0        1.669583    4.047578   -0.879428
     30          6           0        0.770370    3.310035   -0.131454
     31          6           0        0.602218    1.954925   -0.380555
     32          6           0        1.373112   -1.587629    1.508333
     33          6           0        2.424534   -2.436616    1.215458
     34          1           0        4.496273   -3.773874    0.260372
     35          1           0        5.358760   -3.123249    1.651659
     36          1           0        5.574071   -2.379812    0.071056
     37          1           0        4.914783   -0.165811    0.987476
     38          1           0        3.021505    1.355753    1.531691
     39          1           0       -2.532627    1.195925    1.543930
     40          1           0       -3.944368   -0.748225    2.274071
     41          1           0       -6.116108   -1.873116    1.944495
     42          1           0       -7.296922   -1.661663   -0.213507
     43          1           0       -6.310545   -0.304971   -2.022303
     44          1           0       -4.149237    0.813085   -1.693385
     45          1           0       -0.969105   -2.675875   -1.758692
     46          1           0        1.103786   -3.963289   -2.160066
     47          1           0        3.276393   -2.780576   -2.227745
     48          1           0        3.364816   -0.357799   -1.857357
     49          1           0        2.799888    1.607601   -2.919296
     50          1           0        3.082162    4.008979   -2.489147
     51          1           0        1.797122    5.100921   -0.682250
     52          1           0        0.198266    3.763169    0.661738
     53          1           0        0.372080   -1.955654    1.668642
     54          1           0        2.249040   -3.498919    1.134943
 ---------------------------------------------------------------------
 Rotational constants (GHZ):           0.2055641           0.1054339           0.0987661
 Leave Link  202 at Fri Nov  4 22:02:26 2022, MaxMem=   805306368 cpu:               0.1 elap:               0.0
 (Enter /home/wykgroup/appl/g16/l301.exe)
 Standard basis: 6-31G(d) (6D, 7F)
 Ernie: Thresh=  0.10000D-02 Tol=  0.10000D-05 Strict=F.
 There are   541 symmetry adapted cartesian basis functions of A   symmetry.
 There are   541 symmetry adapted basis functions of A   symmetry.
   541 basis functions,  1032 primitive gaussians,   541 cartesian basis functions
   118 alpha electrons      118 beta electrons
       nuclear repulsion energy      3657.9718328721 Hartrees.
 IExCor=  402 DFT=T Ex+Corr=B3LYP ExCW=0 ScaHFX=  0.200000
 ScaDFX=  0.800000  0.720000  1.000000  0.810000 ScalE2=  1.000000  1.000000
 IRadAn=      5 IRanWt=     -1 IRanGd=            0 ICorTp=0 IEmpDi=  4
 NAtoms=   54 NActive=   54 NUniq=   54 SFac= 1.00D+00 NAtFMM=   60 NAOKFM=F Big=F
 Integral buffers will be    131072 words long.
 Raffenetti 2 integral format.
 Two-electron integral symmetry is turned on.
 Leave Link  301 at Fri Nov  4 22:02:26 2022, MaxMem=   805306368 cpu:               0.4 elap:               0.1
 (Enter /home/wykgroup/appl/g16/l302.exe)
 NPDir=0 NMtPBC=     1 NCelOv=     1 NCel=       1 NClECP=     1 NCelD=      1
         NCelK=      1 NCelE2=     1 NClLst=     1 CellRange=     0.0.
 One-electron integrals computed using PRISM.
 One-electron integral symmetry used in STVInt
 NBasis=   541 RedAO= T EigKep=  3.10D-04  NBF=   541
 NBsUse=   541 1.00D-06 EigRej= -1.00D+00 NBFU=   541
 Precomputing XC quadrature grid using
 IXCGrd= 4 IRadAn=           5 IRanWt=          -1 IRanGd=           0 AccXCQ= 0.00D+00.
 Generated NRdTot=       0 NPtTot=           0 NUsed=           0 NTot=          32
 NSgBfM=   534   533   533   534   534 MxSgAt=    54 MxSgA2=    54.
 Leave Link  302 at Fri Nov  4 22:02:27 2022, MaxMem=   805306368 cpu:               6.3 elap:               0.9
 (Enter /home/wykgroup/appl/g16/l303.exe)
 DipDrv:  MaxL=1.
 Leave Link  303 at Fri Nov  4 22:02:27 2022, MaxMem=   805306368 cpu:               0.5 elap:               0.1
 (Enter /home/wykgroup/appl/g16/l401.exe)
 ExpMin= 1.17D-01 ExpMax= 2.19D+04 ExpMxC= 3.30D+03 IAcc=3 IRadAn=         5 AccDes= 0.00D+00
 Harris functional with IExCor=  402 and IRadAn=       5 diagonalized for initial guess.
 HarFok:  IExCor=  402 AccDes= 0.00D+00 IRadAn=         5 IDoV= 1 UseB2=F ITyADJ=14
 ICtDFT=  3500011 ScaDFX=  1.000000  1.000000  1.000000  1.000000
 FoFCou: FMM=F IPFlag=           0 FMFlag=      100000 FMFlg1=           0
         NFxFlg=           0 DoJE=T BraDBF=F KetDBF=T FulRan=T
         wScrn=  0.000000 ICntrl=       500 IOpCl=  0 I1Cent=   200000004 NGrid=           0
         NMat0=    1 NMatS0=      1 NMatT0=    0 NMatD0=    1 NMtDS0=    0 NMtDT0=    0
 Petite list used in FoFCou.
 Harris En= -1758.21900902030    
 JPrj=0 DoOrth=F DoCkMO=F.
 Leave Link  401 at Fri Nov  4 22:02:31 2022, MaxMem=   805306368 cpu:              31.1 elap:               4.5
 (Enter /home/wykgroup/appl/g16/l502.exe)
 Integral symmetry usage will be decided dynamically.
 Closed shell SCF:
 Using DIIS extrapolation, IDIIS=  1040.
 NGot=   805306368 LenX=   804711417 LenY=   804418195
 Requested convergence on RMS density matrix=1.00D-08 within  32 cycles.
 Requested convergence on MAX density matrix=1.00D-06.
 Requested convergence on             energy=1.00D-06.
 No special actions if energy rises.
 Fock matrices will be formed incrementally for  20 cycles.
 Integral accuracy reduced to 1.0D-05 until final iterations.

 Cycle   1  Pass 0  IDiag  1:
 FoFJK:  IHMeth= 1 ICntrl=       0 DoSepK=F KAlg= 0 I1Cent=           0 FoldK=F
 IRaf= 730000000 NMat=       1 IRICut=       1 DoRegI=T DoRafI=F ISym2E= 0 IDoP0=0 IntGTp=1.
 FoFCou: FMM=F IPFlag=           0 FMFlag=      100000 FMFlg1=           0
         NFxFlg=           0 DoJE=F BraDBF=F KetDBF=F FulRan=T
         wScrn=  0.000000 ICntrl=         0 IOpCl=  0 I1Cent=           0 NGrid=           0
         NMat0=    1 NMatS0=      1 NMatT0=    0 NMatD0=    1 NMtDS0=    0 NMtDT0=    0
 Symmetry not used in FoFCou.
 E= -1757.21004352096    
 DIIS: error= 2.42D-02 at cycle   1 NSaved=   1.
 NSaved= 1 IEnMin= 1 EnMin= -1757.21004352096     IErMin= 1 ErrMin= 2.42D-02
 ErrMax= 2.42D-02  0.00D+00 EMaxC= 1.00D-01 BMatC= 9.90D-01 BMatP= 9.90D-01
 IDIUse=3 WtCom= 7.58D-01 WtEn= 2.42D-01
 Coeff-Com:  0.100D+01
 Coeff-En:   0.100D+01
 Coeff:      0.100D+01
 Gap=     0.220 Goal=   None    Shift=    0.000
 GapD=    0.220 DampG=1.000 DampE=0.500 DampFc=0.5000 IDamp=-1.
 Damping current iteration by 5.00D-01
 RMSDP=5.24D-03 MaxDP=5.94D-01              OVMax= 2.40D-01

 Cycle   2  Pass 0  IDiag  1:
 RMSU=  2.60D-03    CP:  9.81D-01
 E= -1757.40541742066     Delta-E=       -0.195373899698 Rises=F Damp=T
 DIIS: error= 1.30D-02 at cycle   2 NSaved=   2.
 NSaved= 2 IEnMin= 2 EnMin= -1757.40541742066     IErMin= 2 ErrMin= 1.30D-02
 ErrMax= 1.30D-02  0.00D+00 EMaxC= 1.00D-01 BMatC= 2.15D-01 BMatP= 9.90D-01
 IDIUse=3 WtCom= 8.70D-01 WtEn= 1.30D-01
 Coeff-Com:  0.253D+00 0.747D+00
 Coeff-En:   0.388D+00 0.612D+00
 Coeff:      0.271D+00 0.729D+00
 Gap=     0.274 Goal=   None    Shift=    0.000
 RMSDP=2.07D-03 MaxDP=1.54D-01 DE=-1.95D-01 OVMax= 3.04D-01

 Cycle   3  Pass 0  IDiag  1:
 RMSU=  1.75D-03    CP:  9.64D-01  5.89D-01
 E= -1757.91598085897     Delta-E=       -0.510563438306 Rises=F Damp=F
 DIIS: error= 1.44D-02 at cycle   3 NSaved=   3.
 NSaved= 3 IEnMin= 3 EnMin= -1757.91598085897     IErMin= 2 ErrMin= 1.30D-02
 ErrMax= 1.44D-02  0.00D+00 EMaxC= 1.00D-01 BMatC= 2.27D-01 BMatP= 2.15D-01
 IDIUse=3 WtCom= 8.56D-01 WtEn= 1.44D-01
 Coeff-Com:  0.759D-01 0.494D+00 0.430D+00
 Coeff-En:   0.000D+00 0.000D+00 0.100D+01
 Coeff:      0.650D-01 0.423D+00 0.512D+00
 Gap=     0.177 Goal=   None    Shift=    0.000
 RMSDP=1.58D-03 MaxDP=8.59D-02 DE=-5.11D-01 OVMax= 1.18D-01

 Cycle   4  Pass 0  IDiag  1:
 RMSU=  9.05D-04    CP:  9.70D-01  8.02D-01  3.34D-01
 E= -1758.07163706781     Delta-E=       -0.155656208840 Rises=F Damp=F
 DIIS: error= 8.18D-03 at cycle   4 NSaved=   4.
 NSaved= 4 IEnMin= 4 EnMin= -1758.07163706781     IErMin= 4 ErrMin= 8.18D-03
 ErrMax= 8.18D-03  0.00D+00 EMaxC= 1.00D-01 BMatC= 6.97D-02 BMatP= 2.15D-01
 IDIUse=3 WtCom= 9.18D-01 WtEn= 8.18D-02
 Coeff-Com:  0.240D-01 0.131D+00 0.354D+00 0.491D+00
 Coeff-En:   0.000D+00 0.000D+00 0.285D+00 0.715D+00
 Coeff:      0.220D-01 0.121D+00 0.348D+00 0.509D+00
 Gap=     0.156 Goal=   None    Shift=    0.000
 RMSDP=6.47D-04 MaxDP=3.23D-02 DE=-1.56D-01 OVMax= 6.07D-02

 Cycle   5  Pass 0  IDiag  1:
 RMSU=  2.65D-04    CP:  9.70D-01  7.23D-01  5.50D-01  5.54D-01
 E= -1758.13477954775     Delta-E=       -0.063142479943 Rises=F Damp=F
 DIIS: error= 2.43D-03 at cycle   5 NSaved=   5.
 NSaved= 5 IEnMin= 5 EnMin= -1758.13477954775     IErMin= 5 ErrMin= 2.43D-03
 ErrMax= 2.43D-03  0.00D+00 EMaxC= 1.00D-01 BMatC= 4.58D-03 BMatP= 6.97D-02
 IDIUse=3 WtCom= 9.76D-01 WtEn= 2.43D-02
 Coeff-Com:  0.429D-02 0.157D-01 0.160D+00 0.319D+00 0.502D+00
 Coeff-En:   0.000D+00 0.000D+00 0.000D+00 0.149D-01 0.985D+00
 Coeff:      0.419D-02 0.153D-01 0.156D+00 0.311D+00 0.513D+00
 Gap=     0.151 Goal=   None    Shift=    0.000
 RMSDP=1.66D-04 MaxDP=1.07D-02 DE=-6.31D-02 OVMax= 1.66D-02

 Cycle   6  Pass 0  IDiag  1:
 RMSU=  9.32D-05    CP:  9.69D-01  7.30D-01  5.46D-01  6.16D-01  5.34D-01
 E= -1758.13874237687     Delta-E=       -0.003962829115 Rises=F Damp=F
 DIIS: error= 8.39D-04 at cycle   6 NSaved=   6.
 NSaved= 6 IEnMin= 6 EnMin= -1758.13874237687     IErMin= 6 ErrMin= 8.39D-04
 ErrMax= 8.39D-04  0.00D+00 EMaxC= 1.00D-01 BMatC= 4.73D-04 BMatP= 4.58D-03
 IDIUse=3 WtCom= 9.92D-01 WtEn= 8.39D-03
 Coeff-Com:  0.440D-03-0.462D-02 0.468D-01 0.108D+00 0.295D+00 0.555D+00
 Coeff-En:   0.000D+00 0.000D+00 0.000D+00 0.000D+00 0.897D-01 0.910D+00
 Coeff:      0.436D-03-0.458D-02 0.464D-01 0.107D+00 0.293D+00 0.558D+00
 Gap=     0.153 Goal=   None    Shift=    0.000
 RMSDP=5.44D-05 MaxDP=2.38D-03 DE=-3.96D-03 OVMax= 5.38D-03

 Cycle   7  Pass 0  IDiag  1:
 RMSU=  3.05D-05    CP:  9.69D-01  7.27D-01  5.50D-01  6.12D-01  6.17D-01
                    CP:  6.00D-01
 E= -1758.13917712434     Delta-E=       -0.000434747469 Rises=F Damp=F
 DIIS: error= 1.72D-04 at cycle   7 NSaved=   7.
 NSaved= 7 IEnMin= 7 EnMin= -1758.13917712434     IErMin= 7 ErrMin= 1.72D-04
 ErrMax= 1.72D-04  0.00D+00 EMaxC= 1.00D-01 BMatC= 3.71D-05 BMatP= 4.73D-04
 IDIUse=3 WtCom= 9.98D-01 WtEn= 1.72D-03
 Coeff-Com:  0.823D-04-0.363D-02 0.108D-01 0.279D-01 0.112D+00 0.310D+00
 Coeff-Com:  0.543D+00
 Coeff-En:   0.000D+00 0.000D+00 0.000D+00 0.000D+00 0.000D+00 0.517D-02
 Coeff-En:   0.995D+00
 Coeff:      0.822D-04-0.363D-02 0.108D-01 0.278D-01 0.112D+00 0.309D+00
 Coeff:      0.544D+00
 Gap=     0.153 Goal=   None    Shift=    0.000
 RMSDP=1.66D-05 MaxDP=7.53D-04 DE=-4.35D-04 OVMax= 1.57D-03

 Cycle   8  Pass 0  IDiag  1:
 RMSU=  9.97D-06    CP:  9.69D-01  7.27D-01  5.51D-01  6.15D-01  6.14D-01
                    CP:  6.53D-01  6.13D-01
 E= -1758.13921157960     Delta-E=       -0.000034455266 Rises=F Damp=F
 DIIS: error= 6.02D-05 at cycle   8 NSaved=   8.
 NSaved= 8 IEnMin= 8 EnMin= -1758.13921157960     IErMin= 8 ErrMin= 6.02D-05
 ErrMax= 6.02D-05  0.00D+00 EMaxC= 1.00D-01 BMatC= 4.94D-06 BMatP= 3.71D-05
 IDIUse=1 WtCom= 1.00D+00 WtEn= 0.00D+00
 Coeff-Com:  0.793D-04-0.174D-02 0.186D-02 0.566D-02 0.384D-01 0.132D+00
 Coeff-Com:  0.327D+00 0.497D+00
 Coeff:      0.793D-04-0.174D-02 0.186D-02 0.566D-02 0.384D-01 0.132D+00
 Coeff:      0.327D+00 0.497D+00
 Gap=     0.153 Goal=   None    Shift=    0.000
 RMSDP=6.30D-06 MaxDP=2.71D-04 DE=-3.45D-05 OVMax= 6.83D-04

 Initial convergence to 1.0D-05 achieved.  Increase integral accuracy.
 Cycle   9  Pass 1  IDiag  1:
 E= -1758.13918690165     Delta-E=        0.000024677948 Rises=F Damp=F
 DIIS: error= 1.25D-04 at cycle   1 NSaved=   1.
 NSaved= 1 IEnMin= 1 EnMin= -1758.13918690165     IErMin= 1 ErrMin= 1.25D-04
 ErrMax= 1.25D-04  0.00D+00 EMaxC= 1.00D-01 BMatC= 3.54D-06 BMatP= 3.54D-06
 IDIUse=3 WtCom= 9.99D-01 WtEn= 1.25D-03
 Coeff-Com:  0.100D+01
 Coeff-En:   0.100D+01
 Coeff:      0.100D+01
 Gap=     0.153 Goal=   None    Shift=    0.000
 RMSDP=6.30D-06 MaxDP=2.71D-04 DE= 2.47D-05 OVMax= 5.22D-04

 Cycle  10  Pass 1  IDiag  1:
 RMSU=  5.37D-05    CP:  1.00D+00
 E= -1758.13918760834     Delta-E=       -0.000000706688 Rises=F Damp=F
 DIIS: error= 4.12D-05 at cycle   2 NSaved=   2.
 NSaved= 2 IEnMin= 2 EnMin= -1758.13918760834     IErMin= 2 ErrMin= 4.12D-05
 ErrMax= 4.12D-05  0.00D+00 EMaxC= 1.00D-01 BMatC= 2.24D-06 BMatP= 3.54D-06
 IDIUse=1 WtCom= 1.00D+00 WtEn= 0.00D+00
 Coeff-Com:  0.416D+00 0.584D+00
 Coeff:      0.416D+00 0.584D+00
 Gap=     0.153 Goal=   None    Shift=    0.000
 RMSDP=6.40D-06 MaxDP=2.40D-04 DE=-7.07D-07 OVMax= 6.58D-04

 Cycle  11  Pass 1  IDiag  1:
 RMSU=  6.40D-06    CP:  1.00D+00  9.95D-01
 E= -1758.13918804970     Delta-E=       -0.000000441362 Rises=F Damp=F
 DIIS: error= 3.90D-05 at cycle   3 NSaved=   3.
 NSaved= 3 IEnMin= 3 EnMin= -1758.13918804970     IErMin= 3 ErrMin= 3.90D-05
 ErrMax= 3.90D-05  0.00D+00 EMaxC= 1.00D-01 BMatC= 1.88D-06 BMatP= 2.24D-06
 IDIUse=1 WtCom= 1.00D+00 WtEn= 0.00D+00
 Coeff-Com:  0.149D-01 0.474D+00 0.511D+00
 Coeff:      0.149D-01 0.474D+00 0.511D+00
 Gap=     0.153 Goal=   None    Shift=    0.000
 RMSDP=3.12D-06 MaxDP=1.20D-04 DE=-4.41D-07 OVMax= 3.03D-04

 Cycle  12  Pass 1  IDiag  1:
 RMSU=  8.61D-07    CP:  1.00D+00  1.01D+00  5.38D-01
 E= -1758.13919001680     Delta-E=       -0.000001967097 Rises=F Damp=F
 DIIS: error= 9.21D-06 at cycle   4 NSaved=   4.
 NSaved= 4 IEnMin= 4 EnMin= -1758.13919001680     IErMin= 4 ErrMin= 9.21D-06
 ErrMax= 9.21D-06  0.00D+00 EMaxC= 1.00D-01 BMatC= 7.82D-08 BMatP= 1.88D-06
 IDIUse=1 WtCom= 1.00D+00 WtEn= 0.00D+00
 Coeff-Com: -0.184D-02 0.299D+00 0.336D+00 0.367D+00
 Coeff:     -0.184D-02 0.299D+00 0.336D+00 0.367D+00
 Gap=     0.153 Goal=   None    Shift=    0.000
 RMSDP=6.06D-07 MaxDP=4.50D-05 DE=-1.97D-06 OVMax= 4.79D-05

 Cycle  13  Pass 1  IDiag  1:
 RMSU=  2.51D-07    CP:  1.00D+00  1.01D+00  5.40D-01  3.61D-01
 E= -1758.13919007883     Delta-E=       -0.000000062028 Rises=F Damp=F
 DIIS: error= 2.06D-06 at cycle   5 NSaved=   5.
 NSaved= 5 IEnMin= 5 EnMin= -1758.13919007883     IErMin= 5 ErrMin= 2.06D-06
 ErrMax= 2.06D-06  0.00D+00 EMaxC= 1.00D-01 BMatC= 4.10D-09 BMatP= 7.82D-08
 IDIUse=1 WtCom= 1.00D+00 WtEn= 0.00D+00
 Coeff-Com: -0.207D-02 0.169D+00 0.191D+00 0.247D+00 0.395D+00
 Coeff:     -0.207D-02 0.169D+00 0.191D+00 0.247D+00 0.395D+00
 Gap=     0.153 Goal=   None    Shift=    0.000
 RMSDP=1.54D-07 MaxDP=1.14D-05 DE=-6.20D-08 OVMax= 1.39D-05

 Cycle  14  Pass 1  IDiag  1:
 RMSU=  7.61D-08    CP:  1.00D+00  1.01D+00  5.39D-01  4.02D-01  4.88D-01
 E= -1758.13919008270     Delta-E=       -0.000000003868 Rises=F Damp=F
 DIIS: error= 3.60D-07 at cycle   6 NSaved=   6.
 NSaved= 6 IEnMin= 6 EnMin= -1758.13919008270     IErMin= 6 ErrMin= 3.60D-07
 ErrMax= 3.60D-07  0.00D+00 EMaxC= 1.00D-01 BMatC= 1.60D-10 BMatP= 4.10D-09
 IDIUse=1 WtCom= 1.00D+00 WtEn= 0.00D+00
 Coeff-Com: -0.108D-02 0.770D-01 0.870D-01 0.118D+00 0.229D+00 0.491D+00
 Coeff:     -0.108D-02 0.770D-01 0.870D-01 0.118D+00 0.229D+00 0.491D+00
 Gap=     0.153 Goal=   None    Shift=    0.000
 RMSDP=3.32D-08 MaxDP=1.26D-06 DE=-3.87D-09 OVMax= 3.31D-06

 Cycle  15  Pass 1  IDiag  1:
 RMSU=  2.60D-08    CP:  1.00D+00  1.01D+00  5.39D-01  4.02D-01  5.28D-01
                    CP:  7.68D-01
 E= -1758.13919008278     Delta-E=       -0.000000000081 Rises=F Damp=F
 DIIS: error= 1.13D-07 at cycle   7 NSaved=   7.
 NSaved= 7 IEnMin= 7 EnMin= -1758.13919008278     IErMin= 7 ErrMin= 1.13D-07
 ErrMax= 1.13D-07  0.00D+00 EMaxC= 1.00D-01 BMatC= 1.82D-11 BMatP= 1.60D-10
 IDIUse=1 WtCom= 1.00D+00 WtEn= 0.00D+00
 Coeff-Com: -0.399D-03 0.258D-01 0.291D-01 0.416D-01 0.879D-01 0.293D+00
 Coeff-Com:  0.523D+00
 Coeff:     -0.399D-03 0.258D-01 0.291D-01 0.416D-01 0.879D-01 0.293D+00
 Coeff:      0.523D+00
 Gap=     0.153 Goal=   None    Shift=    0.000
 RMSDP=1.12D-08 MaxDP=8.29D-07 DE=-8.09D-11 OVMax= 1.10D-06

 Cycle  16  Pass 1  IDiag  1:
 RMSU=  8.31D-09    CP:  1.00D+00  1.01D+00  5.39D-01  4.03D-01  5.25D-01
                    CP:  8.13D-01  7.55D-01
 E= -1758.13919008282     Delta-E=       -0.000000000039 Rises=F Damp=F
 DIIS: error= 3.62D-08 at cycle   8 NSaved=   8.
 NSaved= 8 IEnMin= 8 EnMin= -1758.13919008282     IErMin= 8 ErrMin= 3.62D-08
 ErrMax= 3.62D-08  0.00D+00 EMaxC= 1.00D-01 BMatC= 1.80D-12 BMatP= 1.82D-11
 IDIUse=1 WtCom= 1.00D+00 WtEn= 0.00D+00
 Coeff-Com: -0.528D-04 0.251D-02 0.277D-02 0.524D-02 0.125D-01 0.864D-01
 Coeff-Com:  0.278D+00 0.612D+00
 Coeff:     -0.528D-04 0.251D-02 0.277D-02 0.524D-02 0.125D-01 0.864D-01
 Coeff:      0.278D+00 0.612D+00
 Gap=     0.153 Goal=   None    Shift=    0.000
 RMSDP=4.07D-09 MaxDP=2.16D-07 DE=-3.91D-11 OVMax= 4.80D-07

 SCF Done:  E(RB3LYP) =  -1758.13919008     A.U. after   16 cycles
            NFock= 16  Conv=0.41D-08     -V/T= 2.0074
 KE= 1.745229114245D+03 PE=-1.142027876991D+04 EE= 4.258938632710D+03
 Leave Link  502 at Fri Nov  4 22:04:49 2022, MaxMem=   805306368 cpu:             959.6 elap:             137.1
 (Enter /home/wykgroup/appl/g16/l508.exe)
 QCSCF skips out because SCF is already converged.
 Leave Link  508 at Fri Nov  4 22:04:49 2022, MaxMem=   805306368 cpu:               0.2 elap:               0.1
 (Enter /home/wykgroup/appl/g16/l601.exe)
 Copying SCF densities to generalized density rwf, IOpCl= 0 IROHF=0.

 **********************************************************************

            Population analysis using the SCF Density.

 **********************************************************************

 Orbital symmetries:
       Occupied  (A) (A) (A) (A) (A) (A) (A) (A) (A) (A) (A) (A)
                 (A) (A) (A) (A) (A) (A) (A) (A) (A) (A) (A) (A)
                 (A) (A) (A) (A) (A) (A) (A) (A) (A) (A) (A) (A)
                 (A) (A) (A) (A) (A) (A) (A) (A) (A) (A) (A) (A)
                 (A) (A) (A) (A) (A) (A) (A) (A) (A) (A) (A) (A)
                 (A) (A) (A) (A) (A) (A) (A) (A) (A) (A) (A) (A)
                 (A) (A) (A) (A) (A) (A) (A) (A) (A) (A) (A) (A)
                 (A) (A) (A) (A) (A) (A) (A) (A) (A) (A) (A) (A)
                 (A) (A) (A) (A) (A) (A) (A) (A) (A) (A) (A) (A)
                 (A) (A) (A) (A) (A) (A) (A) (A) (A) (A)
       Virtual   (A) (A) (A) (A) (A) (A) (A) (A) (A) (A) (A) (A)
                 (A) (A) (A) (A) (A) (A) (A) (A) (A) (A) (A) (A)
                 (A) (A) (A) (A) (A) (A) (A) (A) (A) (A) (A) (A)
                 (A) (A) (A) (A) (A) (A) (A) (A) (A) (A) (A) (A)
                 (A) (A) (A) (A) (A) (A) (A) (A) (A) (A) (A) (A)
                 (A) (A) (A) (A) (A) (A) (A) (A) (A) (A) (A) (A)
                 (A) (A) (A) (A) (A) (A) (A) (A) (A) (A) (A) (A)
                 (A) (A) (A) (A) (A) (A) (A) (A) (A) (A) (A) (A)
                 (A) (A) (A) (A) (A) (A) (A) (A) (A) (A) (A) (A)
                 (A) (A) (A) (A) (A) (A) (A) (A) (A) (A) (A) (A)
                 (A) (A) (A) (A) (A) (A) (A) (A) (A) (A) (A) (A)
                 (A) (A) (A) (A) (A) (A) (A) (A) (A) (A) (A) (A)
                 (A) (A) (A) (A) (A) (A) (A) (A) (A) (A) (A) (A)
                 (A) (A) (A) (A) (A) (A) (A) (A) (A) (A) (A) (A)
                 (A) (A) (A) (A) (A) (A) (A) (A) (A) (A) (A) (A)
                 (A) (A) (A) (A) (A) (A) (A) (A) (A) (A) (A) (A)
                 (A) (A) (A) (A) (A) (A) (A) (A) (A) (A) (A) (A)
                 (A) (A) (A) (A) (A) (A) (A) (A) (A) (A) (A) (A)
                 (A) (A) (A) (A) (A) (A) (A) (A) (A) (A) (A) (A)
                 (A) (A) (A) (A) (A) (A) (A) (A) (A) (A) (A) (A)
                 (A) (A) (A) (A) (A) (A) (A) (A) (A) (A) (A) (A)
                 (A) (A) (A) (A) (A) (A) (A) (A) (A) (A) (A) (A)
                 (A) (A) (A) (A) (A) (A) (A) (A) (A) (A) (A) (A)
                 (A) (A) (A) (A) (A) (A) (A) (A) (A) (A) (A) (A)
                 (A) (A) (A) (A) (A) (A) (A) (A) (A) (A) (A) (A)
                 (A) (A) (A) (A) (A) (A) (A) (A) (A) (A) (A) (A)
                 (A) (A) (A) (A) (A) (A) (A) (A) (A) (A) (A) (A)
                 (A) (A) (A) (A) (A) (A) (A) (A) (A) (A) (A) (A)
                 (A) (A) (A) (A) (A) (A) (A) (A) (A) (A) (A) (A)
                 (A) (A) (A) (A) (A) (A) (A) (A) (A) (A) (A) (A)
                 (A) (A) (A) (A) (A) (A) (A) (A) (A) (A) (A) (A)
                 (A) (A) (A) (A) (A) (A) (A) (A) (A) (A) (A) (A)
                 (A) (A) (A) (A) (A) (A) (A) (A) (A) (A) (A) (A)
                 (A) (A) (A) (A) (A) (A) (A) (A) (A) (A) (A) (A)
                 (A) (A) (A) (A) (A) (A) (A) (A) (A) (A) (A) (A)
                 (A) (A) (A)
 The electronic state is 1-A.
 Alpha  occ. eigenvalues --  -89.11030 -19.14388 -19.14095 -19.14083 -14.37725
 Alpha  occ. eigenvalues --  -10.27753 -10.23597 -10.23446 -10.21829 -10.21102
 Alpha  occ. eigenvalues --  -10.21096 -10.21050 -10.20513 -10.20499 -10.20397
 Alpha  occ. eigenvalues --  -10.20282 -10.19994 -10.19915 -10.19900 -10.19897
 Alpha  occ. eigenvalues --  -10.19887 -10.19745 -10.19727 -10.19720 -10.19646
 Alpha  occ. eigenvalues --  -10.19635 -10.19442 -10.19235 -10.18325 -10.18268
 Alpha  occ. eigenvalues --  -10.18142 -10.17964 -10.17903  -8.13678  -6.10181
 Alpha  occ. eigenvalues --   -6.10107  -6.09945  -1.13253  -1.04716  -1.01662
 Alpha  occ. eigenvalues --   -0.97338  -0.88360  -0.87991  -0.86357  -0.85704
 Alpha  occ. eigenvalues --   -0.80742  -0.79757  -0.79409  -0.77235  -0.76434
 Alpha  occ. eigenvalues --   -0.75877  -0.74273  -0.74105  -0.73359  -0.71080
 Alpha  occ. eigenvalues --   -0.67826  -0.64980  -0.64505  -0.63346  -0.62785
 Alpha  occ. eigenvalues --   -0.60985  -0.60134  -0.59648  -0.59049  -0.58144
 Alpha  occ. eigenvalues --   -0.56006  -0.55124  -0.52907  -0.51737  -0.51070
 Alpha  occ. eigenvalues --   -0.50321  -0.48830  -0.48622  -0.48090  -0.47302
 Alpha  occ. eigenvalues --   -0.46433  -0.46263  -0.45410  -0.45338  -0.45079
 Alpha  occ. eigenvalues --   -0.44309  -0.43931  -0.43900  -0.43819  -0.43440
 Alpha  occ. eigenvalues --   -0.43310  -0.42842  -0.41494  -0.40936  -0.40258
 Alpha  occ. eigenvalues --   -0.39916  -0.39054  -0.38407  -0.38269  -0.37438
 Alpha  occ. eigenvalues --   -0.37203  -0.36607  -0.36099  -0.35884  -0.35682
 Alpha  occ. eigenvalues --   -0.35548  -0.34744  -0.34403  -0.33733  -0.33276
 Alpha  occ. eigenvalues --   -0.31631  -0.31203  -0.30386  -0.29215  -0.27578
 Alpha  occ. eigenvalues --   -0.27382  -0.26281  -0.25760  -0.25177  -0.24753
 Alpha  occ. eigenvalues --   -0.23923  -0.23666  -0.22046
 Alpha virt. eigenvalues --   -0.06787  -0.03720  -0.03094  -0.01912  -0.01278
 Alpha virt. eigenvalues --   -0.00556   0.00822   0.01030   0.02312   0.05389
 Alpha virt. eigenvalues --    0.07387   0.08781   0.08873   0.09657   0.10759
 Alpha virt. eigenvalues --    0.11158   0.11355   0.12031   0.12283   0.13158
 Alpha virt. eigenvalues --    0.13875   0.14367   0.14767   0.15630   0.15986
 Alpha virt. eigenvalues --    0.16192   0.16538   0.16718   0.17172   0.17308
 Alpha virt. eigenvalues --    0.17543   0.17921   0.18561   0.19061   0.19205
 Alpha virt. eigenvalues --    0.19760   0.20130   0.20440   0.20882   0.22448
 Alpha virt. eigenvalues --    0.23190   0.25016   0.25411   0.26273   0.27328
 Alpha virt. eigenvalues --    0.28361   0.29126   0.29712   0.30353   0.31429
 Alpha virt. eigenvalues --    0.31616   0.32003   0.32522   0.32788   0.33202
 Alpha virt. eigenvalues --    0.34016   0.34127   0.34955   0.35025   0.35439
 Alpha virt. eigenvalues --    0.36516   0.37930   0.39313   0.39773   0.40498
 Alpha virt. eigenvalues --    0.43039   0.43522   0.44087   0.45060   0.46386
 Alpha virt. eigenvalues --    0.47583   0.48216   0.48986   0.49627   0.50448
 Alpha virt. eigenvalues --    0.50952   0.51452   0.52491   0.52675   0.53658
 Alpha virt. eigenvalues --    0.54071   0.54302   0.54432   0.55191   0.55439
 Alpha virt. eigenvalues --    0.55781   0.56065   0.56434   0.56506   0.57062
 Alpha virt. eigenvalues --    0.57546   0.57949   0.58426   0.58568   0.59188
 Alpha virt. eigenvalues --    0.59435   0.59706   0.59812   0.60112   0.60289
 Alpha virt. eigenvalues --    0.60499   0.60815   0.60952   0.61272   0.61965
 Alpha virt. eigenvalues --    0.62359   0.62533   0.62628   0.64123   0.64503
 Alpha virt. eigenvalues --    0.65195   0.65455   0.65783   0.66227   0.66319
 Alpha virt. eigenvalues --    0.67661   0.68109   0.69403   0.70205   0.71397
 Alpha virt. eigenvalues --    0.71812   0.72386   0.73231   0.74195   0.75007
 Alpha virt. eigenvalues --    0.75884   0.76089   0.77058   0.77931   0.78863
 Alpha virt. eigenvalues --    0.79261   0.80095   0.80883   0.81094   0.81964
 Alpha virt. eigenvalues --    0.82207   0.82506   0.83237   0.83655   0.83784
 Alpha virt. eigenvalues --    0.83853   0.84028   0.84407   0.84643   0.84903
 Alpha virt. eigenvalues --    0.85035   0.85475   0.86129   0.86376   0.86827
 Alpha virt. eigenvalues --    0.87592   0.88112   0.88748   0.89109   0.89995
 Alpha virt. eigenvalues --    0.90803   0.91478   0.91856   0.92664   0.92901
 Alpha virt. eigenvalues --    0.93899   0.94407   0.94764   0.95396   0.96320
 Alpha virt. eigenvalues --    0.96447   0.96977   0.97051   0.97569   0.98650
 Alpha virt. eigenvalues --    1.00202   1.00618   1.01334   1.02067   1.02863
 Alpha virt. eigenvalues --    1.03191   1.03380   1.05161   1.06654   1.07351
 Alpha virt. eigenvalues --    1.07793   1.08857   1.09994   1.10994   1.11611
 Alpha virt. eigenvalues --    1.12098   1.12305   1.13290   1.13758   1.14237
 Alpha virt. eigenvalues --    1.15069   1.15415   1.15630   1.17486   1.17861
 Alpha virt. eigenvalues --    1.19921   1.20308   1.20908   1.21242   1.22053
 Alpha virt. eigenvalues --    1.23312   1.23661   1.24183   1.25341   1.26452
 Alpha virt. eigenvalues --    1.27249   1.28046   1.29497   1.29994   1.30249
 Alpha virt. eigenvalues --    1.31291   1.31662   1.32553   1.35247   1.35702
 Alpha virt. eigenvalues --    1.37291   1.38885   1.39505   1.40669   1.41094
 Alpha virt. eigenvalues --    1.42286   1.42947   1.43880   1.44138   1.44730
 Alpha virt. eigenvalues --    1.45339   1.46372   1.46954   1.47680   1.48531
 Alpha virt. eigenvalues --    1.48895   1.48968   1.49197   1.49662   1.49746
 Alpha virt. eigenvalues --    1.49828   1.51638   1.51832   1.52547   1.53676
 Alpha virt. eigenvalues --    1.54699   1.57688   1.60430   1.61017   1.62368
 Alpha virt. eigenvalues --    1.66481   1.68646   1.70203   1.72671   1.74439
 Alpha virt. eigenvalues --    1.76183   1.76937   1.78280   1.79189   1.79492
 Alpha virt. eigenvalues --    1.80249   1.80554   1.81446   1.82195   1.82384
 Alpha virt. eigenvalues --    1.83295   1.83717   1.84224   1.85160   1.85444
 Alpha virt. eigenvalues --    1.85853   1.87039   1.87837   1.88944   1.89571
 Alpha virt. eigenvalues --    1.90494   1.90975   1.91162   1.92218   1.92749
 Alpha virt. eigenvalues --    1.92971   1.93915   1.94454   1.94668   1.94934
 Alpha virt. eigenvalues --    1.96239   1.97071   1.97755   1.98503   1.98732
 Alpha virt. eigenvalues --    1.99751   2.00410   2.01575   2.02777   2.03736
 Alpha virt. eigenvalues --    2.04435   2.05839   2.06513   2.07099   2.07502
 Alpha virt. eigenvalues --    2.09798   2.10061   2.11050   2.11932   2.12768
 Alpha virt. eigenvalues --    2.13413   2.14339   2.14847   2.15416   2.16160
 Alpha virt. eigenvalues --    2.16500   2.17192   2.18051   2.18742   2.20070
 Alpha virt. eigenvalues --    2.20518   2.22361   2.22536   2.23569   2.24275
 Alpha virt. eigenvalues --    2.24287   2.25640   2.26983   2.28912   2.29758
 Alpha virt. eigenvalues --    2.30262   2.30754   2.30952   2.31824   2.32220
 Alpha virt. eigenvalues --    2.32793   2.33156   2.33525   2.33924   2.34559
 Alpha virt. eigenvalues --    2.34661   2.35840   2.36579   2.38727   2.42121
 Alpha virt. eigenvalues --    2.44481   2.44970   2.48976   2.49948   2.53711
 Alpha virt. eigenvalues --    2.54262   2.56549   2.57142   2.58163   2.59245
 Alpha virt. eigenvalues --    2.60576   2.61641   2.62889   2.64866   2.65682
 Alpha virt. eigenvalues --    2.66184   2.66653   2.67698   2.68368   2.68809
 Alpha virt. eigenvalues --    2.69641   2.71402   2.71636   2.73488   2.74723
 Alpha virt. eigenvalues --    2.75732   2.76205   2.76703   2.77163   2.77466
 Alpha virt. eigenvalues --    2.77786   2.78605   2.80438   2.81446   2.81731
 Alpha virt. eigenvalues --    2.82561   2.84105   2.85698   2.86861   2.90714
 Alpha virt. eigenvalues --    2.90976   2.93526   2.99252   3.02062   3.04317
 Alpha virt. eigenvalues --    3.05394   3.07573   3.08673   3.14623   3.24579
 Alpha virt. eigenvalues --    3.28075   3.40689   3.42312   3.46303   3.50901
 Alpha virt. eigenvalues --    3.83770   4.04257   4.05571   4.07697   4.09391
 Alpha virt. eigenvalues --    4.09833   4.10811   4.11455   4.12605   4.13189
 Alpha virt. eigenvalues --    4.14254   4.15652   4.18710   4.20652   4.23116
 Alpha virt. eigenvalues --    4.25628   4.26164   4.28238   4.32685   4.34282
 Alpha virt. eigenvalues --    4.36438   4.39689   4.41456   4.43647   4.45096
 Alpha virt. eigenvalues --    4.46296   4.49062   4.52716   4.71656   4.72786
 Alpha virt. eigenvalues --    4.74939   4.77071   4.86033
          Condensed to atoms (all electrons):
 Mulliken charges:
               1
     1  C   -0.529852
     2  C    0.181887
     3  C   -0.180568
     4  C   -0.138011
     5  C   -0.147932
     6  S    1.236753
     7  O   -0.527728
     8  O   -0.533350
     9  N   -0.746117
    10  C    0.271175
    11  C   -0.220941
    12  C    0.113573
    13  C   -0.172738
    14  C   -0.134346
    15  C   -0.120313
    16  C   -0.141625
    17  C   -0.123481
    18  C    0.320842
    19  O   -0.457836
    20  C    0.044606
    21  C   -0.165594
    22  C   -0.129319
    23  C   -0.125979
    24  C   -0.164860
    25  C    0.069739
    26  C    0.110398
    27  C   -0.204072
    28  C   -0.121773
    29  C   -0.143177
    30  C   -0.106812
    31  C    0.172769
    32  C   -0.134509
    33  C   -0.164867
    34  H    0.159546
    35  H    0.176463
    36  H    0.159651
    37  H    0.131134
    38  H    0.176431
    39  H    0.188137
    40  H    0.147882
    41  H    0.128955
    42  H    0.127838
    43  H    0.130332
    44  H    0.151509
    45  H    0.153532
    46  H    0.133286
    47  H    0.131451
    48  H    0.134162
    49  H    0.140566
    50  H    0.135790
    51  H    0.139470
    52  H    0.163493
    53  H    0.172259
    54  H    0.132170
 Sum of Mulliken charges =  -0.00000
 Mulliken charges with hydrogens summed into heavy atoms:
               1
     1  C   -0.034192
     2  C    0.181887
     3  C   -0.049433
     4  C    0.038419
     5  C   -0.147932
     6  S    1.236753
     7  O   -0.527728
     8  O   -0.533350
     9  N   -0.746117
    10  C    0.271175
    11  C   -0.032803
    12  C    0.113573
    13  C   -0.024855
    14  C   -0.005391
    15  C    0.007525
    16  C   -0.011293
    17  C    0.028027
    18  C    0.320842
    19  O   -0.457836
    20  C    0.044606
    21  C   -0.012061
    22  C    0.003967
    23  C    0.005472
    24  C   -0.030698
    25  C    0.069739
    26  C    0.110398
    27  C   -0.063506
    28  C    0.014018
    29  C   -0.003707
    30  C    0.056681
    31  C    0.172769
    32  C    0.037750
    33  C   -0.032697
 Electronic spatial extent (au):  <R**2>=          12413.1679
 Charge=             -0.0000 electrons
 Dipole moment (field-independent basis, Debye):
    X=              4.1561    Y=             -1.9935    Z=             -2.0999  Tot=              5.0652
 Quadrupole moment (field-independent basis, Debye-Ang):
   XX=           -171.0827   YY=           -177.6404   ZZ=           -207.5737
   XY=             -1.1358   XZ=             -7.4006   YZ=             -7.3540
 Traceless Quadrupole moment (field-independent basis, Debye-Ang):
   XX=             14.3496   YY=              7.7919   ZZ=            -22.1415
   XY=             -1.1358   XZ=             -7.4006   YZ=             -7.3540
 Octapole moment (field-independent basis, Debye-Ang**2):
  XXX=             17.9745  YYY=              5.1584  ZZZ=             -4.0076  XYY=             33.3068
  XXY=            -38.1102  XXZ=             -3.0440  XZZ=              4.8215  YZZ=             -9.2325
  YYZ=            -13.3938  XYZ=             -4.3210
 Hexadecapole moment (field-independent basis, Debye-Ang**3):
 XXXX=          -9394.7050 YYYY=          -3574.2657 ZZZZ=          -3016.0934 XXXY=            156.6353
 XXXZ=             58.7426 YYYX=             14.6657 YYYZ=              9.4881 ZZZX=            -48.5665
 ZZZY=            -44.9640 XXYY=          -2221.5764 XXZZ=          -2087.7267 YYZZ=          -1133.4954
 XXYZ=            -72.7386 YYXZ=            -59.8535 ZZXY=             11.2144
 N-N= 3.657971832872D+03 E-N=-1.142027880366D+04  KE= 1.745229114245D+03
 No NMR shielding tensors so no spin-rotation constants.
 Leave Link  601 at Fri Nov  4 22:04:49 2022, MaxMem=   805306368 cpu:               2.3 elap:               0.4
 (Enter /home/wykgroup/appl/g16/l701.exe)
 ... and contract with generalized density number  0.
 Compute integral first derivatives.
 Leave Link  701 at Fri Nov  4 22:04:49 2022, MaxMem=   805306368 cpu:               1.8 elap:               0.3
 (Enter /home/wykgroup/appl/g16/l702.exe)
 L702 exits ... SP integral derivatives will be done elsewhere.
 Leave Link  702 at Fri Nov  4 22:04:49 2022, MaxMem=   805306368 cpu:               0.4 elap:               0.1
 (Enter /home/wykgroup/appl/g16/l703.exe)
 Integral derivatives from FoFJK, PRISM(SPDF).
 Compute integral first derivatives, UseDBF=F ICtDFT=           0.
 Calling FoFJK, ICntrl=      2127 FMM=F ISym2X=0 I1Cent= 0 IOpClX= 0 NMat=1 NMatS=1 NMatT=0.
 FoFJK:  IHMeth= 1 ICntrl=    2127 DoSepK=F KAlg= 0 I1Cent=           0 FoldK=F
 IRaf=         0 NMat=       1 IRICut=       1 DoRegI=T DoRafI=F ISym2E= 0 IDoP0=0 IntGTp=1.
 FoFCou: FMM=F IPFlag=           0 FMFlag=      100000 FMFlg1=         800
         NFxFlg=           0 DoJE=F BraDBF=F KetDBF=F FulRan=T
         wScrn=  0.000000 ICntrl=      2127 IOpCl=  0 I1Cent=           0 NGrid=           0
         NMat0=    1 NMatS0=      1 NMatT0=    0 NMatD0=    1 NMtDS0=    0 NMtDT0=    0
 Symmetry not used in FoFCou.
 Leave Link  703 at Fri Nov  4 22:05:42 2022, MaxMem=   805306368 cpu:             365.0 elap:              52.8
 (Enter /home/wykgroup/appl/g16/l716.exe)
 Dipole        = 1.63513819D+00-7.84290244D-01-8.26168479D-01
 ***** Axes restored to original set *****
 -------------------------------------------------------------------
 Center     Atomic                   Forces (Hartrees/Bohr)
 Number     Number              X              Y              Z
 -------------------------------------------------------------------
      1        6           0.000886249    0.001393088   -0.000977419
      2        6           0.002632974   -0.002242017    0.002369788
      3        6           0.002079660   -0.001988671   -0.000720164
      4        6           0.004934988   -0.003517931   -0.007730368
      5        6           0.002675697    0.007991942   -0.008367760
      6       16           0.001550238   -0.018081643    0.021661377
      7        8           0.020925605   -0.015052207   -0.032777512
      8        8          -0.002015293    0.037530781    0.018753919
      9        7          -0.000582458   -0.001842135   -0.000512433
     10        6          -0.007877042    0.009386455   -0.006546435
     11        6          -0.003139051    0.004384943   -0.001780952
     12        6           0.001960021   -0.000851506   -0.001006297
     13        6           0.005165869    0.000177270   -0.000619508
     14        6           0.002727488    0.006537914    0.003005198
     15        6          -0.003383057    0.004765204    0.002203429
     16        6          -0.006489400    0.000074754   -0.000907710
     17        6          -0.004944771   -0.003447613   -0.003349065
     18        6           0.012803570   -0.007396116   -0.000801647
     19        8          -0.014565403    0.004556044    0.002075168
     20        6          -0.004322117    0.000910102    0.002976340
     21        6          -0.003604528    0.004218499    0.001334554
     22        6          -0.002163194    0.000689986    0.006068675
     23        6          -0.001461937   -0.005020660    0.003972825
     24        6          -0.001615366   -0.005526664   -0.001829582
     25        6          -0.000562467   -0.002157794   -0.001330638
     26        6          -0.001698721    0.000911096    0.003155934
     27        6          -0.002306955   -0.003670312    0.002039942
     28        6          -0.000094349   -0.005813733   -0.002081137
     29        6           0.001376566   -0.000581489   -0.006467508
     30        6          -0.000602814    0.001480859   -0.005090304
     31        6          -0.002214693   -0.006468845   -0.008378193
     32        6          -0.000480253    0.008124859    0.005225058
     33        6           0.001274869    0.002683811    0.001681541
     34        1          -0.001916481   -0.000698426    0.005129098
     35        1           0.004817811   -0.001376419    0.003218921
     36        1          -0.000270181   -0.005573241    0.000628392
     37        1           0.001915596   -0.004699561   -0.001318752
     38        1           0.002035707   -0.003044593   -0.003626294
     39        1           0.000522106    0.000488255   -0.001444678
     40        1           0.004711159    0.001026910    0.000291907
     41        1           0.002113890    0.003784975    0.001913828
     42        1          -0.002863975    0.003585866    0.001514775
     43        1          -0.004819954   -0.000483112   -0.000688473
     44        1          -0.000925949   -0.002526977   -0.000504485
     45        1          -0.002500672    0.003169587    0.001611732
     46        1          -0.000674898    0.000863324    0.005074907
[...]
     45          1           0        0.165617   -2.543213   -2.578577
     46          1           0        2.481600   -2.786867   -3.447177
     47          1           0        4.061728   -0.858419   -3.262731
     48          1           0        3.314894    1.239748   -2.211887
     49          1           0        1.966438    3.010178   -2.720631
     50          1           0        1.479475    5.209752   -1.715190
     51          1           0        0.148448    5.352151    0.389060
     52          1           0       -0.705250    3.259947    1.441794
     53          1           0        0.920831   -2.501868    1.302531
     54          1           0        3.111186   -3.564668    0.820389
 ---------------------------------------------------------------------
 Rotational constants (GHZ):           0.1902471           0.0936701           0.0912690
 Leave Link  202 at Sat Nov  5 00:23:17 2022, MaxMem=   805306368 cpu:               0.1 elap:               0.0
 (Enter /home/wykgroup/appl/g16/l601.exe)
 Copying SCF densities to generalized density rwf, IOpCl= 0 IROHF=0.

 **********************************************************************

            Population analysis using the SCF Density.

 **********************************************************************

 Orbital symmetries:
       Occupied  (A) (A) (A) (A) (A) (A) (A) (A) (A) (A) (A) (A)
                 (A) (A) (A) (A) (A) (A) (A) (A) (A) (A) (A) (A)
                 (A) (A) (A) (A) (A) (A) (A) (A) (A) (A) (A) (A)
                 (A) (A) (A) (A) (A) (A) (A) (A) (A) (A) (A) (A)
                 (A) (A) (A) (A) (A) (A) (A) (A) (A) (A) (A) (A)
                 (A) (A) (A) (A) (A) (A) (A) (A) (A) (A) (A) (A)
                 (A) (A) (A) (A) (A) (A) (A) (A) (A) (A) (A) (A)
                 (A) (A) (A) (A) (A) (A) (A) (A) (A) (A) (A) (A)
                 (A) (A) (A) (A) (A) (A) (A) (A) (A) (A) (A) (A)
                 (A) (A) (A) (A) (A) (A) (A) (A) (A) (A)
       Virtual   (A) (A) (A) (A) (A) (A) (A) (A) (A) (A) (A) (A)
                 (A) (A) (A) (A) (A) (A) (A) (A) (A) (A) (A) (A)
                 (A) (A) (A) (A) (A) (A) (A) (A) (A) (A) (A) (A)
                 (A) (A) (A) (A) (A) (A) (A) (A) (A) (A) (A) (A)
                 (A) (A) (A) (A) (A) (A) (A) (A) (A) (A) (A) (A)
                 (A) (A) (A) (A) (A) (A) (A) (A) (A) (A) (A) (A)
                 (A) (A) (A) (A) (A) (A) (A) (A) (A) (A) (A) (A)
                 (A) (A) (A) (A) (A) (A) (A) (A) (A) (A) (A) (A)
                 (A) (A) (A) (A) (A) (A) (A) (A) (A) (A) (A) (A)
                 (A) (A) (A) (A) (A) (A) (A) (A) (A) (A) (A) (A)
                 (A) (A) (A) (A) (A) (A) (A) (A) (A) (A) (A) (A)
                 (A) (A) (A) (A) (A) (A) (A) (A) (A) (A) (A) (A)
                 (A) (A) (A) (A) (A) (A) (A) (A) (A) (A) (A) (A)
                 (A) (A) (A) (A) (A) (A) (A) (A) (A) (A) (A) (A)
                 (A) (A) (A) (A) (A) (A) (A) (A) (A) (A) (A) (A)
                 (A) (A) (A) (A) (A) (A) (A) (A) (A) (A) (A) (A)
                 (A) (A) (A) (A) (A) (A) (A) (A) (A) (A) (A) (A)
                 (A) (A) (A) (A) (A) (A) (A) (A) (A) (A) (A) (A)
                 (A) (A) (A) (A) (A) (A) (A) (A) (A) (A) (A) (A)
                 (A) (A) (A) (A) (A) (A) (A) (A) (A) (A) (A) (A)
                 (A) (A) (A) (A) (A) (A) (A) (A) (A) (A) (A) (A)
                 (A) (A) (A) (A) (A) (A) (A) (A) (A) (A) (A) (A)
                 (A) (A) (A) (A) (A) (A) (A) (A) (A) (A) (A) (A)
                 (A) (A) (A) (A) (A) (A) (A) (A) (A) (A) (A) (A)
                 (A) (A) (A) (A) (A) (A) (A) (A) (A) (A) (A) (A)
                 (A) (A) (A) (A) (A) (A) (A) (A) (A) (A) (A) (A)
                 (A) (A) (A) (A) (A) (A) (A) (A) (A) (A) (A) (A)
                 (A) (A) (A) (A) (A) (A) (A) (A) (A) (A) (A) (A)
                 (A) (A) (A) (A) (A) (A) (A) (A) (A) (A) (A) (A)
                 (A) (A) (A) (A) (A) (A) (A) (A) (A) (A) (A) (A)
                 (A) (A) (A) (A) (A) (A) (A) (A) (A) (A) (A) (A)
                 (A) (A) (A) (A) (A) (A) (A) (A) (A) (A) (A) (A)
                 (A) (A) (A) (A) (A) (A) (A) (A) (A) (A) (A) (A)
                 (A) (A) (A) (A) (A) (A) (A) (A) (A) (A) (A) (A)
                 (A) (A) (A) (A) (A) (A) (A) (A) (A) (A) (A) (A)
                 (A) (A) (A)
 The electronic state is 1-A.
 Alpha  occ. eigenvalues --  -89.10892 -19.14058 -19.13921 -19.13597 -14.37072
 Alpha  occ. eigenvalues --  -10.27827 -10.23744 -10.23675 -10.22297 -10.21807
 Alpha  occ. eigenvalues --  -10.21557 -10.21424 -10.21068 -10.20792 -10.20767
 Alpha  occ. eigenvalues --  -10.20634 -10.20588 -10.20205 -10.20128 -10.20111
 Alpha  occ. eigenvalues --  -10.19965 -10.19909 -10.19903 -10.19809 -10.19805
 Alpha  occ. eigenvalues --  -10.19728 -10.19699 -10.19677 -10.19658 -10.19543
 Alpha  occ. eigenvalues --  -10.19254 -10.18977 -10.18479  -8.13359  -6.09873
 Alpha  occ. eigenvalues --   -6.09780  -6.09655  -1.10703  -1.03666  -0.99888
 Alpha  occ. eigenvalues --   -0.95072  -0.87305  -0.87201  -0.85902  -0.85269
 Alpha  occ. eigenvalues --   -0.79881  -0.79125  -0.78642  -0.76542  -0.75929
 Alpha  occ. eigenvalues --   -0.75437  -0.74556  -0.73781  -0.72864  -0.70658
 Alpha  occ. eigenvalues --   -0.67355  -0.64659  -0.63927  -0.62938  -0.62219
 Alpha  occ. eigenvalues --   -0.60829  -0.60220  -0.59242  -0.58888  -0.57626
 Alpha  occ. eigenvalues --   -0.55117  -0.54592  -0.52514  -0.51599  -0.50398
 Alpha  occ. eigenvalues --   -0.50049  -0.48220  -0.48042  -0.47665  -0.46840
 Alpha  occ. eigenvalues --   -0.46496  -0.45889  -0.45314  -0.45090  -0.44609
 Alpha  occ. eigenvalues --   -0.44017  -0.43754  -0.43396  -0.43110  -0.43066
 Alpha  occ. eigenvalues --   -0.42879  -0.42239  -0.41185  -0.40287  -0.39740
 Alpha  occ. eigenvalues --   -0.39600  -0.38203  -0.37886  -0.37665  -0.37145
 Alpha  occ. eigenvalues --   -0.37071  -0.36654  -0.36012  -0.35705  -0.35447
 Alpha  occ. eigenvalues --   -0.35402  -0.34745  -0.33879  -0.33637  -0.32039
 Alpha  occ. eigenvalues --   -0.30840  -0.30285  -0.29632  -0.28840  -0.28059
 Alpha  occ. eigenvalues --   -0.26840  -0.26105  -0.25813  -0.25166  -0.24802
 Alpha  occ. eigenvalues --   -0.24084  -0.23346  -0.22592
 Alpha virt. eigenvalues --   -0.08288  -0.03846  -0.03527  -0.01854  -0.01599
 Alpha virt. eigenvalues --   -0.01043   0.00050   0.01317   0.02822   0.05602
 Alpha virt. eigenvalues --    0.07859   0.08238   0.09125   0.09503   0.10495
 Alpha virt. eigenvalues --    0.10529   0.10847   0.11457   0.12478   0.12828
 Alpha virt. eigenvalues --    0.13619   0.13837   0.14222   0.14370   0.15697
 Alpha virt. eigenvalues --    0.16116   0.16469   0.16489   0.16816   0.16917
 Alpha virt. eigenvalues --    0.17641   0.17903   0.18324   0.18434   0.19089
 Alpha virt. eigenvalues --    0.19332   0.19648   0.20376   0.22119   0.22292
 Alpha virt. eigenvalues --    0.23056   0.23877   0.25173   0.26332   0.26789
 Alpha virt. eigenvalues --    0.27350   0.28448   0.29494   0.29690   0.30344
 Alpha virt. eigenvalues --    0.30462   0.31341   0.31773   0.31961   0.33043
 Alpha virt. eigenvalues --    0.33314   0.34164   0.34351   0.35196   0.35956
 Alpha virt. eigenvalues --    0.36390   0.36842   0.38420   0.39005   0.41473
 Alpha virt. eigenvalues --    0.42355   0.42947   0.44554   0.46575   0.47444
 Alpha virt. eigenvalues --    0.48277   0.49264   0.49584   0.50560   0.51197
 Alpha virt. eigenvalues --    0.51540   0.52377   0.52552   0.53131   0.53505
 Alpha virt. eigenvalues --    0.53864   0.54138   0.54821   0.54984   0.55170
 Alpha virt. eigenvalues --    0.55881   0.56221   0.56544   0.56618   0.56898
 Alpha virt. eigenvalues --    0.57141   0.57679   0.58103   0.58297   0.58656
 Alpha virt. eigenvalues --    0.59072   0.59421   0.59488   0.59637   0.59928
 Alpha virt. eigenvalues --    0.60123   0.60292   0.60481   0.61224   0.61252
 Alpha virt. eigenvalues --    0.61283   0.61629   0.61936   0.62783   0.63570
 Alpha virt. eigenvalues --    0.63945   0.64370   0.65085   0.65317   0.65652
 Alpha virt. eigenvalues --    0.66286   0.66865   0.67964   0.68231   0.69856
 Alpha virt. eigenvalues --    0.70428   0.70992   0.71988   0.72352   0.72564
 Alpha virt. eigenvalues --    0.73605   0.74673   0.75524   0.76136   0.76713
 Alpha virt. eigenvalues --    0.78072   0.78574   0.79447   0.80373   0.81421
 Alpha virt. eigenvalues --    0.81725   0.81876   0.82441   0.82550   0.83203
 Alpha virt. eigenvalues --    0.83334   0.83398   0.83542   0.83652   0.84344
 Alpha virt. eigenvalues --    0.84800   0.84958   0.85734   0.86127   0.86642
 Alpha virt. eigenvalues --    0.88244   0.88847   0.88909   0.89041   0.89752
 Alpha virt. eigenvalues --    0.90155   0.90946   0.91701   0.91947   0.92194
 Alpha virt. eigenvalues --    0.92606   0.93096   0.93981   0.94875   0.95083
 Alpha virt. eigenvalues --    0.95584   0.96269   0.97234   0.97801   0.98401
 Alpha virt. eigenvalues --    0.99055   0.99215   0.99830   1.01543   1.02607
 Alpha virt. eigenvalues --    1.03227   1.03749   1.05711   1.06334   1.06813
 Alpha virt. eigenvalues --    1.07273   1.08233   1.09127   1.09874   1.10590
 Alpha virt. eigenvalues --    1.10971   1.12080   1.12250   1.12925   1.13490
 Alpha virt. eigenvalues --    1.14149   1.14676   1.16118   1.17260   1.17545
 Alpha virt. eigenvalues --    1.18219   1.18570   1.19215   1.20283   1.21857
 Alpha virt. eigenvalues --    1.22560   1.23158   1.23748   1.24268   1.25071
 Alpha virt. eigenvalues --    1.25628   1.26953   1.28250   1.28559   1.29374
 Alpha virt. eigenvalues --    1.30803   1.32002   1.32961   1.34855   1.35076
 Alpha virt. eigenvalues --    1.37154   1.38242   1.38813   1.39487   1.41936
 Alpha virt. eigenvalues --    1.42660   1.43395   1.43637   1.44304   1.44640
 Alpha virt. eigenvalues --    1.45424   1.45662   1.45973   1.46299   1.47253
 Alpha virt. eigenvalues --    1.47387   1.47910   1.48812   1.49096   1.49396
 Alpha virt. eigenvalues --    1.49708   1.49939   1.50134   1.50391   1.51253
 Alpha virt. eigenvalues --    1.52532   1.54605   1.56472   1.59826   1.63988
 Alpha virt. eigenvalues --    1.65124   1.67430   1.69409   1.70035   1.72721
 Alpha virt. eigenvalues --    1.74603   1.75720   1.76256   1.77312   1.77888
 Alpha virt. eigenvalues --    1.78110   1.78426   1.79444   1.79688   1.80567
 Alpha virt. eigenvalues --    1.81334   1.81874   1.82277   1.82968   1.83819
 Alpha virt. eigenvalues --    1.84413   1.84871   1.86443   1.87950   1.88445
 Alpha virt. eigenvalues --    1.88776   1.89340   1.90232   1.90481   1.91077
 Alpha virt. eigenvalues --    1.91509   1.91847   1.92011   1.92948   1.93036
 Alpha virt. eigenvalues --    1.93779   1.95668   1.96190   1.96633   1.97063
 Alpha virt. eigenvalues --    1.98059   1.99057   1.99335   2.00502   2.01655
 Alpha virt. eigenvalues --    2.02619   2.02843   2.04993   2.06298   2.07007
 Alpha virt. eigenvalues --    2.07578   2.08560   2.09797   2.10111   2.11041
 Alpha virt. eigenvalues --    2.11156   2.12639   2.13313   2.13922   2.13973
 Alpha virt. eigenvalues --    2.14317   2.14892   2.15518   2.15803   2.16724
 Alpha virt. eigenvalues --    2.17641   2.17679   2.19019   2.20799   2.21969
 Alpha virt. eigenvalues --    2.22447   2.23859   2.25413   2.26273   2.27453
 Alpha virt. eigenvalues --    2.27619   2.28446   2.28734   2.29301   2.29810
 Alpha virt. eigenvalues --    2.30280   2.30727   2.31150   2.31463   2.32139
 Alpha virt. eigenvalues --    2.32841   2.33048   2.34047   2.34263   2.40546
 Alpha virt. eigenvalues --    2.40889   2.42947   2.46768   2.47495   2.50542
 Alpha virt. eigenvalues --    2.53254   2.54296   2.55134   2.57288   2.57778
 Alpha virt. eigenvalues --    2.58474   2.60000   2.60765   2.61722   2.63373
 Alpha virt. eigenvalues --    2.63955   2.64187   2.64370   2.66936   2.67546
 Alpha virt. eigenvalues --    2.67926   2.68938   2.69474   2.69723   2.72172
 Alpha virt. eigenvalues --    2.73274   2.74137   2.75032   2.75557   2.75929
 Alpha virt. eigenvalues --    2.76107   2.77099   2.77335   2.78179   2.78768
 Alpha virt. eigenvalues --    2.80526   2.82044   2.84422   2.85737   2.87130
 Alpha virt. eigenvalues --    2.88255   2.93713   2.95317   2.99226   3.03561
 Alpha virt. eigenvalues --    3.05567   3.06848   3.09235   3.12205   3.25646
 Alpha virt. eigenvalues --    3.28455   3.37352   3.37752   3.42280   3.46868
 Alpha virt. eigenvalues --    3.83264   3.99331   4.05724   4.06747   4.07064
 Alpha virt. eigenvalues --    4.08489   4.08894   4.09619   4.10718   4.11064
 Alpha virt. eigenvalues --    4.11791   4.12290   4.14012   4.14536   4.16676
 Alpha virt. eigenvalues --    4.19931   4.22287   4.23974   4.27322   4.30879
 Alpha virt. eigenvalues --    4.33218   4.33879   4.38939   4.40403   4.41502
 Alpha virt. eigenvalues --    4.42490   4.44760   4.52522   4.66870   4.69090
 Alpha virt. eigenvalues --    4.70211   4.76517   4.84646
          Condensed to atoms (all electrons):
 Mulliken charges:
               1
     1  C   -0.531464
     2  C    0.183878
     3  C   -0.178576
     4  C   -0.139528
     5  C   -0.138954
     6  S    1.238443
     7  O   -0.546849
     8  O   -0.539793
     9  N   -0.768931
    10  C    0.210768
    11  C   -0.175687
    12  C    0.164850
    13  C   -0.182950
    14  C   -0.133357
    15  C   -0.118685
    16  C   -0.136770
    17  C   -0.177914
    18  C    0.346799
    19  O   -0.488593
    20  C    0.044671
    21  C   -0.162339
    22  C   -0.128916
    23  C   -0.126973
    24  C   -0.175711
    25  C    0.065524
    26  C    0.088103
    27  C   -0.203705
    28  C   -0.122438
    29  C   -0.144998
    30  C   -0.116829
    31  C    0.220984
    32  C   -0.138291
    33  C   -0.171212
    34  H    0.170141
    35  H    0.165352
    36  H    0.161492
    37  H    0.133722
    38  H    0.178040
    39  H    0.167108
    40  H    0.144043
    41  H    0.136135
    42  H    0.136009
    43  H    0.136681
    44  H    0.204569
    45  H    0.158298
    46  H    0.135037
    47  H    0.133858
    48  H    0.138044
    49  H    0.140719
    50  H    0.135517
    51  H    0.139374
    52  H    0.160337
    53  H    0.176235
    54  H    0.134732
 Sum of Mulliken charges =  -0.00000
 Mulliken charges with hydrogens summed into heavy atoms:
               1
     1  C   -0.034479
     2  C    0.183878
     3  C   -0.044855
     4  C    0.038512
     5  C   -0.138954
     6  S    1.238443
     7  O   -0.546849
     8  O   -0.539793
     9  N   -0.768931
    10  C    0.210768
    11  C   -0.008578
    12  C    0.164850
    13  C   -0.038907
    14  C    0.002778
    15  C    0.017324
    16  C   -0.000089
    17  C    0.026655
    18  C    0.346799
    19  O   -0.488593
    20  C    0.044671
    21  C   -0.004041
    22  C    0.006121
    23  C    0.006885
    24  C   -0.037667
    25  C    0.065524
    26  C    0.088103
    27  C   -0.062987
    28  C    0.013079
    29  C   -0.005623
    30  C    0.043509
    31  C    0.220984
    32  C    0.037944
    33  C   -0.036480
 Electronic spatial extent (au):  <R**2>=          13597.1258
 Charge=             -0.0000 electrons
 Dipole moment (field-independent basis, Debye):
    X=              3.1767    Y=              0.2150    Z=             -2.3413  Tot=              3.9522
 Quadrupole moment (field-independent basis, Debye-Ang):
   XX=           -159.1139   YY=           -178.9837   ZZ=           -206.5717
   XY=             -4.5726   XZ=             -8.3013   YZ=              0.7843
 Traceless Quadrupole moment (field-independent basis, Debye-Ang):
   XX=             22.4426   YY=              2.5727   ZZ=            -25.0153
   XY=             -4.5726   XZ=             -8.3013   YZ=              0.7843
 Octapole moment (field-independent basis, Debye-Ang**2):
  XXX=            -35.9115  YYY=             24.7323  ZZZ=            -17.8237  XYY=             34.0514
  XXY=            -46.9656  XXZ=             21.5506  XZZ=             10.8098  YZZ=             -2.1979
  YYZ=            -13.8047  XYZ=            -19.1930
 Hexadecapole moment (field-independent basis, Debye-Ang**3):
 XXXX=          -9799.4970 YYYY=          -3553.5504 ZZZZ=          -3548.7402 XXXY=            134.0675
 XXXZ=            -86.8795 YYYX=            -37.5198 YYYZ=             19.4976 ZZZX=            -81.3775
 ZZZY=             25.4564 XXYY=          -2462.8944 XXZZ=          -2325.9132 YYZZ=          -1192.6007
 XXYZ=             88.5547 YYXZ=            -26.4462 ZZXY=            -12.9667
 N-N= 3.536632021709D+03 E-N=-1.117681286694D+04  KE= 1.743638218005D+03
 No NMR shielding tensors so no spin-rotation constants.
 Leave Link  601 at Sat Nov  5 00:23:17 2022, MaxMem=   805306368 cpu:               1.6 elap:               0.3
 (Enter /home/wykgroup/appl/g16/l9999.exe)
 1\1\GINC-NODE91\FOpt\RB3LYP\6-31G(d)\C28H21N1O3S1\WYKGROUP\05-Nov-2022
 \0\\#p b3lyp/6-31g(d) opt SCF=XQC\\Gaussian input prepared by ASE\\0,1
 \C,3.7643470851,-2.979376846,3.5653507072\C,3.3184177959,-2.0180030111
 ,2.489792967\C,3.5203656163,-2.308620136,1.1342594372\C,3.0868981516,-
 1.4374079911,0.1360572243\C,2.4398387546,-0.2566807673,0.5023223122\S,
 1.875372716,0.870799533,-0.7706026419\O,2.6661323232,0.5893765071,-1.9
 719051931\O,1.8065034364,2.2121565947,-0.1893643374\N,0.2609724576,0.4
 362749264,-1.1330167498\C,-0.859013432,1.2011173753,-0.6493103686\C,-1
 .00742427,2.4435622581,-1.2053965199\C,-1.8768638677,3.6089910001,-1.0
 649759529\C,-1.5189478367,4.7146947301,-1.8744120946\C,-2.2510059392,5
 .8954037624,-1.8606442342\C,-3.3726246266,6.0057021972,-1.0354291834\C
 ,-3.7452221948,4.9266938778,-0.2310512912\C,-3.0137505212,3.7418573862
 ,-0.238210094\C,-1.6840084246,0.5488201502,0.3948459671\O,-2.659941325
 3,1.0998473192,0.9008363609\C,-1.2986228664,-0.8123094525,0.9232197524
 \C,-1.5481473209,-0.9935229455,2.294187006\C,-1.3027769269,-2.20647017
 64,2.9255703675\C,-0.8213768992,-3.2810673905,2.1758134621\C,-0.599058
 2166,-3.1270996611,0.8115682371\C,-0.829043179,-1.9041588508,0.1544975
 571\C,-0.601333613,-1.8471577642,-1.3109395183\C,-0.9401081028,-2.9401
 978449,-2.1280059409\C,-0.6684087467,-2.933952117,-3.4932180213\C,-0.0
 527531952,-1.825645056,-4.078796187\C,0.2634100897,-0.7185946755,-3.29
 57576359\C,-0.0120765747,-0.7244285953,-1.9239731642\C,2.2356581916,0.
 0660427761,1.8459112477\C,2.6776736492,-0.8161947607,2.8273422299\H,2.
 9225203609,-3.5897252433,3.9184631381\H,4.1662569918,-2.4494410898,4.4
 357115891\H,4.535089755,-3.6642481802,3.1981603387\H,4.0323820737,-3.2
 259201924,0.8540001762\H,3.2649650901,-1.6543020456,-0.9114111422\H,-0
 .2408887012,2.6252364375,-1.9540846901\H,-0.6447024072,4.6372723407,-2
 .5158094553\H,-1.9482724101,6.7272512153,-2.4905291963\H,-3.9512775217
 ,6.9256286749,-1.0202170639\H,-4.6176774009,5.0064126924,0.4120175225\
 H,-3.3066673602,2.9116358651,0.386537871\H,-1.9495485136,-0.1539978266
 ,2.8516242764\H,-1.4882718044,-2.3144559279,3.9905974713\H,-0.61912258
 9,-4.237599314,2.6505099528\H,-0.2148803994,-3.9640757993,0.2367757118
 \H,-1.4376362234,-3.7969853993,-1.6837774021\H,-0.9438789056,-3.791516
 5729,-4.1008717411\H,0.1645182875,-1.8153730662,-5.1430292657\H,0.7366
 185291,0.1553766006,-3.7276801348\H,1.7583899208,1.003105329,2.1117883
 588\H,2.5290030403,-0.5647318497,3.8746559777\\Version=ES64L-G16RevB.0
 1\State=1-A\HF=-1758.1603377\RMSD=7.521e-09\RMSF=1.557e-06\Dipole=-0.1
 496451,-1.4562297,0.5241422\Quadrupole=-14.5019555,9.3283084,5.1736471
 ,-11.034542,6.8989225,-5.706677\PG=C01 [X(C28H21N1O3S1)]\\@


       THE DEATH-KNELL OF THE ATOM

 SO THE ATOMS IN TURN, WE NOW CLEARLY DISCERN,
 FLY TO BITS WITH THE UTMOST FACILITY;
 THEY WEND ON THEIR WAY, AND, IN SPLITTING, DISPLAY
 AN ABSOLUTE LACK OF STABILITY.

          SIR WM. RAMSAY, 1905
 Job cpu time:       0 days 16 hours 11 minutes 20.2 seconds.
 Elapsed time:       0 days  2 hours 20 minutes 43.5 seconds.
 File lengths (MBytes):  RWF=    186 Int=      0 D2E=      0 Chk=     25 Scr=      1
 Normal termination of Gaussian 16 at Sat Nov  5 00:23:17 2022.
