 Entering Gaussian System, Link 0=/home/wykgroup/appl/g16/g16
 Input=calculation/no_transfer_pubchem_sampling_6_b3lyp/67959176_rwf.com
 Output=calculation/no_transfer_pubchem_sampling_6_b3lyp/67959176_rwf.log
 Initial command:
 /home/wykgroup/appl/g16/l1.exe "/userdata/scratch/wykgroup/khs/calculation/no_transfer_pubchem_sampling_6_b3lyp/67959176_rwf/Gau-19152.inp" -scrdir="/userdata/scratch/wykgroup/khs/calculation/no_transfer_pubchem_sampling_6_b3lyp/67959176_rwf/"
 Entering Link 1 = /home/wykgroup/appl/g16/l1.exe PID=     19153.
  
 Copyright (c) 1988-2017, Gaussian, Inc.  All Rights Reserved.
  
 This is part of the Gaussian(R) 16 program.  It is based on
 the Gaussian(R) 09 system (copyright 2009, Gaussian, Inc.),
 the Gaussian(R) 03 system (copyright 2003, Gaussian, Inc.),
 the Gaussian(R) 98 system (copyright 1998, Gaussian, Inc.),
 the Gaussian(R) 94 system (copyright 1995, Gaussian, Inc.),
 the Gaussian 92(TM) system (copyright 1992, Gaussian, Inc.),
 the Gaussian 90(TM) system (copyright 1990, Gaussian, Inc.),
 the Gaussian 88(TM) system (copyright 1988, Gaussian, Inc.),
 the Gaussian 86(TM) system (copyright 1986, Carnegie Mellon
 University), and the Gaussian 82(TM) system (copyright 1983,
 Carnegie Mellon University). Gaussian is a federally registered
 trademark of Gaussian, Inc.
  
 This software contains proprietary and confidential information,
 including trade secrets, belonging to Gaussian, Inc.
  
 This software is provided under written license and may be
 used, copied, transmitted, or stored only in accord with that
 written license.
  
 The following legend is applicable only to US Government
 contracts under FAR:
  
                    RESTRICTED RIGHTS LEGEND
  
 Use, reproduction and disclosure by the US Government is
 subject to restrictions as set forth in subparagraphs (a)
 and (c) of the Commercial Computer Software - Restricted
 Rights clause in FAR 52.227-19.
  
 Gaussian, Inc.
 340 Quinnipiac St., Bldg. 40, Wallingford CT 06492
  
  
 ---------------------------------------------------------------
 Warning -- This program may not be used in any manner that
 competes with the business of Gaussian, Inc. or will provide
 assistance to any competitor of Gaussian, Inc.  The licensee
 of this program is prohibited from giving any competitor of
 Gaussian, Inc. access to this program.  By using this program,
 the user acknowledges that Gaussian, Inc. is engaged in the
 business of creating and licensing software in the field of
 computational chemistry and represents and warrants to the
 licensee that it is not a competitor of Gaussian, Inc. and that
 it will not use this program in any manner prohibited above.
 ---------------------------------------------------------------
  

 Cite this work as:
 Gaussian 16, Revision B.01,
 M. J. Frisch, G. W. Trucks, H. B. Schlegel, G. E. Scuseria, 
 M. A. Robb, J. R. Cheeseman, G. Scalmani, V. Barone, 
 G. A. Petersson, H. Nakatsuji, X. Li, M. Caricato, A. V. Marenich, 
 J. Bloino, B. G. Janesko, R. Gomperts, B. Mennucci, H. P. Hratchian, 
 J. V. Ortiz, A. F. Izmaylov, J. L. Sonnenberg, D. Williams-Young, 
 F. Ding, F. Lipparini, F. Egidi, J. Goings, B. Peng, A. Petrone, 
 T. Henderson, D. Ranasinghe, V. G. Zakrzewski, J. Gao, N. Rega, 
 G. Zheng, W. Liang, M. Hada, M. Ehara, K. Toyota, R. Fukuda, 
 J. Hasegawa, M. Ishida, T. Nakajima, Y. Honda, O. Kitao, H. Nakai, 
 T. Vreven, K. Throssell, J. A. Montgomery, Jr., J. E. Peralta, 
 F. Ogliaro, M. J. Bearpark, J. J. Heyd, E. N. Brothers, K. N. Kudin, 
 V. N. Staroverov, T. A. Keith, R. Kobayashi, J. Normand, 
 K. Raghavachari, A. P. Rendell, J. C. Burant, S. S. Iyengar, 
 J. Tomasi, M. Cossi, J. M. Millam, M. Klene, C. Adamo, R. Cammi, 
 J. W. Ochterski, R. L. Martin, K. Morokuma, O. Farkas, 
 J. B. Foresman, and D. J. Fox, Gaussian, Inc., Wallingford CT, 2016.
 
 ******************************************
 Gaussian 16:  ES64L-G16RevB.01 20-Dec-2017
                 5-Nov-2022 
 ******************************************
 %chk=calculation/no_transfer_pubchem_sampling_6_b3lyp/67959176_rwf.chk
 %rwf=calculation/no_transfer_pubchem_sampling_6_b3lyp/67959176_rwf.rwf
 %nprocshared=14
 Will use up to   14 processors via shared memory.
 %mem=3GB
 -------------------------------------------------------------------
 #p b3lyp/6-31g(d) 6D 10F nosymm GFInput td=(50-50,nstate=2) SCF=XQC
 -------------------------------------------------------------------
 1/38=1,172=1/1;
 2/12=2,15=1,17=6,18=5,40=1/2;
 3/5=1,6=6,7=1,8=22,11=9,24=10,25=1,30=1,74=-5/1,2,3,8;
 4//1;
 5/5=2,8=3,13=1,38=5/2,8;
 8/6=1,10=2,108=2/1;
 9/41=2,42=1,48=2,70=2/14;
 6/7=2,8=2,9=2,10=2/1;
 99/5=1,9=1/99;
 Leave Link    1 at Sat Nov  5 09:33:36 2022, MaxMem=   402653184 cpu:               1.7 elap:               0.3
 (Enter /home/wykgroup/appl/g16/l101.exe)
 ------------------------------
 Gaussian input prepared by ASE
 ------------------------------
 Symbolic Z-matrix:
 Charge =  0 Multiplicity = 1
 C                     6.84695   0.74336  -1.35207 
 N                     5.7274   -0.0853   -0.93463 
 C                     5.4583   -0.06787   0.51054 
 C                     4.23721   0.77311   0.90965 
 N                     3.04896   0.27947   0.2115 
 C                     1.79412   0.28828   0.79026 
 C                     1.521     1.14565   1.90858 
 C                     0.28456   1.18625   2.50191 
 C                    -0.78552   0.38683   2.02446 
 N                    -1.99281   0.45769   2.6542 
 C                    -2.97531  -0.29184   2.20063 
 C                    -2.82732  -1.15563   1.08303 
 S                    -4.21418  -2.15586   0.52643 
 O                    -4.96659  -2.56849   1.72211 
 O                    -3.68358  -3.14043  -0.43186 
 C                    -5.25986  -1.01335  -0.39694 
 C                    -6.31718  -0.37821   0.25645 
 C                    -7.12443   0.50326  -0.4635 
 C                    -6.87194   0.7382   -1.81685 
 C                    -5.81661   0.08706  -2.46104 
 C                    -5.00319  -0.79643  -1.75232 
 C                    -1.61813  -1.25063   0.43553 
 C                    -0.53342  -0.46202   0.89895 
 C                     0.74959  -0.50237   0.30694 
 C                     3.27595  -0.37877  -1.07284 
 C                     4.5328    0.18046  -1.73517 
 H                     7.03931   0.58072  -2.41897 
 H                     6.68094   1.82945  -1.20534 
 H                     7.75009   0.45579  -0.80417 
 H                     5.29415  -1.09504   0.86536 
 H                     6.33971   0.31241   1.03754 
 H                     4.09208   0.67606   1.99031 
 H                     4.41812   1.83911   0.69739 
 H                     2.30201   1.7992    2.28095 
 H                     0.09022   1.84142   3.34532 
 H                    -3.9251   -0.24301   2.72788 
 H                    -6.51047  -0.59238   1.30226 
 H                    -7.95364   1.00071   0.03143 
 H                    -7.5038    1.4248   -2.37357 
 H                    -5.6313    0.26159  -3.51713 
 H                    -4.19333  -1.32821  -2.24071 
 H                    -1.49742  -1.9284   -0.4046 
 H                     0.9082   -1.18861  -0.51753 
 H                     3.36203  -1.47261  -0.96591 
 H                     2.42022  -0.18093  -1.72776 
 H                     4.65222  -0.27741  -2.72576 
 H                     4.37901   1.2652   -1.90094 
 
 ITRead=  0  0  0  0  0  0  0  0  0  0  0  0  0  0  0  0  0  0  0  0
 ITRead=  0  0  0  0  0  0  0  0  0  0  0  0  0  0  0  0  0  0  0  0
 ITRead=  0  0  0  0  0  0  0
 MicOpt= -1 -1 -1 -1 -1 -1 -1 -1 -1 -1 -1 -1 -1 -1 -1 -1 -1 -1 -1 -1
 MicOpt= -1 -1 -1 -1 -1 -1 -1 -1 -1 -1 -1 -1 -1 -1 -1 -1 -1 -1 -1 -1
 MicOpt= -1 -1 -1 -1 -1 -1 -1
 NAtoms=     47 NQM=       47 NQMF=       0 NMMI=      0 NMMIF=      0
                NMic=       0 NMicF=      0.
                    Isotopes and Nuclear Properties:
 (Nuclear quadrupole moments (NQMom) in fm**2, nuclear magnetic moments (NMagM)
  in nuclear magnetons)

  Atom         1           2           3           4           5           6           7           8           9          10
 IAtWgt=          12          14          12          12          14          12          12          12          12          14
 AtmWgt=  12.0000000  14.0030740  12.0000000  12.0000000  14.0030740  12.0000000  12.0000000  12.0000000  12.0000000  14.0030740
 NucSpn=           0           2           0           0           2           0           0           0           0           2
 AtZEff=  -0.0000000  -0.0000000  -0.0000000  -0.0000000  -0.0000000  -0.0000000  -0.0000000  -0.0000000  -0.0000000  -0.0000000
 NQMom=    0.0000000   2.0440000   0.0000000   0.0000000   2.0440000   0.0000000   0.0000000   0.0000000   0.0000000   2.0440000
 NMagM=    0.0000000   0.4037610   0.0000000   0.0000000   0.4037610   0.0000000   0.0000000   0.0000000   0.0000000   0.4037610
 AtZNuc=   6.0000000   7.0000000   6.0000000   6.0000000   7.0000000   6.0000000   6.0000000   6.0000000   6.0000000   7.0000000

  Atom        11          12          13          14          15          16          17          18          19          20
 IAtWgt=          12          12          32          16          16          12          12          12          12          12
 AtmWgt=  12.0000000  12.0000000  31.9720718  15.9949146  15.9949146  12.0000000  12.0000000  12.0000000  12.0000000  12.0000000
 NucSpn=           0           0           0           0           0           0           0           0           0           0
 AtZEff=  -0.0000000  -0.0000000  -0.0000000  -0.0000000  -0.0000000  -0.0000000  -0.0000000  -0.0000000  -0.0000000  -0.0000000
 NQMom=    0.0000000   0.0000000   0.0000000   0.0000000   0.0000000   0.0000000   0.0000000   0.0000000   0.0000000   0.0000000
 NMagM=    0.0000000   0.0000000   0.0000000   0.0000000   0.0000000   0.0000000   0.0000000   0.0000000   0.0000000   0.0000000
 AtZNuc=   6.0000000   6.0000000  16.0000000   8.0000000   8.0000000   6.0000000   6.0000000   6.0000000   6.0000000   6.0000000

  Atom        21          22          23          24          25          26          27          28          29          30
 IAtWgt=          12          12          12          12          12          12           1           1           1           1
 AtmWgt=  12.0000000  12.0000000  12.0000000  12.0000000  12.0000000  12.0000000   1.0078250   1.0078250   1.0078250   1.0078250
 NucSpn=           0           0           0           0           0           0           1           1           1           1
 AtZEff=  -0.0000000  -0.0000000  -0.0000000  -0.0000000  -0.0000000  -0.0000000  -0.0000000  -0.0000000  -0.0000000  -0.0000000
 NQMom=    0.0000000   0.0000000   0.0000000   0.0000000   0.0000000   0.0000000   0.0000000   0.0000000   0.0000000   0.0000000
 NMagM=    0.0000000   0.0000000   0.0000000   0.0000000   0.0000000   0.0000000   2.7928460   2.7928460   2.7928460   2.7928460
 AtZNuc=   6.0000000   6.0000000   6.0000000   6.0000000   6.0000000   6.0000000   1.0000000   1.0000000   1.0000000   1.0000000

  Atom        31          32          33          34          35          36          37          38          39          40
 IAtWgt=           1           1           1           1           1           1           1           1           1           1
 AtmWgt=   1.0078250   1.0078250   1.0078250   1.0078250   1.0078250   1.0078250   1.0078250   1.0078250   1.0078250   1.0078250
 NucSpn=           1           1           1           1           1           1           1           1           1           1
 AtZEff=  -0.0000000  -0.0000000  -0.0000000  -0.0000000  -0.0000000  -0.0000000  -0.0000000  -0.0000000  -0.0000000  -0.0000000
 NQMom=    0.0000000   0.0000000   0.0000000   0.0000000   0.0000000   0.0000000   0.0000000   0.0000000   0.0000000   0.0000000
 NMagM=    2.7928460   2.7928460   2.7928460   2.7928460   2.7928460   2.7928460   2.7928460   2.7928460   2.7928460   2.7928460
 AtZNuc=   1.0000000   1.0000000   1.0000000   1.0000000   1.0000000   1.0000000   1.0000000   1.0000000   1.0000000   1.0000000

  Atom        41          42          43          44          45          46          47
 IAtWgt=           1           1           1           1           1           1           1
 AtmWgt=   1.0078250   1.0078250   1.0078250   1.0078250   1.0078250   1.0078250   1.0078250
 NucSpn=           1           1           1           1           1           1           1
 AtZEff=  -0.0000000  -0.0000000  -0.0000000  -0.0000000  -0.0000000  -0.0000000  -0.0000000
 NQMom=    0.0000000   0.0000000   0.0000000   0.0000000   0.0000000   0.0000000   0.0000000
 NMagM=    2.7928460   2.7928460   2.7928460   2.7928460   2.7928460   2.7928460   2.7928460
 AtZNuc=   1.0000000   1.0000000   1.0000000   1.0000000   1.0000000   1.0000000   1.0000000
 Leave Link  101 at Sat Nov  5 09:33:36 2022, MaxMem=   402653184 cpu:               2.1 elap:               0.4
 (Enter /home/wykgroup/appl/g16/l202.exe)
                          Input orientation:                          
 ---------------------------------------------------------------------
 Center     Atomic      Atomic             Coordinates (Angstroms)
 Number     Number       Type             X           Y           Z
 ---------------------------------------------------------------------
      1          6           0        6.846947    0.743360   -1.352070
      2          7           0        5.727397   -0.085295   -0.934632
      3          6           0        5.458302   -0.067867    0.510542
      4          6           0        4.237205    0.773111    0.909649
      5          7           0        3.048956    0.279473    0.211495
      6          6           0        1.794124    0.288284    0.790261
      7          6           0        1.520998    1.145649    1.908584
      8          6           0        0.284565    1.186247    2.501915
      9          6           0       -0.785522    0.386826    2.024462
     10          7           0       -1.992810    0.457690    2.654196
     11          6           0       -2.975310   -0.291840    2.200630
     12          6           0       -2.827322   -1.155635    1.083030
     13         16           0       -4.214179   -2.155862    0.526433
     14          8           0       -4.966589   -2.568489    1.722112
     15          8           0       -3.683580   -3.140431   -0.431864
     16          6           0       -5.259855   -1.013353   -0.396944
     17          6           0       -6.317184   -0.378213    0.256454
     18          6           0       -7.124431    0.503262   -0.463496
     19          6           0       -6.871943    0.738199   -1.816846
     20          6           0       -5.816606    0.087057   -2.461043
     21          6           0       -5.003192   -0.796430   -1.752322
     22          6           0       -1.618132   -1.250634    0.435529
     23          6           0       -0.533421   -0.462025    0.898949
     24          6           0        0.749593   -0.502369    0.306936
     25          6           0        3.275945   -0.378775   -1.072838
     26          6           0        4.532796    0.180461   -1.735170
     27          1           0        7.039307    0.580721   -2.418965
     28          1           0        6.680939    1.829448   -1.205342
     29          1           0        7.750088    0.455785   -0.804167
     30          1           0        5.294150   -1.095040    0.865362
     31          1           0        6.339710    0.312411    1.037540
     32          1           0        4.092077    0.676062    1.990306
     33          1           0        4.418122    1.839108    0.697386
     34          1           0        2.302014    1.799201    2.280952
     35          1           0        0.090222    1.841423    3.345319
     36          1           0       -3.925101   -0.243009    2.727881
     37          1           0       -6.510466   -0.592381    1.302263
     38          1           0       -7.953641    1.000706    0.031431
     39          1           0       -7.503802    1.424803   -2.373570
     40          1           0       -5.631301    0.261587   -3.517126
     41          1           0       -4.193334   -1.328210   -2.240706
     42          1           0       -1.497418   -1.928400   -0.404605
     43          1           0        0.908200   -1.188607   -0.517534
     44          1           0        3.362029   -1.472614   -0.965909
     45          1           0        2.420222   -0.180933   -1.727762
     46          1           0        4.652224   -0.277409   -2.725764
     47          1           0        4.379006    1.265204   -1.900942
 ---------------------------------------------------------------------
                    Distance matrix (angstroms):
                    1          2          3          4          5
     1  C    0.000000
     2  N    1.454069   0.000000
     3  C    2.460843   1.470116   0.000000
     4  C    3.453550   2.521686   1.535450   0.000000
     5  N    4.133360   2.936105   2.452555   1.463910   0.000000
     6  C    5.507059   4.311085   3.692058   2.493584   1.381901
     7  C    6.257750   5.224260   4.350805   2.917951   2.442340
     8  C    7.623268   6.561333   5.683830   4.281280   3.702718
     9  C    8.353602   7.169188   6.440811   5.159440   4.242829
    10  N    9.709432   8.530892   7.771135   6.477347   5.605172
    11  C   10.496192   9.252547   8.604207   7.404129   6.369838
    12  C   10.155165   8.854367   8.376309   7.325140   6.111444
    13  S   11.588044  10.259478   9.895296   8.952745   7.667019
    14  O   12.648263  11.295392  10.788854   9.825285   8.639549
    15  O   11.261554   9.907226   9.690345   8.936124   7.578700
    16  C   12.270817  11.039480  10.797980   9.751554   8.430773
    17  C   13.309381  12.106875  11.782315  10.637074   9.389310
    18  C   14.001664  12.873921  12.633294  11.447494  10.198210
    19  C   13.726761  12.657006  12.573839  11.438888  10.136509
    20  C   12.728948  11.645757  11.660955  10.625976   9.261624
    21  C   11.956460  10.785169  10.728197   9.743433   8.357705
    22  C    8.878574   7.562550   7.174991   6.213317   4.916618
    23  C    7.809601   6.534660   6.017222   4.927936   3.722342
    24  C    6.440641   5.147229   4.733095   3.762120   2.430525
    25  C    3.753559   2.472821   2.714118   2.486184   1.460933
    26  C    2.412242   1.462381   2.441608   2.726476   2.449712
    27  H    1.096229   2.089960   3.391498   4.355279   4.788839
    28  H    1.108457   2.156100   2.835296   3.400127   4.195373
    29  H    1.094788   2.097873   2.693503   3.921506   4.812827
    30  H    3.272292   2.108854   1.099057   2.146877   2.712513
    31  H    2.480573   2.102988   1.095088   2.156184   3.393008
    32  H    4.331895   3.436451   2.147022   1.094669   2.099893
    33  H    3.361566   2.842712   2.180238   1.101878   2.131471
    34  H    5.913549   5.062069   4.072155   2.584240   2.673975
    35  H    8.302081   7.335392   6.363776   4.926587   4.584174
    36  H   11.560966  10.325192   9.643418   8.423877   7.432540
    37  H   13.683938  12.450948  12.006387  10.841178   9.660872
    38  H   14.867337  13.758034  13.462972  12.224558  11.027681
    39  H   14.403188  13.394610  13.362721  12.208828  10.924973
    40  H   12.673841  11.653739  11.802963  10.827992   9.447211
    41  H   11.268047  10.083232  10.114935   9.241985   7.813366
    42  H    8.812741   7.475019   7.258176   6.473896   5.091542
    43  H    6.300608   4.961444   4.797544   4.119158   2.696216
    44  H    4.147808   2.742371   2.923625   3.054002   2.134035
    45  H    4.537769   3.402294   3.775277   3.341790   2.089976
    46  H    2.783129   2.097870   3.341758   3.806844   3.392356
    47  H    2.581533   2.139103   2.959259   2.856865   2.683857
                    6          7          8          9         10
     6  C    0.000000
     7  C    1.435381   0.000000
     8  C    2.452523   1.372027   0.000000
     9  C    2.861387   2.430900   1.418493   0.000000
    10  N    4.224195   3.657332   2.395918   1.363499   0.000000
    11  C    5.007313   4.729530   3.591977   2.299303   1.316367
    12  C    4.850606   4.988520   4.145055   2.726614   2.401622
    13  S    6.491776   6.760368   5.942299   4.523831   4.036398
    14  O    7.398428   7.477859   6.502365   5.128998   4.343950
    15  O    6.576846   7.136933   6.563031   5.183996   5.032787
    16  C    7.270649   7.480423   6.631909   5.276681   4.706060
    17  C    8.156132   8.154066   7.146518   5.857510   5.014789
    18  C    9.008814   8.987929   8.009578   6.810672   6.004632
    19  C    9.060913   9.191643   8.370666   7.205805   6.623808
    20  C    8.278567   8.605504   7.941250   6.746957   6.397222
    21  C    7.337903   7.729098   7.070354   5.783851   5.482026
    22  C    3.759999   4.214997   3.718682   2.428832   2.825108
    23  C    2.447905   2.797251   2.440369   1.432090   2.461013
    24  C    1.396344   2.424109   2.808132   2.469240   3.735254
    25  C    2.472225   3.780553   4.916961   5.164778   6.507706
    26  C    3.726896   4.824879   6.083746   6.516282   7.869366
    27  H    6.156022   7.035521   8.379038   9.000533  10.360080
    28  H    5.498962   6.065402   7.420988   8.262012   9.592272
    29  H    6.167964   6.829092   8.197426   8.992361  10.338489
    30  H    3.764228   4.510618   5.742693   6.364107   7.662290
    31  H    4.552372   4.967191   6.290689   7.193643   8.489145
    32  H    2.621273   2.614888   3.875459   4.886287   6.124891
    33  H    3.049435   3.215776   4.557285   5.563108   6.843791
    34  H    2.182426   1.084331   2.120056   3.404919   4.514917
    35  H    3.441489   2.143696   1.085521   2.151149   2.594492
    36  H    6.061862   5.679754   4.451417   3.278482   2.056734
    37  H    8.366834   8.239708   7.125666   5.852811   4.831106
    38  H    9.803178   9.659892   8.602660   7.465317   6.534927
    39  H    9.887008   9.993088   9.191623   8.096627   7.522285
    40  H    8.584359   9.020825   8.490072   7.362503   7.166748
    41  H    6.902859   7.482659   6.990460   5.722429   5.656130
    42  H    4.144350   4.889934   4.617829   3.430369   3.910895
    43  H    2.162497   3.422035   3.891776   3.436921   4.602828
    44  H    2.939935   4.302023   5.344729   5.440773   6.745779
    45  H    2.636779   3.973844   4.931570   4.967729   6.251740
    46  H    4.566309   5.771209   6.967594   7.250858   8.581423
    47  H    3.857273   4.763926   6.012972   6.546197   7.874096
                   11         12         13         14         15
    11  C    0.000000
    12  C    1.420236   0.000000
    13  S    2.795051   1.798229   0.000000
    14  O    3.062238   2.642167   1.471744   0.000000
    15  O    3.942859   2.639602   1.472835   2.571544   0.000000
    16  C    3.533712   2.850927   1.803161   2.644778   2.647701
    17  C    3.867221   3.669707   2.766867   2.961346   3.878080
    18  C    4.994493   4.858891   4.064537   4.343825   5.011682
    19  C    5.690768   5.324927   4.574959   5.204689   5.208416
    20  C    5.472451   4.800058   4.064907   5.027250   4.368530
    21  C    4.471325   3.592027   2.768270   3.900413   2.996552
    22  C    2.424211   1.374926   2.750847   3.821544   2.930832
    23  C    2.772392   2.403532   4.068886   4.976723   4.343780
    24  C    4.183934   3.717984   5.236531   6.240698   5.211355
    25  C    7.057007   6.519291   7.862422   8.974741   7.514825
    26  C    8.490303   7.993669   9.331818  10.476060   8.957442
    27  H   11.063208  10.612694  11.950114  13.084632  11.522841
    28  H   10.456751  10.225184  11.729678  12.789712  11.520470
    29  H   11.163419  10.864613  12.318072  13.313234  11.991670
    30  H    8.414989   8.124615   9.573325  10.401338   9.298713
    31  H    9.406779   9.283949  10.850723  11.687627  10.702692
    32  H    7.136458   7.215009   8.897000   9.625927   8.994074
    33  H    7.839868   7.849438   9.513446  10.418723   9.576461
    34  H    5.677064   6.039550   7.821869   8.498330   8.221111
    35  H    3.906227   4.755246   6.515541   6.903148   7.302572
    36  H    1.087419   2.177966   2.930691   2.739366   4.293876
    37  H    3.659879   3.732407   2.884322   2.542603   4.182228
    38  H    5.582104   5.659931   4.918589   4.951771   5.966329
    39  H    6.661637   6.362092   5.661519   6.257671   6.261444
    40  H    6.328767   5.570660   4.919619   5.991726   4.988605
    41  H    4.720499   3.597637   2.888338   4.223759   2.610728
    42  H    3.413172   2.139829   2.880861   4.119197   2.499813
    43  H    4.824340   4.064113   5.316410   6.436865   4.990130
    44  H    7.182134   6.527380   7.751957   8.819993   7.259988
    45  H    6.675053   6.032190   7.279906   8.495118   6.906112
    46  H    9.080135   8.439302   9.629044  10.842242   9.107388
    47  H    8.563482   8.166744   9.562357  10.731442   9.304466
                   16         17         18         19         20
    16  C    0.000000
    17  C    1.395807   0.000000
    18  C    2.404411   1.395340   0.000000
    19  C    2.771801   2.419237   1.396604   0.000000
    20  C    2.404450   2.802115   2.423598   1.397394   0.000000
    21  C    1.396417   2.436527   2.801772   2.418983   1.394446
    22  C    3.743188   4.782706   5.848394   6.052369   5.273209
    23  C    4.931783   5.819944   6.799224   6.999496   6.285148
    24  C    6.072069   7.068048   7.975281   8.008575   7.150112
    25  C    8.586001   9.684790  10.455482  10.236250   9.209702
    26  C    9.955504  11.045395  11.730827  11.418661  10.375247
    27  H   12.565789  13.655522  14.298298  13.925165  12.865457
    28  H   12.301122  13.265060  13.888748  13.610487  12.680747
    29  H   13.098963  14.131831  14.878496  14.659777  13.672469
    30  H   10.629540  11.649365  12.591330  12.592411  11.658097
    31  H   11.762879  12.699765  13.548898  13.523187  12.651755
    32  H    9.798557  10.605209  11.483077  11.606378  10.878577
    33  H   10.148761  10.970768  11.677443  11.618904  10.853342
    34  H    8.500791   9.117582   9.902995  10.103423   9.556670
    35  H    7.125840   7.451357   8.267343   8.737093   8.466538
    36  H    3.484183   3.442135   4.580123   5.504652   5.532782
    37  H    2.151406   1.084869   2.166862   3.410271   3.886586
    38  H    3.390637   2.151754   1.086275   2.157570   3.407947
    39  H    3.858361   3.402346   2.154424   1.086560   2.154958
    40  H    3.391014   3.888404   3.407712   2.158078   1.086328
    41  H    2.153152   3.413070   3.886399   3.409494   2.164843
    42  H    3.872119   5.105901   6.130230   6.163659   5.190992
    43  H    6.171723   7.311769   8.209050   8.119816   7.115305
    44  H    8.652833   9.817283  10.682806  10.504568   9.429493
    45  H    7.838852   8.962048   9.652300   9.337937   8.273745
    46  H   10.208543  11.368013  12.017359  11.604483  10.478517
    47  H   10.018057  11.034657  11.617911  11.263598  10.278728
                   21         22         23         24         25
    21  C    0.000000
    22  C    4.056060   0.000000
    23  C    5.207679   1.418894   0.000000
    24  C    6.117316   2.486476   1.413588   0.000000
    25  C    8.317467   5.194931   4.290238   2.881234   0.000000
    26  C    9.585911   6.677866   5.746123   4.353054   1.526795
    27  H   12.139306   9.298025   8.333192   6.940038   4.110424
    28  H   11.988050   9.002997   7.856582   6.550207   4.060515
    29  H   12.849638   9.602722   8.506439   7.152590   4.559236
    30  H   10.629049   6.927381   5.861947   4.616936   2.888391
    31  H   11.733469   8.132207   6.918012   5.696232   3.783925
    32  H    9.944818   6.223824   4.886873   3.923599   3.340898
    33  H   10.085053   6.786122   5.463847   4.369562   3.058965
    34  H    8.739029   5.298549   3.881078   3.406460   4.115826
    35  H    7.673792   4.576698   3.417533   3.893572   5.882026
    36  H    4.641204   3.404745   3.859592   5.270769   8.143645
    37  H    3.412330   5.011931   5.992055   7.328522  10.072764
    38  H    3.888010   6.735763   7.612611   8.836370  11.367761
    39  H    3.401893   7.049121   7.928160   8.889187  11.006714
    40  H    2.151384   5.832308   6.783341   7.478161   9.258706
    41  H    1.084979   3.714824   4.899252   5.621834   7.619415
    42  H    3.922773   1.086169   2.186046   2.754799   5.062892
    43  H    6.051699   2.700839   2.147700   1.084357   2.563281
    44  H    8.429269   5.178350   4.435483   3.063711   1.102419
    45  H    7.448927   4.704508   3.962655   2.652229   1.095595
    46  H    9.718232   7.089310   6.329577   4.947566   2.153273
    47  H    9.607187   6.910441   5.912245   4.601268   2.145964
                   26         27         28         29         30
    26  C    0.000000
    27  H    2.628761   0.000000
    28  H    2.759419   1.777816   0.000000
    29  H    3.360586   1.768726   1.786329   0.000000
    30  H    2.994884   4.079284   3.842347   3.350227   0.000000
    31  H    3.312140   3.536786   2.729168   2.324136   1.761749
    32  H    3.784048   5.304425   4.271378   4.608541   2.418115
    33  H    2.946453   4.262135   2.956486   3.907716   3.066735
    34  H    4.870928   6.783499   5.597333   6.403455   4.396976
    35  H    6.950297   9.116257   8.009133   8.821099   6.469457
    36  H    9.572574  12.140297  11.500148  12.217762   9.444020
    37  H   11.479413  14.100356  13.644284  14.453342  11.823388
    38  H   12.637437  15.197675  14.710111  15.735383  13.438436
    39  H   12.117576  14.567655  14.238518  15.364999  13.439787
    40  H   10.319439  12.722111  12.625125  13.655015  11.849562
    41  H    8.870006  11.395088  11.370690  12.161070   9.985709
    42  H    6.525426   9.122994   9.035935   9.558262   6.959361
    43  H    4.061365   6.658562   6.550286   7.042558   4.599752
    44  H    2.166822   4.455327   4.687868   4.795826   2.688718
    45  H    2.143275   4.732211   4.740070   5.446642   3.977354
    46  H    1.097809   2.555128   3.296394   3.718450   3.738553
    47  H    1.108060   2.795366   2.470046   3.636244   3.749757
                   31         32         33         34         35
    31  H    0.000000
    32  H    2.468169   0.000000
    33  H    2.477702   1.769357   0.000000
    34  H    4.478795   2.133130   2.643329   0.000000
    35  H    6.835191   4.382805   5.073685   2.454931   0.000000
    36  H   10.417873   8.103323   8.835581   6.568662   4.566059
    37  H   12.884710  10.700293  11.212139   9.183534   7.325746
    38  H   14.345240  12.208273  12.418009  10.529787   8.740274
    39  H   14.300907  12.412431  12.318065  10.860883   9.515696
    40  H   12.808305  11.182472  11.010976   9.945825   9.073305
    41  H   11.152738   9.516649   9.634390   8.509738   7.720045
    42  H    8.277777   6.615230   7.099445   5.961787   5.549243
    43  H    5.845735   4.461314   4.791936   4.324492   4.977128
    44  H    4.008330   3.726792   3.853490   4.729746   6.346199
    45  H    4.822102   4.165761   3.735440   4.472660   5.937591
    46  H    4.166288   4.843985   4.031427   5.907876   7.884122
    47  H    3.658805   3.946039   2.661241   4.699710   6.800658
                   36         37         38         39         40
    36  H    0.000000
    37  H    2.972972   0.000000
    38  H    5.004679   2.497138   0.000000
    39  H    6.450853   4.309001   2.483192   0.000000
    40  H    6.493523   4.972795   4.304860   2.483355   0.000000
    41  H    5.092786   4.296879   4.972562   4.307660   2.494885
    42  H    4.306583   5.461592   7.103000   7.155239   5.618969
    43  H    5.898107   7.661837   9.144763   9.002031   7.339324
    44  H    8.261856  10.167869  11.625678  11.333262   9.507688
    45  H    7.753692   9.439678  10.588110  10.073814   8.259823
    46  H   10.164346  11.871388  12.967018  12.279680  10.328004
    47  H    9.625949  11.501814  12.485920  11.893274  10.189482
                   41         42         43         44         45
    41  H    0.000000
    42  H    3.316543   0.000000
    43  H    5.386507   2.519334   0.000000
    44  H    7.663515   4.912945   2.510573   0.000000
    45  H    6.731901   4.489131   2.183179   1.770836   0.000000
    46  H    8.920951   6.777290   4.441203   2.488014   2.446865
    47  H    8.962491   6.853501   4.470067   3.066622   2.440929
                   46         47
    46  H    0.000000
    47  H    1.770489   0.000000
 Symmetry turned off by external request.
 Stoichiometry    C20H21N3O2S
 Framework group  C1[X(C20H21N3O2S)]
 Deg. of freedom   135
 Full point group                 C1      NOp   1
 Rotational constants (GHZ):           0.4434402           0.0714484           0.0683974
 Leave Link  202 at Sat Nov  5 09:33:37 2022, MaxMem=   402653184 cpu:               1.1 elap:               0.2
 (Enter /home/wykgroup/appl/g16/l301.exe)
 Standard basis: 6-31G(d) (6D, 10F)
 Ernie: Thresh=  0.10000D-02 Tol=  0.10000D-05 Strict=F.
 AO basis set in the form of general basis input (Overlap normalization):
      1 0
 S   6 1.00       0.000000000000
      0.3047524880D+04  0.1834737132D-02
      0.4573695180D+03  0.1403732281D-01
      0.1039486850D+03  0.6884262226D-01
      0.2921015530D+02  0.2321844432D+00
      0.9286662960D+01  0.4679413484D+00
      0.3163926960D+01  0.3623119853D+00
 SP   3 1.00       0.000000000000
      0.7868272350D+01 -0.1193324198D+00  0.6899906659D-01
      0.1881288540D+01 -0.1608541517D+00  0.3164239610D+00
      0.5442492580D+00  0.1143456438D+01  0.7443082909D+00
 SP   1 1.00       0.000000000000
      0.1687144782D+00  0.1000000000D+01  0.1000000000D+01
 D   1 1.00       0.000000000000
      0.8000000000D+00  0.1000000000D+01
 ****
      2 0
 S   6 1.00       0.000000000000
      0.4173511460D+04  0.1834772160D-02
      0.6274579110D+03  0.1399462700D-01
      0.1429020930D+03  0.6858655181D-01
      0.4023432930D+02  0.2322408730D+00
      0.1282021290D+02  0.4690699481D+00
      0.4390437010D+01  0.3604551991D+00
 SP   3 1.00       0.000000000000
      0.1162636186D+02 -0.1149611817D+00  0.6757974388D-01
      0.2716279807D+01 -0.1691174786D+00  0.3239072959D+00
      0.7722183966D+00  0.1145851947D+01  0.7408951398D+00
 SP   1 1.00       0.000000000000
      0.2120314975D+00  0.1000000000D+01  0.1000000000D+01
 D   1 1.00       0.000000000000
      0.8000000000D+00  0.1000000000D+01
 ****
      3 0
 S   6 1.00       0.000000000000
      0.3047524880D+04  0.1834737132D-02
      0.4573695180D+03  0.1403732281D-01
      0.1039486850D+03  0.6884262226D-01
      0.2921015530D+02  0.2321844432D+00
      0.9286662960D+01  0.4679413484D+00
      0.3163926960D+01  0.3623119853D+00
 SP   3 1.00       0.000000000000
      0.7868272350D+01 -0.1193324198D+00  0.6899906659D-01
      0.1881288540D+01 -0.1608541517D+00  0.3164239610D+00
      0.5442492580D+00  0.1143456438D+01  0.7443082909D+00
 SP   1 1.00       0.000000000000
      0.1687144782D+00  0.1000000000D+01  0.1000000000D+01
 D   1 1.00       0.000000000000
      0.8000000000D+00  0.1000000000D+01
 ****
      4 0
 S   6 1.00       0.000000000000
      0.3047524880D+04  0.1834737132D-02
      0.4573695180D+03  0.1403732281D-01
      0.1039486850D+03  0.6884262226D-01
      0.2921015530D+02  0.2321844432D+00
      0.9286662960D+01  0.4679413484D+00
      0.3163926960D+01  0.3623119853D+00
 SP   3 1.00       0.000000000000
      0.7868272350D+01 -0.1193324198D+00  0.6899906659D-01
      0.1881288540D+01 -0.1608541517D+00  0.3164239610D+00
      0.5442492580D+00  0.1143456438D+01  0.7443082909D+00
 SP   1 1.00       0.000000000000
      0.1687144782D+00  0.1000000000D+01  0.1000000000D+01
 D   1 1.00       0.000000000000
      0.8000000000D+00  0.1000000000D+01
 ****
      5 0
 S   6 1.00       0.000000000000
      0.4173511460D+04  0.1834772160D-02
      0.6274579110D+03  0.1399462700D-01
      0.1429020930D+03  0.6858655181D-01
      0.4023432930D+02  0.2322408730D+00
      0.1282021290D+02  0.4690699481D+00
      0.4390437010D+01  0.3604551991D+00
 SP   3 1.00       0.000000000000
      0.1162636186D+02 -0.1149611817D+00  0.6757974388D-01
      0.2716279807D+01 -0.1691174786D+00  0.3239072959D+00
      0.7722183966D+00  0.1145851947D+01  0.7408951398D+00
 SP   1 1.00       0.000000000000
      0.2120314975D+00  0.1000000000D+01  0.1000000000D+01
 D   1 1.00       0.000000000000
      0.8000000000D+00  0.1000000000D+01
 ****
      6 0
 S   6 1.00       0.000000000000
      0.3047524880D+04  0.1834737132D-02
      0.4573695180D+03  0.1403732281D-01
      0.1039486850D+03  0.6884262226D-01
      0.2921015530D+02  0.2321844432D+00
      0.9286662960D+01  0.4679413484D+00
      0.3163926960D+01  0.3623119853D+00
 SP   3 1.00       0.000000000000
      0.7868272350D+01 -0.1193324198D+00  0.6899906659D-01
      0.1881288540D+01 -0.1608541517D+00  0.3164239610D+00
      0.5442492580D+00  0.1143456438D+01  0.7443082909D+00
 SP   1 1.00       0.000000000000
      0.1687144782D+00  0.1000000000D+01  0.1000000000D+01
 D   1 1.00       0.000000000000
      0.8000000000D+00  0.1000000000D+01
 ****
      7 0
 S   6 1.00       0.000000000000
      0.3047524880D+04  0.1834737132D-02
      0.4573695180D+03  0.1403732281D-01
      0.1039486850D+03  0.6884262226D-01
      0.2921015530D+02  0.2321844432D+00
      0.9286662960D+01  0.4679413484D+00
      0.3163926960D+01  0.3623119853D+00
 SP   3 1.00       0.000000000000
      0.7868272350D+01 -0.1193324198D+00  0.6899906659D-01
      0.1881288540D+01 -0.1608541517D+00  0.3164239610D+00
      0.5442492580D+00  0.1143456438D+01  0.7443082909D+00
 SP   1 1.00       0.000000000000
      0.1687144782D+00  0.1000000000D+01  0.1000000000D+01
 D   1 1.00       0.000000000000
      0.8000000000D+00  0.1000000000D+01
 ****
      8 0
 S   6 1.00       0.000000000000
      0.3047524880D+04  0.1834737132D-02
      0.4573695180D+03  0.1403732281D-01
      0.1039486850D+03  0.6884262226D-01
      0.2921015530D+02  0.2321844432D+00
      0.9286662960D+01  0.4679413484D+00
      0.3163926960D+01  0.3623119853D+00
 SP   3 1.00       0.000000000000
      0.7868272350D+01 -0.1193324198D+00  0.6899906659D-01
      0.1881288540D+01 -0.1608541517D+00  0.3164239610D+00
      0.5442492580D+00  0.1143456438D+01  0.7443082909D+00
 SP   1 1.00       0.000000000000
      0.1687144782D+00  0.1000000000D+01  0.1000000000D+01
 D   1 1.00       0.000000000000
      0.8000000000D+00  0.1000000000D+01
 ****
      9 0
 S   6 1.00       0.000000000000
      0.3047524880D+04  0.1834737132D-02
      0.4573695180D+03  0.1403732281D-01
      0.1039486850D+03  0.6884262226D-01
      0.2921015530D+02  0.2321844432D+00
      0.9286662960D+01  0.4679413484D+00
      0.3163926960D+01  0.3623119853D+00
 SP   3 1.00       0.000000000000
      0.7868272350D+01 -0.1193324198D+00  0.6899906659D-01
      0.1881288540D+01 -0.1608541517D+00  0.3164239610D+00
      0.5442492580D+00  0.1143456438D+01  0.7443082909D+00
 SP   1 1.00       0.000000000000
      0.1687144782D+00  0.1000000000D+01  0.1000000000D+01
 D   1 1.00       0.000000000000
      0.8000000000D+00  0.1000000000D+01
 ****
     10 0
 S   6 1.00       0.000000000000
      0.4173511460D+04  0.1834772160D-02
      0.6274579110D+03  0.1399462700D-01
      0.1429020930D+03  0.6858655181D-01
      0.4023432930D+02  0.2322408730D+00
      0.1282021290D+02  0.4690699481D+00
      0.4390437010D+01  0.3604551991D+00
 SP   3 1.00       0.000000000000
      0.1162636186D+02 -0.1149611817D+00  0.6757974388D-01
      0.2716279807D+01 -0.1691174786D+00  0.3239072959D+00
      0.7722183966D+00  0.1145851947D+01  0.7408951398D+00
 SP   1 1.00       0.000000000000
      0.2120314975D+00  0.1000000000D+01  0.1000000000D+01
 D   1 1.00       0.000000000000
      0.8000000000D+00  0.1000000000D+01
 ****
     11 0
 S   6 1.00       0.000000000000
      0.3047524880D+04  0.1834737132D-02
      0.4573695180D+03  0.1403732281D-01
      0.1039486850D+03  0.6884262226D-01
      0.2921015530D+02  0.2321844432D+00
      0.9286662960D+01  0.4679413484D+00
      0.3163926960D+01  0.3623119853D+00
 SP   3 1.00       0.000000000000
      0.7868272350D+01 -0.1193324198D+00  0.6899906659D-01
      0.1881288540D+01 -0.1608541517D+00  0.3164239610D+00
      0.5442492580D+00  0.1143456438D+01  0.7443082909D+00
 SP   1 1.00       0.000000000000
      0.1687144782D+00  0.1000000000D+01  0.1000000000D+01
 D   1 1.00       0.000000000000
      0.8000000000D+00  0.1000000000D+01
 ****
     12 0
 S   6 1.00       0.000000000000
      0.3047524880D+04  0.1834737132D-02
      0.4573695180D+03  0.1403732281D-01
      0.1039486850D+03  0.6884262226D-01
      0.2921015530D+02  0.2321844432D+00
      0.9286662960D+01  0.4679413484D+00
      0.3163926960D+01  0.3623119853D+00
 SP   3 1.00       0.000000000000
      0.7868272350D+01 -0.1193324198D+00  0.6899906659D-01
      0.1881288540D+01 -0.1608541517D+00  0.3164239610D+00
      0.5442492580D+00  0.1143456438D+01  0.7443082909D+00
 SP   1 1.00       0.000000000000
      0.1687144782D+00  0.1000000000D+01  0.1000000000D+01
 D   1 1.00       0.000000000000
      0.8000000000D+00  0.1000000000D+01
 ****
     13 0
 S   6 1.00       0.000000000000
      0.2191710000D+05  0.1869240849D-02
      0.3301490000D+04  0.1423030646D-01
      0.7541460000D+03  0.6969623166D-01
      0.2127110000D+03  0.2384871083D+00
      0.6798960000D+02  0.4833072195D+00
      0.2305150000D+02  0.3380741536D+00
 SP   6 1.00       0.000000000000
      0.4237350000D+03 -0.2376770499D-02  0.4061009982D-02
      0.1007100000D+03 -0.3169300665D-01  0.3068129986D-01
      0.3215990000D+02 -0.1133170238D+00  0.1304519994D+00
      0.1180790000D+02  0.5609001177D-01  0.3272049985D+00
      0.4631100000D+01  0.5922551243D+00  0.4528509980D+00
      0.1870250000D+01  0.4550060955D+00  0.2560419989D+00
 SP   3 1.00       0.000000000000
      0.2615840000D+01 -0.2503731142D+00 -0.1451048955D-01
      0.9221670000D+00  0.6695676310D-01  0.3102627765D+00
      0.3412870000D+00  0.1054506269D+01  0.7544824565D+00
 SP   1 1.00       0.000000000000
      0.1171670000D+00  0.1000000000D+01  0.1000000000D+01
 D   1 1.00       0.000000000000
      0.6500000000D+00  0.1000000000D+01
 ****
     14 0
 S   6 1.00       0.000000000000
      0.5484671660D+04  0.1831074430D-02
      0.8252349460D+03  0.1395017220D-01
      0.1880469580D+03  0.6844507810D-01
      0.5296450000D+02  0.2327143360D+00
      0.1689757040D+02  0.4701928980D+00
      0.5799635340D+01  0.3585208530D+00
 SP   3 1.00       0.000000000000
      0.1553961625D+02 -0.1107775495D+00  0.7087426823D-01
      0.3599933586D+01 -0.1480262627D+00  0.3397528391D+00
      0.1013761750D+01  0.1130767015D+01  0.7271585773D+00
 SP   1 1.00       0.000000000000
      0.2700058226D+00  0.1000000000D+01  0.1000000000D+01
 D   1 1.00       0.000000000000
      0.8000000000D+00  0.1000000000D+01
 ****
     15 0
 S   6 1.00       0.000000000000
      0.5484671660D+04  0.1831074430D-02
      0.8252349460D+03  0.1395017220D-01
      0.1880469580D+03  0.6844507810D-01
      0.5296450000D+02  0.2327143360D+00
      0.1689757040D+02  0.4701928980D+00
      0.5799635340D+01  0.3585208530D+00
 SP   3 1.00       0.000000000000
      0.1553961625D+02 -0.1107775495D+00  0.7087426823D-01
      0.3599933586D+01 -0.1480262627D+00  0.3397528391D+00
      0.1013761750D+01  0.1130767015D+01  0.7271585773D+00
 SP   1 1.00       0.000000000000
      0.2700058226D+00  0.1000000000D+01  0.1000000000D+01
 D   1 1.00       0.000000000000
      0.8000000000D+00  0.1000000000D+01
 ****
     16 0
 S   6 1.00       0.000000000000
      0.3047524880D+04  0.1834737132D-02
      0.4573695180D+03  0.1403732281D-01
      0.1039486850D+03  0.6884262226D-01
      0.2921015530D+02  0.2321844432D+00
      0.9286662960D+01  0.4679413484D+00
      0.3163926960D+01  0.3623119853D+00
 SP   3 1.00       0.000000000000
      0.7868272350D+01 -0.1193324198D+00  0.6899906659D-01
      0.1881288540D+01 -0.1608541517D+00  0.3164239610D+00
      0.5442492580D+00  0.1143456438D+01  0.7443082909D+00
 SP   1 1.00       0.000000000000
      0.1687144782D+00  0.1000000000D+01  0.1000000000D+01
 D   1 1.00       0.000000000000
      0.8000000000D+00  0.1000000000D+01
 ****
     17 0
 S   6 1.00       0.000000000000
      0.3047524880D+04  0.1834737132D-02
      0.4573695180D+03  0.1403732281D-01
      0.1039486850D+03  0.6884262226D-01
      0.2921015530D+02  0.2321844432D+00
      0.9286662960D+01  0.4679413484D+00
      0.3163926960D+01  0.3623119853D+00
 SP   3 1.00       0.000000000000
      0.7868272350D+01 -0.1193324198D+00  0.6899906659D-01
      0.1881288540D+01 -0.1608541517D+00  0.3164239610D+00
      0.5442492580D+00  0.1143456438D+01  0.7443082909D+00
 SP   1 1.00       0.000000000000
      0.1687144782D+00  0.1000000000D+01  0.1000000000D+01
 D   1 1.00       0.000000000000
      0.8000000000D+00  0.1000000000D+01
 ****
     18 0
 S   6 1.00       0.000000000000
      0.3047524880D+04  0.1834737132D-02
      0.4573695180D+03  0.1403732281D-01
      0.1039486850D+03  0.6884262226D-01
      0.2921015530D+02  0.2321844432D+00
      0.9286662960D+01  0.4679413484D+00
      0.3163926960D+01  0.3623119853D+00
 SP   3 1.00       0.000000000000
      0.7868272350D+01 -0.1193324198D+00  0.6899906659D-01
      0.1881288540D+01 -0.1608541517D+00  0.3164239610D+00
      0.5442492580D+00  0.1143456438D+01  0.7443082909D+00
 SP   1 1.00       0.000000000000
      0.1687144782D+00  0.1000000000D+01  0.1000000000D+01
 D   1 1.00       0.000000000000
      0.8000000000D+00  0.1000000000D+01
 ****
     19 0
 S   6 1.00       0.000000000000
      0.3047524880D+04  0.1834737132D-02
      0.4573695180D+03  0.1403732281D-01
      0.1039486850D+03  0.6884262226D-01
      0.2921015530D+02  0.2321844432D+00
      0.9286662960D+01  0.4679413484D+00
      0.3163926960D+01  0.3623119853D+00
 SP   3 1.00       0.000000000000
      0.7868272350D+01 -0.1193324198D+00  0.6899906659D-01
      0.1881288540D+01 -0.1608541517D+00  0.3164239610D+00
      0.5442492580D+00  0.1143456438D+01  0.7443082909D+00
 SP   1 1.00       0.000000000000
      0.1687144782D+00  0.1000000000D+01  0.1000000000D+01
 D   1 1.00       0.000000000000
      0.8000000000D+00  0.1000000000D+01
 ****
     20 0
 S   6 1.00       0.000000000000
      0.3047524880D+04  0.1834737132D-02
      0.4573695180D+03  0.1403732281D-01
      0.1039486850D+03  0.6884262226D-01
      0.2921015530D+02  0.2321844432D+00
      0.9286662960D+01  0.4679413484D+00
      0.3163926960D+01  0.3623119853D+00
 SP   3 1.00       0.000000000000
      0.7868272350D+01 -0.1193324198D+00  0.6899906659D-01
      0.1881288540D+01 -0.1608541517D+00  0.3164239610D+00
      0.5442492580D+00  0.1143456438D+01  0.7443082909D+00
 SP   1 1.00       0.000000000000
      0.1687144782D+00  0.1000000000D+01  0.1000000000D+01
 D   1 1.00       0.000000000000
      0.8000000000D+00  0.1000000000D+01
 ****
     21 0
 S   6 1.00       0.000000000000
      0.3047524880D+04  0.1834737132D-02
      0.4573695180D+03  0.1403732281D-01
      0.1039486850D+03  0.6884262226D-01
      0.2921015530D+02  0.2321844432D+00
      0.9286662960D+01  0.4679413484D+00
      0.3163926960D+01  0.3623119853D+00
 SP   3 1.00       0.000000000000
      0.7868272350D+01 -0.1193324198D+00  0.6899906659D-01
      0.1881288540D+01 -0.1608541517D+00  0.3164239610D+00
      0.5442492580D+00  0.1143456438D+01  0.7443082909D+00
 SP   1 1.00       0.000000000000
      0.1687144782D+00  0.1000000000D+01  0.1000000000D+01
 D   1 1.00       0.000000000000
      0.8000000000D+00  0.1000000000D+01
 ****
     22 0
 S   6 1.00       0.000000000000
      0.3047524880D+04  0.1834737132D-02
      0.4573695180D+03  0.1403732281D-01
      0.1039486850D+03  0.6884262226D-01
      0.2921015530D+02  0.2321844432D+00
      0.9286662960D+01  0.4679413484D+00
      0.3163926960D+01  0.3623119853D+00
 SP   3 1.00       0.000000000000
      0.7868272350D+01 -0.1193324198D+00  0.6899906659D-01
      0.1881288540D+01 -0.1608541517D+00  0.3164239610D+00
      0.5442492580D+00  0.1143456438D+01  0.7443082909D+00
 SP   1 1.00       0.000000000000
      0.1687144782D+00  0.1000000000D+01  0.1000000000D+01
 D   1 1.00       0.000000000000
      0.8000000000D+00  0.1000000000D+01
 ****
     23 0
 S   6 1.00       0.000000000000
      0.3047524880D+04  0.1834737132D-02
      0.4573695180D+03  0.1403732281D-01
      0.1039486850D+03  0.6884262226D-01
      0.2921015530D+02  0.2321844432D+00
      0.9286662960D+01  0.4679413484D+00
      0.3163926960D+01  0.3623119853D+00
 SP   3 1.00       0.000000000000
      0.7868272350D+01 -0.1193324198D+00  0.6899906659D-01
      0.1881288540D+01 -0.1608541517D+00  0.3164239610D+00
      0.5442492580D+00  0.1143456438D+01  0.7443082909D+00
 SP   1 1.00       0.000000000000
      0.1687144782D+00  0.1000000000D+01  0.1000000000D+01
 D   1 1.00       0.000000000000
      0.8000000000D+00  0.1000000000D+01
 ****
     24 0
 S   6 1.00       0.000000000000
      0.3047524880D+04  0.1834737132D-02
      0.4573695180D+03  0.1403732281D-01
      0.1039486850D+03  0.6884262226D-01
      0.2921015530D+02  0.2321844432D+00
      0.9286662960D+01  0.4679413484D+00
      0.3163926960D+01  0.3623119853D+00
 SP   3 1.00       0.000000000000
      0.7868272350D+01 -0.1193324198D+00  0.6899906659D-01
      0.1881288540D+01 -0.1608541517D+00  0.3164239610D+00
      0.5442492580D+00  0.1143456438D+01  0.7443082909D+00
 SP   1 1.00       0.000000000000
      0.1687144782D+00  0.1000000000D+01  0.1000000000D+01
 D   1 1.00       0.000000000000
      0.8000000000D+00  0.1000000000D+01
 ****
     25 0
 S   6 1.00       0.000000000000
      0.3047524880D+04  0.1834737132D-02
      0.4573695180D+03  0.1403732281D-01
      0.1039486850D+03  0.6884262226D-01
      0.2921015530D+02  0.2321844432D+00
      0.9286662960D+01  0.4679413484D+00
      0.3163926960D+01  0.3623119853D+00
 SP   3 1.00       0.000000000000
      0.7868272350D+01 -0.1193324198D+00  0.6899906659D-01
      0.1881288540D+01 -0.1608541517D+00  0.3164239610D+00
      0.5442492580D+00  0.1143456438D+01  0.7443082909D+00
 SP   1 1.00       0.000000000000
      0.1687144782D+00  0.1000000000D+01  0.1000000000D+01
 D   1 1.00       0.000000000000
      0.8000000000D+00  0.1000000000D+01
 ****
     26 0
 S   6 1.00       0.000000000000
      0.3047524880D+04  0.1834737132D-02
      0.4573695180D+03  0.1403732281D-01
      0.1039486850D+03  0.6884262226D-01
      0.2921015530D+02  0.2321844432D+00
      0.9286662960D+01  0.4679413484D+00
      0.3163926960D+01  0.3623119853D+00
 SP   3 1.00       0.000000000000
      0.7868272350D+01 -0.1193324198D+00  0.6899906659D-01
      0.1881288540D+01 -0.1608541517D+00  0.3164239610D+00
      0.5442492580D+00  0.1143456438D+01  0.7443082909D+00
 SP   1 1.00       0.000000000000
      0.1687144782D+00  0.1000000000D+01  0.1000000000D+01
 D   1 1.00       0.000000000000
      0.8000000000D+00  0.1000000000D+01
 ****
     27 0
 S   3 1.00       0.000000000000
      0.1873113696D+02  0.3349460434D-01
      0.2825394365D+01  0.2347269535D+00
      0.6401216923D+00  0.8137573261D+00
 S   1 1.00       0.000000000000
      0.1612777588D+00  0.1000000000D+01
 ****
     28 0
 S   3 1.00       0.000000000000
      0.1873113696D+02  0.3349460434D-01
      0.2825394365D+01  0.2347269535D+00
      0.6401216923D+00  0.8137573261D+00
 S   1 1.00       0.000000000000
      0.1612777588D+00  0.1000000000D+01
 ****
     29 0
 S   3 1.00       0.000000000000
      0.1873113696D+02  0.3349460434D-01
      0.2825394365D+01  0.2347269535D+00
      0.6401216923D+00  0.8137573261D+00
 S   1 1.00       0.000000000000
      0.1612777588D+00  0.1000000000D+01
 ****
     30 0
 S   3 1.00       0.000000000000
      0.1873113696D+02  0.3349460434D-01
      0.2825394365D+01  0.2347269535D+00
      0.6401216923D+00  0.8137573261D+00
 S   1 1.00       0.000000000000
      0.1612777588D+00  0.1000000000D+01
 ****
     31 0
 S   3 1.00       0.000000000000
      0.1873113696D+02  0.3349460434D-01
      0.2825394365D+01  0.2347269535D+00
      0.6401216923D+00  0.8137573261D+00
 S   1 1.00       0.000000000000
      0.1612777588D+00  0.1000000000D+01
 ****
     32 0
 S   3 1.00       0.000000000000
      0.1873113696D+02  0.3349460434D-01
      0.2825394365D+01  0.2347269535D+00
      0.6401216923D+00  0.8137573261D+00
 S   1 1.00       0.000000000000
      0.1612777588D+00  0.1000000000D+01
 ****
     33 0
 S   3 1.00       0.000000000000
      0.1873113696D+02  0.3349460434D-01
      0.2825394365D+01  0.2347269535D+00
      0.6401216923D+00  0.8137573261D+00
 S   1 1.00       0.000000000000
      0.1612777588D+00  0.1000000000D+01
 ****
     34 0
 S   3 1.00       0.000000000000
      0.1873113696D+02  0.3349460434D-01
      0.2825394365D+01  0.2347269535D+00
      0.6401216923D+00  0.8137573261D+00
 S   1 1.00       0.000000000000
      0.1612777588D+00  0.1000000000D+01
 ****
     35 0
 S   3 1.00       0.000000000000
      0.1873113696D+02  0.3349460434D-01
      0.2825394365D+01  0.2347269535D+00
      0.6401216923D+00  0.8137573261D+00
 S   1 1.00       0.000000000000
      0.1612777588D+00  0.1000000000D+01
 ****
     36 0
 S   3 1.00       0.000000000000
      0.1873113696D+02  0.3349460434D-01
      0.2825394365D+01  0.2347269535D+00
      0.6401216923D+00  0.8137573261D+00
 S   1 1.00       0.000000000000
      0.1612777588D+00  0.1000000000D+01
 ****
     37 0
 S   3 1.00       0.000000000000
      0.1873113696D+02  0.3349460434D-01
      0.2825394365D+01  0.2347269535D+00
      0.6401216923D+00  0.8137573261D+00
 S   1 1.00       0.000000000000
      0.1612777588D+00  0.1000000000D+01
 ****
     38 0
 S   3 1.00       0.000000000000
      0.1873113696D+02  0.3349460434D-01
      0.2825394365D+01  0.2347269535D+00
      0.6401216923D+00  0.8137573261D+00
 S   1 1.00       0.000000000000
      0.1612777588D+00  0.1000000000D+01
 ****
     39 0
 S   3 1.00       0.000000000000
      0.1873113696D+02  0.3349460434D-01
      0.2825394365D+01  0.2347269535D+00
      0.6401216923D+00  0.8137573261D+00
 S   1 1.00       0.000000000000
      0.1612777588D+00  0.1000000000D+01
 ****
     40 0
 S   3 1.00       0.000000000000
      0.1873113696D+02  0.3349460434D-01
      0.2825394365D+01  0.2347269535D+00
      0.6401216923D+00  0.8137573261D+00
 S   1 1.00       0.000000000000
      0.1612777588D+00  0.1000000000D+01
 ****
     41 0
 S   3 1.00       0.000000000000
      0.1873113696D+02  0.3349460434D-01
      0.2825394365D+01  0.2347269535D+00
      0.6401216923D+00  0.8137573261D+00
 S   1 1.00       0.000000000000
      0.1612777588D+00  0.1000000000D+01
 ****
     42 0
 S   3 1.00       0.000000000000
      0.1873113696D+02  0.3349460434D-01
      0.2825394365D+01  0.2347269535D+00
      0.6401216923D+00  0.8137573261D+00
 S   1 1.00       0.000000000000
      0.1612777588D+00  0.1000000000D+01
 ****
     43 0
 S   3 1.00       0.000000000000
      0.1873113696D+02  0.3349460434D-01
      0.2825394365D+01  0.2347269535D+00
      0.6401216923D+00  0.8137573261D+00
 S   1 1.00       0.000000000000
      0.1612777588D+00  0.1000000000D+01
 ****
     44 0
 S   3 1.00       0.000000000000
      0.1873113696D+02  0.3349460434D-01
      0.2825394365D+01  0.2347269535D+00
      0.6401216923D+00  0.8137573261D+00
 S   1 1.00       0.000000000000
      0.1612777588D+00  0.1000000000D+01
 ****
     45 0
 S   3 1.00       0.000000000000
      0.1873113696D+02  0.3349460434D-01
      0.2825394365D+01  0.2347269535D+00
      0.6401216923D+00  0.8137573261D+00
 S   1 1.00       0.000000000000
      0.1612777588D+00  0.1000000000D+01
 ****
     46 0
 S   3 1.00       0.000000000000
      0.1873113696D+02  0.3349460434D-01
      0.2825394365D+01  0.2347269535D+00
      0.6401216923D+00  0.8137573261D+00
 S   1 1.00       0.000000000000
      0.1612777588D+00  0.1000000000D+01
 ****
     47 0
 S   3 1.00       0.000000000000
      0.1873113696D+02  0.3349460434D-01
      0.2825394365D+01  0.2347269535D+00
      0.6401216923D+00  0.8137573261D+00
 S   1 1.00       0.000000000000
      0.1612777588D+00  0.1000000000D+01
 ****

   436 basis functions,   836 primitive gaussians,   436 cartesian basis functions
    97 alpha electrons       97 beta electrons
       nuclear repulsion energy      2352.3576629104 Hartrees.
 IExCor=  402 DFT=T Ex+Corr=B3LYP ExCW=0 ScaHFX=  0.200000
 ScaDFX=  0.800000  0.720000  1.000000  0.810000 ScalE2=  1.000000  1.000000
 IRadAn=      5 IRanWt=     -1 IRanGd=            0 ICorTp=0 IEmpDi=  4
 NAtoms=   47 NActive=   47 NUniq=   47 SFac= 1.00D+00 NAtFMM=   60 NAOKFM=F Big=F
 Integral buffers will be    131072 words long.
 Regular integral format.
 Two-electron integral symmetry is turned off.
 Leave Link  301 at Sat Nov  5 09:33:37 2022, MaxMem=   402653184 cpu:               1.2 elap:               0.3
 (Enter /home/wykgroup/appl/g16/l302.exe)
 NPDir=0 NMtPBC=     1 NCelOv=     1 NCel=       1 NClECP=     1 NCelD=      1
         NCelK=      1 NCelE2=     1 NClLst=     1 CellRange=     0.0.
 One-electron integrals computed using PRISM.
 NBasis=   436 RedAO= T EigKep=  3.52D-04  NBF=   436
 NBsUse=   436 1.00D-06 EigRej= -1.00D+00 NBFU=   436
 Precomputing XC quadrature grid using
 IXCGrd= 4 IRadAn=           5 IRanWt=          -1 IRanGd=           0 AccXCQ= 0.00D+00.
 Generated NRdTot=       0 NPtTot=           0 NUsed=           0 NTot=          32
 NSgBfM=   424   424   424   424   424 MxSgAt=    47 MxSgA2=    47.
 Leave Link  302 at Sat Nov  5 09:33:42 2022, MaxMem=   402653184 cpu:              31.1 elap:               4.6
 (Enter /home/wykgroup/appl/g16/l303.exe)
 DipDrv:  MaxL=1.
 Leave Link  303 at Sat Nov  5 09:33:42 2022, MaxMem=   402653184 cpu:               1.8 elap:               0.4
 (Enter /home/wykgroup/appl/g16/l308.exe)
 Leave Link  308 at Sat Nov  5 09:33:43 2022, MaxMem=   402653184 cpu:               2.2 elap:               0.5
 (Enter /home/wykgroup/appl/g16/l401.exe)
 ExpMin= 1.17D-01 ExpMax= 2.19D+04 ExpMxC= 3.30D+03 IAcc=3 IRadAn=         5 AccDes= 0.00D+00
 Harris functional with IExCor=  402 and IRadAn=       5 diagonalized for initial guess.
 HarFok:  IExCor=  402 AccDes= 0.00D+00 IRadAn=         5 IDoV= 1 UseB2=F ITyADJ=14
 ICtDFT=  3500011 ScaDFX=  1.000000  1.000000  1.000000  1.000000
 FoFCou: FMM=F IPFlag=           0 FMFlag=      100000 FMFlg1=           0
         NFxFlg=           0 DoJE=T BraDBF=F KetDBF=T FulRan=T
         wScrn=  0.000000 ICntrl=       500 IOpCl=  0 I1Cent=   200000004 NGrid=           0
         NMat0=    1 NMatS0=      1 NMatT0=    0 NMatD0=    1 NMtDS0=    0 NMtDT0=    0
 Symmetry not used in FoFCou.
 Harris En= -1487.57187326878    
 JPrj=0 DoOrth=F DoCkMO=F.
 Leave Link  401 at Sat Nov  5 09:33:51 2022, MaxMem=   402653184 cpu:              53.9 elap:               8.2
 (Enter /home/wykgroup/appl/g16/l502.exe)
 Two-electron integral symmetry not used.
 Closed shell SCF:
 Using DIIS extrapolation, IDIIS=  1040.
 NGot=   402653184 LenX=   402263085 LenY=   402072548
 Requested convergence on RMS density matrix=1.00D-08 within  32 cycles.
 Requested convergence on MAX density matrix=1.00D-06.
 Requested convergence on             energy=1.00D-06.
 No special actions if energy rises.
 Fock matrices will be formed incrementally for  20 cycles.
 Integral accuracy reduced to 1.0D-05 until final iterations.

 Cycle   1  Pass 0  IDiag  1:
 FoFJK:  IHMeth= 1 ICntrl=       0 DoSepK=F KAlg= 0 I1Cent=           0 FoldK=F
 IRaf= 630000000 NMat=       1 IRICut=       1 DoRegI=T DoRafI=F ISym2E= 0 IDoP0=0 IntGTp=1.
 FoFCou: FMM=F IPFlag=           0 FMFlag=      100000 FMFlg1=           0
         NFxFlg=           0 DoJE=F BraDBF=F KetDBF=F FulRan=T
         wScrn=  0.000000 ICntrl=         0 IOpCl=  0 I1Cent=           0 NGrid=           0
         NMat0=    1 NMatS0=      1 NMatT0=    0 NMatD0=    1 NMtDS0=    0 NMtDT0=    0
 Symmetry not used in FoFCou.
 E= -1486.90111708892    
 DIIS: error= 2.68D-02 at cycle   1 NSaved=   1.
 NSaved= 1 IEnMin= 1 EnMin= -1486.90111708892     IErMin= 1 ErrMin= 2.68D-02
 ErrMax= 2.68D-02  0.00D+00 EMaxC= 1.00D-01 BMatC= 7.37D-01 BMatP= 7.37D-01
 IDIUse=3 WtCom= 7.32D-01 WtEn= 2.68D-01
 Coeff-Com:  0.100D+01
 Coeff-En:   0.100D+01
 Coeff:      0.100D+01
 Gap=     0.147 Goal=   None    Shift=    0.000
 GapD=    0.147 DampG=1.000 DampE=0.500 DampFc=0.5000 IDamp=-1.
 Damping current iteration by 5.00D-01
 RMSDP=5.44D-03 MaxDP=5.51D-01              OVMax= 2.21D-01

 Cycle   2  Pass 0  IDiag  1:
 RMSU=  2.71D-03    CP:  9.86D-01
 E= -1487.07460559053     Delta-E=       -0.173488501613 Rises=F Damp=T
 DIIS: error= 1.21D-02 at cycle   2 NSaved=   2.
 NSaved= 2 IEnMin= 2 EnMin= -1487.07460559053     IErMin= 2 ErrMin= 1.21D-02
 ErrMax= 1.21D-02  0.00D+00 EMaxC= 1.00D-01 BMatC= 1.31D-01 BMatP= 7.37D-01
 IDIUse=3 WtCom= 8.79D-01 WtEn= 1.21D-01
 Coeff-Com:  0.228D+00 0.772D+00
 Coeff-En:   0.355D+00 0.645D+00
 Coeff:      0.244D+00 0.756D+00
 Gap=     0.200 Goal=   None    Shift=    0.000
 RMSDP=1.91D-03 MaxDP=1.50D-01 DE=-1.73D-01 OVMax= 2.15D-01

 Cycle   3  Pass 0  IDiag  1:
 RMSU=  1.64D-03    CP:  9.71D-01  6.50D-01
 E= -1487.48015742093     Delta-E=       -0.405551830400 Rises=F Damp=F
 DIIS: error= 1.25D-02 at cycle   3 NSaved=   3.
 NSaved= 3 IEnMin= 3 EnMin= -1487.48015742093     IErMin= 2 ErrMin= 1.21D-02
 ErrMax= 1.25D-02  0.00D+00 EMaxC= 1.00D-01 BMatC= 1.06D-01 BMatP= 1.31D-01
 IDIUse=3 WtCom= 8.75D-01 WtEn= 1.25D-01
 Coeff-Com:  0.594D-01 0.467D+00 0.474D+00
 Coeff-En:   0.000D+00 0.000D+00 0.100D+01
 Coeff:      0.520D-01 0.408D+00 0.540D+00
 Gap=     0.131 Goal=   None    Shift=    0.000
 RMSDP=1.26D-03 MaxDP=6.76D-02 DE=-4.06D-01 OVMax= 9.56D-02

 Cycle   4  Pass 0  IDiag  1:
 RMSU=  7.50D-04    CP:  9.77D-01  7.96D-01  4.38D-01
 E= -1487.55809512892     Delta-E=       -0.077937707990 Rises=F Damp=F
 DIIS: error= 8.25D-03 at cycle   4 NSaved=   4.
 NSaved= 4 IEnMin= 4 EnMin= -1487.55809512892     IErMin= 4 ErrMin= 8.25D-03
 ErrMax= 8.25D-03  0.00D+00 EMaxC= 1.00D-01 BMatC= 2.60D-02 BMatP= 1.06D-01
 IDIUse=3 WtCom= 9.18D-01 WtEn= 8.25D-02
 Coeff-Com:  0.103D-01 0.116D+00 0.342D+00 0.532D+00
 Coeff-En:   0.000D+00 0.000D+00 0.241D+00 0.759D+00
 Coeff:      0.949D-02 0.106D+00 0.334D+00 0.551D+00
 Gap=     0.139 Goal=   None    Shift=    0.000
 RMSDP=4.93D-04 MaxDP=2.73D-02 DE=-7.79D-02 OVMax= 4.78D-02

 Cycle   5  Pass 0  IDiag  1:
 RMSU=  2.18D-04    CP:  9.77D-01  7.47D-01  6.04D-01  5.73D-01
 E= -1487.58195909695     Delta-E=       -0.023863968032 Rises=F Damp=F
 DIIS: error= 2.47D-03 at cycle   5 NSaved=   5.
 NSaved= 5 IEnMin= 5 EnMin= -1487.58195909695     IErMin= 5 ErrMin= 2.47D-03
 ErrMax= 2.47D-03  0.00D+00 EMaxC= 1.00D-01 BMatC= 2.12D-03 BMatP= 2.60D-02
 IDIUse=3 WtCom= 9.75D-01 WtEn= 2.47D-02
 Coeff-Com:  0.129D-04 0.218D-01 0.149D+00 0.330D+00 0.499D+00
 Coeff-En:   0.000D+00 0.000D+00 0.000D+00 0.439D-01 0.956D+00
 Coeff:      0.126D-04 0.212D-01 0.145D+00 0.323D+00 0.511D+00
 Gap=     0.135 Goal=   None    Shift=    0.000
 RMSDP=1.53D-04 MaxDP=5.90D-03 DE=-2.39D-02 OVMax= 2.16D-02

 Cycle   6  Pass 0  IDiag  1:
 RMSU=  8.08D-05    CP:  9.76D-01  7.55D-01  5.96D-01  6.37D-01  4.60D-01
 E= -1487.58398091445     Delta-E=       -0.002021817499 Rises=F Damp=F
 DIIS: error= 6.24D-04 at cycle   6 NSaved=   6.
 NSaved= 6 IEnMin= 6 EnMin= -1487.58398091445     IErMin= 6 ErrMin= 6.24D-04
 ErrMax= 6.24D-04  0.00D+00 EMaxC= 1.00D-01 BMatC= 2.44D-04 BMatP= 2.12D-03
 IDIUse=3 WtCom= 9.94D-01 WtEn= 6.24D-03
 Coeff-Com: -0.775D-03 0.103D-02 0.478D-01 0.125D+00 0.310D+00 0.517D+00
 Coeff-En:   0.000D+00 0.000D+00 0.000D+00 0.000D+00 0.100D+00 0.900D+00
 Coeff:     -0.770D-03 0.103D-02 0.475D-01 0.124D+00 0.308D+00 0.520D+00
 Gap=     0.137 Goal=   None    Shift=    0.000
 RMSDP=5.15D-05 MaxDP=1.80D-03 DE=-2.02D-03 OVMax= 8.61D-03

 Cycle   7  Pass 0  IDiag  1:
 RMSU=  2.53D-05    CP:  9.76D-01  7.53D-01  6.01D-01  6.34D-01  5.66D-01
                    CP:  5.40D-01
 E= -1487.58423187414     Delta-E=       -0.000250959686 Rises=F Damp=F
 DIIS: error= 9.76D-05 at cycle   7 NSaved=   7.
 NSaved= 7 IEnMin= 7 EnMin= -1487.58423187414     IErMin= 7 ErrMin= 9.76D-05
 ErrMax= 9.76D-05  0.00D+00 EMaxC= 1.00D-01 BMatC= 1.58D-05 BMatP= 2.44D-04
 IDIUse=1 WtCom= 1.00D+00 WtEn= 0.00D+00
 Coeff-Com: -0.359D-03-0.134D-02 0.147D-01 0.431D-01 0.133D+00 0.295D+00
 Coeff-Com:  0.516D+00
 Coeff:     -0.359D-03-0.134D-02 0.147D-01 0.431D-01 0.133D+00 0.295D+00
 Coeff:      0.516D+00
 Gap=     0.136 Goal=   None    Shift=    0.000
 RMSDP=1.38D-05 MaxDP=6.10D-04 DE=-2.51D-04 OVMax= 2.09D-03

 Cycle   8  Pass 0  IDiag  1:
 RMSU=  8.60D-06    CP:  9.76D-01  7.53D-01  6.01D-01  6.36D-01  5.64D-01
                    CP:  5.87D-01  6.05D-01
 E= -1487.58424590945     Delta-E=       -0.000014035314 Rises=F Damp=F
 DIIS: error= 7.13D-05 at cycle   8 NSaved=   8.
 NSaved= 8 IEnMin= 8 EnMin= -1487.58424590945     IErMin= 8 ErrMin= 7.13D-05
 ErrMax= 7.13D-05  0.00D+00 EMaxC= 1.00D-01 BMatC= 2.32D-06 BMatP= 1.58D-05
 IDIUse=1 WtCom= 1.00D+00 WtEn= 0.00D+00
 Coeff-Com: -0.798D-04-0.938D-03 0.279D-02 0.101D-01 0.420D-01 0.118D+00
 Coeff-Com:  0.318D+00 0.510D+00
 Coeff:     -0.798D-04-0.938D-03 0.279D-02 0.101D-01 0.420D-01 0.118D+00
 Coeff:      0.318D+00 0.510D+00
 Gap=     0.136 Goal=   None    Shift=    0.000
 RMSDP=5.13D-06 MaxDP=1.73D-04 DE=-1.40D-05 OVMax= 5.78D-04

 Initial convergence to 1.0D-05 achieved.  Increase integral accuracy.
 Cycle   9  Pass 1  IDiag  1:
 E= -1487.58424945955     Delta-E=       -0.000003550093 Rises=F Damp=F
 DIIS: error= 1.01D-04 at cycle   1 NSaved=   1.
 NSaved= 1 IEnMin= 1 EnMin= -1487.58424945955     IErMin= 1 ErrMin= 1.01D-04
 ErrMax= 1.01D-04  0.00D+00 EMaxC= 1.00D-01 BMatC= 1.50D-06 BMatP= 1.50D-06
 IDIUse=3 WtCom= 9.99D-01 WtEn= 1.01D-03
 Coeff-Com:  0.100D+01
 Coeff-En:   0.100D+01
 Coeff:      0.100D+01
 Gap=     0.136 Goal=   None    Shift=    0.000
 RMSDP=5.13D-06 MaxDP=1.73D-04 DE=-3.55D-06 OVMax= 3.52D-04

 Cycle  10  Pass 1  IDiag  1:
 RMSU=  5.40D-05    CP:  1.00D+00
 E= -1487.58425037458     Delta-E=       -0.000000915034 Rises=F Damp=F
 DIIS: error= 3.24D-05 at cycle   2 NSaved=   2.
 NSaved= 2 IEnMin= 2 EnMin= -1487.58425037458     IErMin= 2 ErrMin= 3.24D-05
 ErrMax= 3.24D-05  0.00D+00 EMaxC= 1.00D-01 BMatC= 4.66D-07 BMatP= 1.50D-06
 IDIUse=1 WtCom= 1.00D+00 WtEn= 0.00D+00
 Coeff-Com:  0.287D+00 0.713D+00
 Coeff:      0.287D+00 0.713D+00
 Gap=     0.136 Goal=   None    Shift=    0.000
 RMSDP=4.25D-06 MaxDP=1.65D-04 DE=-9.15D-07 OVMax= 5.63D-04

 Cycle  11  Pass 1  IDiag  1:
 RMSU=  4.25D-06    CP:  1.00D+00  1.00D+00
 E= -1487.58425010732     Delta-E=        0.000000267265 Rises=F Damp=F
 DIIS: error= 3.89D-05 at cycle   3 NSaved=   3.
 NSaved= 3 IEnMin= 2 EnMin= -1487.58425037458     IErMin= 2 ErrMin= 3.24D-05
 ErrMax= 3.89D-05  0.00D+00 EMaxC= 1.00D-01 BMatC= 6.94D-07 BMatP= 4.66D-07
 IDIUse=1 WtCom= 1.00D+00 WtEn= 0.00D+00
 Coeff-Com:  0.108D-01 0.547D+00 0.442D+00
 Coeff:      0.108D-01 0.547D+00 0.442D+00
 Gap=     0.136 Goal=   None    Shift=    0.000
 RMSDP=2.44D-06 MaxDP=9.10D-05 DE= 2.67D-07 OVMax= 3.32D-04

 Cycle  12  Pass 1  IDiag  1:
 RMSU=  6.37D-07    CP:  1.00D+00  1.01D+00  4.49D-01
 E= -1487.58425088983     Delta-E=       -0.000000782510 Rises=F Damp=F
 DIIS: error= 4.53D-06 at cycle   4 NSaved=   4.
 NSaved= 4 IEnMin= 4 EnMin= -1487.58425088983     IErMin= 4 ErrMin= 4.53D-06
 ErrMax= 4.53D-06  0.00D+00 EMaxC= 1.00D-01 BMatC= 1.71D-08 BMatP= 4.66D-07
 IDIUse=1 WtCom= 1.00D+00 WtEn= 0.00D+00
 Coeff-Com: -0.225D-02 0.314D+00 0.270D+00 0.419D+00
 Coeff:     -0.225D-02 0.314D+00 0.270D+00 0.419D+00
 Gap=     0.136 Goal=   None    Shift=    0.000
 RMSDP=3.90D-07 MaxDP=2.31D-05 DE=-7.83D-07 OVMax= 2.83D-05

 Cycle  13  Pass 1  IDiag  1:
 RMSU=  1.51D-07    CP:  1.00D+00  1.01D+00  4.62D-01  4.43D-01
 E= -1487.58425090481     Delta-E=       -0.000000014986 Rises=F Damp=F
 DIIS: error= 1.18D-06 at cycle   5 NSaved=   5.
 NSaved= 5 IEnMin= 5 EnMin= -1487.58425090481     IErMin= 5 ErrMin= 1.18D-06
 ErrMax= 1.18D-06  0.00D+00 EMaxC= 1.00D-01 BMatC= 8.91D-10 BMatP= 1.71D-08
 IDIUse=1 WtCom= 1.00D+00 WtEn= 0.00D+00
 Coeff-Com: -0.194D-02 0.169D+00 0.147D+00 0.263D+00 0.422D+00
 Coeff:     -0.194D-02 0.169D+00 0.147D+00 0.263D+00 0.422D+00
 Gap=     0.136 Goal=   None    Shift=    0.000
 RMSDP=8.30D-08 MaxDP=6.64D-06 DE=-1.50D-08 OVMax= 6.98D-06

 Cycle  14  Pass 1  IDiag  1:
 RMSU=  4.59D-08    CP:  1.00D+00  1.01D+00  4.61D-01  4.57D-01  5.48D-01
 E= -1487.58425090552     Delta-E=       -0.000000000708 Rises=F Damp=F
 DIIS: error= 2.89D-07 at cycle   6 NSaved=   6.
 NSaved= 6 IEnMin= 6 EnMin= -1487.58425090552     IErMin= 6 ErrMin= 2.89D-07
 ErrMax= 2.89D-07  0.00D+00 EMaxC= 1.00D-01 BMatC= 3.74D-11 BMatP= 8.91D-10
 IDIUse=1 WtCom= 1.00D+00 WtEn= 0.00D+00
 Coeff-Com: -0.100D-02 0.806D-01 0.700D-01 0.129D+00 0.246D+00 0.474D+00
 Coeff:     -0.100D-02 0.806D-01 0.700D-01 0.129D+00 0.246D+00 0.474D+00
 Gap=     0.136 Goal=   None    Shift=    0.000
 RMSDP=1.90D-08 MaxDP=1.14D-06 DE=-7.08D-10 OVMax= 1.66D-06

 Cycle  15  Pass 1  IDiag  1:
 RMSU=  1.55D-08    CP:  1.00D+00  1.01D+00  4.61D-01  4.58D-01  5.71D-01
                    CP:  7.77D-01
 E= -1487.58425090559     Delta-E=       -0.000000000073 Rises=F Damp=F
 DIIS: error= 8.74D-08 at cycle   7 NSaved=   7.
 NSaved= 7 IEnMin= 7 EnMin= -1487.58425090559     IErMin= 7 ErrMin= 8.74D-08
 ErrMax= 8.74D-08  0.00D+00 EMaxC= 1.00D-01 BMatC= 4.27D-12 BMatP= 3.74D-11
 IDIUse=1 WtCom= 1.00D+00 WtEn= 0.00D+00
 Coeff-Com: -0.329D-03 0.246D-01 0.213D-01 0.411D-01 0.889D-01 0.280D+00
 Coeff-Com:  0.545D+00
 Coeff:     -0.329D-03 0.246D-01 0.213D-01 0.411D-01 0.889D-01 0.280D+00
 Coeff:      0.545D+00
 Gap=     0.136 Goal=   None    Shift=    0.000
 RMSDP=6.51D-09 MaxDP=5.41D-07 DE=-7.28D-11 OVMax= 5.06D-07

 SCF Done:  E(RB3LYP) =  -1487.58425091     A.U. after   15 cycles
            NFock= 15  Conv=0.65D-08     -V/T= 2.0080
 KE= 1.475734286861D+03 PE=-8.179102836437D+03 EE= 2.863426635759D+03
 Leave Link  502 at Sat Nov  5 09:35:57 2022, MaxMem=   402653184 cpu:             851.6 elap:             126.2
 (Enter /home/wykgroup/appl/g16/l508.exe)
 QCSCF skips out because SCF is already converged.
 Leave Link  508 at Sat Nov  5 09:36:00 2022, MaxMem=   402653184 cpu:               0.5 elap:               0.2
 (Enter /home/wykgroup/appl/g16/l801.exe)
 DoSCS=F DFT=T ScalE2(SS,OS)=  1.000000  1.000000
 ExpMin= 1.17D-01 ExpMax= 2.19D+04 ExpMxC= 3.30D+03 IAcc=3 IRadAn=         5 AccDes= 0.00D+00
 HarFok:  IExCor=  205 AccDes= 0.00D+00 IRadAn=         5 IDoV=-2 UseB2=F ITyADJ=14
 ICtDFT= 12500011 ScaDFX=  1.000000  1.000000  1.000000  1.000000
 GSVD:  LWork=       -1140 too small for GESVD, short by        4950 words or        4950 for optimal perf.
 Largest valence mixing into a core orbital is  1.33D-04
 Largest core mixing into a valence orbital is  2.79D-05
 Range of M.O.s used for correlation:    31   436
 NBasis=   436 NAE=    97 NBE=    97 NFC=    30 NFV=     0
 NROrb=    406 NOA=    67 NOB=    67 NVA=   339 NVB=   339
 Leave Link  801 at Sat Nov  5 09:36:00 2022, MaxMem=   402653184 cpu:               3.2 elap:               0.6
 (Enter /home/wykgroup/appl/g16/l914.exe)
 RHF ground state
 Two-electron integral symmetry not used.
 MDV=   402653184 DFT=T DoStab=F Mixed=T DoRPA=T DoScal=F NonHer=T
 Making orbital integer symmetry assigments:
    16 initial guesses have been made.
 Convergence on wavefunction:    0.001000000000000
 Davidson Disk Diagonalization:  ConvIn= 1.00D-03 SkipCon=T Conv= 1.00D-03.
 Max sub-space:  2000 roots to seek:    16 dimension of matrix:        45426
 Iteration     1 Dimension    16 NMult     0 NNew     16
 CISAX will form    16 AO SS matrices at one time.
 NMat=    16 NSing=     8 JSym2X= 0.
 FoFJK:  IHMeth= 1 ICntrl=       0 DoSepK=F KAlg= 0 I1Cent=           0 FoldK=F
 IRaf= 630000000 NMat=      32 IRICut=       1 DoRegI=T DoRafI=F ISym2E= 0 IDoP0=0 IntGTp=1.
 FoFCou: FMM=F IPFlag=           0 FMFlag=      100000 FMFlg1=           0
         NFxFlg=           0 DoJE=F BraDBF=F KetDBF=F FulRan=T
         wScrn=  0.000000 ICntrl=         0 IOpCl=  0 I1Cent=           0 NGrid=           0
         NMat0=   32 NMatS0=      8 NMatT0=    8 NMatD0=   32 NMtDS0=    0 NMtDT0=    0
 Symmetry not used in FoFCou.
 New state      1 was old state      2
 New state      2 was old state      6
 New state      3 was old state      1
 New state      4 was old state     10
 New state      5 was old state      4
 New state      6 was old state      3
 New state      7 was old state     16
 Excitation Energies [eV] at current iteration:
 Root      1 :     2.619688689413516
 Root      2 :     3.546040051764956
 Root      3 :     3.648664374451689
 Root      4 :     3.686368224817785
 Root      5 :     3.834198839768876
 Root      6 :     3.855939225475977
 Root      7 :     4.023113955804278
 Root      8 :     4.207982763485147
 Root      9 :     4.265595884983846
 Root     10 :     4.323466244832590
 Root     11 :     4.500979956090617
 Root     12 :     4.553768802298485
 Root     13 :     4.678999953322368
 Root     14 :     4.686449514191177
 Root     15 :     4.769740477193789
 Root     16 :     5.790660642547526
 Vector   4 SDiff=1.59D+01 TDiff=6.60D+01 assumed to be singlet.
 Vector   8 SDiff=1.45D+01 TDiff=4.65D+01 assumed to be singlet.
 Iteration     2 Dimension    24 NMult    16 NNew      8
 CISAX will form     8 AO SS matrices at one time.
 NMat=     8 NSing=     4 JSym2X= 0.
 Root      1 not converged, maximum delta is    0.095747371102973
 Root      2 not converged, maximum delta is    0.240611818594934
 Root      3 not converged, maximum delta is    0.221488236275110
 New state      4 was old state      6
 Root      4 not converged, maximum delta is    0.160211404648506
 Excitation Energies [eV] at current iteration:
 Root      1 :     2.434644679408143   Change is   -0.185044010005373
 Root      2 :     3.204446961716261   Change is   -0.341593090048695
 Root      3 :     3.243497639093655   Change is   -0.405166735358034
 Root      4 :     3.828232305174664   Change is   -0.027706920301313
 Iteration     3 Dimension    32 NMult    24 NNew      8
 CISAX will form     8 AO SS matrices at one time.
 NMat=     8 NSing=     4 JSym2X= 0.
 Root      1 not converged, maximum delta is    0.023724000631832
 Root      2 not converged, maximum delta is    0.076900926185204
 Root      3 not converged, maximum delta is    0.017696481826136
 Root      4 not converged, maximum delta is    0.016488234026431
 Excitation Energies [eV] at current iteration:
 Root      1 :     2.419147126845617   Change is   -0.015497552562526
 Root      2 :     3.132666826131077   Change is   -0.071780135585183
 Root      3 :     3.215037087116856   Change is   -0.028460551976799
 Root      4 :     3.824195610560447   Change is   -0.004036694614217
 Iteration     4 Dimension    40 NMult    32 NNew      8
 CISAX will form     8 AO SS matrices at one time.
 NMat=     8 NSing=     4 JSym2X= 0.
 Root      1 not converged, maximum delta is    0.002165643115467
 Root      2 not converged, maximum delta is    0.012579588652814
 Root      3 not converged, maximum delta is    0.006715204643228
 Root      4 not converged, maximum delta is    0.007166724390283
 Excitation Energies [eV] at current iteration:
 Root      1 :     2.418126088540050   Change is   -0.001021038305567
 Root      2 :     3.125069905327086   Change is   -0.007596920803991
 Root      3 :     3.210322659067720   Change is   -0.004714428049136
 Root      4 :     3.823792438975978   Change is   -0.000403171584469
 Iteration     5 Dimension    48 NMult    40 NNew      8
 CISAX will form     8 AO SS matrices at one time.
 NMat=     8 NSing=     4 JSym2X= 0.
 Root      1 has converged.
 Root      2 not converged, maximum delta is    0.003306406057454
 Root      3 not converged, maximum delta is    0.002981493468675
 Root      4 not converged, maximum delta is    0.001841033799183
 Excitation Energies [eV] at current iteration:
 Root      1 :     2.418078070209506   Change is   -0.000048018330544
 Root      2 :     3.124193436646875   Change is   -0.000876468680211
 Root      3 :     3.209366916914410   Change is   -0.000955742153310
 Root      4 :     3.823705412082284   Change is   -0.000087026893694
 Iteration     6 Dimension    54 NMult    48 NNew      6
 CISAX will form     6 AO SS matrices at one time.
 NMat=     6 NSing=     4 JSym2X= 0.
 Root      1 has converged.
 Root      2 not converged, maximum delta is    0.001957429088216
 Root      3 has converged.
 Root      4 has converged.
 Excitation Energies [eV] at current iteration:
 Root      1 :     2.418076761143985   Change is   -0.000001309065521
 Root      2 :     3.124091318690356   Change is   -0.000102117956518
 Root      3 :     3.209245104207521   Change is   -0.000121812706889
 Root      4 :     3.823683722673882   Change is   -0.000021689408401
 Iteration     7 Dimension    56 NMult    54 NNew      2
 CISAX will form     2 AO SS matrices at one time.
 NMat=     2 NSing=     0 JSym2X= 0.
 Root      1 has converged.
 Root      2 has converged.
 Root      3 has converged.
 Root      4 has converged.
 Excitation Energies [eV] at current iteration:
 Root      1 :     2.418075620688093   Change is   -0.000001140455892
 Root      2 :     3.124077125028173   Change is   -0.000014193662183
 Root      3 :     3.209245104207624   Change is    0.000000000000102
 Root      4 :     3.823683722673904   Change is    0.000000000000021
 Convergence achieved on expansion vectors.
 ***********************************************************************
 Excited states from <AA,BB:AA,BB> singles matrix:
 ***********************************************************************
 
 1PDM for each excited state written to RWF  633
 Ground to excited state transition densities written to RWF  633
 Ground to excited state transition electric dipole moments (Au):
       state          X           Y           Z        Dip. S.      Osc.
         1         0.0000     -0.0000     -0.0000      0.0000      0.0000
         2        -0.0000      0.0000      0.0000      0.0000      0.0000
         3         0.6822      0.4012      0.2936      0.7126      0.0560
         4        -0.0639      0.0364      0.0848      0.0126      0.0012
 Ground to excited state transition velocity dipole moments (Au):
       state          X           Y           Z        Dip. S.      Osc.
         1        -0.0000      0.0000      0.0000      0.0000      0.0000
         2        -0.0000     -0.0000     -0.0000      0.0000      0.0000
         3        -0.0734     -0.0518     -0.0405      0.0097      0.0549
         4         0.0096     -0.0064     -0.0138      0.0003      0.0015
 Ground to excited state transition magnetic dipole moments (Au):
       state          X           Y           Z
         1        -0.0000      0.0000     -0.0000
         2         0.0000     -0.0000     -0.0000
         3         0.2956     -0.5916      0.2690
         4         0.0318      0.0909      0.0067
 Ground to excited state transition velocity quadrupole moments (Au):
       state          XX          YY          ZZ          XY          XZ          YZ
         1         0.0000      0.0000      0.0000     -0.0000     -0.0000     -0.0000
         2        -0.0000      0.0000     -0.0000     -0.0000      0.0000      0.0000
         3         0.0262      0.0052     -0.2214     -0.0003     -0.0109     -0.1424
         4         0.0895      0.0036     -0.0665      0.0052     -0.0517     -0.0268
 <0|del|b> * <b|rxdel|0> + <0|del|b> * <b|delr+rdel|0>
 Rotatory Strengths (R) in cgs (10**-40 erg-esu-cm/Gauss)
       state          XX          YY          ZZ    R(velocity)    E-M Angle
         1        -0.0000      0.0000      0.0000      0.0000       90.00
         2         0.0000     -0.0000      0.0000      0.0000       90.00
         3        57.4732    -66.4191     -2.9109     -3.9523       91.61
[...]
    27  H    0.000143  -0.000920   0.567706  -0.044829  -0.024727  -0.000146
    28  H    0.000103  -0.008779  -0.044829   0.658859  -0.041660  -0.000577
    29  H   -0.000241   0.005598  -0.024727  -0.041660   0.564840   0.000651
    30  H    0.002584   0.000384  -0.000146  -0.000577   0.000651   0.600369
    31  H    0.000195   0.005274   0.000078   0.002944   0.003254  -0.037139
    32  H    0.003607   0.000182   0.000005  -0.000141   0.000007  -0.002926
    33  H    0.001592   0.002133  -0.000053   0.000774   0.000025   0.005786
    34  H   -0.000084  -0.000002   0.000000  -0.000001   0.000000   0.000018
    35  H    0.000002  -0.000000   0.000000   0.000000  -0.000000  -0.000000
    36  H    0.000000  -0.000000   0.000000  -0.000000   0.000000   0.000000
    37  H    0.000000  -0.000000   0.000000   0.000000   0.000000   0.000000
    38  H    0.000000   0.000000   0.000000   0.000000   0.000000   0.000000
    39  H    0.000000  -0.000000   0.000000   0.000000   0.000000   0.000000
    40  H    0.000000   0.000000   0.000000  -0.000000   0.000000  -0.000000
    41  H    0.000000  -0.000000  -0.000000  -0.000000  -0.000000  -0.000000
    42  H   -0.000004   0.000000   0.000000   0.000000  -0.000000  -0.000000
    43  H    0.007445   0.000057   0.000000  -0.000000   0.000000   0.000001
    44  H    0.363770  -0.041784  -0.000032   0.000027  -0.000000  -0.002656
    45  H    0.366208  -0.020725  -0.000003   0.000012   0.000003   0.000048
    46  H   -0.023104   0.371999   0.005000  -0.001776   0.000019   0.000181
    47  H   -0.038405   0.343431  -0.002939   0.016305  -0.000260  -0.000815
              31         32         33         34         35         36
     1  C   -0.009062  -0.000068   0.001371  -0.000000   0.000000  -0.000000
     2  N   -0.035260   0.003874  -0.003394   0.000002  -0.000000   0.000000
     3  C    0.363261  -0.016382  -0.044815   0.000114  -0.000000  -0.000000
     4  C   -0.024489   0.360622   0.370287   0.006218  -0.000003  -0.000000
     5  N    0.004042  -0.041572  -0.053474  -0.011047  -0.000088   0.000000
     6  C   -0.000118  -0.005631  -0.000691  -0.039177   0.003619  -0.000001
     7  C    0.000000   0.005394   0.001345   0.349699  -0.043696   0.000003
     8  C    0.000000   0.000377  -0.000012  -0.037595   0.342386  -0.000312
     9  C   -0.000000  -0.000026  -0.000000   0.003761  -0.030051   0.003199
    10  N   -0.000000  -0.000000  -0.000000  -0.000105   0.001441  -0.046344
    11  C   -0.000000   0.000000   0.000000   0.000002   0.000205   0.375489
    12  C   -0.000000  -0.000000   0.000000   0.000000   0.000024  -0.067434
    13  S    0.000000  -0.000000   0.000000   0.000000  -0.000000   0.002965
    14  O   -0.000000  -0.000000   0.000000   0.000000   0.000000   0.004999
    15  O   -0.000000   0.000000  -0.000000   0.000000   0.000000   0.000020
    16  C   -0.000000   0.000000   0.000000  -0.000000   0.000000  -0.000415
    17  C   -0.000000   0.000000  -0.000000  -0.000000   0.000000   0.000578
    18  C    0.000000   0.000000  -0.000000   0.000000   0.000000   0.000048
    19  C    0.000000  -0.000000   0.000000   0.000000  -0.000000   0.000000
    20  C    0.000000   0.000000   0.000000  -0.000000   0.000000  -0.000001
    21  C   -0.000000   0.000000  -0.000000  -0.000000   0.000000  -0.000014
    22  C    0.000000   0.000000  -0.000000   0.000004  -0.000133   0.002768
    23  C    0.000000  -0.000015   0.000005   0.000268   0.007298   0.000891
    24  C    0.000001   0.000313  -0.000211   0.005763   0.000111   0.000028
    25  C    0.000195   0.003607   0.001592  -0.000084   0.000002   0.000000
    26  C    0.005274   0.000182   0.002133  -0.000002  -0.000000  -0.000000
    27  H    0.000078   0.000005  -0.000053   0.000000   0.000000   0.000000
    28  H    0.002944  -0.000141   0.000774  -0.000001   0.000000  -0.000000
    29  H    0.003254   0.000007   0.000025   0.000000  -0.000000   0.000000
    30  H   -0.037139  -0.002926   0.005786   0.000018  -0.000000   0.000000
    31  H    0.585052  -0.003043  -0.001182   0.000004   0.000000  -0.000000
    32  H   -0.003043   0.585506  -0.049329   0.001171   0.000004   0.000000
    33  H   -0.001182  -0.049329   0.625470   0.000592  -0.000000   0.000000
    34  H    0.000004   0.001171   0.000592   0.587376  -0.006213  -0.000000
    35  H    0.000000   0.000004  -0.000000  -0.006213   0.576862  -0.000030
    36  H   -0.000000   0.000000   0.000000  -0.000000  -0.000030   0.556906
    37  H    0.000000   0.000000   0.000000   0.000000  -0.000000   0.000725
    38  H    0.000000  -0.000000  -0.000000   0.000000  -0.000000  -0.000002
    39  H    0.000000   0.000000   0.000000  -0.000000  -0.000000   0.000000
    40  H    0.000000  -0.000000  -0.000000   0.000000  -0.000000   0.000000
    41  H   -0.000000   0.000000  -0.000000  -0.000000  -0.000000  -0.000003
    42  H    0.000000   0.000000  -0.000000  -0.000000   0.000003  -0.000166
    43  H    0.000000   0.000007  -0.000006  -0.000171   0.000018  -0.000000
    44  H   -0.000090   0.000314  -0.000704  -0.000003  -0.000000  -0.000000
    45  H    0.000014  -0.000281   0.000436  -0.000002   0.000000  -0.000000
    46  H   -0.000250   0.000018  -0.000081   0.000000   0.000000  -0.000000
    47  H    0.000159  -0.000121  -0.002109  -0.000006  -0.000000   0.000000
              37         38         39         40         41         42
     1  C    0.000000   0.000000   0.000000   0.000000  -0.000000   0.000000
     2  N   -0.000000   0.000000   0.000000   0.000000  -0.000000  -0.000000
     3  C   -0.000000   0.000000   0.000000  -0.000000   0.000000  -0.000000
     4  C    0.000000   0.000000  -0.000000   0.000000   0.000000   0.000000
     5  N   -0.000000  -0.000000  -0.000000  -0.000000   0.000000  -0.000000
     6  C   -0.000000  -0.000000   0.000000   0.000000  -0.000000   0.000163
     7  C    0.000000   0.000000  -0.000000   0.000000  -0.000000  -0.000001
     8  C   -0.000000  -0.000000   0.000000   0.000000  -0.000000  -0.000121
     9  C   -0.000000  -0.000000   0.000000  -0.000000   0.000001   0.004180
    10  N    0.000015   0.000000  -0.000000   0.000000   0.000000  -0.000475
    11  C    0.000072   0.000001  -0.000000   0.000000  -0.000006   0.004559
    12  C   -0.000026   0.000001   0.000000   0.000002  -0.000017  -0.049371
    13  S   -0.002596  -0.000031   0.000008  -0.000047  -0.001110  -0.003841
    14  O    0.009790   0.000002  -0.000000   0.000000   0.000074   0.000086
    15  O    0.000072   0.000000  -0.000000   0.000002   0.008278   0.011991
    16  C   -0.043340   0.004690   0.000479   0.004717  -0.045248   0.000242
    17  C    0.358423  -0.041565   0.004832   0.000638   0.004761  -0.000011
    18  C   -0.037172   0.362725  -0.042362   0.004482   0.000337   0.000000
    19  C    0.004065  -0.042345   0.361189  -0.042287   0.004134   0.000000
    20  C    0.000330   0.004464  -0.042549   0.362416  -0.037450   0.000010
    21  C    0.004720   0.000640   0.004877  -0.042066   0.358242   0.000004
    22  C   -0.000013   0.000000  -0.000000   0.000000   0.000273   0.358774
    23  C    0.000001   0.000000   0.000000  -0.000000   0.000027  -0.039843
    24  C    0.000000  -0.000000   0.000000   0.000000  -0.000001  -0.008772
    25  C    0.000000   0.000000   0.000000   0.000000   0.000000  -0.000004
    26  C   -0.000000   0.000000  -0.000000   0.000000  -0.000000   0.000000
    27  H    0.000000   0.000000   0.000000   0.000000  -0.000000   0.000000
    28  H    0.000000   0.000000   0.000000  -0.000000  -0.000000   0.000000
    29  H    0.000000   0.000000   0.000000   0.000000  -0.000000  -0.000000
    30  H    0.000000   0.000000   0.000000  -0.000000  -0.000000  -0.000000
    31  H    0.000000   0.000000   0.000000   0.000000  -0.000000   0.000000
    32  H    0.000000  -0.000000   0.000000  -0.000000   0.000000   0.000000
    33  H    0.000000  -0.000000   0.000000  -0.000000  -0.000000  -0.000000
    34  H    0.000000   0.000000  -0.000000   0.000000  -0.000000  -0.000000
    35  H   -0.000000  -0.000000  -0.000000  -0.000000  -0.000000   0.000003
    36  H    0.000725  -0.000002   0.000000   0.000000  -0.000003  -0.000166
    37  H    0.530329  -0.005023  -0.000147   0.000015  -0.000158  -0.000001
    38  H   -0.005023   0.576351  -0.005456  -0.000171   0.000015  -0.000000
    39  H   -0.000147  -0.005456   0.581646  -0.005455  -0.000150   0.000000
    40  H    0.000015  -0.000171  -0.005455   0.579156  -0.005160  -0.000000
    41  H   -0.000158   0.000015  -0.000150  -0.005160   0.540459   0.000195
    42  H   -0.000001  -0.000000   0.000000  -0.000000   0.000195   0.536208
    43  H   -0.000000   0.000000   0.000000  -0.000000   0.000000   0.005403
    44  H   -0.000000  -0.000000  -0.000000  -0.000000   0.000000  -0.000002
    45  H    0.000000  -0.000000   0.000000  -0.000000  -0.000000   0.000000
    46  H   -0.000000   0.000000  -0.000000   0.000000   0.000000   0.000000
    47  H    0.000000  -0.000000   0.000000  -0.000000   0.000000  -0.000000
              43         44         45         46         47
     1  C   -0.000000   0.000016  -0.000166  -0.001173  -0.007775
     2  N   -0.000001  -0.000104   0.003303  -0.046942  -0.057314
     3  C   -0.000004   0.000788   0.000022   0.005504  -0.002989
     4  C   -0.000043   0.001819   0.004213  -0.000171   0.004440
     5  N   -0.011185  -0.053157  -0.042192   0.003973  -0.002016
     6  C   -0.040057  -0.001754  -0.007384  -0.000095   0.000134
     7  C    0.005146  -0.000173   0.000062   0.000002  -0.000003
     8  C    0.000259   0.000003  -0.000017  -0.000000   0.000000
     9  C    0.004096   0.000002  -0.000009  -0.000000   0.000000
    10  N   -0.000103   0.000000   0.000000  -0.000000   0.000000
    11  C    0.000008   0.000000   0.000000  -0.000000  -0.000000
    12  C    0.000139  -0.000000  -0.000000  -0.000000  -0.000000
    13  S   -0.000009  -0.000000   0.000000   0.000000  -0.000000
    14  O   -0.000000  -0.000000  -0.000000  -0.000000  -0.000000
    15  O    0.000001   0.000000   0.000000   0.000000  -0.000000
    16  C   -0.000000   0.000000   0.000000  -0.000000   0.000000
    17  C    0.000000   0.000000  -0.000000   0.000000   0.000000
    18  C    0.000000   0.000000  -0.000000   0.000000   0.000000
    19  C   -0.000000  -0.000000   0.000000  -0.000000  -0.000000
    20  C    0.000000   0.000000   0.000000  -0.000000  -0.000000
    21  C    0.000000   0.000000  -0.000000   0.000000   0.000000
    22  C   -0.007663  -0.000009  -0.000031   0.000000  -0.000000
    23  C   -0.038769  -0.000039   0.000435   0.000000  -0.000000
    24  C    0.345924   0.002297   0.008828   0.000001  -0.000060
    25  C    0.007445   0.363770   0.366208  -0.023104  -0.038405
    26  C    0.000057  -0.041784  -0.020725   0.371999   0.343431
    27  H    0.000000  -0.000032  -0.000003   0.005000  -0.002939
    28  H   -0.000000   0.000027   0.000012  -0.001776   0.016305
    29  H    0.000000  -0.000000   0.000003   0.000019  -0.000260
    30  H    0.000001  -0.002656   0.000048   0.000181  -0.000815
    31  H    0.000000  -0.000090   0.000014  -0.000250   0.000159
    32  H    0.000007   0.000314  -0.000281   0.000018  -0.000121
    33  H   -0.000006  -0.000704   0.000436  -0.000081  -0.002109
    34  H   -0.000171  -0.000003  -0.000002   0.000000  -0.000006
    35  H    0.000018  -0.000000   0.000000   0.000000  -0.000000
    36  H   -0.000000  -0.000000  -0.000000  -0.000000   0.000000
    37  H   -0.000000  -0.000000   0.000000  -0.000000   0.000000
    38  H    0.000000  -0.000000  -0.000000   0.000000  -0.000000
    39  H    0.000000  -0.000000   0.000000  -0.000000   0.000000
    40  H   -0.000000  -0.000000  -0.000000   0.000000  -0.000000
    41  H    0.000000   0.000000  -0.000000   0.000000   0.000000
    42  H    0.005403  -0.000002   0.000000   0.000000  -0.000000
    43  H    0.592289   0.001353   0.000092   0.000014   0.000004
    44  H    0.001353   0.622593  -0.051167  -0.002999   0.007075
    45  H    0.000092  -0.051167   0.587243  -0.003073  -0.004237
    46  H    0.000014  -0.002999  -0.003073   0.595576  -0.052769
    47  H    0.000004   0.007075  -0.004237  -0.052769   0.675770
 Mulliken charges:
               1
     1  C   -0.303478
     2  N   -0.378302
     3  C   -0.149204
     4  C   -0.141613
     5  N   -0.510012
     6  C    0.371509
     7  C   -0.182041
     8  C   -0.149761
     9  C    0.239839
    10  N   -0.499773
    11  C    0.035358
    12  C   -0.174889
    13  S    1.141981
    14  O   -0.554159
    15  O   -0.557038
    16  C   -0.144494
    17  C   -0.140805
    18  C   -0.126947
    19  C   -0.118997
    20  C   -0.127311
    21  C   -0.137621
    22  C   -0.180358
    23  C    0.175770
    24  C   -0.291810
    25  C   -0.142685
    26  C   -0.133110
    27  H    0.154190
    28  H    0.121020
    29  H    0.154663
    30  H    0.156427
    31  H    0.146357
    32  H    0.158132
    33  H    0.146246
    34  H    0.139413
    35  H    0.148240
    36  H    0.166103
    37  H    0.179920
    38  H    0.145703
    39  H    0.143088
    40  H    0.143759
    41  H    0.172508
    42  H    0.180790
    43  H    0.135757
    44  H    0.154616
    45  H    0.158367
    46  H    0.150148
    47  H    0.124500
 Sum of Mulliken charges =  -0.00000
 Mulliken charges with hydrogens summed into heavy atoms:
               1
     1  C    0.126396
     2  N   -0.378302
     3  C    0.153581
     4  C    0.162765
     5  N   -0.510012
     6  C    0.371509
     7  C   -0.042628
     8  C   -0.001520
     9  C    0.239839
    10  N   -0.499773
    11  C    0.201461
    12  C   -0.174889
    13  S    1.141981
    14  O   -0.554159
    15  O   -0.557038
    16  C   -0.144494
    17  C    0.039115
    18  C    0.018756
    19  C    0.024091
    20  C    0.016448
    21  C    0.034887
    22  C    0.000433
    23  C    0.175770
    24  C   -0.156053
    25  C    0.170298
    26  C    0.141538
 Electronic spatial extent (au):  <R**2>=          16200.5741
 Charge=              0.0000 electrons
 Dipole moment (field-independent basis, Debye):
    X=              4.6713    Y=              5.0677    Z=             -3.1885  Tot=              7.5940
 Quadrupole moment (field-independent basis, Debye-Ang):
   XX=           -136.2688   YY=           -175.5845   ZZ=           -156.0503
   XY=            -17.7167   XZ=             14.4687   YZ=              3.1536
 Traceless Quadrupole moment (field-independent basis, Debye-Ang):
   XX=             19.6991   YY=            -19.6166   ZZ=             -0.0824
   XY=            -17.7167   XZ=             14.4687   YZ=              3.1536
 Octapole moment (field-independent basis, Debye-Ang**2):
  XXX=            382.7385  YYY=            217.4620  ZZZ=           -146.5295  XYY=            210.0133
  XXY=            222.2046  XXZ=            -78.9946  XZZ=            146.3233  YZZ=             68.4696
  YYZ=            -40.4677  XYZ=             -3.5909
 Hexadecapole moment (field-independent basis, Debye-Ang**3):
 XXXX=         -16547.9449 YYYY=          -1702.1446 ZZZZ=          -2147.1427 XXXY=          -1674.4758
 XXXZ=            419.0115 YYYX=          -1319.4686 YYYZ=             36.1945 ZZZX=            231.7011
 ZZZY=             33.2012 XXYY=          -3631.8350 XXZZ=          -3233.0063 YYZZ=           -635.6806
 XXYZ=              4.6559 YYXZ=            108.7919 ZZXY=           -409.4250
 N-N= 2.352357662910D+03 E-N=-8.179102863541D+03  KE= 1.475734286861D+03
 Leave Link  601 at Sat Nov  5 09:48:34 2022, MaxMem=   402653184 cpu:               1.9 elap:               0.4
 (Enter /home/wykgroup/appl/g16/l9999.exe)
 Electronic transition elements 
                 1             2             3             4 
      1  -0.148750D+04 -0.148747D+04 -0.148747D+04 -0.148744D+04
      2   0.000000D+00  0.000000D+00  0.682214D+00 -0.639129D-01
      3   0.000000D+00  0.000000D+00  0.401194D+00  0.364296D-01
      4   0.000000D+00  0.000000D+00  0.293623D+00  0.848432D-01
      5   0.000000D+00  0.000000D+00 -0.734131D-01  0.963922D-02
      6   0.000000D+00  0.000000D+00 -0.517546D-01 -0.642006D-02
      7   0.000000D+00  0.000000D+00 -0.404992D-01 -0.137860D-01
      8   0.000000D+00  0.000000D+00  0.295604D+00  0.317656D-01
      9   0.000000D+00  0.000000D+00 -0.591589D+00  0.908568D-01
     10   0.000000D+00  0.000000D+00  0.268984D+00  0.669923D-02
     11   0.000000D+00  0.000000D+00  0.262128D-01  0.894993D-01
     12   0.000000D+00  0.000000D+00  0.518755D-02  0.356763D-02
     13   0.000000D+00  0.000000D+00 -0.221424D+00 -0.665056D-01
     14   0.000000D+00  0.000000D+00 -0.270833D-03  0.523688D-02
     15   0.000000D+00  0.000000D+00 -0.109087D-01 -0.516819D-01
     16   0.000000D+00  0.000000D+00 -0.142369D+00 -0.267974D-01
 1\1\GINC-NODE45\SP\RB3LYP TD-FC\6-31G(d)\C20H21N3O2S1\WYKGROUP\05-Nov-
 2022\0\\#p b3lyp/6-31g(d) 6D 10F nosymm GFInput td=(50-50,nstate=2) SC
 F=XQC\\Gaussian input prepared by ASE\\0,1\C,0,6.8469467017,0.74335951
 7,-1.3520701993\N,0,5.7273970438,-0.0852952813,-0.9346315233\C,0,5.458
 3021882,-0.0678670077,0.5105420447\C,0,4.2372053573,0.7731111154,0.909
 6485177\N,0,3.0489556271,0.2794733044,0.2114951965\C,0,1.7941236175,0.
 2882837012,0.7902605852\C,0,1.520998288,1.1456487812,1.9085841542\C,0,
 0.2845647909,1.1862469978,2.501914987\C,0,-0.7855224277,0.3868262811,2
 .0244620882\N,0,-1.9928102725,0.4576902876,2.654195853\C,0,-2.97530995
 97,-0.2918399275,2.2006297836\C,0,-2.8273222069,-1.1556346451,1.083030
 2194\S,0,-4.2141794903,-2.1558616567,0.5264327117\O,0,-4.966588902,-2.
 568489012,1.7221120059\O,0,-3.6835801548,-3.1404308807,-0.431863619\C,
 0,-5.2598552833,-1.013352996,-0.3969438032\C,0,-6.3171843015,-0.378212
 7963,0.256454464\C,0,-7.1244307184,0.503262113,-0.4634960405\C,0,-6.87
 19427394,0.7381988946,-1.8168463259\C,0,-5.8166061795,0.087057439,-2.4
 610431524\C,0,-5.0031918471,-0.7964302419,-1.7523219352\C,0,-1.6181323
 959,-1.25063375,0.4355290482\C,0,-0.5334207689,-0.4620246976,0.8989489
 068\C,0,0.7495932686,-0.5023686735,0.3069359134\C,0,3.2759454923,-0.37
 87745266,-1.0728377768\C,0,4.5327962493,0.1804613439,-1.7351696575\H,0
 ,7.0393073314,0.5807212862,-2.4189653071\H,0,6.6809388468,1.8294481658
 ,-1.2053420889\H,0,7.7500884678,0.4557851866,-0.8041674683\H,0,5.29414
 99849,-1.0950398277,0.8653619703\H,0,6.339710297,0.3124113865,1.037540
 0548\H,0,4.0920771714,0.6760617136,1.9903057858\H,0,4.4181223976,1.839
 108258,0.6973862218\H,0,2.3020141866,1.7992006825,2.2809515156\H,0,0.0
 902215589,1.841422687,3.3453194673\H,0,-3.9251005784,-0.2430089537,2.7
 278811357\H,0,-6.5104656565,-0.5923809275,1.3022625167\H,0,-7.95364131
 49,1.0007062365,0.031430742\H,0,-7.5038024626,1.4248026167,-2.37357004
 85\H,0,-5.6313009109,0.2615867241,-3.5171257205\H,0,-4.1933339848,-1.3
 282103845,-2.2407058889\H,0,-1.4974179588,-1.9284000716,-0.4046046193\
 H,0,0.9081997967,-1.1886069728,-0.5175338906\H,0,3.3620286418,-1.47261
 37222,-0.9659086798\H,0,2.4202223361,-0.1809327039,-1.7277620886\H,0,4
 .6522242892,-0.2774086072,-2.7257642943\H,0,4.3790055835,1.2652035443,
 -1.9009417617\\Version=ES64L-G16RevB.01\HF=-1487.5842509\RMSD=6.514e-0
 9\PG=C01 [X(C20H21N3O2S1)]\\@


            ARSENIC

 FOR SMELTER FUMES HAVE I BEEN NAMED,
    I AM AN EVIL POISONOUS SMOKE...
 BUT WHEN FROM POISON I AM FREED,
    THROUGH ART AND SLEIGHT OF HAND,
 THEN CAN I CURE BOTH MAN AND BEAST,
    FROM DIRE DISEASE OFTTIMES DIRECT THEM;
 BUT PREPARE ME CORRECTLY, AND TAKE GREAT CARE
    THAT YOU FAITHFULLY KEEP WATCHFUL GUARD OVER ME;
 FOR ELSE I AM POISON, AND POISON REMAIN,
    THAT PIERCES THE HEART OF MANY A ONE.

 ATTRIBUTED TO THE PROBABLY MYTHICAL 15TH
 CENTURY MONK, BASILIUS VALENTINUS
 Job cpu time:       0 days  1 hours 44 minutes 29.1 seconds.
 Elapsed time:       0 days  0 hours 14 minutes 55.0 seconds.
 File lengths (MBytes):  RWF=   1126 Int=      0 D2E=      0 Chk=     41 Scr=      1
 Normal termination of Gaussian 16 at Sat Nov  5 09:48:34 2022.
