 Entering Gaussian System, Link 0=/home/wykgroup/appl/g16/g16
 Input=./calculation/no_transfer_pubchem_sampling_6_b3lyp/91533622.com
 Output=./calculation/no_transfer_pubchem_sampling_6_b3lyp/91533622.log
 Initial command:
 /home/wykgroup/appl/g16/l1.exe "/userdata/scratch/wykgroup/khs/./calculation/no_transfer_pubchem_sampling_6_b3lyp/91533622/Gau-24317.inp" -scrdir="/userdata/scratch/wykgroup/khs/./calculation/no_transfer_pubchem_sampling_6_b3lyp/91533622/"
 Entering Link 1 = /home/wykgroup/appl/g16/l1.exe PID=     24318.
  
 Copyright (c) 1988-2017, Gaussian, Inc.  All Rights Reserved.
  
 This is part of the Gaussian(R) 16 program.  It is based on
 the Gaussian(R) 09 system (copyright 2009, Gaussian, Inc.),
 the Gaussian(R) 03 system (copyright 2003, Gaussian, Inc.),
 the Gaussian(R) 98 system (copyright 1998, Gaussian, Inc.),
 the Gaussian(R) 94 system (copyright 1995, Gaussian, Inc.),
 the Gaussian 92(TM) system (copyright 1992, Gaussian, Inc.),
 the Gaussian 90(TM) system (copyright 1990, Gaussian, Inc.),
 the Gaussian 88(TM) system (copyright 1988, Gaussian, Inc.),
 the Gaussian 86(TM) system (copyright 1986, Carnegie Mellon
 University), and the Gaussian 82(TM) system (copyright 1983,
 Carnegie Mellon University). Gaussian is a federally registered
 trademark of Gaussian, Inc.
  
 This software contains proprietary and confidential information,
 including trade secrets, belonging to Gaussian, Inc.
  
 This software is provided under written license and may be
 used, copied, transmitted, or stored only in accord with that
 written license.
  
 The following legend is applicable only to US Government
 contracts under FAR:
  
                    RESTRICTED RIGHTS LEGEND
  
 Use, reproduction and disclosure by the US Government is
 subject to restrictions as set forth in subparagraphs (a)
 and (c) of the Commercial Computer Software - Restricted
 Rights clause in FAR 52.227-19.
  
 Gaussian, Inc.
 340 Quinnipiac St., Bldg. 40, Wallingford CT 06492
  
  
 ---------------------------------------------------------------
 Warning -- This program may not be used in any manner that
 competes with the business of Gaussian, Inc. or will provide
 assistance to any competitor of Gaussian, Inc.  The licensee
 of this program is prohibited from giving any competitor of
 Gaussian, Inc. access to this program.  By using this program,
 the user acknowledges that Gaussian, Inc. is engaged in the
 business of creating and licensing software in the field of
 computational chemistry and represents and warrants to the
 licensee that it is not a competitor of Gaussian, Inc. and that
 it will not use this program in any manner prohibited above.
 ---------------------------------------------------------------
  

 Cite this work as:
 Gaussian 16, Revision B.01,
 M. J. Frisch, G. W. Trucks, H. B. Schlegel, G. E. Scuseria, 
 M. A. Robb, J. R. Cheeseman, G. Scalmani, V. Barone, 
 G. A. Petersson, H. Nakatsuji, X. Li, M. Caricato, A. V. Marenich, 
 J. Bloino, B. G. Janesko, R. Gomperts, B. Mennucci, H. P. Hratchian, 
 J. V. Ortiz, A. F. Izmaylov, J. L. Sonnenberg, D. Williams-Young, 
 F. Ding, F. Lipparini, F. Egidi, J. Goings, B. Peng, A. Petrone, 
 T. Henderson, D. Ranasinghe, V. G. Zakrzewski, J. Gao, N. Rega, 
 G. Zheng, W. Liang, M. Hada, M. Ehara, K. Toyota, R. Fukuda, 
 J. Hasegawa, M. Ishida, T. Nakajima, Y. Honda, O. Kitao, H. Nakai, 
 T. Vreven, K. Throssell, J. A. Montgomery, Jr., J. E. Peralta, 
 F. Ogliaro, M. J. Bearpark, J. J. Heyd, E. N. Brothers, K. N. Kudin, 
 V. N. Staroverov, T. A. Keith, R. Kobayashi, J. Normand, 
 K. Raghavachari, A. P. Rendell, J. C. Burant, S. S. Iyengar, 
 J. Tomasi, M. Cossi, J. M. Millam, M. Klene, C. Adamo, R. Cammi, 
 J. W. Ochterski, R. L. Martin, K. Morokuma, O. Farkas, 
 J. B. Foresman, and D. J. Fox, Gaussian, Inc., Wallingford CT, 2016.
 
 ******************************************
 Gaussian 16:  ES64L-G16RevB.01 20-Dec-2017
                 4-Nov-2022 
 ******************************************
 %chk=./calculation/no_transfer_pubchem_sampling_6_b3lyp/91533622.chk
 %nprocshared=7
 Will use up to    7 processors via shared memory.
 %mem=6GB
 -----------------------------
 #p b3lyp/6-31g(d) opt SCF=XQC
 -----------------------------
 1/18=20,19=15,26=3,38=1/1,3;
 2/9=110,12=2,17=6,18=5,40=1/2;
 3/5=1,6=6,7=1,11=2,25=1,30=1,71=1,74=-5/1,2,3;
 4//1;
 5/5=2,8=3,13=1,38=5/2,8;
 6/7=2,8=2,9=2,10=2,28=1/1;
 7//1,2,3,16;
 1/18=20,19=15,26=3/3(2);
 2/9=110/2;
 99//99;
 2/9=110/2;
 3/5=1,6=6,7=1,11=2,25=1,30=1,71=1,74=-5/1,2,3;
 4/5=5,16=3,69=1/1;
 5/5=2,8=3,13=1,38=5/2,8;
 7//1,2,3,16;
 1/18=20,19=15,26=3/3(-5);
 2/9=110/2;
 6/7=2,8=2,9=2,10=2,19=2,28=1/1;
 99/9=1/99;
 Leave Link    1 at Fri Nov  4 22:20:03 2022, MaxMem=   805306368 cpu:               0.6 elap:               0.1
 (Enter /home/wykgroup/appl/g16/l101.exe)
 ------------------------------
 Gaussian input prepared by ASE
 ------------------------------
 Symbolic Z-matrix:
 Charge =  0 Multiplicity = 1
 C                    -3.65898  -2.74306   1.73646 
 C                    -2.40486  -1.93628   1.43347 
 C                    -1.42433  -2.74398   0.57015 
 C                    -0.26739  -1.89865   0.15545 
 C                    -0.0685   -1.32265  -1.05457 
 C                    -1.03024  -1.48643  -2.20343 
 C                    -2.38656  -0.92102  -1.88288 
 C                    -3.53718  -1.6875   -2.00911 
 C                    -4.77137  -1.17015  -1.66587 
 C                    -4.88596   0.13608  -1.19915 
 C                    -6.20003   0.66564  -0.80843 
 C                    -7.04416  -0.08146   0.00718 
 C                    -8.2791    0.40709   0.39267 
 C                    -8.70204   1.65681  -0.03542 
 C                    -7.88714   2.41444  -0.8529 
 C                    -6.63846   1.92665  -1.24069 
 C                    -5.85497   2.7163   -2.1142 
 N                    -5.26325   3.38982  -2.82941 
 C                    -3.73546   0.91443  -1.09574 
 C                    -2.50376   0.38904  -1.43192 
 C                     1.09767  -0.48227  -1.32611 
 O                     1.30197   0.04515  -2.40415 
 N                     1.99723  -0.29957  -0.27324 
 C                     3.18222   0.52859  -0.51055 
 C                     3.2504    1.70343   0.46572 
 C                     4.64493   2.31568   0.39399 
 C                     5.66791   1.37173   1.0384 
 C                     7.10619   1.70915   0.62359 
 C                     7.46102   1.41336  -0.83055 
 C                     8.85995   1.83436  -1.17092 
 O                     9.63987   2.35725  -0.42719 
 C                     5.28591  -0.09872   0.78911 
 C                     4.47851  -0.30126  -0.49074 
 C                     1.78219  -0.8843    0.9219 
 N                     2.49358  -0.84643   2.0321 
 C                     1.78522  -1.61794   2.88063 
 N                     0.68908  -2.1283    2.38096 
 N                     0.67368  -1.6626    1.1195 
 H                    -4.33676  -2.16479   2.35959 
 H                    -3.40699  -3.6611    2.262 
 H                    -4.1751   -3.00119   0.81407 
 H                    -2.68068  -1.02066   0.90654 
 H                    -1.90809  -1.66117   2.36509 
 H                    -1.94069  -3.1279   -0.30731 
 H                    -1.04772  -3.57967   1.1638 
 H                    -1.11777  -2.54127  -2.47377 
 H                    -0.60237  -0.94933  -3.05481 
 H                    -3.47062  -2.70094  -2.38038 
 H                    -5.65914  -1.77622  -1.77689 
 H                    -6.71313  -1.0492    0.35494 
 H                    -8.91526  -0.1873    1.03155 
 H                    -9.66616   2.03711   0.26601 
 H                    -8.2053    3.38561  -1.20298 
 H                    -3.80373   1.92779  -0.72863 
 H                    -1.61713   0.99956  -1.34373 
 H                     3.02686   0.9137   -1.52409 
 H                     3.0593    1.35519   1.48048 
 H                     2.48942   2.44054   0.20261 
 H                     4.89126   2.50395  -0.6521 
 H                     4.65886   3.27574   0.91163 
 H                     5.62251   1.53525   2.12065 
 H                     7.79646   1.15141   1.25999 
 H                     7.28486   2.77021   0.81121 
 H                     6.79331   1.93421  -1.52177 
 H                     7.38207   0.34571  -1.04985 
 H                     9.13644   1.61363  -2.22344 
 H                     4.6808   -0.45602   1.62195 
 H                     6.18637  -0.71395   0.74921 
 H                     4.22851  -1.35932  -0.59482 
 H                     5.07685  -0.02524  -1.35895 
 H                     2.09896  -1.79682   3.88804 
 
 ITRead=  0  0  0  0  0  0  0  0  0  0  0  0  0  0  0  0  0  0  0  0
 ITRead=  0  0  0  0  0  0  0  0  0  0  0  0  0  0  0  0  0  0  0  0
 ITRead=  0  0  0  0  0  0  0  0  0  0  0  0  0  0  0  0  0  0  0  0
 ITRead=  0  0  0  0  0  0  0  0  0  0  0
 MicOpt= -1 -1 -1 -1 -1 -1 -1 -1 -1 -1 -1 -1 -1 -1 -1 -1 -1 -1 -1 -1
 MicOpt= -1 -1 -1 -1 -1 -1 -1 -1 -1 -1 -1 -1 -1 -1 -1 -1 -1 -1 -1 -1
 MicOpt= -1 -1 -1 -1 -1 -1 -1 -1 -1 -1 -1 -1 -1 -1 -1 -1 -1 -1 -1 -1
 MicOpt= -1 -1 -1 -1 -1 -1 -1 -1 -1 -1 -1
 NAtoms=     71 NQM=       71 NQMF=       0 NMMI=      0 NMMIF=      0
                NMic=       0 NMicF=      0.
                    Isotopes and Nuclear Properties:
 (Nuclear quadrupole moments (NQMom) in fm**2, nuclear magnetic moments (NMagM)
  in nuclear magnetons)

  Atom         1           2           3           4           5           6           7           8           9          10
 IAtWgt=          12          12          12          12          12          12          12          12          12          12
 AtmWgt=  12.0000000  12.0000000  12.0000000  12.0000000  12.0000000  12.0000000  12.0000000  12.0000000  12.0000000  12.0000000
 NucSpn=           0           0           0           0           0           0           0           0           0           0
 AtZEff=  -0.0000000  -0.0000000  -0.0000000  -0.0000000  -0.0000000  -0.0000000  -0.0000000  -0.0000000  -0.0000000  -0.0000000
 NQMom=    0.0000000   0.0000000   0.0000000   0.0000000   0.0000000   0.0000000   0.0000000   0.0000000   0.0000000   0.0000000
 NMagM=    0.0000000   0.0000000   0.0000000   0.0000000   0.0000000   0.0000000   0.0000000   0.0000000   0.0000000   0.0000000
 AtZNuc=   6.0000000   6.0000000   6.0000000   6.0000000   6.0000000   6.0000000   6.0000000   6.0000000   6.0000000   6.0000000

  Atom        11          12          13          14          15          16          17          18          19          20
 IAtWgt=          12          12          12          12          12          12          12          14          12          12
 AtmWgt=  12.0000000  12.0000000  12.0000000  12.0000000  12.0000000  12.0000000  12.0000000  14.0030740  12.0000000  12.0000000
 NucSpn=           0           0           0           0           0           0           0           2           0           0
 AtZEff=  -0.0000000  -0.0000000  -0.0000000  -0.0000000  -0.0000000  -0.0000000  -0.0000000  -0.0000000  -0.0000000  -0.0000000
 NQMom=    0.0000000   0.0000000   0.0000000   0.0000000   0.0000000   0.0000000   0.0000000   2.0440000   0.0000000   0.0000000
 NMagM=    0.0000000   0.0000000   0.0000000   0.0000000   0.0000000   0.0000000   0.0000000   0.4037610   0.0000000   0.0000000
 AtZNuc=   6.0000000   6.0000000   6.0000000   6.0000000   6.0000000   6.0000000   6.0000000   7.0000000   6.0000000   6.0000000

  Atom        21          22          23          24          25          26          27          28          29          30
 IAtWgt=          12          16          14          12          12          12          12          12          12          12
 AtmWgt=  12.0000000  15.9949146  14.0030740  12.0000000  12.0000000  12.0000000  12.0000000  12.0000000  12.0000000  12.0000000
 NucSpn=           0           0           2           0           0           0           0           0           0           0
 AtZEff=  -0.0000000  -0.0000000  -0.0000000  -0.0000000  -0.0000000  -0.0000000  -0.0000000  -0.0000000  -0.0000000  -0.0000000
 NQMom=    0.0000000   0.0000000   2.0440000   0.0000000   0.0000000   0.0000000   0.0000000   0.0000000   0.0000000   0.0000000
 NMagM=    0.0000000   0.0000000   0.4037610   0.0000000   0.0000000   0.0000000   0.0000000   0.0000000   0.0000000   0.0000000
 AtZNuc=   6.0000000   8.0000000   7.0000000   6.0000000   6.0000000   6.0000000   6.0000000   6.0000000   6.0000000   6.0000000

  Atom        31          32          33          34          35          36          37          38          39          40
 IAtWgt=          16          12          12          12          14          12          14          14           1           1
 AtmWgt=  15.9949146  12.0000000  12.0000000  12.0000000  14.0030740  12.0000000  14.0030740  14.0030740   1.0078250   1.0078250
 NucSpn=           0           0           0           0           2           0           2           2           1           1
 AtZEff=  -0.0000000  -0.0000000  -0.0000000  -0.0000000  -0.0000000  -0.0000000  -0.0000000  -0.0000000  -0.0000000  -0.0000000
 NQMom=    0.0000000   0.0000000   0.0000000   0.0000000   2.0440000   0.0000000   2.0440000   2.0440000   0.0000000   0.0000000
 NMagM=    0.0000000   0.0000000   0.0000000   0.0000000   0.4037610   0.0000000   0.4037610   0.4037610   2.7928460   2.7928460
 AtZNuc=   8.0000000   6.0000000   6.0000000   6.0000000   7.0000000   6.0000000   7.0000000   7.0000000   1.0000000   1.0000000

  Atom        41          42          43          44          45          46          47          48          49          50
 IAtWgt=           1           1           1           1           1           1           1           1           1           1
 AtmWgt=   1.0078250   1.0078250   1.0078250   1.0078250   1.0078250   1.0078250   1.0078250   1.0078250   1.0078250   1.0078250
 NucSpn=           1           1           1           1           1           1           1           1           1           1
 AtZEff=  -0.0000000  -0.0000000  -0.0000000  -0.0000000  -0.0000000  -0.0000000  -0.0000000  -0.0000000  -0.0000000  -0.0000000
 NQMom=    0.0000000   0.0000000   0.0000000   0.0000000   0.0000000   0.0000000   0.0000000   0.0000000   0.0000000   0.0000000
 NMagM=    2.7928460   2.7928460   2.7928460   2.7928460   2.7928460   2.7928460   2.7928460   2.7928460   2.7928460   2.7928460
 AtZNuc=   1.0000000   1.0000000   1.0000000   1.0000000   1.0000000   1.0000000   1.0000000   1.0000000   1.0000000   1.0000000

  Atom        51          52          53          54          55          56          57          58          59          60
 IAtWgt=           1           1           1           1           1           1           1           1           1           1
 AtmWgt=   1.0078250   1.0078250   1.0078250   1.0078250   1.0078250   1.0078250   1.0078250   1.0078250   1.0078250   1.0078250
 NucSpn=           1           1           1           1           1           1           1           1           1           1
 AtZEff=  -0.0000000  -0.0000000  -0.0000000  -0.0000000  -0.0000000  -0.0000000  -0.0000000  -0.0000000  -0.0000000  -0.0000000
 NQMom=    0.0000000   0.0000000   0.0000000   0.0000000   0.0000000   0.0000000   0.0000000   0.0000000   0.0000000   0.0000000
 NMagM=    2.7928460   2.7928460   2.7928460   2.7928460   2.7928460   2.7928460   2.7928460   2.7928460   2.7928460   2.7928460
 AtZNuc=   1.0000000   1.0000000   1.0000000   1.0000000   1.0000000   1.0000000   1.0000000   1.0000000   1.0000000   1.0000000

  Atom        61          62          63          64          65          66          67          68          69          70
 IAtWgt=           1           1           1           1           1           1           1           1           1           1
 AtmWgt=   1.0078250   1.0078250   1.0078250   1.0078250   1.0078250   1.0078250   1.0078250   1.0078250   1.0078250   1.0078250
 NucSpn=           1           1           1           1           1           1           1           1           1           1
 AtZEff=  -0.0000000  -0.0000000  -0.0000000  -0.0000000  -0.0000000  -0.0000000  -0.0000000  -0.0000000  -0.0000000  -0.0000000
 NQMom=    0.0000000   0.0000000   0.0000000   0.0000000   0.0000000   0.0000000   0.0000000   0.0000000   0.0000000   0.0000000
 NMagM=    2.7928460   2.7928460   2.7928460   2.7928460   2.7928460   2.7928460   2.7928460   2.7928460   2.7928460   2.7928460
 AtZNuc=   1.0000000   1.0000000   1.0000000   1.0000000   1.0000000   1.0000000   1.0000000   1.0000000   1.0000000   1.0000000

  Atom        71
 IAtWgt=           1
 AtmWgt=   1.0078250
 NucSpn=           1
 AtZEff=  -0.0000000
 NQMom=    0.0000000
 NMagM=    2.7928460
 AtZNuc=   1.0000000
 Leave Link  101 at Fri Nov  4 22:20:03 2022, MaxMem=   805306368 cpu:               1.4 elap:               0.2
 (Enter /home/wykgroup/appl/g16/l103.exe)

 GradGradGradGradGradGradGradGradGradGradGradGradGradGradGradGradGradGrad
 Berny optimization.
 Initialization pass.
                           ----------------------------
                           !    Initial Parameters    !
                           ! (Angstroms and Degrees)  !
 --------------------------                            --------------------------
 ! Name  Definition              Value          Derivative Info.                !
 --------------------------------------------------------------------------------
 ! R1    R(1,2)                  1.5217         estimate D2E/DX2                !
 ! R2    R(1,39)                 1.0872         estimate D2E/DX2                !
 ! R3    R(1,40)                 1.0874         estimate D2E/DX2                !
 ! R4    R(1,41)                 1.088          estimate D2E/DX2                !
 ! R5    R(2,3)                  1.5359         estimate D2E/DX2                !
 ! R6    R(2,42)                 1.0918         estimate D2E/DX2                !
 ! R7    R(2,43)                 1.0911         estimate D2E/DX2                !
 ! R8    R(3,4)                  1.4917         estimate D2E/DX2                !
 ! R9    R(3,44)                 1.0881         estimate D2E/DX2                !
 ! R10   R(3,45)                 1.0921         estimate D2E/DX2                !
 ! R11   R(4,5)                  1.3548         estimate D2E/DX2                !
 ! R12   R(4,38)                 1.3677         estimate D2E/DX2                !
 ! R13   R(5,6)                  1.5072         estimate D2E/DX2                !
 ! R14   R(5,21)                 1.4628         estimate D2E/DX2                !
 ! R15   R(6,7)                  1.504          estimate D2E/DX2                !
 ! R16   R(6,46)                 1.0924         estimate D2E/DX2                !
 ! R17   R(6,47)                 1.0938         estimate D2E/DX2                !
 ! R18   R(7,8)                  1.3883         estimate D2E/DX2                !
 ! R19   R(7,20)                 1.3905         estimate D2E/DX2                !
 ! R20   R(8,9)                  1.3816         estimate D2E/DX2                !
 ! R21   R(8,48)                 1.0814         estimate D2E/DX2                !
 ! R22   R(9,10)                 1.3918         estimate D2E/DX2                !
 ! R23   R(9,49)                 1.0806         estimate D2E/DX2                !
 ! R24   R(10,11)                1.4697         estimate D2E/DX2                !
 ! R25   R(10,19)                1.3929         estimate D2E/DX2                !
 ! R26   R(11,12)                1.3914         estimate D2E/DX2                !
 ! R27   R(11,16)                1.4033         estimate D2E/DX2                !
 ! R28   R(12,13)                1.3829         estimate D2E/DX2                !
 ! R29   R(12,50)                1.0803         estimate D2E/DX2                !
 ! R30   R(13,14)                1.3871         estimate D2E/DX2                !
 ! R31   R(13,51)                1.0799         estimate D2E/DX2                !
 ! R32   R(14,15)                1.3807         estimate D2E/DX2                !
 ! R33   R(14,52)                1.0794         estimate D2E/DX2                !
 ! R34   R(15,16)                1.3955         estimate D2E/DX2                !
 ! R35   R(15,53)                1.0803         estimate D2E/DX2                !
 ! R36   R(16,17)                1.4144         estimate D2E/DX2                !
 ! R37   R(17,18)                1.1469         estimate D2E/DX2                !
 ! R38   R(19,20)                1.3806         estimate D2E/DX2                !
 ! R39   R(19,54)                1.08           estimate D2E/DX2                !
 ! R40   R(20,55)                1.0801         estimate D2E/DX2                !
 ! R41   R(21,22)                1.2174         estimate D2E/DX2                !
 ! R42   R(21,23)                1.3968         estimate D2E/DX2                !
 ! R43   R(23,24)                1.465          estimate D2E/DX2                !
 ! R44   R(23,34)                1.3478         estimate D2E/DX2                !
 ! R45   R(24,25)                1.529          estimate D2E/DX2                !
 ! R46   R(24,33)                1.5393         estimate D2E/DX2                !
 ! R47   R(24,56)                1.0953         estimate D2E/DX2                !
 ! R48   R(25,26)                1.5247         estimate D2E/DX2                !
 ! R49   R(25,57)                1.0897         estimate D2E/DX2                !
 ! R50   R(25,58)                1.0916         estimate D2E/DX2                !
 ! R51   R(26,27)                1.5339         estimate D2E/DX2                !
 ! R52   R(26,59)                1.0911         estimate D2E/DX2                !
 ! R53   R(26,60)                1.0908         estimate D2E/DX2                !
 ! R54   R(27,28)                1.5345         estimate D2E/DX2                !
 ! R55   R(27,32)                1.5396         estimate D2E/DX2                !
 ! R56   R(27,61)                1.0955         estimate D2E/DX2                !
 ! R57   R(28,29)                1.5258         estimate D2E/DX2                !
 ! R58   R(28,62)                1.092          estimate D2E/DX2                !
 ! R59   R(28,63)                1.0922         estimate D2E/DX2                !
 ! R60   R(29,30)                1.5            estimate D2E/DX2                !
 ! R61   R(29,64)                1.0931         estimate D2E/DX2                !
 ! R62   R(29,65)                1.0928         estimate D2E/DX2                !
 ! R63   R(30,31)                1.1978         estimate D2E/DX2                !
 ! R64   R(30,66)                1.1104         estimate D2E/DX2                !
 ! R65   R(32,33)                1.5267         estimate D2E/DX2                !
 ! R66   R(32,67)                1.0897         estimate D2E/DX2                !
 ! R67   R(32,68)                1.0913         estimate D2E/DX2                !
 ! R68   R(33,69)                1.0922         estimate D2E/DX2                !
 ! R69   R(33,70)                1.0899         estimate D2E/DX2                !
 ! R70   R(34,35)                1.3191         estimate D2E/DX2                !
 ! R71   R(34,38)                1.3688         estimate D2E/DX2                !
 ! R72   R(35,36)                1.348          estimate D2E/DX2                !
 ! R73   R(36,37)                1.3083         estimate D2E/DX2                !
 ! R74   R(36,71)                1.0702         estimate D2E/DX2                !
 ! R75   R(37,38)                1.3448         estimate D2E/DX2                !
 ! A1    A(2,1,39)             110.2374         estimate D2E/DX2                !
 ! A2    A(2,1,40)             110.6613         estimate D2E/DX2                !
 ! A3    A(2,1,41)             110.361          estimate D2E/DX2                !
 ! A4    A(39,1,40)            108.4508         estimate D2E/DX2                !
 ! A5    A(39,1,41)            108.4426         estimate D2E/DX2                !
 ! A6    A(40,1,41)            108.624          estimate D2E/DX2                !
 ! A7    A(1,2,3)              111.0542         estimate D2E/DX2                !
 ! A8    A(1,2,42)             109.4217         estimate D2E/DX2                !
 ! A9    A(1,2,43)             109.8114         estimate D2E/DX2                !
 ! A10   A(3,2,42)             109.3294         estimate D2E/DX2                !
 ! A11   A(3,2,43)             108.7767         estimate D2E/DX2                !
 ! A12   A(42,2,43)            108.3998         estimate D2E/DX2                !
 ! A13   A(2,3,4)              110.6951         estimate D2E/DX2                !
 ! A14   A(2,3,44)             109.6251         estimate D2E/DX2                !
 ! A15   A(2,3,45)             108.4829         estimate D2E/DX2                !
 ! A16   A(4,3,44)             110.1099         estimate D2E/DX2                !
 ! A17   A(4,3,45)             108.4997         estimate D2E/DX2                !
 ! A18   A(44,3,45)            109.3914         estimate D2E/DX2                !
 ! A19   A(3,4,5)              127.0924         estimate D2E/DX2                !
 ! A20   A(3,4,38)             115.817          estimate D2E/DX2                !
 ! A21   A(5,4,38)             117.0737         estimate D2E/DX2                !
 ! A22   A(4,5,6)              122.7456         estimate D2E/DX2                !
 ! A23   A(4,5,21)             121.8075         estimate D2E/DX2                !
 ! A24   A(6,5,21)             115.4437         estimate D2E/DX2                !
 ! A25   A(5,6,7)              111.8475         estimate D2E/DX2                !
 ! A26   A(5,6,46)             110.1622         estimate D2E/DX2                !
 ! A27   A(5,6,47)             106.8785         estimate D2E/DX2                !
 ! A28   A(7,6,46)             110.0889         estimate D2E/DX2                !
 ! A29   A(7,6,47)             109.5156         estimate D2E/DX2                !
 ! A30   A(46,6,47)            108.2313         estimate D2E/DX2                !
 ! A31   A(6,7,8)              121.3649         estimate D2E/DX2                !
 ! A32   A(6,7,20)             119.9557         estimate D2E/DX2                !
 ! A33   A(8,7,20)             118.6732         estimate D2E/DX2                !
 ! A34   A(7,8,9)              120.7347         estimate D2E/DX2                !
 ! A35   A(7,8,48)             119.8433         estimate D2E/DX2                !
 ! A36   A(9,8,48)             119.422          estimate D2E/DX2                !
 ! A37   A(8,9,10)             120.5508         estimate D2E/DX2                !
 ! A38   A(8,9,49)             119.891          estimate D2E/DX2                !
 ! A39   A(10,9,49)            119.5485         estimate D2E/DX2                !
 ! A40   A(9,10,11)            120.0621         estimate D2E/DX2                !
 ! A41   A(9,10,19)            118.7716         estimate D2E/DX2                !
 ! A42   A(11,10,19)           121.1609         estimate D2E/DX2                !
 ! A43   A(10,11,12)           120.3196         estimate D2E/DX2                !
 ! A44   A(10,11,16)           121.4168         estimate D2E/DX2                !
 ! A45   A(12,11,16)           118.2636         estimate D2E/DX2                !
 ! A46   A(11,12,13)           121.0304         estimate D2E/DX2                !
 ! A47   A(11,12,50)           118.9338         estimate D2E/DX2                !
 ! A48   A(13,12,50)           120.0255         estimate D2E/DX2                !
 ! A49   A(12,13,14)           120.3024         estimate D2E/DX2                !
 ! A50   A(12,13,51)           119.7713         estimate D2E/DX2                !
 ! A51   A(14,13,51)           119.9262         estimate D2E/DX2                !
 ! A52   A(13,14,15)           119.8127         estimate D2E/DX2                !
 ! A53   A(13,14,52)           120.2402         estimate D2E/DX2                !
 ! A54   A(15,14,52)           119.9469         estimate D2E/DX2                !
 ! A55   A(14,15,16)           120.0545         estimate D2E/DX2                !
 ! A56   A(14,15,53)           120.7547         estimate D2E/DX2                !
 ! A57   A(16,15,53)           119.1904         estimate D2E/DX2                !
 ! A58   A(11,16,15)           120.5341         estimate D2E/DX2                !
 ! A59   A(11,16,17)           121.2566         estimate D2E/DX2                !
 ! A60   A(15,16,17)           118.1726         estimate D2E/DX2                !
 ! A61   A(10,19,20)           120.4078         estimate D2E/DX2                !
 ! A62   A(10,19,54)           119.8253         estimate D2E/DX2                !
 ! A63   A(20,19,54)           119.7516         estimate D2E/DX2                !
 ! A64   A(7,20,19)            120.8446         estimate D2E/DX2                !
 ! A65   A(7,20,55)            119.3311         estimate D2E/DX2                !
 ! A66   A(19,20,55)           119.8243         estimate D2E/DX2                !
 ! A67   A(5,21,22)            123.1642         estimate D2E/DX2                !
 ! A68   A(5,21,23)            116.655          estimate D2E/DX2                !
 ! A69   A(22,21,23)           120.1808         estimate D2E/DX2                !
 ! A70   A(21,23,24)           118.212          estimate D2E/DX2                !
 ! A71   A(21,23,34)           120.5903         estimate D2E/DX2                !
 ! A72   A(24,23,34)           121.1938         estimate D2E/DX2                !
 ! A73   A(23,24,25)           111.5292         estimate D2E/DX2                !
 ! A74   A(23,24,33)           111.9823         estimate D2E/DX2                !
 ! A75   A(23,24,56)           103.5277         estimate D2E/DX2                !
 ! A76   A(25,24,33)           111.6205         estimate D2E/DX2                !
 ! A77   A(25,24,56)           109.0859         estimate D2E/DX2                !
 ! A78   A(33,24,56)           108.7177         estimate D2E/DX2                !
 ! A79   A(24,25,26)           108.6194         estimate D2E/DX2                !
 ! A80   A(24,25,57)           109.9499         estimate D2E/DX2                !
 ! A81   A(24,25,58)           109.5022         estimate D2E/DX2                !
 ! A82   A(26,25,57)           109.4219         estimate D2E/DX2                !
 ! A83   A(26,25,58)           110.8004         estimate D2E/DX2                !
 ! A84   A(57,25,58)           108.5402         estimate D2E/DX2                !
 ! A85   A(25,26,27)           110.0664         estimate D2E/DX2                !
 ! A86   A(25,26,59)           108.7173         estimate D2E/DX2                !
 ! A87   A(25,26,60)           110.0463         estimate D2E/DX2                !
 ! A88   A(27,26,59)           111.0029         estimate D2E/DX2                !
 ! A89   A(27,26,60)           109.4967         estimate D2E/DX2                !
 ! A90   A(59,26,60)           107.4707         estimate D2E/DX2                !
 ! A91   A(26,27,28)           112.1004         estimate D2E/DX2                !
 ! A92   A(26,27,32)           110.748          estimate D2E/DX2                !
 ! A93   A(26,27,61)           107.1897         estimate D2E/DX2                !
 ! A94   A(28,27,32)           113.5047         estimate D2E/DX2                !
 ! A95   A(28,27,61)           105.8483         estimate D2E/DX2                !
 ! A96   A(32,27,61)           106.9928         estimate D2E/DX2                !
 ! A97   A(27,28,29)           115.6575         estimate D2E/DX2                !
 ! A98   A(27,28,62)           108.8222         estimate D2E/DX2                !
 ! A99   A(27,28,63)           108.6943         estimate D2E/DX2                !
 ! A100  A(29,28,62)           108.0229         estimate D2E/DX2                !
 ! A101  A(29,28,63)           108.3002         estimate D2E/DX2                !
 ! A102  A(62,28,63)           107.0168         estimate D2E/DX2                !
 ! A103  A(28,29,30)           112.2551         estimate D2E/DX2                !
 ! A104  A(28,29,64)           111.6068         estimate D2E/DX2                !
 ! A105  A(28,29,65)           111.3375         estimate D2E/DX2                !
 ! A106  A(30,29,64)           107.0046         estimate D2E/DX2                !
 ! A107  A(30,29,65)           107.2197         estimate D2E/DX2                !
 ! A108  A(64,29,65)           107.1273         estimate D2E/DX2                !
 ! A109  A(29,30,31)           126.0752         estimate D2E/DX2                !
 ! A110  A(29,30,66)           113.0487         estimate D2E/DX2                !
 ! A111  A(31,30,66)           120.8761         estimate D2E/DX2                !
 ! A112  A(27,32,33)           113.1824         estimate D2E/DX2                !
 ! A113  A(27,32,67)           109.0987         estimate D2E/DX2                !
 ! A114  A(27,32,68)           109.8544         estimate D2E/DX2                !
 ! A115  A(33,32,67)           107.67           estimate D2E/DX2                !
 ! A116  A(33,32,68)           109.3248         estimate D2E/DX2                !
 ! A117  A(67,32,68)           107.5348         estimate D2E/DX2                !
 ! A118  A(24,33,32)           112.6201         estimate D2E/DX2                !
 ! A119  A(24,33,69)           109.1646         estimate D2E/DX2                !
 ! A120  A(24,33,70)           108.3927         estimate D2E/DX2                !
 ! A121  A(32,33,69)           109.2355         estimate D2E/DX2                !
 ! A122  A(32,33,70)           110.1109         estimate D2E/DX2                !
 ! A123  A(69,33,70)           107.163          estimate D2E/DX2                !
 ! A124  A(23,34,35)           130.3765         estimate D2E/DX2                !
 ! A125  A(23,34,38)           120.259          estimate D2E/DX2                !
 ! A126  A(35,34,38)           109.3644         estimate D2E/DX2                !
 ! A127  A(34,35,36)           103.2948         estimate D2E/DX2                !
 ! A128  A(35,36,37)           115.0331         estimate D2E/DX2                !
 ! A129  A(35,36,71)           122.2876         estimate D2E/DX2                !
 ! A130  A(37,36,71)           122.6794         estimate D2E/DX2                !
 ! A131  A(36,37,38)           103.4598         estimate D2E/DX2                !
 ! A132  A(4,38,34)            123.6138         estimate D2E/DX2                !
 ! A133  A(4,38,37)            127.5385         estimate D2E/DX2                !
 ! A134  A(34,38,37)           108.8477         estimate D2E/DX2                !
 ! A135  L(16,17,18,3,-1)      182.7559         estimate D2E/DX2                !
 ! A136  L(16,17,18,3,-2)      180.1536         estimate D2E/DX2                !
 ! D1    D(39,1,2,3)           179.1784         estimate D2E/DX2                !
 ! D2    D(39,1,2,42)          -60.0376         estimate D2E/DX2                !
 ! D3    D(39,1,2,43)           58.8284         estimate D2E/DX2                !
 ! D4    D(40,1,2,3)            59.2099         estimate D2E/DX2                !
 ! D5    D(40,1,2,42)          179.9938         estimate D2E/DX2                !
 ! D6    D(40,1,2,43)          -61.1402         estimate D2E/DX2                !
 ! D7    D(41,1,2,3)           -61.0554         estimate D2E/DX2                !
 ! D8    D(41,1,2,42)           59.7285         estimate D2E/DX2                !
 ! D9    D(41,1,2,43)          178.5945         estimate D2E/DX2                !
 ! D10   D(1,2,3,4)            173.9029         estimate D2E/DX2                !
 ! D11   D(1,2,3,44)            52.2408         estimate D2E/DX2                !
 ! D12   D(1,2,3,45)           -67.1562         estimate D2E/DX2                !
 ! D13   D(42,2,3,4)            53.0645         estimate D2E/DX2                !
 ! D14   D(42,2,3,44)          -68.5977         estimate D2E/DX2                !
 ! D15   D(42,2,3,45)          172.0054         estimate D2E/DX2                !
 ! D16   D(43,2,3,4)           -65.1359         estimate D2E/DX2                !
 ! D17   D(43,2,3,44)          173.202          estimate D2E/DX2                !
 ! D18   D(43,2,3,45)           53.805          estimate D2E/DX2                !
 ! D19   D(2,3,4,5)           -102.3046         estimate D2E/DX2                !
 ! D20   D(2,3,4,38)            76.1487         estimate D2E/DX2                !
 ! D21   D(44,3,4,5)            19.0718         estimate D2E/DX2                !
 ! D22   D(44,3,4,38)         -162.4749         estimate D2E/DX2                !
 ! D23   D(45,3,4,5)           138.7646         estimate D2E/DX2                !
 ! D24   D(45,3,4,38)          -42.7821         estimate D2E/DX2                !
 ! D25   D(3,4,5,6)             -0.9595         estimate D2E/DX2                !
 ! D26   D(3,4,5,21)           178.3531         estimate D2E/DX2                !
 ! D27   D(38,4,5,6)          -179.3959         estimate D2E/DX2                !
 ! D28   D(38,4,5,21)           -0.0833         estimate D2E/DX2                !
 ! D29   D(3,4,38,34)         -178.4478         estimate D2E/DX2                !
 ! D30   D(3,4,38,37)            1.6455         estimate D2E/DX2                !
 ! D31   D(5,4,38,34)            0.1667         estimate D2E/DX2                !
 ! D32   D(5,4,38,37)         -179.74           estimate D2E/DX2                !
 ! D33   D(4,5,6,7)             62.191          estimate D2E/DX2                !
 ! D34   D(4,5,6,46)           -60.59           estimate D2E/DX2                !
 ! D35   D(4,5,6,47)          -177.9569         estimate D2E/DX2                !
 ! D36   D(21,5,6,7)          -117.1621         estimate D2E/DX2                !
 ! D37   D(21,5,6,46)          120.0569         estimate D2E/DX2                !
 ! D38   D(21,5,6,47)            2.69           estimate D2E/DX2                !
 ! D39   D(4,5,21,22)          179.8667         estimate D2E/DX2                !
 ! D40   D(4,5,21,23)           -0.1399         estimate D2E/DX2                !
 ! D41   D(6,5,21,22)           -0.7735         estimate D2E/DX2                !
 ! D42   D(6,5,21,23)          179.2199         estimate D2E/DX2                !
 ! D43   D(5,6,7,8)           -125.8771         estimate D2E/DX2                !
 ! D44   D(5,6,7,20)            53.2081         estimate D2E/DX2                !
 ! D45   D(46,6,7,8)            -3.0545         estimate D2E/DX2                !
 ! D46   D(46,6,7,20)          176.0307         estimate D2E/DX2                !
 ! D47   D(47,6,7,8)           115.8302         estimate D2E/DX2                !
 ! D48   D(47,6,7,20)          -65.0846         estimate D2E/DX2                !
 ! D49   D(6,7,8,9)            177.6828         estimate D2E/DX2                !
 ! D50   D(6,7,8,48)            -2.3513         estimate D2E/DX2                !
 ! D51   D(20,7,8,9)            -1.4139         estimate D2E/DX2                !
 ! D52   D(20,7,8,48)          178.552          estimate D2E/DX2                !
 ! D53   D(6,7,20,19)         -178.1248         estimate D2E/DX2                !
 ! D54   D(6,7,20,55)            1.7928         estimate D2E/DX2                !
 ! D55   D(8,7,20,19)            0.985          estimate D2E/DX2                !
 ! D56   D(8,7,20,55)         -179.0974         estimate D2E/DX2                !
 ! D57   D(7,8,9,10)             0.6583         estimate D2E/DX2                !
 ! D58   D(7,8,9,49)           179.5211         estimate D2E/DX2                !
 ! D59   D(48,8,9,10)         -179.3078         estimate D2E/DX2                !
 ! D60   D(48,8,9,49)           -0.4449         estimate D2E/DX2                !
 ! D61   D(8,9,10,11)         -178.6222         estimate D2E/DX2                !
 ! D62   D(8,9,10,19)            0.5422         estimate D2E/DX2                !
 ! D63   D(49,9,10,11)           2.5112         estimate D2E/DX2                !
 ! D64   D(49,9,10,19)        -178.3245         estimate D2E/DX2                !
 ! D65   D(9,10,11,12)          46.9196         estimate D2E/DX2                !
 ! D66   D(9,10,11,16)        -133.0988         estimate D2E/DX2                !
 ! D67   D(19,10,11,12)       -132.2244         estimate D2E/DX2                !
 ! D68   D(19,10,11,16)         47.7572         estimate D2E/DX2                !
 ! D69   D(9,10,19,20)          -0.9688         estimate D2E/DX2                !
 ! D70   D(9,10,19,54)        -179.5424         estimate D2E/DX2                !
 ! D71   D(11,10,19,20)        178.186          estimate D2E/DX2                !
 ! D72   D(11,10,19,54)         -0.3876         estimate D2E/DX2                !
 ! D73   D(10,11,12,13)        179.4694         estimate D2E/DX2                !
 ! D74   D(10,11,12,50)          0.6334         estimate D2E/DX2                !
 ! D75   D(16,11,12,13)         -0.5128         estimate D2E/DX2                !
 ! D76   D(16,11,12,50)       -179.3488         estimate D2E/DX2                !
 ! D77   D(10,11,16,15)       -179.6718         estimate D2E/DX2                !
 ! D78   D(10,11,16,17)          2.5718         estimate D2E/DX2                !
 ! D79   D(12,11,16,15)          0.3102         estimate D2E/DX2                !
 ! D80   D(12,11,16,17)       -177.4463         estimate D2E/DX2                !
 ! D81   D(11,12,13,14)          0.2828         estimate D2E/DX2                !
 ! D82   D(11,12,13,51)       -179.5945         estimate D2E/DX2                !
 ! D83   D(50,12,13,14)        179.1061         estimate D2E/DX2                !
 ! D84   D(50,12,13,51)         -0.7712         estimate D2E/DX2                !
 ! D85   D(12,13,14,15)          0.1636         estimate D2E/DX2                !
 ! D86   D(12,13,14,52)        179.9952         estimate D2E/DX2                !
 ! D87   D(51,13,14,15)       -179.9593         estimate D2E/DX2                !
 ! D88   D(51,13,14,52)         -0.1277         estimate D2E/DX2                !
 ! D89   D(13,14,15,16)         -0.3626         estimate D2E/DX2                !
 ! D90   D(13,14,15,53)        179.407          estimate D2E/DX2                !
 ! D91   D(52,14,15,16)        179.8053         estimate D2E/DX2                !
 ! D92   D(52,14,15,53)         -0.4251         estimate D2E/DX2                !
 ! D93   D(14,15,16,11)          0.1233         estimate D2E/DX2                !
 ! D94   D(14,15,16,17)        177.9476         estimate D2E/DX2                !
 ! D95   D(53,15,16,11)       -179.6499         estimate D2E/DX2                !
 ! D96   D(53,15,16,17)         -1.8256         estimate D2E/DX2                !
 ! D97   D(10,19,20,7)           0.2043         estimate D2E/DX2                !
 ! D98   D(10,19,20,55)       -179.7129         estimate D2E/DX2                !
 ! D99   D(54,19,20,7)         178.7789         estimate D2E/DX2                !
 ! D100  D(54,19,20,55)         -1.1382         estimate D2E/DX2                !
 ! D101  D(5,21,23,24)         179.5869         estimate D2E/DX2                !
 ! D102  D(5,21,23,34)           0.2964         estimate D2E/DX2                !
 ! D103  D(22,21,23,24)         -0.4195         estimate D2E/DX2                !
 ! D104  D(22,21,23,34)       -179.71           estimate D2E/DX2                !
 ! D105  D(21,23,24,25)        122.2146         estimate D2E/DX2                !
 ! D106  D(21,23,24,33)       -111.8839         estimate D2E/DX2                !
 ! D107  D(21,23,24,56)          5.0561         estimate D2E/DX2                !
 ! D108  D(34,23,24,25)        -58.4994         estimate D2E/DX2                !
 ! D109  D(34,23,24,33)         67.4021         estimate D2E/DX2                !
 ! D110  D(34,23,24,56)       -175.6579         estimate D2E/DX2                !
 ! D111  D(21,23,34,35)        179.8713         estimate D2E/DX2                !
 ! D112  D(21,23,34,38)         -0.2301         estimate D2E/DX2                !
 ! D113  D(24,23,34,35)          0.6022         estimate D2E/DX2                !
 ! D114  D(24,23,34,38)       -179.4992         estimate D2E/DX2                !
 ! D115  D(23,24,25,26)        166.5119         estimate D2E/DX2                !
 ! D116  D(23,24,25,57)         46.8039         estimate D2E/DX2                !
 ! D117  D(23,24,25,58)        -72.3666         estimate D2E/DX2                !
 ! D118  D(33,24,25,26)         40.4112         estimate D2E/DX2                !
 ! D119  D(33,24,25,57)        -79.2967         estimate D2E/DX2                !
 ! D120  D(33,24,25,58)        161.5328         estimate D2E/DX2                !
 ! D121  D(56,24,25,26)        -79.7482         estimate D2E/DX2                !
 ! D122  D(56,24,25,57)        160.5439         estimate D2E/DX2                !
 ! D123  D(56,24,25,58)         41.3734         estimate D2E/DX2                !
 ! D124  D(23,24,33,32)       -105.0994         estimate D2E/DX2                !
 ! D125  D(23,24,33,69)         16.4115         estimate D2E/DX2                !
 ! D126  D(23,24,33,70)        132.8211         estimate D2E/DX2                !
 ! D127  D(25,24,33,32)         20.7521         estimate D2E/DX2                !
 ! D128  D(25,24,33,69)        142.263          estimate D2E/DX2                !
 ! D129  D(25,24,33,70)       -101.3274         estimate D2E/DX2                !
 ! D130  D(56,24,33,32)        141.1276         estimate D2E/DX2                !
 ! D131  D(56,24,33,69)        -97.3615         estimate D2E/DX2                !
 ! D132  D(56,24,33,70)         19.0481         estimate D2E/DX2                !
 ! D133  D(24,25,26,27)        -71.3663         estimate D2E/DX2                !
 ! D134  D(24,25,26,59)         50.4131         estimate D2E/DX2                !
 ! D135  D(24,25,26,60)        167.8682         estimate D2E/DX2                !
 ! D136  D(57,25,26,27)         48.6705         estimate D2E/DX2                !
 ! D137  D(57,25,26,59)        170.4499         estimate D2E/DX2                !
 ! D138  D(57,25,26,60)        -72.0949         estimate D2E/DX2                !
 ! D139  D(58,25,26,27)        168.3138         estimate D2E/DX2                !
 ! D140  D(58,25,26,59)        -69.9068         estimate D2E/DX2                !
 ! D141  D(58,25,26,60)         47.5483         estimate D2E/DX2                !
 ! D142  D(25,26,27,28)        162.331          estimate D2E/DX2                !
 ! D143  D(25,26,27,32)         34.4423         estimate D2E/DX2                !
 ! D144  D(25,26,27,61)        -81.9378         estimate D2E/DX2                !
 ! D145  D(59,26,27,28)         41.9206         estimate D2E/DX2                !
 ! D146  D(59,26,27,32)        -85.9682         estimate D2E/DX2                !
 ! D147  D(59,26,27,61)        157.6517         estimate D2E/DX2                !
 ! D148  D(60,26,27,28)        -76.5739         estimate D2E/DX2                !
 ! D149  D(60,26,27,32)        155.5373         estimate D2E/DX2                !
 ! D150  D(60,26,27,61)         39.1572         estimate D2E/DX2                !
 ! D151  D(26,27,28,29)        -69.762          estimate D2E/DX2                !
 ! D152  D(26,27,28,62)        168.4777         estimate D2E/DX2                !
 ! D153  D(26,27,28,63)         52.2625         estimate D2E/DX2                !
 ! D154  D(32,27,28,29)         56.6471         estimate D2E/DX2                !
 ! D155  D(32,27,28,62)        -65.1132         estimate D2E/DX2                !
 ! D156  D(32,27,28,63)        178.6717         estimate D2E/DX2                !
 ! D157  D(61,27,28,29)        173.6961         estimate D2E/DX2                !
 ! D158  D(61,27,28,62)         51.9358         estimate D2E/DX2                !
 ! D159  D(61,27,28,63)        -64.2794         estimate D2E/DX2                !
 ! D160  D(26,27,32,33)         27.4737         estimate D2E/DX2                !
 ! D161  D(26,27,32,67)        -92.3748         estimate D2E/DX2                !
 ! D162  D(26,27,32,68)        149.9787         estimate D2E/DX2                !
 ! D163  D(28,27,32,33)        -99.6458         estimate D2E/DX2                !
 ! D164  D(28,27,32,67)        140.5058         estimate D2E/DX2                !
 ! D165  D(28,27,32,68)         22.8593         estimate D2E/DX2                !
 ! D166  D(61,27,32,33)        143.9755         estimate D2E/DX2                !
 ! D167  D(61,27,32,67)         24.1271         estimate D2E/DX2                !
 ! D168  D(61,27,32,68)        -93.5195         estimate D2E/DX2                !
 ! D169  D(27,28,29,30)        177.1428         estimate D2E/DX2                !
 ! D170  D(27,28,29,64)         57.014          estimate D2E/DX2                !
 ! D171  D(27,28,29,65)        -62.6414         estimate D2E/DX2                !
 ! D172  D(62,28,29,30)        -60.6704         estimate D2E/DX2                !
 ! D173  D(62,28,29,64)        179.2008         estimate D2E/DX2                !
 ! D174  D(62,28,29,65)         59.5454         estimate D2E/DX2                !
 ! D175  D(63,28,29,30)         54.9084         estimate D2E/DX2                !
 ! D176  D(63,28,29,64)        -65.2204         estimate D2E/DX2                !
 ! D177  D(63,28,29,65)        175.1242         estimate D2E/DX2                !
 ! D178  D(28,29,30,31)         -0.7192         estimate D2E/DX2                !
 ! D179  D(28,29,30,66)        179.2932         estimate D2E/DX2                !
 ! D180  D(64,29,30,31)        122.0468         estimate D2E/DX2                !
 ! D181  D(64,29,30,66)        -57.9408         estimate D2E/DX2                !
 ! D182  D(65,29,30,31)       -123.2957         estimate D2E/DX2                !
 ! D183  D(65,29,30,66)         56.7167         estimate D2E/DX2                !
 ! D184  D(27,32,33,24)        -57.5517         estimate D2E/DX2                !
 ! D185  D(27,32,33,69)       -179.0222         estimate D2E/DX2                !
 ! D186  D(27,32,33,70)         63.552          estimate D2E/DX2                !
 ! D187  D(67,32,33,24)         63.1108         estimate D2E/DX2                !
 ! D188  D(67,32,33,69)        -58.3597         estimate D2E/DX2                !
 ! D189  D(67,32,33,70)       -175.7855         estimate D2E/DX2                !
 ! D190  D(68,32,33,24)        179.6492         estimate D2E/DX2                !
 ! D191  D(68,32,33,69)         58.1786         estimate D2E/DX2                !
 ! D192  D(68,32,33,70)        -59.2471         estimate D2E/DX2                !
 ! D193  D(23,34,35,36)       -179.9294         estimate D2E/DX2                !
 ! D194  D(38,34,35,36)          0.1635         estimate D2E/DX2                !
 ! D195  D(23,34,38,4)          -0.0124         estimate D2E/DX2                !
 ! D196  D(23,34,38,37)        179.9094         estimate D2E/DX2                !
 ! D197  D(35,34,38,4)         179.9057         estimate D2E/DX2                !
 ! D198  D(35,34,38,37)         -0.1725         estimate D2E/DX2                !
 ! D199  D(34,35,36,37)         -0.1076         estimate D2E/DX2                !
 ! D200  D(34,35,36,71)        179.9427         estimate D2E/DX2                !
 ! D201  D(35,36,37,38)          0.005          estimate D2E/DX2                !
 ! D202  D(71,36,37,38)        179.9545         estimate D2E/DX2                !
 ! D203  D(36,37,38,4)        -179.9834         estimate D2E/DX2                !
 ! D204  D(36,37,38,34)          0.0987         estimate D2E/DX2                !
 --------------------------------------------------------------------------------
 Trust Radius=3.00D-01 FncErr=1.00D-07 GrdErr=1.00D-06 EigMax=2.50D+02 EigMin=1.00D-04
 Number of steps in this run=    425 maximum allowed number of steps=    426.
 GradGradGradGradGradGradGradGradGradGradGradGradGradGradGradGradGradGrad

 Leave Link  103 at Fri Nov  4 22:20:03 2022, MaxMem=   805306368 cpu:               0.1 elap:               0.0
 (Enter /home/wykgroup/appl/g16/l202.exe)
 Stoichiometry    C31H33N5O2
 Framework group  C1[X(C31H33N5O2)]
 Deg. of freedom   207
 Full point group                 C1      NOp   1
 Largest Abelian subgroup         C1      NOp   1
 Largest concise Abelian subgroup C1      NOp   1
                         Standard orientation:                         
 ---------------------------------------------------------------------
 Center     Atomic      Atomic             Coordinates (Angstroms)
 Number     Number       Type             X           Y           Z
 ---------------------------------------------------------------------
      1          6           0       -3.431635    3.451287   -0.431216
      2          6           0       -2.169472    2.604950   -0.509828
      3          6           0       -1.280692    2.823746    0.723588
      4          6           0       -0.121284    1.885297    0.711052
      5          6           0        0.019764    0.751076    1.438478
      6          6           0       -1.021478    0.277074    2.419687
      7          6           0       -2.330339   -0.026476    1.743835
      8          6           0       -3.516072    0.556059    2.170491
      9          6           0       -4.703560    0.305000    1.510536
     10          6           0       -4.735543   -0.548923    0.411908
     11          6           0       -5.999052   -0.784746   -0.300696
     12          6           0       -6.816217    0.284456   -0.654228
     13          6           0       -8.002792    0.080333   -1.334468
     14          6           0       -8.403545   -1.203731   -1.672864
     15          6           0       -7.615233   -2.282769   -1.325622
     16          6           0       -6.415080   -2.080546   -0.642797
     17          6           0       -5.660524   -3.216543   -0.267842
     18          7           0       -5.091283   -4.169356    0.020937
     19          6           0       -3.550966   -1.153696   -0.001866
     20          6           0       -2.365809   -0.892064    0.656241
     21          6           0        1.197626   -0.106652    1.308686
     22          8           0        1.350869   -1.129243    1.951254
     23          7           0        2.171280    0.300166    0.393461
     24          6           0        3.369693   -0.528974    0.242801
     25          6           0        3.548435   -0.999765   -1.200944
     26          6           0        4.958200   -1.558340   -1.359829
     27          6           0        5.983558   -0.418204   -1.320603
     28          6           0        7.403456   -0.928112   -1.040544
     29          6           0        7.649514   -1.456544    0.369470
     30          6           0        9.038401   -1.997184    0.539228
     31          8           0        9.885729   -2.042907   -0.306210
     32          6           0        5.528307    0.691788   -0.355739
     33          6           0        4.630775    0.180163    0.768361
     34          6           0        2.012806    1.433829   -0.318018
     35          7           0        2.796925    1.994064   -1.218757
     36          6           0        2.116341    3.101222   -1.576558
     37          7           0        0.970334    3.267520   -0.967727
     38          7           0        0.889981    2.199441   -0.154617
     39          1           0       -4.043465    3.297286   -1.316667
     40          1           0       -3.181820    4.507548   -0.364955
     41          1           0       -4.017323    3.177198    0.443794
     42          1           0       -2.443225    1.550032   -0.575470
     43          1           0       -1.601793    2.869662   -1.403171
     44          1           0       -1.868609    2.679976    1.627823
     45          1           0       -0.898878    3.846586    0.698146
     46          1           0       -1.168147    1.024019    3.203273
     47          1           0       -0.629971   -0.632945    2.883351
     48          1           0       -3.514145    1.213726    3.028860
     49          1           0       -5.619905    0.759587    1.859038
     50          1           0       -6.501301    1.287476   -0.405610
     51          1           0       -8.618265    0.925552   -1.604569
     52          1           0       -9.329925   -1.361904   -2.203745
     53          1           0       -7.917330   -3.289957   -1.573126
     54          1           0       -3.554874   -1.813517   -0.856825
     55          1           0       -1.451942   -1.362615    0.324510
     56          1           0        3.163000   -1.396089    0.879285
     57          1           0        3.411226   -0.162441   -1.884762
     58          1           0        2.801349   -1.761750   -1.430926
     59          1           0        5.142112   -2.277362   -0.560070
     60          1           0        5.044094   -2.092798   -2.306850
     61          1           0        6.016222    0.022471   -2.323005
     62          1           0        8.111762   -0.117923   -1.226121
     63          1           0        7.635780   -1.724739   -1.750748
     64          1           0        6.958637   -2.264926    0.622638
     65          1           0        7.514271   -0.671503    1.117546
     66          1           0        9.235846   -2.374109    1.564857
     67          1           0        4.965943    1.440331   -0.913296
     68          1           0        6.399243    1.188463    0.075221
     69          1           0        4.332974    1.019073    1.401102
     70          1           0        5.180856   -0.518597    1.398536
     71          1           0        2.488665    3.790461   -2.305690
 ---------------------------------------------------------------------
 Rotational constants (GHZ):           0.2151364           0.0382309           0.0354352
 Leave Link  202 at Fri Nov  4 22:20:03 2022, MaxMem=   805306368 cpu:               0.1 elap:               0.0
 (Enter /home/wykgroup/appl/g16/l301.exe)
 Standard basis: 6-31G(d) (6D, 7F)
 Ernie: Thresh=  0.10000D-02 Tol=  0.10000D-05 Strict=F.
 There are   636 symmetry adapted cartesian basis functions of A   symmetry.
 There are   636 symmetry adapted basis functions of A   symmetry.
   636 basis functions,  1196 primitive gaussians,   636 cartesian basis functions
   135 alpha electrons      135 beta electrons
       nuclear repulsion energy      4003.3127505814 Hartrees.
 IExCor=  402 DFT=T Ex+Corr=B3LYP ExCW=0 ScaHFX=  0.200000
 ScaDFX=  0.800000  0.720000  1.000000  0.810000 ScalE2=  1.000000  1.000000
 IRadAn=      5 IRanWt=     -1 IRanGd=            0 ICorTp=0 IEmpDi=  4
 NAtoms=   71 NActive=   71 NUniq=   71 SFac= 1.00D+00 NAtFMM=   60 NAOKFM=T Big=T
 Integral buffers will be    131072 words long.
 Raffenetti 2 integral format.
 Two-electron integral symmetry is turned on.
 Leave Link  301 at Fri Nov  4 22:20:03 2022, MaxMem=   805306368 cpu:               0.3 elap:               0.1
 (Enter /home/wykgroup/appl/g16/l302.exe)
 NPDir=0 NMtPBC=     1 NCelOv=     1 NCel=       1 NClECP=     1 NCelD=      1
         NCelK=      1 NCelE2=     1 NClLst=     1 CellRange=     0.0.
 One-electron integrals computed using PRISM.
 One-electron integral symmetry used in STVInt
 NBasis=   636 RedAO= T EigKep=  3.32D-04  NBF=   636
 NBsUse=   636 1.00D-06 EigRej= -1.00D+00 NBFU=   636
 Precomputing XC quadrature grid using
 IXCGrd= 4 IRadAn=           5 IRanWt=          -1 IRanGd=           0 AccXCQ= 0.00D+00.
 Generated NRdTot=       0 NPtTot=           0 NUsed=           0 NTot=          32
 NSgBfM=   594   594   594   594   594 MxSgAt=    71 MxSgA2=    71.
 Leave Link  302 at Fri Nov  4 22:20:04 2022, MaxMem=   805306368 cpu:               9.8 elap:               1.4
 (Enter /home/wykgroup/appl/g16/l303.exe)
 DipDrv:  MaxL=1.
 Leave Link  303 at Fri Nov  4 22:20:05 2022, MaxMem=   805306368 cpu:               0.5 elap:               0.1
 (Enter /home/wykgroup/appl/g16/l401.exe)
 ExpMin= 1.61D-01 ExpMax= 5.48D+03 ExpMxC= 8.25D+02 IAcc=3 IRadAn=         5 AccDes= 0.00D+00
 Harris functional with IExCor=  402 and IRadAn=       5 diagonalized for initial guess.
 HarFok:  IExCor=  402 AccDes= 0.00D+00 IRadAn=         5 IDoV= 1 UseB2=F ITyADJ=14
 ICtDFT=  3500011 ScaDFX=  1.000000  1.000000  1.000000  1.000000
 FoFCou: FMM=F IPFlag=           0 FMFlag=      100000 FMFlg1=        2001
         NFxFlg=           0 DoJE=T BraDBF=F KetDBF=T FulRan=T
         wScrn=  0.000000 ICntrl=       500 IOpCl=  0 I1Cent=   200000004 NGrid=           0
         NMat0=    1 NMatS0=      1 NMatT0=    0 NMatD0=    1 NMtDS0=    0 NMtDT0=    0
 Petite list used in FoFCou.
 Harris En= -1625.38369619737    
 JPrj=0 DoOrth=F DoCkMO=F.
 Leave Link  401 at Fri Nov  4 22:20:10 2022, MaxMem=   805306368 cpu:              37.4 elap:               5.4
 (Enter /home/wykgroup/appl/g16/l502.exe)
 Integral symmetry usage will be decided dynamically.
 Closed shell SCF:
 Using DIIS extrapolation, IDIIS=  1040.
 NGot=   805306368 LenX=   804485887 LenY=   804080755
 Requested convergence on RMS density matrix=1.00D-08 within  32 cycles.
 Requested convergence on MAX density matrix=1.00D-06.
 Requested convergence on             energy=1.00D-06.
 No special actions if energy rises.
 Fock matrices will be formed incrementally for  20 cycles.
 Integral accuracy reduced to 1.0D-05 until final iterations.

 Cycle   1  Pass 0  IDiag  1:
 FoFJK:  IHMeth= 1 ICntrl=       0 DoSepK=F KAlg= 0 I1Cent=           0 FoldK=F
 IRaf= 830000000 NMat=       1 IRICut=       1 DoRegI=T DoRafI=F ISym2E= 0 IDoP0=0 IntGTp=1.
 FoFCou: FMM=T IPFlag=           0 FMFlag=      100000 FMFlg1=        2001
         NFxFlg=           0 DoJE=F BraDBF=F KetDBF=F FulRan=T
         wScrn=  0.000000 ICntrl=         0 IOpCl=  0 I1Cent=           0 NGrid=           0
         NMat0=    1 NMatS0=      1 NMatT0=    0 NMatD0=    1 NMtDS0=    0 NMtDT0=    0
 Symmetry not used in FoFCou.
 FMM levels:  10  Number of levels for PrismC:   9
 E= -1624.43322927285    
 DIIS: error= 3.04D-02 at cycle   1 NSaved=   1.
 NSaved= 1 IEnMin= 1 EnMin= -1624.43322927285     IErMin= 1 ErrMin= 3.04D-02
 ErrMax= 3.04D-02  0.00D+00 EMaxC= 1.00D-01 BMatC= 9.48D-01 BMatP= 9.48D-01
 IDIUse=3 WtCom= 6.96D-01 WtEn= 3.04D-01
 Coeff-Com:  0.100D+01
 Coeff-En:   0.100D+01
 Coeff:      0.100D+01
 Gap=     0.259 Goal=   None    Shift=    0.000
 GapD=    0.259 DampG=1.000 DampE=0.500 DampFc=0.5000 IDamp=-1.
 Damping current iteration by 5.00D-01
 RMSDP=4.19D-03 MaxDP=2.61D-01              OVMax= 3.32D-01

 Cycle   2  Pass 0  IDiag  1:
 RMSU=  2.07D-03    CP:  9.76D-01
 E= -1624.71491534945     Delta-E=       -0.281686076593 Rises=F Damp=T
 DIIS: error= 8.72D-03 at cycle   2 NSaved=   2.
 NSaved= 2 IEnMin= 2 EnMin= -1624.71491534945     IErMin= 2 ErrMin= 8.72D-03
 ErrMax= 8.72D-03  0.00D+00 EMaxC= 1.00D-01 BMatC= 1.63D-01 BMatP= 9.48D-01
 IDIUse=3 WtCom= 9.13D-01 WtEn= 8.72D-02
 Coeff-Com:  0.205D+00 0.795D+00
 Coeff-En:   0.310D+00 0.690D+00
 Coeff:      0.214D+00 0.786D+00
 Gap=     0.293 Goal=   None    Shift=    0.000
 RMSDP=1.44D-03 MaxDP=1.69D-01 DE=-2.82D-01 OVMax= 2.74D-01

 Cycle   3  Pass 0  IDiag  1:
 RMSU=  1.28D-03    CP:  9.60D-01  7.06D-01
 E= -1625.20735045582     Delta-E=       -0.492435106377 Rises=F Damp=F
 DIIS: error= 1.10D-02 at cycle   3 NSaved=   3.
 NSaved= 3 IEnMin= 3 EnMin= -1625.20735045582     IErMin= 2 ErrMin= 8.72D-03
 ErrMax= 1.10D-02  0.00D+00 EMaxC= 1.00D-01 BMatC= 1.83D-01 BMatP= 1.63D-01
 IDIUse=2 WtCom= 0.00D+00 WtEn= 1.00D+00
 Coeff-En:   0.000D+00 0.000D+00 0.100D+01
 Coeff:      0.000D+00 0.000D+00 0.100D+01
 Gap=     0.182 Goal=   None    Shift=    0.000
 RMSDP=2.53D-03 MaxDP=3.14D-01 DE=-4.92D-01 OVMax= 5.24D-01

 Cycle   4  Pass 0  IDiag  1:
 RMSU=  1.33D-03    CP:  9.71D-01  1.27D+00 -4.04D-01
 E= -1624.28360346500     Delta-E=        0.923746990829 Rises=F Damp=F
 DIIS: error= 3.20D-02 at cycle   4 NSaved=   4.
 NSaved= 4 IEnMin= 3 EnMin= -1625.20735045582     IErMin= 2 ErrMin= 8.72D-03
 ErrMax= 3.20D-02  0.00D+00 EMaxC= 1.00D-01 BMatC= 1.25D+00 BMatP= 1.63D-01
 IDIUse=2 WtCom= 0.00D+00 WtEn= 1.00D+00
 Coeff-En:   0.000D+00 0.000D+00 0.813D+00 0.187D+00
 Coeff:      0.000D+00 0.000D+00 0.813D+00 0.187D+00
 Gap=     0.165 Goal=   None    Shift=    0.000
 RMSDP=1.46D-03 MaxDP=2.02D-01 DE= 9.24D-01 OVMax= 2.01D-01

 Cycle   5  Pass 0  IDiag  1:
 RMSU=  3.33D-04    CP:  9.68D-01  9.01D-01  3.25D-01  4.47D-01
 E= -1625.28600769972     Delta-E=       -1.002404234726 Rises=F Damp=F
 DIIS: error= 8.33D-03 at cycle   5 NSaved=   5.
 NSaved= 5 IEnMin= 5 EnMin= -1625.28600769972     IErMin= 5 ErrMin= 8.33D-03
 ErrMax= 8.33D-03  0.00D+00 EMaxC= 1.00D-01 BMatC= 9.87D-02 BMatP= 1.63D-01
 IDIUse=3 WtCom= 9.17D-01 WtEn= 8.33D-02
 Coeff-Com:  0.583D-02 0.281D-01 0.362D+00-0.557D-01 0.660D+00
 Coeff-En:   0.000D+00 0.000D+00 0.381D+00 0.000D+00 0.619D+00
 Coeff:      0.534D-02 0.258D-01 0.364D+00-0.511D-01 0.656D+00
 Gap=     0.191 Goal=   None    Shift=    0.000
 RMSDP=4.99D-04 MaxDP=5.01D-02 DE=-1.00D+00 OVMax= 7.07D-02

 Cycle   6  Pass 0  IDiag  1:
 RMSU=  1.28D-04    CP:  9.65D-01  8.07D-01  5.97D-01  2.62D-01  6.89D-01
 E= -1625.36965427028     Delta-E=       -0.083646570561 Rises=F Damp=F
 DIIS: error= 1.54D-03 at cycle   6 NSaved=   6.
 NSaved= 6 IEnMin= 6 EnMin= -1625.36965427028     IErMin= 6 ErrMin= 1.54D-03
 ErrMax= 1.54D-03  0.00D+00 EMaxC= 1.00D-01 BMatC= 2.49D-03 BMatP= 9.87D-02
 IDIUse=3 WtCom= 9.85D-01 WtEn= 1.54D-02
 Coeff-Com: -0.103D-02 0.150D-01 0.199D+00-0.589D-01 0.458D+00 0.388D+00
 Coeff-En:   0.000D+00 0.000D+00 0.000D+00 0.000D+00 0.000D+00 0.100D+01
 Coeff:     -0.101D-02 0.148D-01 0.196D+00-0.580D-01 0.451D+00 0.398D+00
 Gap=     0.177 Goal=   None    Shift=    0.000
 RMSDP=8.27D-05 MaxDP=7.30D-03 DE=-8.36D-02 OVMax= 8.98D-03

 Cycle   7  Pass 0  IDiag  1:
 RMSU=  3.47D-05    CP:  9.65D-01  8.10D-01  5.98D-01  2.59D-01  7.40D-01
                    CP:  4.33D-01
 E= -1625.37155812537     Delta-E=       -0.001903855087 Rises=F Damp=F
 DIIS: error= 7.31D-04 at cycle   7 NSaved=   7.
 NSaved= 7 IEnMin= 7 EnMin= -1625.37155812537     IErMin= 7 ErrMin= 7.31D-04
 ErrMax= 7.31D-04  0.00D+00 EMaxC= 1.00D-01 BMatC= 1.58D-04 BMatP= 2.49D-03
 IDIUse=3 WtCom= 9.93D-01 WtEn= 7.31D-03
 Coeff-Com: -0.313D-03 0.550D-02 0.807D-01-0.285D-01 0.191D+00 0.210D+00
 Coeff-Com:  0.542D+00
 Coeff-En:   0.000D+00 0.000D+00 0.000D+00 0.000D+00 0.000D+00 0.000D+00
 Coeff-En:   0.100D+01
 Coeff:     -0.310D-03 0.546D-02 0.801D-01-0.283D-01 0.190D+00 0.208D+00
 Coeff:      0.545D+00
 Gap=     0.178 Goal=   None    Shift=    0.000
 RMSDP=2.76D-05 MaxDP=3.54D-03 DE=-1.90D-03 OVMax= 4.57D-03

 Cycle   8  Pass 0  IDiag  1:
 RMSU=  1.80D-05    CP:  9.65D-01  8.08D-01  6.01D-01  2.57D-01  7.41D-01
                    CP:  5.10D-01  5.02D-01
 E= -1625.37165007993     Delta-E=       -0.000091954562 Rises=F Damp=F
 DIIS: error= 3.49D-04 at cycle   8 NSaved=   8.
 NSaved= 8 IEnMin= 8 EnMin= -1625.37165007993     IErMin= 8 ErrMin= 3.49D-04
 ErrMax= 3.49D-04  0.00D+00 EMaxC= 1.00D-01 BMatC= 5.95D-05 BMatP= 1.58D-04
 IDIUse=3 WtCom= 9.97D-01 WtEn= 3.49D-03
 Coeff-Com:  0.535D-03-0.115D-02 0.157D-01-0.544D-02 0.291D-01 0.486D-01
 Coeff-Com:  0.414D+00 0.499D+00
 Coeff-En:   0.000D+00 0.000D+00 0.000D+00 0.000D+00 0.000D+00 0.000D+00
 Coeff-En:   0.274D+00 0.726D+00
 Coeff:      0.533D-03-0.115D-02 0.157D-01-0.542D-02 0.290D-01 0.485D-01
 Coeff:      0.414D+00 0.499D+00
 Gap=     0.177 Goal=   None    Shift=    0.000
 RMSDP=1.29D-05 MaxDP=1.35D-03 DE=-9.20D-05 OVMax= 1.76D-03

 Cycle   9  Pass 0  IDiag  1:
 RMSU=  5.37D-06    CP:  9.65D-01  8.07D-01  6.03D-01  2.56D-01  7.37D-01
                    CP:  4.86D-01  6.61D-01  4.89D-01
 E= -1625.37170056511     Delta-E=       -0.000050485179 Rises=F Damp=F
 DIIS: error= 6.23D-05 at cycle   9 NSaved=   9.
 NSaved= 9 IEnMin= 9 EnMin= -1625.37170056511     IErMin= 9 ErrMin= 6.23D-05
 ErrMax= 6.23D-05  0.00D+00 EMaxC= 1.00D-01 BMatC= 3.29D-06 BMatP= 5.95D-05
 IDIUse=1 WtCom= 1.00D+00 WtEn= 0.00D+00
 Coeff-Com:  0.408D-03-0.129D-02 0.334D-02-0.976D-03 0.201D-02 0.123D-01
 Coeff-Com:  0.217D+00 0.308D+00 0.460D+00
 Coeff:      0.408D-03-0.129D-02 0.334D-02-0.976D-03 0.201D-02 0.123D-01
 Coeff:      0.217D+00 0.308D+00 0.460D+00
 Gap=     0.177 Goal=   None    Shift=    0.000
 RMSDP=3.34D-06 MaxDP=2.83D-04 DE=-5.05D-05 OVMax= 2.98D-04

 Initial convergence to 1.0D-05 achieved.  Increase integral accuracy.
 Cycle  10  Pass 1  IDiag  1:
 E= -1625.37171390938     Delta-E=       -0.000013344267 Rises=F Damp=F
 DIIS: error= 1.95D-04 at cycle   1 NSaved=   1.
 NSaved= 1 IEnMin= 1 EnMin= -1625.37171390938     IErMin= 1 ErrMin= 1.95D-04
 ErrMax= 1.95D-04  0.00D+00 EMaxC= 1.00D-01 BMatC= 8.64D-06 BMatP= 8.64D-06
 IDIUse=3 WtCom= 9.98D-01 WtEn= 1.95D-03
 Coeff-Com:  0.100D+01
 Coeff-En:   0.100D+01
 Coeff:      0.100D+01
 Gap=     0.177 Goal=   None    Shift=    0.000
 RMSDP=3.34D-06 MaxDP=2.83D-04 DE=-1.33D-05 OVMax= 4.28D-04

 Cycle  11  Pass 1  IDiag  1:
 RMSU=  8.11D-05    CP:  1.00D+00
 E= -1625.37172133105     Delta-E=       -0.000007421677 Rises=F Damp=F
 DIIS: error= 3.83D-05 at cycle   2 NSaved=   2.
 NSaved= 2 IEnMin= 2 EnMin= -1625.37172133105     IErMin= 2 ErrMin= 3.83D-05
 ErrMax= 3.83D-05  0.00D+00 EMaxC= 1.00D-01 BMatC= 8.67D-07 BMatP= 8.64D-06
 IDIUse=1 WtCom= 1.00D+00 WtEn= 0.00D+00
 Coeff-Com:  0.117D+00 0.883D+00
 Coeff:      0.117D+00 0.883D+00
 Gap=     0.177 Goal=   None    Shift=    0.000
 RMSDP=3.86D-06 MaxDP=4.29D-04 DE=-7.42D-06 OVMax= 3.74D-04

 Cycle  12  Pass 1  IDiag  1:
 RMSU=  3.79D-06    CP:  1.00D+00  1.01D+00
 E= -1625.37171950862     Delta-E=        0.000001822435 Rises=F Damp=F
 DIIS: error= 7.07D-05 at cycle   3 NSaved=   3.
 NSaved= 3 IEnMin= 2 EnMin= -1625.37172133105     IErMin= 2 ErrMin= 3.83D-05
 ErrMax= 7.07D-05  0.00D+00 EMaxC= 1.00D-01 BMatC= 3.08D-06 BMatP= 8.67D-07
 IDIUse=1 WtCom= 1.00D+00 WtEn= 0.00D+00
 Coeff-Com: -0.449D-02 0.656D+00 0.348D+00
 Coeff:     -0.449D-02 0.656D+00 0.348D+00
 Gap=     0.177 Goal=   None    Shift=    0.000
 RMSDP=2.57D-06 MaxDP=2.71D-04 DE= 1.82D-06 OVMax= 2.96D-04

 Cycle  13  Pass 1  IDiag  1:
 RMSU=  4.58D-07    CP:  1.00D+00  1.01D+00  3.36D-01
 E= -1625.37172201546     Delta-E=       -0.000002506840 Rises=F Damp=F
 DIIS: error= 9.17D-06 at cycle   4 NSaved=   4.
 NSaved= 4 IEnMin= 4 EnMin= -1625.37172201546     IErMin= 4 ErrMin= 9.17D-06
 ErrMax= 9.17D-06  0.00D+00 EMaxC= 1.00D-01 BMatC= 3.02D-08 BMatP= 8.67D-07
 IDIUse=1 WtCom= 1.00D+00 WtEn= 0.00D+00
 Coeff-Com: -0.425D-02 0.430D+00 0.233D+00 0.341D+00
 Coeff:     -0.425D-02 0.430D+00 0.233D+00 0.341D+00
 Gap=     0.177 Goal=   None    Shift=    0.000
 RMSDP=2.88D-07 MaxDP=3.20D-05 DE=-2.51D-06 OVMax= 4.52D-05

 Cycle  14  Pass 1  IDiag  1:
 RMSU=  1.65D-07    CP:  1.00D+00  1.01D+00  3.52D-01  5.03D-01
 E= -1625.37172204072     Delta-E=       -0.000000025258 Rises=F Damp=F
 DIIS: error= 1.82D-06 at cycle   5 NSaved=   5.
 NSaved= 5 IEnMin= 5 EnMin= -1625.37172204072     IErMin= 5 ErrMin= 1.82D-06
 ErrMax= 1.82D-06  0.00D+00 EMaxC= 1.00D-01 BMatC= 1.07D-09 BMatP= 3.02D-08
 IDIUse=1 WtCom= 1.00D+00 WtEn= 0.00D+00
 Coeff-Com: -0.228D-02 0.218D+00 0.118D+00 0.213D+00 0.453D+00
 Coeff:     -0.228D-02 0.218D+00 0.118D+00 0.213D+00 0.453D+00
 Gap=     0.177 Goal=   None    Shift=    0.000
 RMSDP=6.29D-08 MaxDP=7.73D-06 DE=-2.53D-08 OVMax= 7.95D-06

 Cycle  15  Pass 1  IDiag  1:
 RMSU=  4.79D-08    CP:  1.00D+00  1.01D+00  3.50D-01  5.48D-01  7.93D-01
 E= -1625.37172204153     Delta-E=       -0.000000000818 Rises=F Damp=F
 DIIS: error= 2.45D-07 at cycle   6 NSaved=   6.
 NSaved= 6 IEnMin= 6 EnMin= -1625.37172204153     IErMin= 6 ErrMin= 2.45D-07
 ErrMax= 2.45D-07  0.00D+00 EMaxC= 1.00D-01 BMatC= 9.30D-11 BMatP= 1.07D-09
 IDIUse=1 WtCom= 1.00D+00 WtEn= 0.00D+00
 Coeff-Com: -0.815D-03 0.749D-01 0.407D-01 0.856D-01 0.273D+00 0.527D+00
 Coeff:     -0.815D-03 0.749D-01 0.407D-01 0.856D-01 0.273D+00 0.527D+00
 Gap=     0.177 Goal=   None    Shift=    0.000
 RMSDP=1.82D-08 MaxDP=1.53D-06 DE=-8.18D-10 OVMax= 1.66D-06

 Cycle  16  Pass 1  IDiag  1:
 RMSU=  1.61D-08    CP:  1.00D+00  1.01D+00  3.51D-01  5.49D-01  8.09D-01
                    CP:  8.37D-01
 E= -1625.37172204160     Delta-E=       -0.000000000069 Rises=F Damp=F
 DIIS: error= 8.42D-08 at cycle   7 NSaved=   7.
 NSaved= 7 IEnMin= 7 EnMin= -1625.37172204160     IErMin= 7 ErrMin= 8.42D-08
 ErrMax= 8.42D-08  0.00D+00 EMaxC= 1.00D-01 BMatC= 8.39D-12 BMatP= 9.30D-11
 IDIUse=1 WtCom= 1.00D+00 WtEn= 0.00D+00
 Coeff-Com: -0.165D-03 0.141D-01 0.757D-02 0.208D-01 0.941D-01 0.286D+00
 Coeff-Com:  0.578D+00
 Coeff:     -0.165D-03 0.141D-01 0.757D-02 0.208D-01 0.941D-01 0.286D+00
 Coeff:      0.578D+00
 Gap=     0.177 Goal=   None    Shift=    0.000
 RMSDP=6.44D-09 MaxDP=5.58D-07 DE=-6.91D-11 OVMax= 8.69D-07

 SCF Done:  E(RB3LYP) =  -1625.37172204     A.U. after   16 cycles
            NFock= 16  Conv=0.64D-08     -V/T= 2.0086
 KE= 1.611558059127D+03 PE=-1.177867619216D+04 EE= 4.538433660406D+03
 Leave Link  502 at Fri Nov  4 22:22:19 2022, MaxMem=   805306368 cpu:             903.3 elap:             129.2
 (Enter /home/wykgroup/appl/g16/l508.exe)
 QCSCF skips out because SCF is already converged.
 Leave Link  508 at Fri Nov  4 22:22:19 2022, MaxMem=   805306368 cpu:               0.0 elap:               0.0
 (Enter /home/wykgroup/appl/g16/l601.exe)
 Copying SCF densities to generalized density rwf, IOpCl= 0 IROHF=0.

 **********************************************************************

            Population analysis using the SCF Density.

 **********************************************************************

 Orbital symmetries:
       Occupied  (A) (A) (A) (A) (A) (A) (A) (A) (A) (A) (A) (A)
                 (A) (A) (A) (A) (A) (A) (A) (A) (A) (A) (A) (A)
                 (A) (A) (A) (A) (A) (A) (A) (A) (A) (A) (A) (A)
                 (A) (A) (A) (A) (A) (A) (A) (A) (A) (A) (A) (A)
                 (A) (A) (A) (A) (A) (A) (A) (A) (A) (A) (A) (A)
                 (A) (A) (A) (A) (A) (A) (A) (A) (A) (A) (A) (A)
                 (A) (A) (A) (A) (A) (A) (A) (A) (A) (A) (A) (A)
                 (A) (A) (A) (A) (A) (A) (A) (A) (A) (A) (A) (A)
                 (A) (A) (A) (A) (A) (A) (A) (A) (A) (A) (A) (A)
                 (A) (A) (A) (A) (A) (A) (A) (A) (A) (A) (A) (A)
                 (A) (A) (A) (A) (A) (A) (A) (A) (A) (A) (A) (A)
                 (A) (A) (A)
       Virtual   (A) (A) (A) (A) (A) (A) (A) (A) (A) (A) (A) (A)
                 (A) (A) (A) (A) (A) (A) (A) (A) (A) (A) (A) (A)
                 (A) (A) (A) (A) (A) (A) (A) (A) (A) (A) (A) (A)
                 (A) (A) (A) (A) (A) (A) (A) (A) (A) (A) (A) (A)
                 (A) (A) (A) (A) (A) (A) (A) (A) (A) (A) (A) (A)
                 (A) (A) (A) (A) (A) (A) (A) (A) (A) (A) (A) (A)
                 (A) (A) (A) (A) (A) (A) (A) (A) (A) (A) (A) (A)
                 (A) (A) (A) (A) (A) (A) (A) (A) (A) (A) (A) (A)
                 (A) (A) (A) (A) (A) (A) (A) (A) (A) (A) (A) (A)
                 (A) (A) (A) (A) (A) (A) (A) (A) (A) (A) (A) (A)
                 (A) (A) (A) (A) (A) (A) (A) (A) (A) (A) (A) (A)
                 (A) (A) (A) (A) (A) (A) (A) (A) (A) (A) (A) (A)
                 (A) (A) (A) (A) (A) (A) (A) (A) (A) (A) (A) (A)
                 (A) (A) (A) (A) (A) (A) (A) (A) (A) (A) (A) (A)
                 (A) (A) (A) (A) (A) (A) (A) (A) (A) (A) (A) (A)
                 (A) (A) (A) (A) (A) (A) (A) (A) (A) (A) (A) (A)
                 (A) (A) (A) (A) (A) (A) (A) (A) (A) (A) (A) (A)
                 (A) (A) (A) (A) (A) (A) (A) (A) (A) (A) (A) (A)
                 (A) (A) (A) (A) (A) (A) (A) (A) (A) (A) (A) (A)
                 (A) (A) (A) (A) (A) (A) (A) (A) (A) (A) (A) (A)
                 (A) (A) (A) (A) (A) (A) (A) (A) (A) (A) (A) (A)
                 (A) (A) (A) (A) (A) (A) (A) (A) (A) (A) (A) (A)
                 (A) (A) (A) (A) (A) (A) (A) (A) (A) (A) (A) (A)
                 (A) (A) (A) (A) (A) (A) (A) (A) (A) (A) (A) (A)
                 (A) (A) (A) (A) (A) (A) (A) (A) (A) (A) (A) (A)
                 (A) (A) (A) (A) (A) (A) (A) (A) (A) (A) (A) (A)
                 (A) (A) (A) (A) (A) (A) (A) (A) (A) (A) (A) (A)
                 (A) (A) (A) (A) (A) (A) (A) (A) (A) (A) (A) (A)
                 (A) (A) (A) (A) (A) (A) (A) (A) (A) (A) (A) (A)
                 (A) (A) (A) (A) (A) (A) (A) (A) (A) (A) (A) (A)
                 (A) (A) (A) (A) (A) (A) (A) (A) (A) (A) (A) (A)
                 (A) (A) (A) (A) (A) (A) (A) (A) (A) (A) (A) (A)
                 (A) (A) (A) (A) (A) (A) (A) (A) (A) (A) (A) (A)
                 (A) (A) (A) (A) (A) (A) (A) (A) (A) (A) (A) (A)
                 (A) (A) (A) (A) (A) (A) (A) (A) (A) (A) (A) (A)
                 (A) (A) (A) (A) (A) (A) (A) (A) (A) (A) (A) (A)
                 (A) (A) (A) (A) (A) (A) (A) (A) (A) (A) (A) (A)
                 (A) (A) (A) (A) (A) (A) (A) (A) (A) (A) (A) (A)
                 (A) (A) (A) (A) (A) (A) (A) (A) (A) (A) (A) (A)
                 (A) (A) (A) (A) (A) (A) (A) (A) (A) (A) (A) (A)
                 (A) (A) (A) (A) (A) (A) (A) (A) (A) (A) (A) (A)
                 (A) (A) (A) (A) (A) (A) (A) (A) (A)
 The electronic state is 1-A.
 Alpha  occ. eigenvalues --  -19.14751 -19.12572 -14.44527 -14.40481 -14.36593
 Alpha  occ. eigenvalues --  -14.33464 -14.32890 -10.30777 -10.30314 -10.27245
 Alpha  occ. eigenvalues --  -10.26621 -10.24964 -10.23553 -10.22781 -10.22462
 Alpha  occ. eigenvalues --  -10.22154 -10.21706 -10.21484 -10.21312 -10.20979
 Alpha  occ. eigenvalues --  -10.20938 -10.20717 -10.20518 -10.20462 -10.20007
 Alpha  occ. eigenvalues --  -10.19983 -10.19787 -10.19667 -10.19340 -10.19296
 Alpha  occ. eigenvalues --  -10.18825 -10.18387 -10.18094 -10.17901 -10.17857
 Alpha  occ. eigenvalues --  -10.17857 -10.17720 -10.16659  -1.11750  -1.05883
 Alpha  occ. eigenvalues --   -1.05087  -0.98377  -0.94734  -0.91479  -0.89049
 Alpha  occ. eigenvalues --   -0.87579  -0.86759  -0.84176  -0.82532  -0.80896
 Alpha  occ. eigenvalues --   -0.79519  -0.79023  -0.78600  -0.75998  -0.75607
 Alpha  occ. eigenvalues --   -0.75028  -0.74313  -0.72327  -0.70330  -0.67875
 Alpha  occ. eigenvalues --   -0.66109  -0.65590  -0.65114  -0.64302  -0.62912
 Alpha  occ. eigenvalues --   -0.62434  -0.61934  -0.60822  -0.60091  -0.59238
 Alpha  occ. eigenvalues --   -0.56895  -0.56498  -0.55159  -0.53126  -0.52508
 Alpha  occ. eigenvalues --   -0.52151  -0.51756  -0.50611  -0.49534  -0.49328
 Alpha  occ. eigenvalues --   -0.48926  -0.47765  -0.47456  -0.47304  -0.46794
 Alpha  occ. eigenvalues --   -0.46710  -0.46533  -0.46109  -0.45548  -0.45357
 Alpha  occ. eigenvalues --   -0.44273  -0.43452  -0.43386  -0.43171  -0.42640
 Alpha  occ. eigenvalues --   -0.42168  -0.41790  -0.41057  -0.40837  -0.40235
 Alpha  occ. eigenvalues --   -0.39891  -0.39516  -0.38990  -0.38753  -0.38140
 Alpha  occ. eigenvalues --   -0.37825  -0.37439  -0.37373  -0.37232  -0.36909
 Alpha  occ. eigenvalues --   -0.36721  -0.35925  -0.35592  -0.35292  -0.35271
 Alpha  occ. eigenvalues --   -0.34956  -0.34696  -0.34482  -0.34080  -0.33559
 Alpha  occ. eigenvalues --   -0.32953  -0.32826  -0.32520  -0.30812  -0.30105
 Alpha  occ. eigenvalues --   -0.29943  -0.28782  -0.28349  -0.27040  -0.26806
 Alpha  occ. eigenvalues --   -0.26451  -0.25797  -0.24995  -0.24081  -0.23212
 Alpha virt. eigenvalues --   -0.05478  -0.04933  -0.03402  -0.01358  -0.01346
 Alpha virt. eigenvalues --   -0.00014   0.00912   0.04305   0.04653   0.07540
 Alpha virt. eigenvalues --    0.07735   0.08023   0.08427   0.09048   0.09554
 Alpha virt. eigenvalues --    0.10999   0.11138   0.11411   0.11894   0.12287
 Alpha virt. eigenvalues --    0.12868   0.13034   0.13189   0.13917   0.14299
 Alpha virt. eigenvalues --    0.14417   0.14918   0.15064   0.15546   0.15881
 Alpha virt. eigenvalues --    0.16227   0.16403   0.16756   0.17024   0.17199
 Alpha virt. eigenvalues --    0.17480   0.17721   0.18016   0.18223   0.18371
 Alpha virt. eigenvalues --    0.18737   0.18942   0.19175   0.19707   0.19871
 Alpha virt. eigenvalues --    0.20348   0.20628   0.21416   0.21825   0.22131
[...]
                 (A) (A) (A) (A) (A) (A) (A) (A) (A) (A) (A) (A)
                 (A) (A) (A) (A) (A) (A) (A) (A) (A) (A) (A) (A)
                 (A) (A) (A) (A) (A) (A) (A) (A) (A) (A) (A) (A)
                 (A) (A) (A) (A) (A) (A) (A) (A) (A) (A) (A) (A)
                 (A) (A) (A) (A) (A) (A) (A) (A) (A) (A) (A) (A)
                 (A) (A) (A) (A) (A) (A) (A) (A) (A) (A) (A) (A)
                 (A) (A) (A) (A) (A) (A) (A) (A) (A) (A) (A) (A)
                 (A) (A) (A) (A) (A) (A) (A) (A) (A) (A) (A) (A)
                 (A) (A) (A) (A) (A) (A) (A) (A) (A) (A) (A) (A)
                 (A) (A) (A) (A) (A) (A) (A) (A) (A) (A) (A) (A)
                 (A) (A) (A) (A) (A) (A) (A) (A) (A) (A) (A) (A)
                 (A) (A) (A) (A) (A) (A) (A) (A) (A) (A) (A) (A)
                 (A) (A) (A) (A) (A) (A) (A) (A) (A) (A) (A) (A)
                 (A) (A) (A) (A) (A) (A) (A) (A) (A) (A) (A) (A)
                 (A) (A) (A) (A) (A) (A) (A) (A) (A) (A) (A) (A)
                 (A) (A) (A) (A) (A) (A) (A) (A) (A) (A) (A) (A)
                 (A) (A) (A) (A) (A) (A) (A) (A) (A) (A) (A) (A)
                 (A) (A) (A) (A) (A) (A) (A) (A) (A) (A) (A) (A)
                 (A) (A) (A) (A) (A) (A) (A) (A) (A) (A) (A) (A)
                 (A) (A) (A) (A) (A) (A) (A) (A) (A) (A) (A) (A)
                 (A) (A) (A) (A) (A) (A) (A) (A) (A) (A) (A) (A)
                 (A) (A) (A) (A) (A) (A) (A) (A) (A) (A) (A) (A)
                 (A) (A) (A) (A) (A) (A) (A) (A) (A) (A) (A) (A)
                 (A) (A) (A) (A) (A) (A) (A) (A) (A) (A) (A) (A)
                 (A) (A) (A) (A) (A) (A) (A) (A) (A) (A) (A) (A)
                 (A) (A) (A) (A) (A) (A) (A) (A) (A) (A) (A) (A)
                 (A) (A) (A) (A) (A) (A) (A) (A) (A)
 The electronic state is 1-A.
 Alpha  occ. eigenvalues --  -19.14865 -19.13098 -14.44520 -14.40806 -14.37099
 Alpha  occ. eigenvalues --  -14.33893 -14.33101 -10.31132 -10.30996 -10.27673
 Alpha  occ. eigenvalues --  -10.27209 -10.25414 -10.23899 -10.23415 -10.22758
 Alpha  occ. eigenvalues --  -10.22477 -10.22260 -10.21796 -10.21429 -10.21137
 Alpha  occ. eigenvalues --  -10.21119 -10.21027 -10.20852 -10.20640 -10.20509
 Alpha  occ. eigenvalues --  -10.19968 -10.19846 -10.19737 -10.19669 -10.19590
 Alpha  occ. eigenvalues --  -10.18988 -10.18930 -10.18889 -10.18714 -10.18609
 Alpha  occ. eigenvalues --  -10.18525 -10.18330 -10.17627  -1.10515  -1.05268
 Alpha  occ. eigenvalues --   -1.04408  -0.97500  -0.93963  -0.90517  -0.88134
 Alpha  occ. eigenvalues --   -0.86802  -0.86006  -0.83664  -0.82045  -0.80575
 Alpha  occ. eigenvalues --   -0.79086  -0.78647  -0.78030  -0.75259  -0.75042
 Alpha  occ. eigenvalues --   -0.74755  -0.74344  -0.72134  -0.69946  -0.67717
 Alpha  occ. eigenvalues --   -0.65627  -0.65050  -0.64611  -0.63898  -0.62625
 Alpha  occ. eigenvalues --   -0.62514  -0.61278  -0.60593  -0.60376  -0.58629
 Alpha  occ. eigenvalues --   -0.56906  -0.55845  -0.55309  -0.52764  -0.52261
 Alpha  occ. eigenvalues --   -0.51622  -0.51078  -0.50253  -0.49175  -0.48694
 Alpha  occ. eigenvalues --   -0.48560  -0.47538  -0.47221  -0.47133  -0.46408
 Alpha  occ. eigenvalues --   -0.46279  -0.46163  -0.45463  -0.45257  -0.44854
 Alpha  occ. eigenvalues --   -0.44041  -0.43303  -0.43050  -0.42732  -0.42177
 Alpha  occ. eigenvalues --   -0.42070  -0.41983  -0.41119  -0.40365  -0.40070
 Alpha  occ. eigenvalues --   -0.39854  -0.39063  -0.38890  -0.38793  -0.37915
 Alpha  occ. eigenvalues --   -0.37767  -0.37519  -0.37378  -0.37046  -0.36741
 Alpha  occ. eigenvalues --   -0.36332  -0.35864  -0.35367  -0.35292  -0.35207
 Alpha  occ. eigenvalues --   -0.34659  -0.34630  -0.34234  -0.34104  -0.33536
 Alpha  occ. eigenvalues --   -0.33423  -0.32470  -0.32340  -0.31068  -0.30387
 Alpha  occ. eigenvalues --   -0.30232  -0.29251  -0.28397  -0.27187  -0.26547
 Alpha  occ. eigenvalues --   -0.26039  -0.25560  -0.25166  -0.24060  -0.23398
 Alpha virt. eigenvalues --   -0.05514  -0.05204  -0.03298  -0.01815  -0.00934
 Alpha virt. eigenvalues --   -0.00571   0.00939   0.03809   0.04249   0.06689
 Alpha virt. eigenvalues --    0.07088   0.07916   0.08280   0.08441   0.09377
 Alpha virt. eigenvalues --    0.10229   0.11043   0.11438   0.11693   0.12106
 Alpha virt. eigenvalues --    0.12438   0.12503   0.12958   0.13576   0.13910
 Alpha virt. eigenvalues --    0.14101   0.14355   0.14710   0.15198   0.15246
 Alpha virt. eigenvalues --    0.15358   0.15667   0.16460   0.16619   0.16840
 Alpha virt. eigenvalues --    0.16936   0.17044   0.17319   0.17485   0.17779
 Alpha virt. eigenvalues --    0.18013   0.18674   0.19084   0.19285   0.19899
 Alpha virt. eigenvalues --    0.20279   0.20624   0.20869   0.21019   0.21511
 Alpha virt. eigenvalues --    0.21857   0.21931   0.22294   0.22584   0.23298
 Alpha virt. eigenvalues --    0.23920   0.24177   0.24905   0.25453   0.25641
 Alpha virt. eigenvalues --    0.25777   0.26608   0.28227   0.28592   0.29329
 Alpha virt. eigenvalues --    0.29448   0.30208   0.30970   0.31237   0.31701
 Alpha virt. eigenvalues --    0.32153   0.32601   0.32781   0.33101   0.33524
 Alpha virt. eigenvalues --    0.33844   0.34656   0.36085   0.36583   0.37833
 Alpha virt. eigenvalues --    0.39326   0.39653   0.42030   0.46132   0.46562
 Alpha virt. eigenvalues --    0.47155   0.47920   0.48244   0.49107   0.49526
 Alpha virt. eigenvalues --    0.50382   0.50773   0.51255   0.51698   0.51861
 Alpha virt. eigenvalues --    0.52544   0.52818   0.52971   0.53255   0.53371
 Alpha virt. eigenvalues --    0.53453   0.53910   0.54136   0.54352   0.54493
 Alpha virt. eigenvalues --    0.54772   0.55108   0.55490   0.56435   0.56629
 Alpha virt. eigenvalues --    0.57090   0.57438   0.58044   0.58507   0.58913
 Alpha virt. eigenvalues --    0.59315   0.59450   0.59571   0.59694   0.60697
 Alpha virt. eigenvalues --    0.60918   0.61649   0.61848   0.62239   0.62584
 Alpha virt. eigenvalues --    0.63154   0.63547   0.63936   0.64386   0.64773
 Alpha virt. eigenvalues --    0.64932   0.65285   0.65561   0.65986   0.66126
 Alpha virt. eigenvalues --    0.66183   0.66834   0.67236   0.67614   0.68057
 Alpha virt. eigenvalues --    0.68157   0.68298   0.68653   0.69679   0.70856
 Alpha virt. eigenvalues --    0.71627   0.72541   0.72757   0.72905   0.73543
 Alpha virt. eigenvalues --    0.74874   0.75839   0.76358   0.76877   0.77533
 Alpha virt. eigenvalues --    0.78396   0.78872   0.79029   0.79338   0.79757
 Alpha virt. eigenvalues --    0.79939   0.80804   0.80997   0.81147   0.81649
 Alpha virt. eigenvalues --    0.81871   0.82678   0.82766   0.83383   0.83769
 Alpha virt. eigenvalues --    0.84279   0.84458   0.84833   0.84973   0.85236
 Alpha virt. eigenvalues --    0.85967   0.86144   0.86782   0.87022   0.87309
 Alpha virt. eigenvalues --    0.87624   0.88038   0.88167   0.88217   0.88872
 Alpha virt. eigenvalues --    0.88998   0.89867   0.90066   0.90138   0.90989
 Alpha virt. eigenvalues --    0.91051   0.91463   0.92073   0.92471   0.92835
 Alpha virt. eigenvalues --    0.93628   0.94569   0.94597   0.94789   0.95401
 Alpha virt. eigenvalues --    0.95727   0.95928   0.96300   0.96580   0.97223
 Alpha virt. eigenvalues --    0.97518   0.98202   0.98282   0.99362   0.99796
 Alpha virt. eigenvalues --    1.00780   1.00901   1.01623   1.02466   1.02683
 Alpha virt. eigenvalues --    1.03467   1.04360   1.04536   1.05674   1.06561
 Alpha virt. eigenvalues --    1.08060   1.08788   1.08882   1.09278   1.09731
 Alpha virt. eigenvalues --    1.11322   1.11911   1.12456   1.14264   1.15128
 Alpha virt. eigenvalues --    1.15660   1.15791   1.16605   1.16734   1.17536
 Alpha virt. eigenvalues --    1.18210   1.19404   1.20592   1.21551   1.21678
 Alpha virt. eigenvalues --    1.22886   1.24192   1.24962   1.25100   1.26756
 Alpha virt. eigenvalues --    1.27645   1.28265   1.29123   1.31826   1.32644
 Alpha virt. eigenvalues --    1.33583   1.33948   1.34683   1.35131   1.36716
 Alpha virt. eigenvalues --    1.37671   1.38319   1.38826   1.40132   1.40999
 Alpha virt. eigenvalues --    1.41771   1.42616   1.43124   1.44015   1.44358
 Alpha virt. eigenvalues --    1.44624   1.45640   1.46508   1.46712   1.47141
 Alpha virt. eigenvalues --    1.48072   1.48720   1.48986   1.49522   1.49765
 Alpha virt. eigenvalues --    1.50902   1.51801   1.52317   1.52746   1.54097
 Alpha virt. eigenvalues --    1.55161   1.55826   1.56136   1.57639   1.58554
 Alpha virt. eigenvalues --    1.60251   1.61333   1.61787   1.62890   1.64293
 Alpha virt. eigenvalues --    1.64654   1.66620   1.68493   1.69127   1.69491
 Alpha virt. eigenvalues --    1.70125   1.73154   1.73348   1.73968   1.75054
 Alpha virt. eigenvalues --    1.75630   1.76418   1.77055   1.77802   1.78030
 Alpha virt. eigenvalues --    1.78295   1.78854   1.79644   1.80615   1.81005
 Alpha virt. eigenvalues --    1.81482   1.82659   1.83134   1.83334   1.83480
 Alpha virt. eigenvalues --    1.83856   1.84356   1.84697   1.85814   1.86787
 Alpha virt. eigenvalues --    1.86891   1.87341   1.88929   1.89818   1.90407
 Alpha virt. eigenvalues --    1.90675   1.91023   1.91682   1.92917   1.93413
 Alpha virt. eigenvalues --    1.93743   1.94150   1.94809   1.95897   1.96158
 Alpha virt. eigenvalues --    1.96548   1.96725   1.97251   1.97502   1.98406
 Alpha virt. eigenvalues --    1.98954   2.00016   2.00690   2.01465   2.01980
 Alpha virt. eigenvalues --    2.02715   2.03403   2.03977   2.04423   2.05057
 Alpha virt. eigenvalues --    2.05910   2.07346   2.07562   2.08421   2.09096
 Alpha virt. eigenvalues --    2.09775   2.10517   2.11626   2.12433   2.13042
 Alpha virt. eigenvalues --    2.13810   2.13860   2.14323   2.14819   2.15399
 Alpha virt. eigenvalues --    2.15649   2.16475   2.17652   2.18346   2.19926
 Alpha virt. eigenvalues --    2.21087   2.21925   2.22804   2.23951   2.24166
 Alpha virt. eigenvalues --    2.25091   2.26494   2.27508   2.28192   2.28543
 Alpha virt. eigenvalues --    2.28865   2.29738   2.30628   2.31903   2.32289
 Alpha virt. eigenvalues --    2.32730   2.33549   2.34182   2.34594   2.35077
 Alpha virt. eigenvalues --    2.36741   2.37131   2.37779   2.38134   2.38441
 Alpha virt. eigenvalues --    2.39510   2.39690   2.40946   2.41757   2.43229
 Alpha virt. eigenvalues --    2.43752   2.43854   2.45801   2.46538   2.48004
 Alpha virt. eigenvalues --    2.48705   2.49192   2.51179   2.52533   2.52840
 Alpha virt. eigenvalues --    2.54028   2.54507   2.55600   2.56934   2.57601
 Alpha virt. eigenvalues --    2.58136   2.58535   2.59522   2.61040   2.61881
 Alpha virt. eigenvalues --    2.62918   2.64468   2.65073   2.65426   2.66317
 Alpha virt. eigenvalues --    2.67193   2.68033   2.68953   2.69137   2.71306
 Alpha virt. eigenvalues --    2.71983   2.73084   2.73512   2.74327   2.76297
 Alpha virt. eigenvalues --    2.77170   2.77744   2.79526   2.80055   2.80913
 Alpha virt. eigenvalues --    2.81174   2.83218   2.84642   2.85052   2.86717
 Alpha virt. eigenvalues --    2.87520   2.89391   2.89966   2.93042   2.96077
 Alpha virt. eigenvalues --    2.96455   2.97640   2.99435   3.03103   3.04487
 Alpha virt. eigenvalues --    3.07531   3.08688   3.22780   3.26823   3.28263
 Alpha virt. eigenvalues --    3.38685   3.46890   3.48291   3.77932   3.85383
 Alpha virt. eigenvalues --    4.04317   4.04529   4.06842   4.07579   4.08619
 Alpha virt. eigenvalues --    4.10602   4.11148   4.12178   4.13275   4.16006
 Alpha virt. eigenvalues --    4.16240   4.16828   4.18538   4.23207   4.24852
 Alpha virt. eigenvalues --    4.26260   4.29920   4.30211   4.30967   4.33657
 Alpha virt. eigenvalues --    4.34099   4.34614   4.38956   4.43222   4.43952
 Alpha virt. eigenvalues --    4.46301   4.48965   4.50337   4.52601   4.55945
 Alpha virt. eigenvalues --    4.65527   4.68632   4.70791   4.71834   4.78121
 Alpha virt. eigenvalues --    4.82921
          Condensed to atoms (all electrons):
 Mulliken charges:
               1
     1  C   -0.445572
     2  C   -0.264467
     3  C   -0.324337
     4  C    0.356413
     5  C   -0.025697
     6  C   -0.447438
     7  C    0.181996
     8  C   -0.200470
     9  C   -0.165326
    10  C    0.071452
    11  C    0.087070
    12  C   -0.188056
    13  C   -0.116564
    14  C   -0.134111
    15  C   -0.140927
    16  C    0.094515
    17  C    0.228723
    18  N   -0.484174
    19  C   -0.154696
    20  C   -0.193375
    21  C    0.609574
    22  O   -0.533435
    23  N   -0.617473
    24  C    0.021009
    25  C   -0.281447
    26  C   -0.285527
    27  C   -0.071067
    28  C   -0.262947
    29  C   -0.357820
    30  C    0.253067
    31  O   -0.381950
    32  C   -0.295473
    33  C   -0.289911
    34  C    0.799649
    35  N   -0.519775
    36  C    0.181141
    37  N   -0.279652
    38  N   -0.445952
    39  H    0.150489
    40  H    0.152142
    41  H    0.141292
    42  H    0.153437
    43  H    0.167061
    44  H    0.152392
    45  H    0.180127
    46  H    0.154373
    47  H    0.196530
    48  H    0.124743
    49  H    0.134494
    50  H    0.145580
    51  H    0.143728
    52  H    0.145461
    53  H    0.161510
    54  H    0.150608
    55  H    0.171826
    56  H    0.192095
    57  H    0.165541
    58  H    0.143432
    59  H    0.131492
    60  H    0.141693
    61  H    0.128228
    62  H    0.147105
    63  H    0.147768
    64  H    0.162783
    65  H    0.165543
    66  H    0.104255
    67  H    0.178926
    68  H    0.127830
    69  H    0.151225
    70  H    0.142623
    71  H    0.166697
 Sum of Mulliken charges =  -0.00000
 Mulliken charges with hydrogens summed into heavy atoms:
               1
     1  C   -0.001648
     2  C    0.056031
     3  C    0.008182
     4  C    0.356413
     5  C   -0.025697
     6  C   -0.096534
     7  C    0.181996
     8  C   -0.075727
     9  C   -0.030833
    10  C    0.071452
    11  C    0.087070
    12  C   -0.042476
    13  C    0.027165
    14  C    0.011350
    15  C    0.020583
    16  C    0.094515
    17  C    0.228723
    18  N   -0.484174
    19  C   -0.004088
    20  C   -0.021549
    21  C    0.609574
    22  O   -0.533435
    23  N   -0.617473
    24  C    0.213104
    25  C    0.027526
    26  C   -0.012342
    27  C    0.057161
    28  C    0.031926
    29  C   -0.029493
    30  C    0.357321
    31  O   -0.381950
    32  C    0.011282
    33  C    0.003937
    34  C    0.799649
    35  N   -0.519775
    36  C    0.347839
    37  N   -0.279652
    38  N   -0.445952
 Electronic spatial extent (au):  <R**2>=          29309.4163
 Charge=              0.0000 electrons
 Dipole moment (field-independent basis, Debye):
    X=             -3.7760    Y=              5.4078    Z=             -1.9589  Tot=              6.8804
 Quadrupole moment (field-independent basis, Debye-Ang):
   XX=           -228.3441   YY=           -235.5153   ZZ=           -221.4815
   XY=              1.6086   XZ=             28.7207   YZ=             11.8544
 Traceless Quadrupole moment (field-independent basis, Debye-Ang):
   XX=              0.1029   YY=             -7.0683   ZZ=              6.9655
   XY=              1.6086   XZ=             28.7207   YZ=             11.8544
 Octapole moment (field-independent basis, Debye-Ang**2):
  XXX=           -588.6739  YYY=             95.6938  ZZZ=            -15.7032  XYY=            -14.4236
  XXY=            184.7106  XXZ=            -50.4804  XZZ=             35.3942  YZZ=             28.4115
  YYZ=            -31.2741  XYZ=           -102.9835
 Hexadecapole moment (field-independent basis, Debye-Ang**3):
 XXXX=         -32290.7007 YYYY=          -8428.4045 ZZZZ=          -1955.2799 XXXY=           2224.4106
 XXXZ=           1880.8474 YYYX=           -103.0124 YYYZ=            149.6178 ZZZX=             61.8130
 ZZZY=             13.9931 XXYY=          -7030.7956 XXZZ=          -5090.9658 YYZZ=          -1677.4474
 XXYZ=             51.9293 YYXZ=            329.1141 ZZXY=           -154.1203
 N-N= 3.920097974304D+03 E-N=-1.161107698190D+04  KE= 1.609901555843D+03
 No NMR shielding tensors so no spin-rotation constants.
 Leave Link  601 at Fri Nov  4 23:02:54 2022, MaxMem=   805306368 cpu:               1.9 elap:               0.3
 (Enter /home/wykgroup/appl/g16/l9999.exe)
 1\1\GINC-NODE55\FOpt\RB3LYP\6-31G(d)\C31H33N5O2\WYKGROUP\04-Nov-2022\0
 \\#p b3lyp/6-31g(d) opt SCF=XQC\\Gaussian input prepared by ASE\\0,1\C
 ,-3.2158809118,-4.1723640759,2.162832896\C,-2.2059474456,-3.0911982978
 ,1.7689725823\C,-1.2003322949,-3.6045520605,0.7130513053\C,-0.18039715
 85,-2.5746805093,0.316230731\C,-0.1639856648,-1.811647557,-0.814426849
 6\C,-1.2090374856,-1.9154199736,-1.9126217829\C,-2.4356973491,-1.03713
 84913,-1.701661648\C,-3.6861529647,-1.6032610173,-1.4276976308\C,-4.81
 15792959,-0.8037648463,-1.2336812037\C,-4.7234723895,0.5942823176,-1.3
 16255697\C,-5.9280200916,1.4302383346,-1.0753292981\C,-6.757293654,1.1
 508894197,0.022297388\C,-7.8971121971,1.9051312977,0.2922872743\C,-8.2
 445908802,2.9742660196,-0.5357382593\C,-7.4470804644,3.2743952255,-1.6
 342096841\C,-6.2981575687,2.5123944,-1.9121995235\C,-5.5522637835,2.85
 23342749,-3.0907511389\N,-4.9893883118,3.169343496,-4.0585728035\C,-3.
 4694091571,1.160811927,-1.5995626783\C,-2.3467478859,0.3597387197,-1.7
 888193549\C,0.894984283,-0.8103203198,-1.0494747884\O,0.9186312831,-0.
 0963796873,-2.0504163138\N,1.909908351,-0.6952072426,-0.0704170471\C,2
 .9912944702,0.3078620918,-0.2780300194\C,2.8978621904,1.4684091871,0.7
 286032699\C,4.1336965099,2.363443239,0.5592402461\C,5.424465808,1.6490
 860773,1.0305227866\C,6.7032470375,2.2901634378,0.45038766\C,6.9391332
 642,2.093294817,-1.0496321505\C,8.1850840787,2.7783733483,-1.565905171
 \O,8.9461783609,3.4372024359,-0.8919421795\C,5.3304095357,0.1101107646
 ,0.8210939218\C,4.4150406436,-0.3214865011,-0.3383300594\C,1.868999537
 4,-1.4702772412,1.052211065\N,2.7030525257,-1.5137343428,2.0812062774\
 C,2.138823408,-2.4770695387,2.8656914438\N,1.0297027046,-3.0342731136,
 2.4142296002\N,0.8529324371,-2.370022545,1.2219385045\H,-3.9209860804,
 -3.7945476306,2.911313933\H,-2.7133839301,-5.0483119305,2.5900465951\H
 ,-3.7989755574,-4.5110164584,1.2972899328\H,-2.7304308821,-2.215976346
 5,1.3678469078\H,-1.6509958423,-2.7615484068,2.6537447982\H,-1.7427392
 718,-3.9351825,-0.1767643914\H,-0.671978421,-4.473521735,1.1211261593\
 H,-1.5290259958,-2.955925315,-2.0243231814\H,-0.7196423337,-1.62475823
 83,-2.8468249844\H,-3.7896149849,-2.6852225801,-1.3806661439\H,-5.7745
 488601,-1.2702543472,-1.0440698687\H,-6.4814421616,0.3373325613,0.6864
 499938\H,-8.5095021445,1.6628993169,1.156473374\H,-9.1294845293,3.5685
 402397,-0.3287878804\H,-7.7059009807,4.0934919624,-2.2976180347\H,-3.3
 659445362,2.2393114838,-1.6632171221\H,-1.3876601282,0.8170245025,-2.0
 117495187\H,2.748060325,0.7052574834,-1.2629739916\H,2.8512908663,1.08
 59427158,1.7541956406\H,1.9755441006,2.0312091605,0.543252358\H,4.2125
 688164,2.65045253,-0.4995843572\H,4.0062987018,3.2996052371,1.11545273
 45\H,5.4880566741,1.8082666573,2.1157851914\H,7.5740209956,1.893014204
 5,0.9867590408\H,6.6948389032,3.3670358301,0.6625760413\H,6.0995591976
 ,2.4634818741,-1.6584864083\H,7.0298858052,1.0283067904,-1.3142400839\
 H,8.374680296,2.6370407953,-2.6551473863\H,4.9425008007,-0.3515651397,
 1.7329938074\H,6.3323818671,-0.3105847969,0.6634614856\H,4.3398808312,
 -1.413861341,-0.3530038975\H,4.8626763342,-0.0370421508,-1.2979967055\
 H,2.5691126513,-2.7778658984,3.8115032924\\Version=ES64L-G16RevB.01\St
 ate=1-A\HF=-1625.3875843\RMSD=7.648e-09\RMSF=2.589e-06\Dipole=-1.63143
 5,-1.548675,1.5058725\Quadrupole=3.9601312,3.9444158,-7.904547,-11.793
 303,-17.6655661,8.0168525\PG=C01 [X(C31H33N5O2)]\\@


 At the touch of love, everyone becomes a poet.
                                -- Plato
 Job cpu time:       0 days  4 hours 58 minutes 48.6 seconds.
 Elapsed time:       0 days  0 hours 42 minutes 48.1 seconds.
 File lengths (MBytes):  RWF=    255 Int=      0 D2E=      0 Chk=     34 Scr=      1
 Normal termination of Gaussian 16 at Fri Nov  4 23:02:54 2022.
