 Entering Gaussian System, Link 0=/home/wykgroup/appl/g16/g16
 Input=calculation/no_transfer_pubchem_sampling_6_b3lyp/92569305_rwf.com
 Output=calculation/no_transfer_pubchem_sampling_6_b3lyp/92569305_rwf.log
 Initial command:
 /home/wykgroup/appl/g16/l1.exe "/userdata/scratch/wykgroup/khs/calculation/no_transfer_pubchem_sampling_6_b3lyp/92569305_rwf/Gau-16670.inp" -scrdir="/userdata/scratch/wykgroup/khs/calculation/no_transfer_pubchem_sampling_6_b3lyp/92569305_rwf/"
 Entering Link 1 = /home/wykgroup/appl/g16/l1.exe PID=     16671.
  
 Copyright (c) 1988-2017, Gaussian, Inc.  All Rights Reserved.
  
 This is part of the Gaussian(R) 16 program.  It is based on
 the Gaussian(R) 09 system (copyright 2009, Gaussian, Inc.),
 the Gaussian(R) 03 system (copyright 2003, Gaussian, Inc.),
 the Gaussian(R) 98 system (copyright 1998, Gaussian, Inc.),
 the Gaussian(R) 94 system (copyright 1995, Gaussian, Inc.),
 the Gaussian 92(TM) system (copyright 1992, Gaussian, Inc.),
 the Gaussian 90(TM) system (copyright 1990, Gaussian, Inc.),
 the Gaussian 88(TM) system (copyright 1988, Gaussian, Inc.),
 the Gaussian 86(TM) system (copyright 1986, Carnegie Mellon
 University), and the Gaussian 82(TM) system (copyright 1983,
 Carnegie Mellon University). Gaussian is a federally registered
 trademark of Gaussian, Inc.
  
 This software contains proprietary and confidential information,
 including trade secrets, belonging to Gaussian, Inc.
  
 This software is provided under written license and may be
 used, copied, transmitted, or stored only in accord with that
 written license.
  
 The following legend is applicable only to US Government
 contracts under FAR:
  
                    RESTRICTED RIGHTS LEGEND
  
 Use, reproduction and disclosure by the US Government is
 subject to restrictions as set forth in subparagraphs (a)
 and (c) of the Commercial Computer Software - Restricted
 Rights clause in FAR 52.227-19.
  
 Gaussian, Inc.
 340 Quinnipiac St., Bldg. 40, Wallingford CT 06492
  
  
 ---------------------------------------------------------------
 Warning -- This program may not be used in any manner that
 competes with the business of Gaussian, Inc. or will provide
 assistance to any competitor of Gaussian, Inc.  The licensee
 of this program is prohibited from giving any competitor of
 Gaussian, Inc. access to this program.  By using this program,
 the user acknowledges that Gaussian, Inc. is engaged in the
 business of creating and licensing software in the field of
 computational chemistry and represents and warrants to the
 licensee that it is not a competitor of Gaussian, Inc. and that
 it will not use this program in any manner prohibited above.
 ---------------------------------------------------------------
  

 Cite this work as:
 Gaussian 16, Revision B.01,
 M. J. Frisch, G. W. Trucks, H. B. Schlegel, G. E. Scuseria, 
 M. A. Robb, J. R. Cheeseman, G. Scalmani, V. Barone, 
 G. A. Petersson, H. Nakatsuji, X. Li, M. Caricato, A. V. Marenich, 
 J. Bloino, B. G. Janesko, R. Gomperts, B. Mennucci, H. P. Hratchian, 
 J. V. Ortiz, A. F. Izmaylov, J. L. Sonnenberg, D. Williams-Young, 
 F. Ding, F. Lipparini, F. Egidi, J. Goings, B. Peng, A. Petrone, 
 T. Henderson, D. Ranasinghe, V. G. Zakrzewski, J. Gao, N. Rega, 
 G. Zheng, W. Liang, M. Hada, M. Ehara, K. Toyota, R. Fukuda, 
 J. Hasegawa, M. Ishida, T. Nakajima, Y. Honda, O. Kitao, H. Nakai, 
 T. Vreven, K. Throssell, J. A. Montgomery, Jr., J. E. Peralta, 
 F. Ogliaro, M. J. Bearpark, J. J. Heyd, E. N. Brothers, K. N. Kudin, 
 V. N. Staroverov, T. A. Keith, R. Kobayashi, J. Normand, 
 K. Raghavachari, A. P. Rendell, J. C. Burant, S. S. Iyengar, 
 J. Tomasi, M. Cossi, J. M. Millam, M. Klene, C. Adamo, R. Cammi, 
 J. W. Ochterski, R. L. Martin, K. Morokuma, O. Farkas, 
 J. B. Foresman, and D. J. Fox, Gaussian, Inc., Wallingford CT, 2016.
 
 ******************************************
 Gaussian 16:  ES64L-G16RevB.01 20-Dec-2017
                 5-Nov-2022 
 ******************************************
 %chk=calculation/no_transfer_pubchem_sampling_6_b3lyp/92569305_rwf.chk
 %rwf=calculation/no_transfer_pubchem_sampling_6_b3lyp/92569305_rwf.rwf
 %nprocshared=14
 Will use up to   14 processors via shared memory.
 %mem=3GB
 -------------------------------------------------------------------
 #p b3lyp/6-31g(d) 6D 10F nosymm GFInput td=(50-50,nstate=2) SCF=XQC
 -------------------------------------------------------------------
 1/38=1,172=1/1;
 2/12=2,15=1,17=6,18=5,40=1/2;
 3/5=1,6=6,7=1,8=22,11=9,24=10,25=1,30=1,74=-5/1,2,3,8;
 4//1;
 5/5=2,8=3,13=1,38=5/2,8;
 8/6=1,10=2,108=2/1;
 9/41=2,42=1,48=2,70=2/14;
 6/7=2,8=2,9=2,10=2/1;
 99/5=1,9=1/99;
 Leave Link    1 at Sat Nov  5 09:40:19 2022, MaxMem=   402653184 cpu:               4.4 elap:               0.3
 (Enter /home/wykgroup/appl/g16/l101.exe)
 ------------------------------
 Gaussian input prepared by ASE
 ------------------------------
 Symbolic Z-matrix:
 Charge =  0 Multiplicity = 1
 C                     7.99581  -1.50219   1.12213 
 C                     6.55459  -1.65061   0.66591 
 O                     5.89694  -0.40856   0.90849 
 C                     4.57682  -0.28993   0.57933 
 C                     3.98767   0.95257   0.84337 
 C                     2.64717   1.17338   0.54312 
 C                     1.84693   0.16959  -0.02198 
 C                     0.38119   0.38967  -0.45058 
 N                    -0.29031   1.60759   0.03144 
 C                     0.03559   2.87661  -0.6023 
 C                    -1.15009   3.82935  -0.67974 
 C                    -1.00135   5.18066  -0.34897 
 C                    -2.06626   6.07738  -0.45972 
 C                    -3.29141   5.59863  -0.90387 
 F                    -4.33196   6.45404  -1.0119 
 C                    -3.48061   4.26084  -1.23614 
 C                    -2.404     3.38386  -1.12063 
 C                    -0.5429    1.64226   1.47199 
 C                    -1.32259   0.38982   1.89561 
 C                    -0.65682  -0.8762    1.33098 
 N                    -0.4121   -0.80076  -0.12088 
 C                    -1.62947  -0.92636  -0.93261 
 C                    -2.2665   -2.30091  -0.83585 
 C                    -1.49908  -3.46264  -0.99772 
 C                    -2.1058   -4.71522  -0.94549 
 C                    -3.48248  -4.8252   -0.73506 
 C                    -4.27133  -3.68164  -0.57222 
 C                    -5.76556  -3.78605  -0.36873 
 C                    -3.64154  -2.42969  -0.61977 
 C                     2.45377  -1.06531  -0.27889 
 C                     3.79774  -1.30583   0.01184 
 H                     8.03933  -1.26037   2.18871 
 H                     8.49526  -0.70203   0.56691 
 H                     8.54264  -2.43635   0.95426 
 H                     6.50598  -1.89697  -0.40468 
 H                     6.04948  -2.45573   1.21894 
 H                     4.59846   1.7329    1.28713 
 H                     2.22693   2.14701   0.7637 
 H                     0.37924   0.47089  -1.54651 
 H                     0.38164   2.64855  -1.62019 
 H                     0.87001   3.41404  -0.1174 
 H                    -0.03767   5.54277   0.00244 
 H                    -1.95975   7.1261   -0.20192 
 H                    -4.45551   3.92711  -1.57716 
 H                    -2.53305   2.33377  -1.36482 
 H                     0.3894    1.71329   2.06096 
 H                    -1.12784   2.54229   1.69044 
 H                    -1.36907   0.33077   2.99046 
 H                    -2.35464   0.46858   1.53322 
 H                    -1.26507  -1.76317   1.53154 
 H                     0.31276  -1.03068   1.8194 
 H                    -2.38631  -0.16051  -0.69745 
 H                    -1.33016  -0.74628  -1.97456 
 H                    -0.42749  -3.37371  -1.15011 
 H                    -1.50539  -5.61358  -1.06652 
 H                    -3.94683  -5.80809  -0.69283 
 H                    -6.13597  -3.00116   0.29999 
 H                    -6.30589  -3.68176  -1.31936 
 H                    -6.04533  -4.75445   0.05928 
 H                    -4.24124  -1.53065  -0.48391 
 H                     1.85284  -1.86154  -0.70668 
 H                     4.22123  -2.28024  -0.20445 
 
 ITRead=  0  0  0  0  0  0  0  0  0  0  0  0  0  0  0  0  0  0  0  0
 ITRead=  0  0  0  0  0  0  0  0  0  0  0  0  0  0  0  0  0  0  0  0
 ITRead=  0  0  0  0  0  0  0  0  0  0  0  0  0  0  0  0  0  0  0  0
 ITRead=  0  0
 MicOpt= -1 -1 -1 -1 -1 -1 -1 -1 -1 -1 -1 -1 -1 -1 -1 -1 -1 -1 -1 -1
 MicOpt= -1 -1 -1 -1 -1 -1 -1 -1 -1 -1 -1 -1 -1 -1 -1 -1 -1 -1 -1 -1
 MicOpt= -1 -1 -1 -1 -1 -1 -1 -1 -1 -1 -1 -1 -1 -1 -1 -1 -1 -1 -1 -1
 MicOpt= -1 -1
 NAtoms=     62 NQM=       62 NQMF=       0 NMMI=      0 NMMIF=      0
                NMic=       0 NMicF=      0.
                    Isotopes and Nuclear Properties:
 (Nuclear quadrupole moments (NQMom) in fm**2, nuclear magnetic moments (NMagM)
  in nuclear magnetons)

  Atom         1           2           3           4           5           6           7           8           9          10
 IAtWgt=          12          12          16          12          12          12          12          12          14          12
 AtmWgt=  12.0000000  12.0000000  15.9949146  12.0000000  12.0000000  12.0000000  12.0000000  12.0000000  14.0030740  12.0000000
 NucSpn=           0           0           0           0           0           0           0           0           2           0
 AtZEff=  -0.0000000  -0.0000000  -0.0000000  -0.0000000  -0.0000000  -0.0000000  -0.0000000  -0.0000000  -0.0000000  -0.0000000
 NQMom=    0.0000000   0.0000000   0.0000000   0.0000000   0.0000000   0.0000000   0.0000000   0.0000000   2.0440000   0.0000000
 NMagM=    0.0000000   0.0000000   0.0000000   0.0000000   0.0000000   0.0000000   0.0000000   0.0000000   0.4037610   0.0000000
 AtZNuc=   6.0000000   6.0000000   8.0000000   6.0000000   6.0000000   6.0000000   6.0000000   6.0000000   7.0000000   6.0000000

  Atom        11          12          13          14          15          16          17          18          19          20
 IAtWgt=          12          12          12          12          19          12          12          12          12          12
 AtmWgt=  12.0000000  12.0000000  12.0000000  12.0000000  18.9984032  12.0000000  12.0000000  12.0000000  12.0000000  12.0000000
 NucSpn=           0           0           0           0           1           0           0           0           0           0
 AtZEff=  -0.0000000  -0.0000000  -0.0000000  -0.0000000  -0.0000000  -0.0000000  -0.0000000  -0.0000000  -0.0000000  -0.0000000
 NQMom=    0.0000000   0.0000000   0.0000000   0.0000000   0.0000000   0.0000000   0.0000000   0.0000000   0.0000000   0.0000000
 NMagM=    0.0000000   0.0000000   0.0000000   0.0000000   2.6288670   0.0000000   0.0000000   0.0000000   0.0000000   0.0000000
 AtZNuc=   6.0000000   6.0000000   6.0000000   6.0000000   9.0000000   6.0000000   6.0000000   6.0000000   6.0000000   6.0000000

  Atom        21          22          23          24          25          26          27          28          29          30
 IAtWgt=          14          12          12          12          12          12          12          12          12          12
 AtmWgt=  14.0030740  12.0000000  12.0000000  12.0000000  12.0000000  12.0000000  12.0000000  12.0000000  12.0000000  12.0000000
 NucSpn=           2           0           0           0           0           0           0           0           0           0
 AtZEff=  -0.0000000  -0.0000000  -0.0000000  -0.0000000  -0.0000000  -0.0000000  -0.0000000  -0.0000000  -0.0000000  -0.0000000
 NQMom=    2.0440000   0.0000000   0.0000000   0.0000000   0.0000000   0.0000000   0.0000000   0.0000000   0.0000000   0.0000000
 NMagM=    0.4037610   0.0000000   0.0000000   0.0000000   0.0000000   0.0000000   0.0000000   0.0000000   0.0000000   0.0000000
 AtZNuc=   7.0000000   6.0000000   6.0000000   6.0000000   6.0000000   6.0000000   6.0000000   6.0000000   6.0000000   6.0000000

  Atom        31          32          33          34          35          36          37          38          39          40
 IAtWgt=          12           1           1           1           1           1           1           1           1           1
 AtmWgt=  12.0000000   1.0078250   1.0078250   1.0078250   1.0078250   1.0078250   1.0078250   1.0078250   1.0078250   1.0078250
 NucSpn=           0           1           1           1           1           1           1           1           1           1
 AtZEff=  -0.0000000  -0.0000000  -0.0000000  -0.0000000  -0.0000000  -0.0000000  -0.0000000  -0.0000000  -0.0000000  -0.0000000
 NQMom=    0.0000000   0.0000000   0.0000000   0.0000000   0.0000000   0.0000000   0.0000000   0.0000000   0.0000000   0.0000000
 NMagM=    0.0000000   2.7928460   2.7928460   2.7928460   2.7928460   2.7928460   2.7928460   2.7928460   2.7928460   2.7928460
 AtZNuc=   6.0000000   1.0000000   1.0000000   1.0000000   1.0000000   1.0000000   1.0000000   1.0000000   1.0000000   1.0000000

  Atom        41          42          43          44          45          46          47          48          49          50
 IAtWgt=           1           1           1           1           1           1           1           1           1           1
 AtmWgt=   1.0078250   1.0078250   1.0078250   1.0078250   1.0078250   1.0078250   1.0078250   1.0078250   1.0078250   1.0078250
 NucSpn=           1           1           1           1           1           1           1           1           1           1
 AtZEff=  -0.0000000  -0.0000000  -0.0000000  -0.0000000  -0.0000000  -0.0000000  -0.0000000  -0.0000000  -0.0000000  -0.0000000
 NQMom=    0.0000000   0.0000000   0.0000000   0.0000000   0.0000000   0.0000000   0.0000000   0.0000000   0.0000000   0.0000000
 NMagM=    2.7928460   2.7928460   2.7928460   2.7928460   2.7928460   2.7928460   2.7928460   2.7928460   2.7928460   2.7928460
 AtZNuc=   1.0000000   1.0000000   1.0000000   1.0000000   1.0000000   1.0000000   1.0000000   1.0000000   1.0000000   1.0000000

  Atom        51          52          53          54          55          56          57          58          59          60
 IAtWgt=           1           1           1           1           1           1           1           1           1           1
 AtmWgt=   1.0078250   1.0078250   1.0078250   1.0078250   1.0078250   1.0078250   1.0078250   1.0078250   1.0078250   1.0078250
 NucSpn=           1           1           1           1           1           1           1           1           1           1
 AtZEff=  -0.0000000  -0.0000000  -0.0000000  -0.0000000  -0.0000000  -0.0000000  -0.0000000  -0.0000000  -0.0000000  -0.0000000
 NQMom=    0.0000000   0.0000000   0.0000000   0.0000000   0.0000000   0.0000000   0.0000000   0.0000000   0.0000000   0.0000000
 NMagM=    2.7928460   2.7928460   2.7928460   2.7928460   2.7928460   2.7928460   2.7928460   2.7928460   2.7928460   2.7928460
 AtZNuc=   1.0000000   1.0000000   1.0000000   1.0000000   1.0000000   1.0000000   1.0000000   1.0000000   1.0000000   1.0000000

  Atom        61          62
 IAtWgt=           1           1
 AtmWgt=   1.0078250   1.0078250
 NucSpn=           1           1
 AtZEff=  -0.0000000  -0.0000000
 NQMom=    0.0000000   0.0000000
 NMagM=    2.7928460   2.7928460
 AtZNuc=   1.0000000   1.0000000
 Leave Link  101 at Sat Nov  5 09:40:19 2022, MaxMem=   402653184 cpu:               1.4 elap:               0.1
 (Enter /home/wykgroup/appl/g16/l202.exe)
 Symmetry turned off by external request.
 Stoichiometry    C27H31FN2O
 Framework group  C1[X(C27H31FN2O)]
 Deg. of freedom   180
 Full point group                 C1      NOp   1
                          Input orientation:                          
 ---------------------------------------------------------------------
 Center     Atomic      Atomic             Coordinates (Angstroms)
 Number     Number       Type             X           Y           Z
 ---------------------------------------------------------------------
      1          6           0        7.995809   -1.502190    1.122130
      2          6           0        6.554591   -1.650605    0.665913
      3          8           0        5.896939   -0.408561    0.908492
      4          6           0        4.576818   -0.289931    0.579326
      5          6           0        3.987670    0.952567    0.843373
      6          6           0        2.647167    1.173382    0.543116
      7          6           0        1.846932    0.169592   -0.021980
      8          6           0        0.381187    0.389671   -0.450585
      9          7           0       -0.290315    1.607587    0.031435
     10          6           0        0.035586    2.876612   -0.602304
     11          6           0       -1.150091    3.829350   -0.679737
     12          6           0       -1.001351    5.180665   -0.348974
     13          6           0       -2.066264    6.077385   -0.459723
     14          6           0       -3.291414    5.598632   -0.903869
     15          9           0       -4.331964    6.454042   -1.011903
     16          6           0       -3.480610    4.260843   -1.236143
     17          6           0       -2.404003    3.383864   -1.120631
     18          6           0       -0.542902    1.642260    1.471990
     19          6           0       -1.322594    0.389824    1.895615
     20          6           0       -0.656816   -0.876197    1.330979
     21          7           0       -0.412098   -0.800761   -0.120882
     22          6           0       -1.629468   -0.926355   -0.932611
     23          6           0       -2.266501   -2.300909   -0.835855
     24          6           0       -1.499078   -3.462639   -0.997721
     25          6           0       -2.105798   -4.715215   -0.945485
     26          6           0       -3.482483   -4.825197   -0.735060
     27          6           0       -4.271329   -3.681641   -0.572220
     28          6           0       -5.765562   -3.786054   -0.368728
     29          6           0       -3.641538   -2.429692   -0.619770
     30          6           0        2.453768   -1.065309   -0.278893
     31          6           0        3.797739   -1.305826    0.011836
     32          1           0        8.039335   -1.260366    2.188707
     33          1           0        8.495263   -0.702035    0.566914
     34          1           0        8.542643   -2.436346    0.954263
     35          1           0        6.505980   -1.896971   -0.404680
     36          1           0        6.049481   -2.455732    1.218942
     37          1           0        4.598456    1.732902    1.287132
     38          1           0        2.226932    2.147015    0.763701
     39          1           0        0.379241    0.470886   -1.546508
     40          1           0        0.381636    2.648551   -1.620188
     41          1           0        0.870008    3.414040   -0.117400
     42          1           0       -0.037673    5.542774    0.002444
     43          1           0       -1.959752    7.126098   -0.201917
     44          1           0       -4.455508    3.927107   -1.577157
     45          1           0       -2.533053    2.333775   -1.364817
     46          1           0        0.389399    1.713287    2.060963
     47          1           0       -1.127837    2.542286    1.690437
     48          1           0       -1.369074    0.330771    2.990462
     49          1           0       -2.354641    0.468584    1.533222
     50          1           0       -1.265075   -1.763171    1.531544
     51          1           0        0.312757   -1.030675    1.819405
     52          1           0       -2.386308   -0.160505   -0.697448
     53          1           0       -1.330162   -0.746281   -1.974563
     54          1           0       -0.427488   -3.373713   -1.150114
     55          1           0       -1.505395   -5.613576   -1.066525
     56          1           0       -3.946826   -5.808093   -0.692826
     57          1           0       -6.135973   -3.001161    0.299994
     58          1           0       -6.305891   -3.681761   -1.319355
     59          1           0       -6.045326   -4.754445    0.059278
     60          1           0       -4.241245   -1.530654   -0.483911
     61          1           0        1.852838   -1.861544   -0.706685
     62          1           0        4.221227   -2.280238   -0.204446
 ---------------------------------------------------------------------
 Rotational constants (GHZ):           0.1224550           0.0888142           0.0537955
 Leave Link  202 at Sat Nov  5 09:40:19 2022, MaxMem=   402653184 cpu:               0.1 elap:               0.0
 (Enter /home/wykgroup/appl/g16/l301.exe)
 Standard basis: 6-31G(d) (6D, 10F)
 Ernie: Thresh=  0.10000D-02 Tol=  0.10000D-05 Strict=F.
 AO basis set in the form of general basis input (Overlap normalization):
      1 0
 S   6 1.00       0.000000000000
      0.3047524880D+04  0.1834737132D-02
      0.4573695180D+03  0.1403732281D-01
      0.1039486850D+03  0.6884262226D-01
      0.2921015530D+02  0.2321844432D+00
      0.9286662960D+01  0.4679413484D+00
      0.3163926960D+01  0.3623119853D+00
 SP   3 1.00       0.000000000000
      0.7868272350D+01 -0.1193324198D+00  0.6899906659D-01
      0.1881288540D+01 -0.1608541517D+00  0.3164239610D+00
      0.5442492580D+00  0.1143456438D+01  0.7443082909D+00
 SP   1 1.00       0.000000000000
      0.1687144782D+00  0.1000000000D+01  0.1000000000D+01
 D   1 1.00       0.000000000000
      0.8000000000D+00  0.1000000000D+01
 ****
      2 0
 S   6 1.00       0.000000000000
      0.3047524880D+04  0.1834737132D-02
      0.4573695180D+03  0.1403732281D-01
      0.1039486850D+03  0.6884262226D-01
      0.2921015530D+02  0.2321844432D+00
      0.9286662960D+01  0.4679413484D+00
      0.3163926960D+01  0.3623119853D+00
 SP   3 1.00       0.000000000000
      0.7868272350D+01 -0.1193324198D+00  0.6899906659D-01
      0.1881288540D+01 -0.1608541517D+00  0.3164239610D+00
      0.5442492580D+00  0.1143456438D+01  0.7443082909D+00
 SP   1 1.00       0.000000000000
      0.1687144782D+00  0.1000000000D+01  0.1000000000D+01
 D   1 1.00       0.000000000000
      0.8000000000D+00  0.1000000000D+01
 ****
      3 0
 S   6 1.00       0.000000000000
      0.5484671660D+04  0.1831074430D-02
      0.8252349460D+03  0.1395017220D-01
      0.1880469580D+03  0.6844507810D-01
      0.5296450000D+02  0.2327143360D+00
      0.1689757040D+02  0.4701928980D+00
      0.5799635340D+01  0.3585208530D+00
 SP   3 1.00       0.000000000000
      0.1553961625D+02 -0.1107775495D+00  0.7087426823D-01
      0.3599933586D+01 -0.1480262627D+00  0.3397528391D+00
      0.1013761750D+01  0.1130767015D+01  0.7271585773D+00
 SP   1 1.00       0.000000000000
      0.2700058226D+00  0.1000000000D+01  0.1000000000D+01
 D   1 1.00       0.000000000000
      0.8000000000D+00  0.1000000000D+01
 ****
      4 0
 S   6 1.00       0.000000000000
      0.3047524880D+04  0.1834737132D-02
      0.4573695180D+03  0.1403732281D-01
      0.1039486850D+03  0.6884262226D-01
      0.2921015530D+02  0.2321844432D+00
      0.9286662960D+01  0.4679413484D+00
      0.3163926960D+01  0.3623119853D+00
 SP   3 1.00       0.000000000000
      0.7868272350D+01 -0.1193324198D+00  0.6899906659D-01
      0.1881288540D+01 -0.1608541517D+00  0.3164239610D+00
      0.5442492580D+00  0.1143456438D+01  0.7443082909D+00
 SP   1 1.00       0.000000000000
      0.1687144782D+00  0.1000000000D+01  0.1000000000D+01
 D   1 1.00       0.000000000000
      0.8000000000D+00  0.1000000000D+01
 ****
      5 0
 S   6 1.00       0.000000000000
      0.3047524880D+04  0.1834737132D-02
      0.4573695180D+03  0.1403732281D-01
      0.1039486850D+03  0.6884262226D-01
      0.2921015530D+02  0.2321844432D+00
      0.9286662960D+01  0.4679413484D+00
      0.3163926960D+01  0.3623119853D+00
 SP   3 1.00       0.000000000000
      0.7868272350D+01 -0.1193324198D+00  0.6899906659D-01
      0.1881288540D+01 -0.1608541517D+00  0.3164239610D+00
      0.5442492580D+00  0.1143456438D+01  0.7443082909D+00
 SP   1 1.00       0.000000000000
      0.1687144782D+00  0.1000000000D+01  0.1000000000D+01
 D   1 1.00       0.000000000000
      0.8000000000D+00  0.1000000000D+01
 ****
      6 0
 S   6 1.00       0.000000000000
      0.3047524880D+04  0.1834737132D-02
      0.4573695180D+03  0.1403732281D-01
      0.1039486850D+03  0.6884262226D-01
      0.2921015530D+02  0.2321844432D+00
      0.9286662960D+01  0.4679413484D+00
      0.3163926960D+01  0.3623119853D+00
 SP   3 1.00       0.000000000000
      0.7868272350D+01 -0.1193324198D+00  0.6899906659D-01
      0.1881288540D+01 -0.1608541517D+00  0.3164239610D+00
      0.5442492580D+00  0.1143456438D+01  0.7443082909D+00
 SP   1 1.00       0.000000000000
      0.1687144782D+00  0.1000000000D+01  0.1000000000D+01
 D   1 1.00       0.000000000000
      0.8000000000D+00  0.1000000000D+01
 ****
      7 0
 S   6 1.00       0.000000000000
      0.3047524880D+04  0.1834737132D-02
      0.4573695180D+03  0.1403732281D-01
      0.1039486850D+03  0.6884262226D-01
      0.2921015530D+02  0.2321844432D+00
      0.9286662960D+01  0.4679413484D+00
      0.3163926960D+01  0.3623119853D+00
 SP   3 1.00       0.000000000000
      0.7868272350D+01 -0.1193324198D+00  0.6899906659D-01
      0.1881288540D+01 -0.1608541517D+00  0.3164239610D+00
      0.5442492580D+00  0.1143456438D+01  0.7443082909D+00
 SP   1 1.00       0.000000000000
      0.1687144782D+00  0.1000000000D+01  0.1000000000D+01
 D   1 1.00       0.000000000000
      0.8000000000D+00  0.1000000000D+01
 ****
      8 0
 S   6 1.00       0.000000000000
      0.3047524880D+04  0.1834737132D-02
      0.4573695180D+03  0.1403732281D-01
      0.1039486850D+03  0.6884262226D-01
      0.2921015530D+02  0.2321844432D+00
      0.9286662960D+01  0.4679413484D+00
      0.3163926960D+01  0.3623119853D+00
 SP   3 1.00       0.000000000000
      0.7868272350D+01 -0.1193324198D+00  0.6899906659D-01
      0.1881288540D+01 -0.1608541517D+00  0.3164239610D+00
      0.5442492580D+00  0.1143456438D+01  0.7443082909D+00
 SP   1 1.00       0.000000000000
      0.1687144782D+00  0.1000000000D+01  0.1000000000D+01
 D   1 1.00       0.000000000000
      0.8000000000D+00  0.1000000000D+01
 ****
      9 0
 S   6 1.00       0.000000000000
      0.4173511460D+04  0.1834772160D-02
      0.6274579110D+03  0.1399462700D-01
      0.1429020930D+03  0.6858655181D-01
      0.4023432930D+02  0.2322408730D+00
      0.1282021290D+02  0.4690699481D+00
      0.4390437010D+01  0.3604551991D+00
 SP   3 1.00       0.000000000000
      0.1162636186D+02 -0.1149611817D+00  0.6757974388D-01
      0.2716279807D+01 -0.1691174786D+00  0.3239072959D+00
      0.7722183966D+00  0.1145851947D+01  0.7408951398D+00
 SP   1 1.00       0.000000000000
      0.2120314975D+00  0.1000000000D+01  0.1000000000D+01
 D   1 1.00       0.000000000000
      0.8000000000D+00  0.1000000000D+01
 ****
     10 0
 S   6 1.00       0.000000000000
      0.3047524880D+04  0.1834737132D-02
      0.4573695180D+03  0.1403732281D-01
      0.1039486850D+03  0.6884262226D-01
      0.2921015530D+02  0.2321844432D+00
      0.9286662960D+01  0.4679413484D+00
      0.3163926960D+01  0.3623119853D+00
 SP   3 1.00       0.000000000000
      0.7868272350D+01 -0.1193324198D+00  0.6899906659D-01
      0.1881288540D+01 -0.1608541517D+00  0.3164239610D+00
      0.5442492580D+00  0.1143456438D+01  0.7443082909D+00
 SP   1 1.00       0.000000000000
      0.1687144782D+00  0.1000000000D+01  0.1000000000D+01
 D   1 1.00       0.000000000000
      0.8000000000D+00  0.1000000000D+01
 ****
     11 0
 S   6 1.00       0.000000000000
      0.3047524880D+04  0.1834737132D-02
      0.4573695180D+03  0.1403732281D-01
      0.1039486850D+03  0.6884262226D-01
      0.2921015530D+02  0.2321844432D+00
      0.9286662960D+01  0.4679413484D+00
      0.3163926960D+01  0.3623119853D+00
 SP   3 1.00       0.000000000000
      0.7868272350D+01 -0.1193324198D+00  0.6899906659D-01
      0.1881288540D+01 -0.1608541517D+00  0.3164239610D+00
      0.5442492580D+00  0.1143456438D+01  0.7443082909D+00
 SP   1 1.00       0.000000000000
      0.1687144782D+00  0.1000000000D+01  0.1000000000D+01
 D   1 1.00       0.000000000000
      0.8000000000D+00  0.1000000000D+01
 ****
     12 0
 S   6 1.00       0.000000000000
      0.3047524880D+04  0.1834737132D-02
      0.4573695180D+03  0.1403732281D-01
      0.1039486850D+03  0.6884262226D-01
      0.2921015530D+02  0.2321844432D+00
      0.9286662960D+01  0.4679413484D+00
      0.3163926960D+01  0.3623119853D+00
 SP   3 1.00       0.000000000000
      0.7868272350D+01 -0.1193324198D+00  0.6899906659D-01
      0.1881288540D+01 -0.1608541517D+00  0.3164239610D+00
      0.5442492580D+00  0.1143456438D+01  0.7443082909D+00
 SP   1 1.00       0.000000000000
      0.1687144782D+00  0.1000000000D+01  0.1000000000D+01
 D   1 1.00       0.000000000000
      0.8000000000D+00  0.1000000000D+01
 ****
     13 0
 S   6 1.00       0.000000000000
      0.3047524880D+04  0.1834737132D-02
      0.4573695180D+03  0.1403732281D-01
      0.1039486850D+03  0.6884262226D-01
      0.2921015530D+02  0.2321844432D+00
      0.9286662960D+01  0.4679413484D+00
      0.3163926960D+01  0.3623119853D+00
 SP   3 1.00       0.000000000000
      0.7868272350D+01 -0.1193324198D+00  0.6899906659D-01
      0.1881288540D+01 -0.1608541517D+00  0.3164239610D+00
      0.5442492580D+00  0.1143456438D+01  0.7443082909D+00
 SP   1 1.00       0.000000000000
      0.1687144782D+00  0.1000000000D+01  0.1000000000D+01
 D   1 1.00       0.000000000000
      0.8000000000D+00  0.1000000000D+01
 ****
     14 0
 S   6 1.00       0.000000000000
      0.3047524880D+04  0.1834737132D-02
      0.4573695180D+03  0.1403732281D-01
      0.1039486850D+03  0.6884262226D-01
      0.2921015530D+02  0.2321844432D+00
      0.9286662960D+01  0.4679413484D+00
      0.3163926960D+01  0.3623119853D+00
 SP   3 1.00       0.000000000000
      0.7868272350D+01 -0.1193324198D+00  0.6899906659D-01
      0.1881288540D+01 -0.1608541517D+00  0.3164239610D+00
      0.5442492580D+00  0.1143456438D+01  0.7443082909D+00
 SP   1 1.00       0.000000000000
      0.1687144782D+00  0.1000000000D+01  0.1000000000D+01
 D   1 1.00       0.000000000000
      0.8000000000D+00  0.1000000000D+01
 ****
     15 0
 S   6 1.00       0.000000000000
      0.7001713090D+04  0.1819616901D-02
      0.1051366090D+04  0.1391607961D-01
      0.2392856900D+03  0.6840532453D-01
      0.6739744530D+02  0.2331857601D+00
      0.2151995730D+02  0.4712674392D+00
      0.7403101300D+01  0.3566185462D+00
 SP   3 1.00       0.000000000000
      0.2084795280D+02 -0.1085069751D+00  0.7162872424D-01
      0.4808308340D+01 -0.1464516581D+00  0.3459121027D+00
      0.1344069860D+01  0.1128688581D+01  0.7224699564D+00
 SP   1 1.00       0.000000000000
      0.3581513930D+00  0.1000000000D+01  0.1000000000D+01
 D   1 1.00       0.000000000000
      0.8000000000D+00  0.1000000000D+01
 ****
     16 0
 S   6 1.00       0.000000000000
      0.3047524880D+04  0.1834737132D-02
      0.4573695180D+03  0.1403732281D-01
      0.1039486850D+03  0.6884262226D-01
      0.2921015530D+02  0.2321844432D+00
      0.9286662960D+01  0.4679413484D+00
      0.3163926960D+01  0.3623119853D+00
 SP   3 1.00       0.000000000000
      0.7868272350D+01 -0.1193324198D+00  0.6899906659D-01
      0.1881288540D+01 -0.1608541517D+00  0.3164239610D+00
      0.5442492580D+00  0.1143456438D+01  0.7443082909D+00
 SP   1 1.00       0.000000000000
      0.1687144782D+00  0.1000000000D+01  0.1000000000D+01
 D   1 1.00       0.000000000000
      0.8000000000D+00  0.1000000000D+01
 ****
     17 0
 S   6 1.00       0.000000000000
      0.3047524880D+04  0.1834737132D-02
      0.4573695180D+03  0.1403732281D-01
      0.1039486850D+03  0.6884262226D-01
      0.2921015530D+02  0.2321844432D+00
      0.9286662960D+01  0.4679413484D+00
      0.3163926960D+01  0.3623119853D+00
 SP   3 1.00       0.000000000000
      0.7868272350D+01 -0.1193324198D+00  0.6899906659D-01
      0.1881288540D+01 -0.1608541517D+00  0.3164239610D+00
      0.5442492580D+00  0.1143456438D+01  0.7443082909D+00
 SP   1 1.00       0.000000000000
      0.1687144782D+00  0.1000000000D+01  0.1000000000D+01
 D   1 1.00       0.000000000000
      0.8000000000D+00  0.1000000000D+01
 ****
     18 0
 S   6 1.00       0.000000000000
      0.3047524880D+04  0.1834737132D-02
      0.4573695180D+03  0.1403732281D-01
      0.1039486850D+03  0.6884262226D-01
      0.2921015530D+02  0.2321844432D+00
      0.9286662960D+01  0.4679413484D+00
      0.3163926960D+01  0.3623119853D+00
 SP   3 1.00       0.000000000000
      0.7868272350D+01 -0.1193324198D+00  0.6899906659D-01
      0.1881288540D+01 -0.1608541517D+00  0.3164239610D+00
      0.5442492580D+00  0.1143456438D+01  0.7443082909D+00
 SP   1 1.00       0.000000000000
      0.1687144782D+00  0.1000000000D+01  0.1000000000D+01
 D   1 1.00       0.000000000000
      0.8000000000D+00  0.1000000000D+01
 ****
     19 0
 S   6 1.00       0.000000000000
      0.3047524880D+04  0.1834737132D-02
      0.4573695180D+03  0.1403732281D-01
      0.1039486850D+03  0.6884262226D-01
      0.2921015530D+02  0.2321844432D+00
      0.9286662960D+01  0.4679413484D+00
      0.3163926960D+01  0.3623119853D+00
 SP   3 1.00       0.000000000000
      0.7868272350D+01 -0.1193324198D+00  0.6899906659D-01
      0.1881288540D+01 -0.1608541517D+00  0.3164239610D+00
      0.5442492580D+00  0.1143456438D+01  0.7443082909D+00
 SP   1 1.00       0.000000000000
      0.1687144782D+00  0.1000000000D+01  0.1000000000D+01
 D   1 1.00       0.000000000000
      0.8000000000D+00  0.1000000000D+01
 ****
     20 0
 S   6 1.00       0.000000000000
      0.3047524880D+04  0.1834737132D-02
      0.4573695180D+03  0.1403732281D-01
      0.1039486850D+03  0.6884262226D-01
      0.2921015530D+02  0.2321844432D+00
      0.9286662960D+01  0.4679413484D+00
      0.3163926960D+01  0.3623119853D+00
 SP   3 1.00       0.000000000000
      0.7868272350D+01 -0.1193324198D+00  0.6899906659D-01
      0.1881288540D+01 -0.1608541517D+00  0.3164239610D+00
      0.5442492580D+00  0.1143456438D+01  0.7443082909D+00
 SP   1 1.00       0.000000000000
      0.1687144782D+00  0.1000000000D+01  0.1000000000D+01
 D   1 1.00       0.000000000000
      0.8000000000D+00  0.1000000000D+01
 ****
     21 0
 S   6 1.00       0.000000000000
      0.4173511460D+04  0.1834772160D-02
      0.6274579110D+03  0.1399462700D-01
      0.1429020930D+03  0.6858655181D-01
      0.4023432930D+02  0.2322408730D+00
      0.1282021290D+02  0.4690699481D+00
      0.4390437010D+01  0.3604551991D+00
 SP   3 1.00       0.000000000000
      0.1162636186D+02 -0.1149611817D+00  0.6757974388D-01
      0.2716279807D+01 -0.1691174786D+00  0.3239072959D+00
      0.7722183966D+00  0.1145851947D+01  0.7408951398D+00
 SP   1 1.00       0.000000000000
      0.2120314975D+00  0.1000000000D+01  0.1000000000D+01
 D   1 1.00       0.000000000000
      0.8000000000D+00  0.1000000000D+01
 ****
     22 0
 S   6 1.00       0.000000000000
      0.3047524880D+04  0.1834737132D-02
      0.4573695180D+03  0.1403732281D-01
      0.1039486850D+03  0.6884262226D-01
      0.2921015530D+02  0.2321844432D+00
      0.9286662960D+01  0.4679413484D+00
      0.3163926960D+01  0.3623119853D+00
 SP   3 1.00       0.000000000000
      0.7868272350D+01 -0.1193324198D+00  0.6899906659D-01
      0.1881288540D+01 -0.1608541517D+00  0.3164239610D+00
      0.5442492580D+00  0.1143456438D+01  0.7443082909D+00
 SP   1 1.00       0.000000000000
      0.1687144782D+00  0.1000000000D+01  0.1000000000D+01
 D   1 1.00       0.000000000000
      0.8000000000D+00  0.1000000000D+01
 ****
     23 0
 S   6 1.00       0.000000000000
      0.3047524880D+04  0.1834737132D-02
      0.4573695180D+03  0.1403732281D-01
      0.1039486850D+03  0.6884262226D-01
      0.2921015530D+02  0.2321844432D+00
      0.9286662960D+01  0.4679413484D+00
      0.3163926960D+01  0.3623119853D+00
 SP   3 1.00       0.000000000000
      0.7868272350D+01 -0.1193324198D+00  0.6899906659D-01
      0.1881288540D+01 -0.1608541517D+00  0.3164239610D+00
      0.5442492580D+00  0.1143456438D+01  0.7443082909D+00
 SP   1 1.00       0.000000000000
      0.1687144782D+00  0.1000000000D+01  0.1000000000D+01
 D   1 1.00       0.000000000000
      0.8000000000D+00  0.1000000000D+01
 ****
     24 0
 S   6 1.00       0.000000000000
      0.3047524880D+04  0.1834737132D-02
      0.4573695180D+03  0.1403732281D-01
      0.1039486850D+03  0.6884262226D-01
      0.2921015530D+02  0.2321844432D+00
      0.9286662960D+01  0.4679413484D+00
      0.3163926960D+01  0.3623119853D+00
 SP   3 1.00       0.000000000000
      0.7868272350D+01 -0.1193324198D+00  0.6899906659D-01
      0.1881288540D+01 -0.1608541517D+00  0.3164239610D+00
      0.5442492580D+00  0.1143456438D+01  0.7443082909D+00
 SP   1 1.00       0.000000000000
      0.1687144782D+00  0.1000000000D+01  0.1000000000D+01
 D   1 1.00       0.000000000000
      0.8000000000D+00  0.1000000000D+01
 ****
     25 0
 S   6 1.00       0.000000000000
      0.3047524880D+04  0.1834737132D-02
      0.4573695180D+03  0.1403732281D-01
      0.1039486850D+03  0.6884262226D-01
      0.2921015530D+02  0.2321844432D+00
      0.9286662960D+01  0.4679413484D+00
      0.3163926960D+01  0.3623119853D+00
 SP   3 1.00       0.000000000000
      0.7868272350D+01 -0.1193324198D+00  0.6899906659D-01
      0.1881288540D+01 -0.1608541517D+00  0.3164239610D+00
      0.5442492580D+00  0.1143456438D+01  0.7443082909D+00
 SP   1 1.00       0.000000000000
      0.1687144782D+00  0.1000000000D+01  0.1000000000D+01
 D   1 1.00       0.000000000000
      0.8000000000D+00  0.1000000000D+01
 ****
     26 0
 S   6 1.00       0.000000000000
      0.3047524880D+04  0.1834737132D-02
      0.4573695180D+03  0.1403732281D-01
      0.1039486850D+03  0.6884262226D-01
      0.2921015530D+02  0.2321844432D+00
      0.9286662960D+01  0.4679413484D+00
      0.3163926960D+01  0.3623119853D+00
 SP   3 1.00       0.000000000000
      0.7868272350D+01 -0.1193324198D+00  0.6899906659D-01
      0.1881288540D+01 -0.1608541517D+00  0.3164239610D+00
      0.5442492580D+00  0.1143456438D+01  0.7443082909D+00
 SP   1 1.00       0.000000000000
      0.1687144782D+00  0.1000000000D+01  0.1000000000D+01
 D   1 1.00       0.000000000000
      0.8000000000D+00  0.1000000000D+01
 ****
     27 0
 S   6 1.00       0.000000000000
      0.3047524880D+04  0.1834737132D-02
      0.4573695180D+03  0.1403732281D-01
      0.1039486850D+03  0.6884262226D-01
      0.2921015530D+02  0.2321844432D+00
      0.9286662960D+01  0.4679413484D+00
      0.3163926960D+01  0.3623119853D+00
 SP   3 1.00       0.000000000000
      0.7868272350D+01 -0.1193324198D+00  0.6899906659D-01
      0.1881288540D+01 -0.1608541517D+00  0.3164239610D+00
      0.5442492580D+00  0.1143456438D+01  0.7443082909D+00
 SP   1 1.00       0.000000000000
      0.1687144782D+00  0.1000000000D+01  0.1000000000D+01
 D   1 1.00       0.000000000000
      0.8000000000D+00  0.1000000000D+01
 ****
     28 0
 S   6 1.00       0.000000000000
      0.3047524880D+04  0.1834737132D-02
      0.4573695180D+03  0.1403732281D-01
      0.1039486850D+03  0.6884262226D-01
      0.2921015530D+02  0.2321844432D+00
      0.9286662960D+01  0.4679413484D+00
      0.3163926960D+01  0.3623119853D+00
 SP   3 1.00       0.000000000000
      0.7868272350D+01 -0.1193324198D+00  0.6899906659D-01
      0.1881288540D+01 -0.1608541517D+00  0.3164239610D+00
      0.5442492580D+00  0.1143456438D+01  0.7443082909D+00
 SP   1 1.00       0.000000000000
      0.1687144782D+00  0.1000000000D+01  0.1000000000D+01
 D   1 1.00       0.000000000000
      0.8000000000D+00  0.1000000000D+01
 ****
     29 0
 S   6 1.00       0.000000000000
      0.3047524880D+04  0.1834737132D-02
      0.4573695180D+03  0.1403732281D-01
      0.1039486850D+03  0.6884262226D-01
      0.2921015530D+02  0.2321844432D+00
      0.9286662960D+01  0.4679413484D+00
      0.3163926960D+01  0.3623119853D+00
 SP   3 1.00       0.000000000000
      0.7868272350D+01 -0.1193324198D+00  0.6899906659D-01
      0.1881288540D+01 -0.1608541517D+00  0.3164239610D+00
      0.5442492580D+00  0.1143456438D+01  0.7443082909D+00
 SP   1 1.00       0.000000000000
      0.1687144782D+00  0.1000000000D+01  0.1000000000D+01
 D   1 1.00       0.000000000000
      0.8000000000D+00  0.1000000000D+01
 ****
     30 0
 S   6 1.00       0.000000000000
      0.3047524880D+04  0.1834737132D-02
      0.4573695180D+03  0.1403732281D-01
      0.1039486850D+03  0.6884262226D-01
      0.2921015530D+02  0.2321844432D+00
      0.9286662960D+01  0.4679413484D+00
      0.3163926960D+01  0.3623119853D+00
 SP   3 1.00       0.000000000000
      0.7868272350D+01 -0.1193324198D+00  0.6899906659D-01
      0.1881288540D+01 -0.1608541517D+00  0.3164239610D+00
      0.5442492580D+00  0.1143456438D+01  0.7443082909D+00
 SP   1 1.00       0.000000000000
      0.1687144782D+00  0.1000000000D+01  0.1000000000D+01
 D   1 1.00       0.000000000000
      0.8000000000D+00  0.1000000000D+01
 ****
     31 0
 S   6 1.00       0.000000000000
      0.3047524880D+04  0.1834737132D-02
      0.4573695180D+03  0.1403732281D-01
      0.1039486850D+03  0.6884262226D-01
      0.2921015530D+02  0.2321844432D+00
      0.9286662960D+01  0.4679413484D+00
      0.3163926960D+01  0.3623119853D+00
 SP   3 1.00       0.000000000000
      0.7868272350D+01 -0.1193324198D+00  0.6899906659D-01
      0.1881288540D+01 -0.1608541517D+00  0.3164239610D+00
      0.5442492580D+00  0.1143456438D+01  0.7443082909D+00
 SP   1 1.00       0.000000000000
      0.1687144782D+00  0.1000000000D+01  0.1000000000D+01
 D   1 1.00       0.000000000000
      0.8000000000D+00  0.1000000000D+01
 ****
     32 0
 S   3 1.00       0.000000000000
      0.1873113696D+02  0.3349460434D-01
      0.2825394365D+01  0.2347269535D+00
      0.6401216923D+00  0.8137573261D+00
 S   1 1.00       0.000000000000
      0.1612777588D+00  0.1000000000D+01
 ****
     33 0
 S   3 1.00       0.000000000000
      0.1873113696D+02  0.3349460434D-01
      0.2825394365D+01  0.2347269535D+00
      0.6401216923D+00  0.8137573261D+00
 S   1 1.00       0.000000000000
      0.1612777588D+00  0.1000000000D+01
 ****
     34 0
 S   3 1.00       0.000000000000
      0.1873113696D+02  0.3349460434D-01
      0.2825394365D+01  0.2347269535D+00
      0.6401216923D+00  0.8137573261D+00
 S   1 1.00       0.000000000000
      0.1612777588D+00  0.1000000000D+01
 ****
     35 0
 S   3 1.00       0.000000000000
      0.1873113696D+02  0.3349460434D-01
      0.2825394365D+01  0.2347269535D+00
      0.6401216923D+00  0.8137573261D+00
 S   1 1.00       0.000000000000
      0.1612777588D+00  0.1000000000D+01
 ****
     36 0
 S   3 1.00       0.000000000000
      0.1873113696D+02  0.3349460434D-01
      0.2825394365D+01  0.2347269535D+00
      0.6401216923D+00  0.8137573261D+00
 S   1 1.00       0.000000000000
      0.1612777588D+00  0.1000000000D+01
 ****
     37 0
 S   3 1.00       0.000000000000
      0.1873113696D+02  0.3349460434D-01
      0.2825394365D+01  0.2347269535D+00
      0.6401216923D+00  0.8137573261D+00
 S   1 1.00       0.000000000000
      0.1612777588D+00  0.1000000000D+01
 ****
     38 0
 S   3 1.00       0.000000000000
      0.1873113696D+02  0.3349460434D-01
      0.2825394365D+01  0.2347269535D+00
      0.6401216923D+00  0.8137573261D+00
 S   1 1.00       0.000000000000
      0.1612777588D+00  0.1000000000D+01
 ****
     39 0
 S   3 1.00       0.000000000000
      0.1873113696D+02  0.3349460434D-01
      0.2825394365D+01  0.2347269535D+00
      0.6401216923D+00  0.8137573261D+00
 S   1 1.00       0.000000000000
      0.1612777588D+00  0.1000000000D+01
 ****
     40 0
 S   3 1.00       0.000000000000
      0.1873113696D+02  0.3349460434D-01
      0.2825394365D+01  0.2347269535D+00
      0.6401216923D+00  0.8137573261D+00
 S   1 1.00       0.000000000000
      0.1612777588D+00  0.1000000000D+01
 ****
     41 0
 S   3 1.00       0.000000000000
      0.1873113696D+02  0.3349460434D-01
      0.2825394365D+01  0.2347269535D+00
      0.6401216923D+00  0.8137573261D+00
 S   1 1.00       0.000000000000
      0.1612777588D+00  0.1000000000D+01
 ****
     42 0
 S   3 1.00       0.000000000000
      0.1873113696D+02  0.3349460434D-01
      0.2825394365D+01  0.2347269535D+00
      0.6401216923D+00  0.8137573261D+00
 S   1 1.00       0.000000000000
      0.1612777588D+00  0.1000000000D+01
 ****
     43 0
 S   3 1.00       0.000000000000
      0.1873113696D+02  0.3349460434D-01
      0.2825394365D+01  0.2347269535D+00
      0.6401216923D+00  0.8137573261D+00
 S   1 1.00       0.000000000000
      0.1612777588D+00  0.1000000000D+01
 ****
     44 0
 S   3 1.00       0.000000000000
      0.1873113696D+02  0.3349460434D-01
      0.2825394365D+01  0.2347269535D+00
      0.6401216923D+00  0.8137573261D+00
 S   1 1.00       0.000000000000
      0.1612777588D+00  0.1000000000D+01
 ****
     45 0
 S   3 1.00       0.000000000000
      0.1873113696D+02  0.3349460434D-01
      0.2825394365D+01  0.2347269535D+00
      0.6401216923D+00  0.8137573261D+00
 S   1 1.00       0.000000000000
      0.1612777588D+00  0.1000000000D+01
 ****
     46 0
 S   3 1.00       0.000000000000
      0.1873113696D+02  0.3349460434D-01
      0.2825394365D+01  0.2347269535D+00
      0.6401216923D+00  0.8137573261D+00
 S   1 1.00       0.000000000000
      0.1612777588D+00  0.1000000000D+01
 ****
     47 0
 S   3 1.00       0.000000000000
      0.1873113696D+02  0.3349460434D-01
      0.2825394365D+01  0.2347269535D+00
      0.6401216923D+00  0.8137573261D+00
 S   1 1.00       0.000000000000
      0.1612777588D+00  0.1000000000D+01
 ****
     48 0
 S   3 1.00       0.000000000000
      0.1873113696D+02  0.3349460434D-01
      0.2825394365D+01  0.2347269535D+00
      0.6401216923D+00  0.8137573261D+00
 S   1 1.00       0.000000000000
      0.1612777588D+00  0.1000000000D+01
 ****
     49 0
 S   3 1.00       0.000000000000
      0.1873113696D+02  0.3349460434D-01
      0.2825394365D+01  0.2347269535D+00
      0.6401216923D+00  0.8137573261D+00
 S   1 1.00       0.000000000000
      0.1612777588D+00  0.1000000000D+01
 ****
     50 0
 S   3 1.00       0.000000000000
      0.1873113696D+02  0.3349460434D-01
      0.2825394365D+01  0.2347269535D+00
      0.6401216923D+00  0.8137573261D+00
 S   1 1.00       0.000000000000
      0.1612777588D+00  0.1000000000D+01
 ****
     51 0
 S   3 1.00       0.000000000000
      0.1873113696D+02  0.3349460434D-01
      0.2825394365D+01  0.2347269535D+00
      0.6401216923D+00  0.8137573261D+00
 S   1 1.00       0.000000000000
      0.1612777588D+00  0.1000000000D+01
 ****
     52 0
 S   3 1.00       0.000000000000
      0.1873113696D+02  0.3349460434D-01
      0.2825394365D+01  0.2347269535D+00
      0.6401216923D+00  0.8137573261D+00
 S   1 1.00       0.000000000000
      0.1612777588D+00  0.1000000000D+01
 ****
     53 0
 S   3 1.00       0.000000000000
      0.1873113696D+02  0.3349460434D-01
      0.2825394365D+01  0.2347269535D+00
      0.6401216923D+00  0.8137573261D+00
 S   1 1.00       0.000000000000
      0.1612777588D+00  0.1000000000D+01
 ****
     54 0
 S   3 1.00       0.000000000000
      0.1873113696D+02  0.3349460434D-01
      0.2825394365D+01  0.2347269535D+00
      0.6401216923D+00  0.8137573261D+00
 S   1 1.00       0.000000000000
      0.1612777588D+00  0.1000000000D+01
 ****
     55 0
 S   3 1.00       0.000000000000
      0.1873113696D+02  0.3349460434D-01
      0.2825394365D+01  0.2347269535D+00
      0.6401216923D+00  0.8137573261D+00
 S   1 1.00       0.000000000000
      0.1612777588D+00  0.1000000000D+01
 ****
     56 0
 S   3 1.00       0.000000000000
      0.1873113696D+02  0.3349460434D-01
      0.2825394365D+01  0.2347269535D+00
      0.6401216923D+00  0.8137573261D+00
 S   1 1.00       0.000000000000
      0.1612777588D+00  0.1000000000D+01
 ****
     57 0
 S   3 1.00       0.000000000000
      0.1873113696D+02  0.3349460434D-01
      0.2825394365D+01  0.2347269535D+00
      0.6401216923D+00  0.8137573261D+00
 S   1 1.00       0.000000000000
      0.1612777588D+00  0.1000000000D+01
 ****
     58 0
 S   3 1.00       0.000000000000
      0.1873113696D+02  0.3349460434D-01
      0.2825394365D+01  0.2347269535D+00
      0.6401216923D+00  0.8137573261D+00
 S   1 1.00       0.000000000000
      0.1612777588D+00  0.1000000000D+01
 ****
     59 0
 S   3 1.00       0.000000000000
      0.1873113696D+02  0.3349460434D-01
      0.2825394365D+01  0.2347269535D+00
      0.6401216923D+00  0.8137573261D+00
 S   1 1.00       0.000000000000
      0.1612777588D+00  0.1000000000D+01
 ****
     60 0
 S   3 1.00       0.000000000000
      0.1873113696D+02  0.3349460434D-01
      0.2825394365D+01  0.2347269535D+00
      0.6401216923D+00  0.8137573261D+00
 S   1 1.00       0.000000000000
      0.1612777588D+00  0.1000000000D+01
 ****
     61 0
 S   3 1.00       0.000000000000
      0.1873113696D+02  0.3349460434D-01
      0.2825394365D+01  0.2347269535D+00
      0.6401216923D+00  0.8137573261D+00
 S   1 1.00       0.000000000000
      0.1612777588D+00  0.1000000000D+01
 ****
     62 0
 S   3 1.00       0.000000000000
      0.1873113696D+02  0.3349460434D-01
      0.2825394365D+01  0.2347269535D+00
      0.6401216923D+00  0.8137573261D+00
 S   1 1.00       0.000000000000
      0.1612777588D+00  0.1000000000D+01
 ****

   527 basis functions,   992 primitive gaussians,   527 cartesian basis functions
   112 alpha electrons      112 beta electrons
       nuclear repulsion energy      2919.3766865679 Hartrees.
 IExCor=  402 DFT=T Ex+Corr=B3LYP ExCW=0 ScaHFX=  0.200000
 ScaDFX=  0.800000  0.720000  1.000000  0.810000 ScalE2=  1.000000  1.000000
 IRadAn=      5 IRanWt=     -1 IRanGd=            0 ICorTp=0 IEmpDi=  4
 NAtoms=   62 NActive=   62 NUniq=   62 SFac= 1.00D+00 NAtFMM=   60 NAOKFM=T Big=T
 Integral buffers will be    131072 words long.
 Regular integral format.
 Two-electron integral symmetry is turned off.
 Leave Link  301 at Sat Nov  5 09:40:19 2022, MaxMem=   402653184 cpu:               0.7 elap:               0.1
 (Enter /home/wykgroup/appl/g16/l302.exe)
 NPDir=0 NMtPBC=     1 NCelOv=     1 NCel=       1 NClECP=     1 NCelD=      1
         NCelK=      1 NCelE2=     1 NClLst=     1 CellRange=     0.0.
 One-electron integrals computed using PRISM.
 NBasis=   527 RedAO= T EigKep=  3.84D-04  NBF=   527
 NBsUse=   527 1.00D-06 EigRej= -1.00D+00 NBFU=   527
 Precomputing XC quadrature grid using
 IXCGrd= 4 IRadAn=           5 IRanWt=          -1 IRanGd=           0 AccXCQ= 0.00D+00.
 Generated NRdTot=       0 NPtTot=           0 NUsed=           0 NTot=          32
 NSgBfM=   504   499   503   504   504 MxSgAt=    62 MxSgA2=    62.
 Leave Link  302 at Sat Nov  5 09:40:20 2022, MaxMem=   402653184 cpu:              10.6 elap:               0.8
 (Enter /home/wykgroup/appl/g16/l303.exe)
 DipDrv:  MaxL=1.
 Leave Link  303 at Sat Nov  5 09:40:20 2022, MaxMem=   402653184 cpu:               0.9 elap:               0.1
 (Enter /home/wykgroup/appl/g16/l308.exe)
 Leave Link  308 at Sat Nov  5 09:40:20 2022, MaxMem=   402653184 cpu:               1.0 elap:               0.1
 (Enter /home/wykgroup/appl/g16/l401.exe)
 ExpMin= 1.61D-01 ExpMax= 7.00D+03 ExpMxC= 1.05D+03 IAcc=3 IRadAn=         5 AccDes= 0.00D+00
 Harris functional with IExCor=  402 and IRadAn=       5 diagonalized for initial guess.
 HarFok:  IExCor=  402 AccDes= 0.00D+00 IRadAn=         5 IDoV= 1 UseB2=F ITyADJ=14
 ICtDFT=  3500011 ScaDFX=  1.000000  1.000000  1.000000  1.000000
 FoFCou: FMM=F IPFlag=           0 FMFlag=      100000 FMFlg1=        2001
         NFxFlg=           0 DoJE=T BraDBF=F KetDBF=T FulRan=T
         wScrn=  0.000000 ICntrl=       500 IOpCl=  0 I1Cent=   200000004 NGrid=           0
         NMat0=    1 NMatS0=      1 NMatT0=    0 NMatD0=    1 NMtDS0=    0 NMtDT0=    0
 Symmetry not used in FoFCou.
 Harris En= -1332.08969210720    
 JPrj=0 DoOrth=F DoCkMO=F.
 Leave Link  401 at Sat Nov  5 09:40:23 2022, MaxMem=   402653184 cpu:              34.3 elap:               2.5
 (Enter /home/wykgroup/appl/g16/l502.exe)
 Two-electron integral symmetry not used.
 Closed shell SCF:
 Using DIIS extrapolation, IDIIS=  1040.
 NGot=   402653184 LenX=   402085625 LenY=   401807369
 Requested convergence on RMS density matrix=1.00D-08 within  32 cycles.
 Requested convergence on MAX density matrix=1.00D-06.
 Requested convergence on             energy=1.00D-06.
 No special actions if energy rises.
 Fock matrices will be formed incrementally for  20 cycles.
 Integral accuracy reduced to 1.0D-05 until final iterations.

 Cycle   1  Pass 0  IDiag  1:
 FoFJK:  IHMeth= 1 ICntrl=       0 DoSepK=F KAlg= 0 I1Cent=           0 FoldK=F
 IRaf= 920000000 NMat=       1 IRICut=       1 DoRegI=T DoRafI=F ISym2E= 0 IDoP0=0 IntGTp=1.
 FoFCou: FMM=T IPFlag=           0 FMFlag=      100000 FMFlg1=        2001
         NFxFlg=           0 DoJE=F BraDBF=F KetDBF=F FulRan=T
         wScrn=  0.000000 ICntrl=         0 IOpCl=  0 I1Cent=           0 NGrid=           0
         NMat0=    1 NMatS0=      1 NMatT0=    0 NMatD0=    1 NMtDS0=    0 NMtDT0=    0
 Symmetry not used in FoFCou.
 FMM levels:  10  Number of levels for PrismC:   9
 E= -1331.39717631772    
 DIIS: error= 3.63D-02 at cycle   1 NSaved=   1.
 NSaved= 1 IEnMin= 1 EnMin= -1331.39717631772     IErMin= 1 ErrMin= 3.63D-02
 ErrMax= 3.63D-02  0.00D+00 EMaxC= 1.00D-01 BMatC= 6.43D-01 BMatP= 6.43D-01
 IDIUse=3 WtCom= 6.37D-01 WtEn= 3.63D-01
 Coeff-Com:  0.100D+01
 Coeff-En:   0.100D+01
 Coeff:      0.100D+01
 Gap=     0.209 Goal=   None    Shift=    0.000
 GapD=    0.209 DampG=1.000 DampE=0.500 DampFc=0.5000 IDamp=-1.
 Damping current iteration by 5.00D-01
 RMSDP=3.57D-03 MaxDP=1.34D-01              OVMax= 1.72D-01

 Cycle   2  Pass 0  IDiag  1:
 RMSU=  1.76D-03    CP:  9.79D-01
 E= -1331.72195236894     Delta-E=       -0.324776051217 Rises=F Damp=T
 DIIS: error= 5.06D-03 at cycle   2 NSaved=   2.
 NSaved= 2 IEnMin= 2 EnMin= -1331.72195236894     IErMin= 2 ErrMin= 5.06D-03
 ErrMax= 5.06D-03  0.00D+00 EMaxC= 1.00D-01 BMatC= 3.80D-02 BMatP= 6.43D-01
 IDIUse=3 WtCom= 9.49D-01 WtEn= 5.06D-02
 Coeff-Com:  0.107D-01 0.989D+00
 Coeff-En:   0.230D-01 0.977D+00
 Coeff:      0.114D-01 0.989D+00
 Gap=     0.226 Goal=   None    Shift=    0.000
 RMSDP=9.61D-04 MaxDP=4.54D-02 DE=-3.25D-01 OVMax= 1.63D-01

 Cycle   3  Pass 0  IDiag  1:
 RMSU=  9.28D-04    CP:  9.71D-01  8.75D-01
 E= -1332.06442090809     Delta-E=       -0.342468539149 Rises=F Damp=F
 DIIS: error= 7.27D-03 at cycle   3 NSaved=   3.
 NSaved= 3 IEnMin= 3 EnMin= -1332.06442090809     IErMin= 2 ErrMin= 5.06D-03
 ErrMax= 7.27D-03  0.00D+00 EMaxC= 1.00D-01 BMatC= 2.26D-02 BMatP= 3.80D-02
 IDIUse=3 WtCom= 9.27D-01 WtEn= 7.27D-02
 Coeff-Com: -0.390D-01 0.433D+00 0.606D+00
 Coeff-En:   0.000D+00 0.000D+00 0.100D+01
 Coeff:     -0.362D-01 0.402D+00 0.634D+00
 Gap=     0.207 Goal=   None    Shift=    0.000
 RMSDP=5.50D-04 MaxDP=3.99D-02 DE=-3.42D-01 OVMax= 9.24D-02

 Cycle   4  Pass 0  IDiag  1:
 RMSU=  4.04D-04    CP:  9.71D-01  9.52D-01  6.25D-01
 E= -1332.07567701249     Delta-E=       -0.011256104397 Rises=F Damp=F
 DIIS: error= 6.50D-03 at cycle   4 NSaved=   4.
 NSaved= 4 IEnMin= 4 EnMin= -1332.07567701249     IErMin= 2 ErrMin= 5.06D-03
 ErrMax= 6.50D-03  0.00D+00 EMaxC= 1.00D-01 BMatC= 1.14D-02 BMatP= 2.26D-02
 IDIUse=3 WtCom= 9.35D-01 WtEn= 6.50D-02
 Coeff-Com: -0.237D-01 0.120D+00 0.424D+00 0.479D+00
 Coeff-En:   0.000D+00 0.000D+00 0.372D+00 0.628D+00
 Coeff:     -0.221D-01 0.113D+00 0.420D+00 0.489D+00
 Gap=     0.199 Goal=   None    Shift=    0.000
 RMSDP=2.71D-04 MaxDP=1.58D-02 DE=-1.13D-02 OVMax= 4.23D-02

 Cycle   5  Pass 0  IDiag  1:
 RMSU=  1.07D-04    CP:  9.71D-01  9.42D-01  7.52D-01  4.60D-01
 E= -1332.08788553713     Delta-E=       -0.012208524640 Rises=F Damp=F
 DIIS: error= 1.17D-03 at cycle   5 NSaved=   5.
 NSaved= 5 IEnMin= 5 EnMin= -1332.08788553713     IErMin= 5 ErrMin= 1.17D-03
 ErrMax= 1.17D-03  0.00D+00 EMaxC= 1.00D-01 BMatC= 5.45D-04 BMatP= 1.14D-02
 IDIUse=3 WtCom= 9.88D-01 WtEn= 1.17D-02
 Coeff-Com: -0.843D-02 0.283D-01 0.178D+00 0.266D+00 0.536D+00
 Coeff-En:   0.000D+00 0.000D+00 0.000D+00 0.000D+00 0.100D+01
 Coeff:     -0.833D-02 0.279D-01 0.175D+00 0.263D+00 0.542D+00
 Gap=     0.197 Goal=   None    Shift=    0.000
 RMSDP=6.42D-05 MaxDP=3.38D-03 DE=-1.22D-02 OVMax= 7.28D-03

 Cycle   6  Pass 0  IDiag  1:
 RMSU=  3.45D-05    CP:  9.71D-01  9.43D-01  7.48D-01  5.24D-01  5.62D-01
 E= -1332.08841184313     Delta-E=       -0.000526306000 Rises=F Damp=F
 DIIS: error= 2.06D-04 at cycle   6 NSaved=   6.
 NSaved= 6 IEnMin= 6 EnMin= -1332.08841184313     IErMin= 6 ErrMin= 2.06D-04
 ErrMax= 2.06D-04  0.00D+00 EMaxC= 1.00D-01 BMatC= 4.87D-05 BMatP= 5.45D-04
 IDIUse=3 WtCom= 9.98D-01 WtEn= 2.06D-03
 Coeff-Com: -0.209D-02 0.359D-02 0.538D-01 0.945D-01 0.297D+00 0.554D+00
 Coeff-En:   0.000D+00 0.000D+00 0.000D+00 0.000D+00 0.138D-01 0.986D+00
 Coeff:     -0.208D-02 0.358D-02 0.537D-01 0.943D-01 0.296D+00 0.555D+00
 Gap=     0.197 Goal=   None    Shift=    0.000
 RMSDP=1.72D-05 MaxDP=9.71D-04 DE=-5.26D-04 OVMax= 1.96D-03

 Cycle   7  Pass 0  IDiag  1:
 RMSU=  8.04D-06    CP:  9.71D-01  9.43D-01  7.51D-01  5.24D-01  6.22D-01
                    CP:  6.15D-01
 E= -1332.08845649991     Delta-E=       -0.000044656784 Rises=F Damp=F
 DIIS: error= 8.04D-05 at cycle   7 NSaved=   7.
 NSaved= 7 IEnMin= 7 EnMin= -1332.08845649991     IErMin= 7 ErrMin= 8.04D-05
 ErrMax= 8.04D-05  0.00D+00 EMaxC= 1.00D-01 BMatC= 3.04D-06 BMatP= 4.87D-05
 IDIUse=1 WtCom= 1.00D+00 WtEn= 0.00D+00
 Coeff-Com: -0.730D-03 0.657D-03 0.216D-01 0.397D-01 0.139D+00 0.309D+00
 Coeff-Com:  0.490D+00
 Coeff:     -0.730D-03 0.657D-03 0.216D-01 0.397D-01 0.139D+00 0.309D+00
 Coeff:      0.490D+00
 Gap=     0.197 Goal=   None    Shift=    0.000
 RMSDP=5.05D-06 MaxDP=2.52D-04 DE=-4.47D-05 OVMax= 5.99D-04

 Initial convergence to 1.0D-05 achieved.  Increase integral accuracy.
 Cycle   8  Pass 1  IDiag  1:
 E= -1332.08845831219     Delta-E=       -0.000001812279 Rises=F Damp=F
 DIIS: error= 1.66D-04 at cycle   1 NSaved=   1.
 NSaved= 1 IEnMin= 1 EnMin= -1332.08845831219     IErMin= 1 ErrMin= 1.66D-04
 ErrMax= 1.66D-04  0.00D+00 EMaxC= 1.00D-01 BMatC= 5.88D-06 BMatP= 5.88D-06
 IDIUse=3 WtCom= 9.98D-01 WtEn= 1.66D-03
 Coeff-Com:  0.100D+01
 Coeff-En:   0.100D+01
 Coeff:      0.100D+01
 Gap=     0.197 Goal=   None    Shift=    0.000
 RMSDP=5.05D-06 MaxDP=2.52D-04 DE=-1.81D-06 OVMax= 5.61D-04

 Cycle   9  Pass 1  IDiag  1:
 RMSU=  7.50D-05    CP:  1.00D+00
 E= -1332.08846235190     Delta-E=       -0.000004039714 Rises=F Damp=F
 DIIS: error= 6.53D-05 at cycle   2 NSaved=   2.
 NSaved= 2 IEnMin= 2 EnMin= -1332.08846235190     IErMin= 2 ErrMin= 6.53D-05
 ErrMax= 6.53D-05  0.00D+00 EMaxC= 1.00D-01 BMatC= 1.46D-06 BMatP= 5.88D-06
 IDIUse=1 WtCom= 1.00D+00 WtEn= 0.00D+00
 Coeff-Com:  0.246D+00 0.754D+00
 Coeff:      0.246D+00 0.754D+00
 Gap=     0.197 Goal=   None    Shift=    0.000
 RMSDP=6.24D-06 MaxDP=2.87D-04 DE=-4.04D-06 OVMax= 7.99D-04

 Cycle  10  Pass 1  IDiag  1:
 RMSU=  6.23D-06    CP:  1.00D+00  1.00D+00
 E= -1332.08846117338     Delta-E=        0.000001178520 Rises=F Damp=F
 DIIS: error= 8.10D-05 at cycle   3 NSaved=   3.
 NSaved= 3 IEnMin= 2 EnMin= -1332.08846235190     IErMin= 2 ErrMin= 6.53D-05
 ErrMax= 8.10D-05  0.00D+00 EMaxC= 1.00D-01 BMatC= 2.52D-06 BMatP= 1.46D-06
 IDIUse=1 WtCom= 1.00D+00 WtEn= 0.00D+00
 Coeff-Com: -0.269D-02 0.569D+00 0.434D+00
 Coeff:     -0.269D-02 0.569D+00 0.434D+00
 Gap=     0.197 Goal=   None    Shift=    0.000
 RMSDP=3.61D-06 MaxDP=1.62D-04 DE= 1.18D-06 OVMax= 4.80D-04

 Cycle  11  Pass 1  IDiag  1:
 RMSU=  4.72D-07    CP:  1.00D+00  1.01D+00  4.29D-01
 E= -1332.08846395739     Delta-E=       -0.000002784007 Rises=F Damp=F
 DIIS: error= 3.56D-06 at cycle   4 NSaved=   4.
 NSaved= 4 IEnMin= 4 EnMin= -1332.08846395739     IErMin= 4 ErrMin= 3.56D-06
 ErrMax= 3.56D-06  0.00D+00 EMaxC= 1.00D-01 BMatC= 1.35D-08 BMatP= 1.46D-06
 IDIUse=1 WtCom= 1.00D+00 WtEn= 0.00D+00
 Coeff-Com: -0.348D-02 0.324D+00 0.251D+00 0.428D+00
 Coeff:     -0.348D-02 0.324D+00 0.251D+00 0.428D+00
 Gap=     0.197 Goal=   None    Shift=    0.000
 RMSDP=2.69D-07 MaxDP=1.11D-05 DE=-2.78D-06 OVMax= 2.69D-05

 Cycle  12  Pass 1  IDiag  1:
 RMSU=  1.54D-07    CP:  1.00D+00  1.01D+00  4.37D-01  5.46D-01
 E= -1332.08846397059     Delta-E=       -0.000000013200 Rises=F Damp=F
 DIIS: error= 1.31D-06 at cycle   5 NSaved=   5.
 NSaved= 5 IEnMin= 5 EnMin= -1332.08846397059     IErMin= 5 ErrMin= 1.31D-06
 ErrMax= 1.31D-06  0.00D+00 EMaxC= 1.00D-01 BMatC= 3.79D-10 BMatP= 1.35D-08
 IDIUse=1 WtCom= 1.00D+00 WtEn= 0.00D+00
 Coeff-Com: -0.181D-02 0.157D+00 0.122D+00 0.235D+00 0.489D+00
 Coeff:     -0.181D-02 0.157D+00 0.122D+00 0.235D+00 0.489D+00
 Gap=     0.197 Goal=   None    Shift=    0.000
 RMSDP=5.46D-08 MaxDP=3.26D-06 DE=-1.32D-08 OVMax= 7.87D-06

 Cycle  13  Pass 1  IDiag  1:
 RMSU=  4.37D-08    CP:  1.00D+00  1.01D+00  4.36D-01  5.78D-01  8.13D-01
 E= -1332.08846397094     Delta-E=       -0.000000000353 Rises=F Damp=F
 DIIS: error= 4.25D-07 at cycle   6 NSaved=   6.
 NSaved= 6 IEnMin= 6 EnMin= -1332.08846397094     IErMin= 6 ErrMin= 4.25D-07
 ErrMax= 4.25D-07  0.00D+00 EMaxC= 1.00D-01 BMatC= 4.70D-11 BMatP= 3.79D-10
 IDIUse=1 WtCom= 1.00D+00 WtEn= 0.00D+00
 Coeff-Com: -0.676D-03 0.556D-01 0.432D-01 0.898D-01 0.293D+00 0.519D+00
 Coeff:     -0.676D-03 0.556D-01 0.432D-01 0.898D-01 0.293D+00 0.519D+00
 Gap=     0.197 Goal=   None    Shift=    0.000
 RMSDP=1.68D-08 MaxDP=1.35D-06 DE=-3.53D-10 OVMax= 3.05D-06

 Cycle  14  Pass 1  IDiag  1:
 RMSU=  1.13D-08    CP:  1.00D+00  1.01D+00  4.36D-01  5.76D-01  8.48D-01
                    CP:  7.46D-01
 E= -1332.08846397098     Delta-E=       -0.000000000038 Rises=F Damp=F
 DIIS: error= 5.36D-08 at cycle   7 NSaved=   7.
 NSaved= 7 IEnMin= 7 EnMin= -1332.08846397098     IErMin= 7 ErrMin= 5.36D-08
 ErrMax= 5.36D-08  0.00D+00 EMaxC= 1.00D-01 BMatC= 2.04D-12 BMatP= 4.70D-11
 IDIUse=1 WtCom= 1.00D+00 WtEn= 0.00D+00
 Coeff-Com: -0.638D-04 0.437D-02 0.339D-02 0.916D-02 0.628D-01 0.218D+00
 Coeff-Com:  0.702D+00
 Coeff:     -0.638D-04 0.437D-02 0.339D-02 0.916D-02 0.628D-01 0.218D+00
 Coeff:      0.702D+00
 Gap=     0.197 Goal=   None    Shift=    0.000
 RMSDP=4.21D-09 MaxDP=2.65D-07 DE=-3.82D-11 OVMax= 5.10D-07

 SCF Done:  E(RB3LYP) =  -1332.08846397     A.U. after   14 cycles
            NFock= 14  Conv=0.42D-08     -V/T= 2.0095
 KE= 1.319537730434D+03 PE=-8.933744333278D+03 EE= 3.362741452306D+03
 Leave Link  502 at Sat Nov  5 09:41:14 2022, MaxMem=   402653184 cpu:             701.6 elap:              50.5
 (Enter /home/wykgroup/appl/g16/l508.exe)
 QCSCF skips out because SCF is already converged.
 Leave Link  508 at Sat Nov  5 09:41:14 2022, MaxMem=   402653184 cpu:               0.0 elap:               0.0
 (Enter /home/wykgroup/appl/g16/l801.exe)
 DoSCS=F DFT=T ScalE2(SS,OS)=  1.000000  1.000000
 ExpMin= 1.61D-01 ExpMax= 7.00D+03 ExpMxC= 1.05D+03 IAcc=3 IRadAn=         5 AccDes= 0.00D+00
 HarFok:  IExCor=  205 AccDes= 0.00D+00 IRadAn=         5 IDoV=-2 UseB2=F ITyADJ=14
 ICtDFT= 12500011 ScaDFX=  1.000000  1.000000  1.000000  1.000000
 GSVD:  LWork=       -1209 too small for GESVD, short by        5270 words or        5270 for optimal perf.
 Largest valence mixing into a core orbital is  5.91D-05
 Largest core mixing into a valence orbital is  1.51D-05
 Range of M.O.s used for correlation:    32   527
 NBasis=   527 NAE=   112 NBE=   112 NFC=    31 NFV=     0
 NROrb=    496 NOA=    81 NOB=    81 NVA=   415 NVB=   415

 **** Warning!!: The largest alpha MO coefficient is  0.12458677D+02

 Leave Link  801 at Sat Nov  5 09:41:14 2022, MaxMem=   402653184 cpu:               2.3 elap:               0.2
 (Enter /home/wykgroup/appl/g16/l914.exe)
 RHF ground state
 Two-electron integral symmetry not used.
 MDV=   402653184 DFT=T DoStab=F Mixed=T DoRPA=T DoScal=F NonHer=T
 Making orbital integer symmetry assigments:
    16 initial guesses have been made.
 Convergence on wavefunction:    0.001000000000000
 Davidson Disk Diagonalization:  ConvIn= 1.00D-03 SkipCon=T Conv= 1.00D-03.
 Max sub-space:  2000 roots to seek:    16 dimension of matrix:        67230
 Iteration     1 Dimension    16 NMult     0 NNew     16
 CISAX will form    16 AO SS matrices at one time.
 NMat=    16 NSing=     8 JSym2X= 0.
 FoFJK:  IHMeth= 1 ICntrl=       0 DoSepK=F KAlg= 0 I1Cent=           0 FoldK=F
 IRaf= 920000000 NMat=      32 IRICut=       1 DoRegI=T DoRafI=F ISym2E= 0 IDoP0=0 IntGTp=1.
 FoFCou: FMM=T IPFlag=           0 FMFlag=      100000 FMFlg1=        2001
         NFxFlg=           0 DoJE=F BraDBF=F KetDBF=F FulRan=T
         wScrn=  0.000000 ICntrl=         0 IOpCl=  0 I1Cent=           0 NGrid=           0
         NMat0=   32 NMatS0=      8 NMatT0=    8 NMatD0=   32 NMtDS0=    0 NMtDT0=    0
 Symmetry not used in FoFCou.
 FMM levels:  10  Number of levels for PrismC:   9
 New state      1 was old state      2
 New state      2 was old state      1
 New state      3 was old state     10
 New state      5 was old state      3
 New state      6 was old state     12
 New state      7 was old state      9
 New state      8 was old state     16
 Excitation Energies [eV] at current iteration:
 Root      1 :     4.591222948186414
 Root      2 :     4.687897302465490
 Root      3 :     4.750672767660594
 Root      4 :     4.825094152902468
 Root      5 :     4.907249853725021
 Root      6 :     4.961400550436716
 Root      7 :     4.971563754806821
 Root      8 :     5.026419821625225
 Root      9 :     5.044921786642637
 Root     10 :     5.049033506835979
 Root     11 :     5.081974637521579
 Root     12 :     5.167289442908273
 Root     13 :     5.174805737860086
 Root     14 :     5.176668755268304
 Root     15 :     5.185476520132733
 Root     16 :     5.579598786045763
 Vector   4 SDiff=5.87D+00 TDiff=8.76D+00 assumed to be singlet.
 Vector   8 SDiff=5.89D+00 TDiff=8.51D+00 assumed to be singlet.
 Iteration     2 Dimension    24 NMult    16 NNew      8
 CISAX will form     8 AO SS matrices at one time.
 NMat=     8 NSing=     4 JSym2X= 0.
 New state      1 was old state      3
 Root      1 not converged, maximum delta is    0.415588959122595
 New state      2 was old state      1
 Root      2 not converged, maximum delta is    0.384942503050601
 New state      3 was old state      2
 Root      3 not converged, maximum delta is    0.038373395168398
 New state      4 was old state      5
 Root      4 not converged, maximum delta is    0.083968471981254
 Excitation Energies [eV] at current iteration:
 Root      1 :     3.967109101190335   Change is   -0.783563666470259
 Root      2 :     4.376508110503780   Change is   -0.214714837682634
 Root      3 :     4.635872157007531   Change is   -0.052025145457959
 Root      4 :     4.845989943249005   Change is   -0.061259910476016
 Iteration     3 Dimension    32 NMult    24 NNew      8
 CISAX will form     8 AO SS matrices at one time.
 NMat=     8 NSing=     4 JSym2X= 0.
 Root      1 not converged, maximum delta is    0.149316846207058
 Root      2 not converged, maximum delta is    0.300965379417484
 Root      3 not converged, maximum delta is    0.012704534772806
 Root      4 not converged, maximum delta is    0.084885551798940
 Excitation Energies [eV] at current iteration:
 Root      1 :     3.761442010246211   Change is   -0.205667090944125
 Root      2 :     3.928245312077992   Change is   -0.448262798425787
 Root      3 :     4.631743491963517   Change is   -0.004128665044014
 Root      4 :     4.831742149017214   Change is   -0.014247794231791
 Iteration     4 Dimension    40 NMult    32 NNew      8
 CISAX will form     8 AO SS matrices at one time.
 NMat=     8 NSing=     4 JSym2X= 0.
 Root      1 not converged, maximum delta is    0.113513357180828
 Root      2 not converged, maximum delta is    0.183815592785702
 Root      3 not converged, maximum delta is    0.004477248587533
 Root      4 not converged, maximum delta is    0.037514061028145
 Excitation Energies [eV] at current iteration:
 Root      1 :     3.666106698455816   Change is   -0.095335311790395
 Root      2 :     3.769412638391070   Change is   -0.158832673686923
 Root      3 :     4.630757259844097   Change is   -0.000986232119420
 Root      4 :     4.826292018294309   Change is   -0.005450130722906
 Iteration     5 Dimension    48 NMult    40 NNew      8
 CISAX will form     8 AO SS matrices at one time.
 NMat=     8 NSing=     4 JSym2X= 0.
 Root      1 not converged, maximum delta is    0.023806726196547
 Root      2 not converged, maximum delta is    0.030949192424112
 Root      3 not converged, maximum delta is    0.002835860608316
 Root      4 not converged, maximum delta is    0.022150879692828
 Excitation Energies [eV] at current iteration:
 Root      1 :     3.655313513024282   Change is   -0.010793185431534
 Root      2 :     3.750485381503966   Change is   -0.018927256887104
 Root      3 :     4.630476460293741   Change is   -0.000280799550357
 Root      4 :     4.824136968759925   Change is   -0.002155049534383
 Iteration     6 Dimension    56 NMult    48 NNew      8
 CISAX will form     8 AO SS matrices at one time.
 NMat=     8 NSing=     4 JSym2X= 0.
 Root      1 not converged, maximum delta is    0.007017269006818
 Root      2 not converged, maximum delta is    0.004624700677811
 Root      3 not converged, maximum delta is    0.001380649607204
 Root      4 not converged, maximum delta is    0.023021368279914
 Excitation Energies [eV] at current iteration:
 Root      1 :     3.653619623253443   Change is   -0.001693889770839
 Root      2 :     3.748129261868598   Change is   -0.002356119635368
 Root      3 :     4.630396778702138   Change is   -0.000079681591603
 Root      4 :     4.823221933295367   Change is   -0.000915035464558
 Iteration     7 Dimension    64 NMult    56 NNew      8
 CISAX will form     8 AO SS matrices at one time.
 NMat=     8 NSing=     4 JSym2X= 0.
 Root      1 not converged, maximum delta is    0.003033005618907
 Root      2 not converged, maximum delta is    0.001505871206765
 Root      3 has converged.
 Root      4 not converged, maximum delta is    0.014302500751292
 Excitation Energies [eV] at current iteration:
 Root      1 :     3.653418775839163   Change is   -0.000200847414279
 Root      2 :     3.747972325093918   Change is   -0.000156936774679
 Root      3 :     4.630378878422940   Change is   -0.000017900279198
 Root      4 :     4.822848170715615   Change is   -0.000373762579751
 Iteration     8 Dimension    70 NMult    64 NNew      6
 CISAX will form     6 AO SS matrices at one time.
 NMat=     6 NSing=     2 JSym2X= 0.
 Root      1 not converged, maximum delta is    0.001221789336725
 Root      2 has converged.
 Root      3 has converged.
 Root      4 not converged, maximum delta is    0.006832142205519
 Excitation Energies [eV] at current iteration:
 Root      1 :     3.653382448692847   Change is   -0.000036327146317
 Root      2 :     3.747946448219127   Change is   -0.000025876874791
 Root      3 :     4.630377884225005   Change is   -0.000000994197934
 Root      4 :     4.822730288819908   Change is   -0.000117881895707
 Iteration     9 Dimension    74 NMult    70 NNew      4
 CISAX will form     4 AO SS matrices at one time.
 NMat=     4 NSing=     2 JSym2X= 0.
 Root      1 not converged, maximum delta is    0.004788784632577
 Root      2 not converged, maximum delta is    0.001236916006584
 Root      3 has converged.
 Root      4 not converged, maximum delta is    0.002673661446031
 Excitation Energies [eV] at current iteration:
 Root      1 :     3.653340851600591   Change is   -0.000041597092256
 Root      2 :     3.747944623377612   Change is   -0.000001824841515
 Root      3 :     4.630377347988313   Change is   -0.000000536236693
 Root      4 :     4.822695864838843   Change is   -0.000034423981065
 Iteration    10 Dimension    80 NMult    74 NNew      6
 CISAX will form     6 AO SS matrices at one time.
 NMat=     6 NSing=     2 JSym2X= 0.
 Root      1 not converged, maximum delta is    0.023853954451337
 No map to state      2
 Root      3 has converged.
 Root      4 not converged, maximum delta is    0.001414476672962
 Excitation Energies [eV] at current iteration:
 Root      1 :     3.653154378992821   Change is   -0.000186472607769
 Root      2 :     3.709953985515158
 Root      3 :     4.630376856200916   Change is   -0.000000491787396
 Root      4 :     4.822689288804800   Change is   -0.000006576034043
 Iteration    11 Dimension    86 NMult    80 NNew      6
 CISAX will form     6 AO SS matrices at one time.
 NMat=     6 NSing=     2 JSym2X= 0.
 Root      1 not converged, maximum delta is    0.016571456890806
 Root      2 not converged, maximum delta is    0.022105339373242
 Root      3 has converged.
 Root      4 has converged.
 Excitation Energies [eV] at current iteration:
 Root      1 :     3.653026346035648   Change is   -0.000128032957173
 Root      2 :     3.688468624053736   Change is   -0.021485361461423
 Root      3 :     4.630376849164242   Change is   -0.000000007036675
 Root      4 :     4.822687493823670   Change is   -0.000001794981130
 Iteration    12 Dimension    90 NMult    86 NNew      4
 CISAX will form     4 AO SS matrices at one time.
 NMat=     4 NSing=     0 JSym2X= 0.
 Root      1 not converged, maximum delta is    0.002645407195275
 Root      2 not converged, maximum delta is    0.003227743514056
 Root      3 has converged.
 Root      4 has converged.
 Excitation Energies [eV] at current iteration:
 Root      1 :     3.653005488878494   Change is   -0.000020857157155
 Root      2 :     3.686430760306313   Change is   -0.002037863747423
 Root      3 :     4.630376849164278   Change is    0.000000000000035
 Root      4 :     4.822687493823670   Change is    0.000000000000000
 Iteration    13 Dimension    94 NMult    90 NNew      4
 CISAX will form     4 AO SS matrices at one time.
 NMat=     4 NSing=     0 JSym2X= 0.
 Root      1 has converged.
 Root      2 not converged, maximum delta is    0.001198154428845
 Root      3 has converged.
 Root      4 has converged.
 Excitation Energies [eV] at current iteration:
 Root      1 :     3.653003192346305   Change is   -0.000002296532188
 Root      2 :     3.686217726755000   Change is   -0.000213033551313
 Root      3 :     4.630376849164207   Change is   -0.000000000000071
 Root      4 :     4.822687493823619   Change is   -0.000000000000051
 Iteration    14 Dimension    96 NMult    94 NNew      2
 CISAX will form     2 AO SS matrices at one time.
 NMat=     2 NSing=     0 JSym2X= 0.
 Root      1 has converged.
 Root      2 has converged.
 Root      3 has converged.
 Root      4 has converged.
 Excitation Energies [eV] at current iteration:
 Root      1 :     3.653002990893346   Change is   -0.000000201452959
 Root      2 :     3.686199495949535   Change is   -0.000018230805465
 Root      3 :     4.630376849164224   Change is    0.000000000000018
 Root      4 :     4.822687493823688   Change is    0.000000000000068
 Convergence achieved on expansion vectors.
 ***********************************************************************
 Excited states from <AA,BB:AA,BB> singles matrix:
 ***********************************************************************
 
 1PDM for each excited state written to RWF  633
 Ground to excited state transition densities written to RWF  633
 Ground to excited state transition electric dipole moments (Au):
       state          X           Y           Z        Dip. S.      Osc.
         1         0.0000     -0.0000      0.0000      0.0000      0.0000
         2        -0.0000      0.0000     -0.0000      0.0000      0.0000
         3        -0.0976      0.2573     -0.0384      0.0772      0.0088
         4        -0.0786      0.0033      0.0044      0.0062      0.0007
 Ground to excited state transition velocity dipole moments (Au):
       state          X           Y           Z        Dip. S.      Osc.
         1        -0.0000      0.0000     -0.0000      0.0000      0.0000
         2         0.0000     -0.0000      0.0000      0.0000      0.0000
         3         0.0123     -0.0382      0.0016      0.0016      0.0063
         4         0.0115      0.0052      0.0010      0.0002      0.0006
 Ground to excited state transition magnetic dipole moments (Au):
       state          X           Y           Z
         1         0.0000      0.0000     -0.0000
         2        -0.0000      0.0000     -0.0000
         3        -0.1545     -0.0084      0.1949
         4         0.0373     -0.0709     -0.0661
 Ground to excited state transition velocity quadrupole moments (Au):
       state          XX          YY          ZZ          XY          XZ          YZ
         1        -0.0000      0.0000     -0.0000     -0.0000     -0.0000     -0.0000
         2         0.0000     -0.0000      0.0000      0.0000      0.0000     -0.0000
         3         0.1708     -0.3405     -0.0089      0.0923      0.0390      0.0091
         4        -0.0901     -0.3205      0.0436      0.1647     -0.0517      0.0273
 <0|del|b> * <b|rxdel|0> + <0|del|b> * <b|delr+rdel|0>
 Rotatory Strengths (R) in cgs (10**-40 erg-esu-cm/Gauss)
       state          XX          YY          ZZ    R(velocity)    E-M Angle
         1         0.0000     -0.0000     -0.0000      0.0000       90.00
         2         0.0000     -0.0000     -0.0000     -0.0000       90.00
         3         4.6989     -3.3925     -6.6206     -1.7714       97.35
         4        -0.0019      1.0133     -1.0416     -0.0100       90.00
 1/2[<0|r|b>*<b|rxdel|0> + (<0|rxdel|b>*<b|r|0>)*]
 Rotatory Strengths (R) in cgs (10**-40 erg-esu-cm/Gauss)
       state          XX          YY          ZZ     R(length)
         1        -0.0000      0.0000      0.0000      0.0000
         2        -0.0000     -0.0000     -0.0000     -0.0000
         3       -10.6619      1.5293      5.2953     -1.2791
         4         2.0727      0.1675      0.2069      0.8157
  1/2[<0|del|b>*<b|r|0> + (<0|r|b>*<b|del|0>)*] (Au)
       state          X           Y           Z        Dip. S.   Osc.(frdel)
         1        -0.0000     -0.0000     -0.0000      0.0000      0.0000
         2        -0.0000     -0.0000     -0.0000      0.0000      0.0000
         3        -0.0012     -0.0098     -0.0001      0.0111      0.0074
         4        -0.0009      0.0000      0.0000      0.0009      0.0006

 Excitation energies and oscillator strengths:
 
 Excited state symmetry could not be determined.
 Excited State   1:      Triplet-?Sym    3.6530 eV  339.40 nm  f=0.0000  <S**2>=2.000
     106 ->114        -0.11131
     106 ->115         0.30054
     106 ->116        -0.18441
     110 ->114         0.10047
     110 ->118         0.13794
     111 ->114        -0.29005
     111 ->115         0.15133
     111 ->118        -0.38478
     112 ->114        -0.11176
     112 ->118        -0.15074
 This state for optimization and/or second-order correction.
 Total Energy, E(TD-HF/TD-DFT) =  -1331.95421858    
 Copying the excited state density for this state as the 1-particle RhoCI density.
 
 Excited state symmetry could not be determined.
 Excited State   2:      Triplet-?Sym    3.6862 eV  336.35 nm  f=0.0000  <S**2>=2.000
     107 ->114         0.19176
     107 ->117        -0.37283
     107 ->118        -0.10172
     109 ->114         0.35860
     109 ->116        -0.30665
     109 ->117         0.17462
     109 ->118        -0.12577
     110 ->114         0.10769
 
 Excited state symmetry could not be determined.
 Excited State   3:      Singlet-?Sym    4.6304 eV  267.76 nm  f=0.0088  <S**2>=0.000
     110 ->113        -0.10509
     111 ->113        -0.18412
     112 ->113         0.66542
 
 Excited state symmetry could not be determined.
 Excited State   4:      Singlet-?Sym    4.8227 eV  257.09 nm  f=0.0007  <S**2>=0.000
     110 ->114         0.12478
     112 ->114         0.59817
     112 ->115         0.14818
     112 ->116         0.22875
 SavETr:  write IOETrn=   770 NScale= 10 NData=  16 NLR=1 NState=    4 LETran=      82.
 Leave Link  914 at Sat Nov  5 09:53:52 2022, MaxMem=   402653184 cpu:           10289.0 elap:             758.6
 (Enter /home/wykgroup/appl/g16/l601.exe)
 Copying SCF densities to generalized density rwf, IOpCl= 0 IROHF=0.

 **********************************************************************

            Population analysis using the SCF Density.

 **********************************************************************

 Alpha  occ. eigenvalues --  -24.69883 -19.17168 -14.32200 -14.32156 -10.26720
 Alpha  occ. eigenvalues --  -10.24297 -10.24207 -10.24163 -10.21698 -10.20720
 Alpha  occ. eigenvalues --  -10.20334 -10.19797 -10.19560 -10.19381 -10.19319
 Alpha  occ. eigenvalues --  -10.19318 -10.19241 -10.19233 -10.18832 -10.18441
 Alpha  occ. eigenvalues --  -10.18416 -10.18353 -10.18269 -10.18208 -10.18156
 Alpha  occ. eigenvalues --  -10.18114 -10.18082 -10.18037 -10.17925 -10.17830
 Alpha  occ. eigenvalues --  -10.17592  -1.20996  -1.05824  -0.94933  -0.88952
 Alpha  occ. eigenvalues --   -0.85701  -0.84824  -0.84423  -0.78088  -0.77846
 Alpha  occ. eigenvalues --   -0.76681  -0.76012  -0.75224  -0.74986  -0.73964
 Alpha  occ. eigenvalues --   -0.72527  -0.68815  -0.68568  -0.67633  -0.64389
 Alpha  occ. eigenvalues --   -0.63294  -0.62740  -0.61979  -0.59863  -0.59270
 Alpha  occ. eigenvalues --   -0.58697  -0.58078  -0.56230  -0.53920  -0.53571
 Alpha  occ. eigenvalues --   -0.52879  -0.50253  -0.49754  -0.48941  -0.48384
 Alpha  occ. eigenvalues --   -0.48270  -0.47512  -0.47112  -0.46554  -0.45645
 Alpha  occ. eigenvalues --   -0.45200  -0.44789  -0.44489  -0.43993  -0.43349
 Alpha  occ. eigenvalues --   -0.43106  -0.42561  -0.41610  -0.41556  -0.41137
 Alpha  occ. eigenvalues --   -0.40549  -0.40241  -0.39967  -0.39679  -0.39318
 Alpha  occ. eigenvalues --   -0.39280  -0.38926  -0.38312  -0.37702  -0.37471
 Alpha  occ. eigenvalues --   -0.36574  -0.36198  -0.35725  -0.35012  -0.34861
 Alpha  occ. eigenvalues --   -0.34401  -0.34128  -0.33882  -0.33339  -0.33116
 Alpha  occ. eigenvalues --   -0.32770  -0.32458  -0.31718  -0.30517  -0.25614
 Alpha  occ. eigenvalues --   -0.24539  -0.24062  -0.23645  -0.23328  -0.21373
 Alpha  occ. eigenvalues --   -0.21121  -0.20411
 Alpha virt. eigenvalues --   -0.00731  -0.00042   0.00260   0.00382   0.00555
 Alpha virt. eigenvalues --    0.01699   0.07757   0.09014   0.09345   0.09871
 Alpha virt. eigenvalues --    0.10237   0.11204   0.11454   0.12312   0.12711
 Alpha virt. eigenvalues --    0.12924   0.13201   0.13922   0.14233   0.14833
 Alpha virt. eigenvalues --    0.14888   0.15200   0.15463   0.15759   0.16140
 Alpha virt. eigenvalues --    0.16313   0.16964   0.17045   0.17197   0.17442
 Alpha virt. eigenvalues --    0.17965   0.18228   0.18584   0.18879   0.19141
 Alpha virt. eigenvalues --    0.19199   0.19705   0.20263   0.20616   0.20868
 Alpha virt. eigenvalues --    0.21718   0.22231   0.22625   0.23609   0.23786
 Alpha virt. eigenvalues --    0.24909   0.25399   0.25608   0.26036   0.26155
 Alpha virt. eigenvalues --    0.27347   0.27548   0.28181   0.28424   0.29527
 Alpha virt. eigenvalues --    0.30137   0.32021   0.32199   0.33373   0.33432
 Alpha virt. eigenvalues --    0.34668   0.34984   0.36259   0.36365   0.36845
 Alpha virt. eigenvalues --    0.38128   0.38940   0.40054   0.44122   0.47514
 Alpha virt. eigenvalues --    0.49043   0.49189   0.49743   0.50276   0.51277
 Alpha virt. eigenvalues --    0.51669   0.52320   0.52640   0.52929   0.53178
 Alpha virt. eigenvalues --    0.53715   0.54361   0.54523   0.54752   0.55069
 Alpha virt. eigenvalues --    0.55641   0.55885   0.56448   0.56919   0.57063
 Alpha virt. eigenvalues --    0.57266   0.57558   0.57912   0.58161   0.58802
 Alpha virt. eigenvalues --    0.59018   0.59701   0.59917   0.60177   0.60418
 Alpha virt. eigenvalues --    0.60719   0.61116   0.61566   0.61899   0.62068
 Alpha virt. eigenvalues --    0.62219   0.62466   0.63484   0.64109   0.64196
 Alpha virt. eigenvalues --    0.65158   0.65546   0.65912   0.66191   0.66850
 Alpha virt. eigenvalues --    0.67515   0.67749   0.68189   0.68525   0.69398
 Alpha virt. eigenvalues --    0.69583   0.70839   0.71946   0.73090   0.73862
 Alpha virt. eigenvalues --    0.74245   0.75488   0.76193   0.76381   0.77276
 Alpha virt. eigenvalues --    0.77628   0.79522   0.80298   0.80969   0.81402
 Alpha virt. eigenvalues --    0.82062   0.82507   0.83174   0.83516   0.83986
 Alpha virt. eigenvalues --    0.84312   0.84808   0.85391   0.85786   0.85898
 Alpha virt. eigenvalues --    0.86372   0.86982   0.87089   0.87770   0.88200
 Alpha virt. eigenvalues --    0.88795   0.89535   0.89708   0.89855   0.90542
 Alpha virt. eigenvalues --    0.90604   0.90694   0.91089   0.91173   0.92600
 Alpha virt. eigenvalues --    0.93085   0.93841   0.94790   0.95218   0.95551
 Alpha virt. eigenvalues --    0.96260   0.96530   0.97497   0.97689   0.98508
 Alpha virt. eigenvalues --    0.98923   0.99355   1.00195   1.00703   1.00771
 Alpha virt. eigenvalues --    1.01633   1.03063   1.03987   1.05743   1.06001
 Alpha virt. eigenvalues --    1.08096   1.08606   1.09343   1.10116   1.10745
 Alpha virt. eigenvalues --    1.12074   1.12742   1.13665   1.14222   1.15149
 Alpha virt. eigenvalues --    1.15820   1.16366   1.17199   1.18843   1.18988
 Alpha virt. eigenvalues --    1.19088   1.19674   1.20220   1.21849   1.23118
 Alpha virt. eigenvalues --    1.23248   1.24422   1.25308   1.25464   1.27148
 Alpha virt. eigenvalues --    1.28035   1.29533   1.30233   1.33026   1.35867
 Alpha virt. eigenvalues --    1.36911   1.37227   1.38156   1.38840   1.39775
 Alpha virt. eigenvalues --    1.40013   1.40327   1.41089   1.41885   1.42543
 Alpha virt. eigenvalues --    1.43030   1.44550   1.45507   1.46290   1.47008
 Alpha virt. eigenvalues --    1.47135   1.47552   1.48010   1.48735   1.49656
 Alpha virt. eigenvalues --    1.50012   1.50394   1.50866   1.50963   1.51867
 Alpha virt. eigenvalues --    1.52262   1.52844   1.54355   1.57704   1.60456
 Alpha virt. eigenvalues --    1.62136   1.64185   1.66453   1.68964   1.70236
 Alpha virt. eigenvalues --    1.72874   1.75261   1.75709   1.76598   1.78880
 Alpha virt. eigenvalues --    1.79213   1.80108   1.81029   1.81591   1.81794
 Alpha virt. eigenvalues --    1.82507   1.83494   1.83590   1.84443   1.85883
 Alpha virt. eigenvalues --    1.86297   1.86898   1.88060   1.88438   1.89231
 Alpha virt. eigenvalues --    1.89875   1.90334   1.90564   1.91119   1.91895
 Alpha virt. eigenvalues --    1.92438   1.92909   1.93364   1.95201   1.95722
 Alpha virt. eigenvalues --    1.96208   1.96517   1.97303   1.97675   1.98647
 Alpha virt. eigenvalues --    1.99076   1.99934   2.00001   2.01388   2.02031
 Alpha virt. eigenvalues --    2.02120   2.03350   2.04693   2.05435   2.06245
 Alpha virt. eigenvalues --    2.06958   2.08391   2.09536   2.09741   2.11600
 Alpha virt. eigenvalues --    2.12112   2.12450   2.12892   2.13715   2.14514
 Alpha virt. eigenvalues --    2.14655   2.14894   2.15839   2.16576   2.17271
 Alpha virt. eigenvalues --    2.18095   2.19479   2.19724   2.20433   2.22603
 Alpha virt. eigenvalues --    2.23764   2.24570   2.25403   2.26772   2.26912
 Alpha virt. eigenvalues --    2.27428   2.28301   2.29518   2.30318   2.30830
 Alpha virt. eigenvalues --    2.31408   2.32062   2.32795   2.32923   2.34432
 Alpha virt. eigenvalues --    2.35938   2.36315   2.37366   2.37991   2.38712
 Alpha virt. eigenvalues --    2.38858   2.40092   2.41311   2.43734   2.44211
 Alpha virt. eigenvalues --    2.45908   2.48680   2.52249   2.52724   2.53985
 Alpha virt. eigenvalues --    2.55099   2.55575   2.56206   2.58465   2.60512
 Alpha virt. eigenvalues --    2.61004   2.62159   2.62970   2.63464   2.65421
 Alpha virt. eigenvalues --    2.65735   2.66584   2.66933   2.67681   2.68725
 Alpha virt. eigenvalues --    2.70030   2.71117   2.73303   2.75400   2.76495
 Alpha virt. eigenvalues --    2.77167   2.78206   2.79033   2.79259   2.80771
 Alpha virt. eigenvalues --    2.83508   2.84310   2.86207   2.86680   2.90604
 Alpha virt. eigenvalues --    2.91764   2.95469   2.96798   2.97820   2.99817
 Alpha virt. eigenvalues --    3.03046   3.06431   3.10748   3.11430   3.16168
 Alpha virt. eigenvalues --    3.21301   3.41291   3.41895   3.43419   4.05051
 Alpha virt. eigenvalues --    4.06881   4.08584   4.10298   4.11352   4.12402
 Alpha virt. eigenvalues --    4.13065   4.13660   4.14247   4.15706   4.17158
 Alpha virt. eigenvalues --    4.19439   4.24142   4.25843   4.30161   4.31476
 Alpha virt. eigenvalues --    4.33718   4.34854   4.36067   4.38932   4.42383
 Alpha virt. eigenvalues --    4.43483   4.45333   4.48715   4.49978   4.58882
 Alpha virt. eigenvalues --    4.65873   4.66841   4.73448   4.78611   5.29388
          Condensed to atoms (all electrons):
 Mulliken charges:
               1
     1  C   -0.456637
     2  C   -0.027713
     3  O   -0.520292
     4  C    0.383750
     5  C   -0.184237
     6  C   -0.186462
     7  C    0.129601
     8  C    0.069564
     9  N   -0.403217
    10  C   -0.207953
    11  C    0.155492
    12  C   -0.191070
    13  C   -0.195615
    14  C    0.377509
    15  F   -0.300530
    16  C   -0.199284
    17  C   -0.170800
    18  C   -0.127711
    19  C   -0.269960
    20  C   -0.160028
    21  N   -0.391002
    22  C   -0.207274
    23  C    0.152693
    24  C   -0.170245
    25  C   -0.129632
    26  C   -0.182226
    27  C    0.182832
    28  C   -0.529523
    29  C   -0.244646
    30  C   -0.176497
    31  C   -0.200016
    32  H    0.163260
    33  H    0.163180
    34  H    0.147748
    35  H    0.139922
    36  H    0.140269
    37  H    0.132889
    38  H    0.128802
    39  H    0.138031
    40  H    0.155558
    41  H    0.126945
    42  H    0.131047
    43  H    0.144092
    44  H    0.143601
    45  H    0.146717
    46  H    0.121371
    47  H    0.147182
    48  H    0.132280
    49  H    0.140516
    50  H    0.154553
    51  H    0.149977
    52  H    0.139483
    53  H    0.146157
    54  H    0.137584
    55  H    0.125589
    56  H    0.118840
    57  H    0.156606
    58  H    0.164529
    59  H    0.155154
    60  H    0.114165
    61  H    0.144804
    62  H    0.130280
 Sum of Mulliken charges =  -0.00000
 Mulliken charges with hydrogens summed into heavy atoms:
               1
     1  C    0.017551
     2  C    0.252478
     3  O   -0.520292
     4  C    0.383750
     5  C   -0.051348
     6  C   -0.057660
     7  C    0.129601
     8  C    0.207595
     9  N   -0.403217
    10  C    0.074550
    11  C    0.155492
    12  C   -0.060024
    13  C   -0.051523
    14  C    0.377509
    15  F   -0.300530
    16  C   -0.055683
    17  C   -0.024084
    18  C    0.140843
    19  C    0.002836
    20  C    0.144502
    21  N   -0.391002
    22  C    0.078366
    23  C    0.152693
    24  C   -0.032661
    25  C   -0.004043
    26  C   -0.063386
    27  C    0.182832
    28  C   -0.053234
    29  C   -0.130481
    30  C   -0.031693
    31  C   -0.069736
 Electronic spatial extent (au):  <R**2>=          19134.3397
 Charge=             -0.0000 electrons
 Dipole moment (field-independent basis, Debye):
    X=              1.4105    Y=             -1.8151    Z=              0.2258  Tot=              2.3098
 Quadrupole moment (field-independent basis, Debye-Ang):
   XX=           -170.4708   YY=           -180.5876   ZZ=           -184.3813
   XY=              3.2581   XZ=             -1.2977   YZ=              3.4440
 Traceless Quadrupole moment (field-independent basis, Debye-Ang):
   XX=              8.0091   YY=             -2.1077   ZZ=             -5.9014
   XY=              3.2581   XZ=             -1.2977   YZ=              3.4440
 Octapole moment (field-independent basis, Debye-Ang**2):
  XXX=            140.7788  YYY=           -202.4088  ZZZ=             57.6300  XYY=            105.5924
  XXY=           -168.7019  XXZ=             20.0212  XZZ=             26.1772  YZZ=            -42.6920
  YYZ=             41.4744  XYZ=             -7.0638
 Hexadecapole moment (field-independent basis, Debye-Ang**3):
 XXXX=         -12501.3757 YYYY=         -10602.9979 ZZZZ=          -1114.3665 XXXY=            386.4882
 XXXZ=           -894.3676 YYYX=           1010.6900 YYYZ=            340.3565 ZZZX=           -972.0037
 ZZZY=            124.3419 XXYY=          -4106.9704 XXZZ=          -2465.0279 YYZZ=          -2074.3047
 XXYZ=             47.7859 YYXZ=           -378.5355 ZZXY=            144.8535
 N-N= 2.919376686568D+03 E-N=-8.933744367059D+03  KE= 1.319537730434D+03
 Leave Link  601 at Sat Nov  5 09:53:53 2022, MaxMem=   402653184 cpu:               2.2 elap:               0.2
 (Enter /home/wykgroup/appl/g16/l9999.exe)
 Electronic transition elements 
                 1             2             3             4 
      1  -0.133195D+04 -0.133195D+04 -0.133192D+04 -0.133191D+04
      2   0.000000D+00  0.000000D+00 -0.975560D-01 -0.786182D-01
      3   0.000000D+00  0.000000D+00  0.257340D+00  0.333973D-02
      4   0.000000D+00  0.000000D+00 -0.384223D-01  0.442476D-02
      5   0.000000D+00  0.000000D+00  0.123335D-01  0.114697D-01
      6   0.000000D+00  0.000000D+00 -0.381724D-01  0.519652D-02
      7   0.000000D+00  0.000000D+00  0.157309D-02  0.100649D-02
      8   0.000000D+00  0.000000D+00 -0.154547D+00  0.372820D-01
      9   0.000000D+00  0.000000D+00 -0.840374D-02 -0.709356D-01
     10   0.000000D+00  0.000000D+00  0.194889D+00 -0.661125D-01
     11   0.000000D+00  0.000000D+00  0.170795D+00 -0.900716D-01
     12   0.000000D+00  0.000000D+00 -0.340451D+00 -0.320524D+00
     13   0.000000D+00  0.000000D+00 -0.893200D-02  0.435749D-01
     14   0.000000D+00  0.000000D+00  0.923393D-01  0.164664D+00
     15   0.000000D+00  0.000000D+00  0.390003D-01 -0.516683D-01
     16   0.000000D+00  0.000000D+00  0.909112D-02  0.272534D-01
 1\1\GINC-NODE14\SP\RB3LYP TD-FC\6-31G(d)\C27H31F1N2O1\WYKGROUP\05-Nov-
 2022\0\\#p b3lyp/6-31g(d) 6D 10F nosymm GFInput td=(50-50,nstate=2) SC
 F=XQC\\Gaussian input prepared by ASE\\0,1\C,0,7.9958092591,-1.5021903
 615,1.1221299605\C,0,6.554590911,-1.6506053543,0.6659131815\O,0,5.8969
 39352,-0.4085609846,0.9084919114\C,0,4.5768180376,-0.2899308589,0.5793
 262019\C,0,3.9876698628,0.9525672613,0.8433730927\C,0,2.6471671247,1.1
 733815272,0.543116243\C,0,1.8469322646,0.1695920605,-0.0219802511\C,0,
 0.3811872276,0.3896710717,-0.45058495\N,0,-0.2903147727,1.6075867234,0
 .0314352759\C,0,0.0355860372,2.8766120531,-0.6023042663\C,0,-1.1500912
 417,3.8293497586,-0.6797368353\C,0,-1.0013513425,5.1806648758,-0.34897
 41116\C,0,-2.0662639247,6.0773848646,-0.4597234873\C,0,-3.2914135566,5
 .5986321536,-0.9038687039\F,0,-4.3319643137,6.4540420756,-1.0119030099
 \C,0,-3.4806101905,4.2608430824,-1.2361433033\C,0,-2.4040028464,3.3838
 636035,-1.1206308281\C,0,-0.542902137,1.6422603889,1.4719901342\C,0,-1
 .3225941429,0.3898240518,1.8956145614\C,0,-0.6568159059,-0.8761970801,
 1.3309791638\N,0,-0.4120976041,-0.800761372,-0.1208821574\C,0,-1.62946
 76022,-0.9263551088,-0.9326110736\C,0,-2.2665014301,-2.3009086763,-0.8
 358546838\C,0,-1.4990778812,-3.462639023,-0.9977207275\C,0,-2.10579820
 65,-4.7152153095,-0.9454852552\C,0,-3.4824832945,-4.8251972791,-0.7350
 595045\C,0,-4.2713292287,-3.6816406806,-0.5722197177\C,0,-5.7655623602
 ,-3.7860538875,-0.3687282613\C,0,-3.6415375851,-2.429692011,-0.6197702
 665\C,0,2.4537677796,-1.065308654,-0.2788930655\C,0,3.7977389242,-1.30
 58262813,0.0118363298\H,0,8.0393347801,-1.2603658482,2.1887067783\H,0,
 8.495263254,-0.7020349725,0.5669137561\H,0,8.5426431278,-2.436345528,0
 .9542628276\H,0,6.5059804155,-1.8969712921,-0.4046799966\H,0,6.0494813
 168,-2.4557319845,1.2189422378\H,0,4.5984559066,1.7329022586,1.2871323
 13\H,0,2.2269324341,2.1470148401,0.7637006263\H,0,0.3792408947,0.47088
 5948,-1.5465077101\H,0,0.3816362452,2.6485507937,-1.6201881809\H,0,0.8
 700076539,3.4140404789,-0.1174000858\H,0,-0.0376730026,5.5427744779,0.
 0024440216\H,0,-1.9597522209,7.1260977471,-0.2019173672\H,0,-4.4555079
 315,3.9271072695,-1.5771571292\H,0,-2.5330534141,2.3337749947,-1.36481
 74655\H,0,0.389399336,1.7132870204,2.0609633153\H,0,-1.1278374816,2.54
 22860701,1.6904365361\H,0,-1.3690744572,0.3307709985,2.9904620281\H,0,
 -2.3546406765,0.4685839764,1.5332223468\H,0,-1.2650749772,-1.763170951
 9,1.531543516\H,0,0.3127572621,-1.0306750822,1.8194046044\H,0,-2.38630
 7949,-0.1605051517,-0.6974483613\H,0,-1.3301620158,-0.7462809737,-1.97
 45627513\H,0,-0.4274877049,-3.3737134136,-1.1501139392\H,0,-1.50539480
 38,-5.6135758908,-1.0665245837\H,0,-3.9468263179,-5.8080926517,-0.6928
 262176\H,0,-6.1359728173,-3.0011611437,0.2999935729\H,0,-6.3058907443,
 -3.6817607051,-1.3193551118\H,0,-6.0453258623,-4.7544450119,0.05927780
 72\H,0,-4.2412446106,-1.5306540695,-0.4839109205\H,0,1.8528377567,-1.8
 615438538,-0.7066846598\H,0,4.2212273912,-2.2802379781,-0.2044464029\\
 Version=ES64L-G16RevB.01\HF=-1332.088464\RMSD=4.212e-09\PG=C01 [X(C27H
 31F1N2O1)]\\@


 WHEN IT COMES TO CASH FLOW, IT SEEMS LIKE THE TIDE IS ALWAYS GOING OUT.
 Job cpu time:       0 days  3 hours  4 minutes 10.9 seconds.
 Elapsed time:       0 days  0 hours 13 minutes 33.8 seconds.
 File lengths (MBytes):  RWF=   1665 Int=      0 D2E=      0 Chk=     59 Scr=      1
 Normal termination of Gaussian 16 at Sat Nov  5 09:53:56 2022.
