 Entering Gaussian System, Link 0=/home/wykgroup/appl/g16/g16
 Input=calculation/no_transfer_pubchem_sampling_5_b3lyp/10707981_rwf.com
 Output=calculation/no_transfer_pubchem_sampling_5_b3lyp/10707981_rwf.log
 Initial command:
 /home/wykgroup/appl/g16/l1.exe "/userdata/scratch/wykgroup/khs/calculation/no_transfer_pubchem_sampling_5_b3lyp/10707981_rwf/Gau-3221.inp" -scrdir="/userdata/scratch/wykgroup/khs/calculation/no_transfer_pubchem_sampling_5_b3lyp/10707981_rwf/"
 Entering Link 1 = /home/wykgroup/appl/g16/l1.exe PID=      3223.
  
 Copyright (c) 1988-2017, Gaussian, Inc.  All Rights Reserved.
  
 This is part of the Gaussian(R) 16 program.  It is based on
 the Gaussian(R) 09 system (copyright 2009, Gaussian, Inc.),
 the Gaussian(R) 03 system (copyright 2003, Gaussian, Inc.),
 the Gaussian(R) 98 system (copyright 1998, Gaussian, Inc.),
 the Gaussian(R) 94 system (copyright 1995, Gaussian, Inc.),
 the Gaussian 92(TM) system (copyright 1992, Gaussian, Inc.),
 the Gaussian 90(TM) system (copyright 1990, Gaussian, Inc.),
 the Gaussian 88(TM) system (copyright 1988, Gaussian, Inc.),
 the Gaussian 86(TM) system (copyright 1986, Carnegie Mellon
 University), and the Gaussian 82(TM) system (copyright 1983,
 Carnegie Mellon University). Gaussian is a federally registered
 trademark of Gaussian, Inc.
  
 This software contains proprietary and confidential information,
 including trade secrets, belonging to Gaussian, Inc.
  
 This software is provided under written license and may be
 used, copied, transmitted, or stored only in accord with that
 written license.
  
 The following legend is applicable only to US Government
 contracts under FAR:
  
                    RESTRICTED RIGHTS LEGEND
  
 Use, reproduction and disclosure by the US Government is
 subject to restrictions as set forth in subparagraphs (a)
 and (c) of the Commercial Computer Software - Restricted
 Rights clause in FAR 52.227-19.
  
 Gaussian, Inc.
 340 Quinnipiac St., Bldg. 40, Wallingford CT 06492
  
  
 ---------------------------------------------------------------
 Warning -- This program may not be used in any manner that
 competes with the business of Gaussian, Inc. or will provide
 assistance to any competitor of Gaussian, Inc.  The licensee
 of this program is prohibited from giving any competitor of
 Gaussian, Inc. access to this program.  By using this program,
 the user acknowledges that Gaussian, Inc. is engaged in the
 business of creating and licensing software in the field of
 computational chemistry and represents and warrants to the
 licensee that it is not a competitor of Gaussian, Inc. and that
 it will not use this program in any manner prohibited above.
 ---------------------------------------------------------------
  

 Cite this work as:
 Gaussian 16, Revision B.01,
 M. J. Frisch, G. W. Trucks, H. B. Schlegel, G. E. Scuseria, 
 M. A. Robb, J. R. Cheeseman, G. Scalmani, V. Barone, 
 G. A. Petersson, H. Nakatsuji, X. Li, M. Caricato, A. V. Marenich, 
 J. Bloino, B. G. Janesko, R. Gomperts, B. Mennucci, H. P. Hratchian, 
 J. V. Ortiz, A. F. Izmaylov, J. L. Sonnenberg, D. Williams-Young, 
 F. Ding, F. Lipparini, F. Egidi, J. Goings, B. Peng, A. Petrone, 
 T. Henderson, D. Ranasinghe, V. G. Zakrzewski, J. Gao, N. Rega, 
 G. Zheng, W. Liang, M. Hada, M. Ehara, K. Toyota, R. Fukuda, 
 J. Hasegawa, M. Ishida, T. Nakajima, Y. Honda, O. Kitao, H. Nakai, 
 T. Vreven, K. Throssell, J. A. Montgomery, Jr., J. E. Peralta, 
 F. Ogliaro, M. J. Bearpark, J. J. Heyd, E. N. Brothers, K. N. Kudin, 
 V. N. Staroverov, T. A. Keith, R. Kobayashi, J. Normand, 
 K. Raghavachari, A. P. Rendell, J. C. Burant, S. S. Iyengar, 
 J. Tomasi, M. Cossi, J. M. Millam, M. Klene, C. Adamo, R. Cammi, 
 J. W. Ochterski, R. L. Martin, K. Morokuma, O. Farkas, 
 J. B. Foresman, and D. J. Fox, Gaussian, Inc., Wallingford CT, 2016.
 
 ******************************************
 Gaussian 16:  ES64L-G16RevB.01 20-Dec-2017
                 5-Nov-2022 
 ******************************************
 %chk=calculation/no_transfer_pubchem_sampling_5_b3lyp/10707981_rwf.chk
 %rwf=calculation/no_transfer_pubchem_sampling_5_b3lyp/10707981_rwf.rwf
 %nprocshared=14
 Will use up to   14 processors via shared memory.
 %mem=3GB
 -------------------------------------------------------------------
 #p b3lyp/6-31g(d) 6D 10F nosymm GFInput td=(50-50,nstate=2) SCF=XQC
 -------------------------------------------------------------------
 1/38=1,172=1/1;
 2/12=2,15=1,17=6,18=5,40=1/2;
 3/5=1,6=6,7=1,8=22,11=9,24=10,25=1,30=1,74=-5/1,2,3,8;
 4//1;
 5/5=2,8=3,13=1,38=5/2,8;
 8/6=1,10=2,108=2/1;
 9/41=2,42=1,48=2,70=2/14;
 6/7=2,8=2,9=2,10=2/1;
 99/5=1,9=1/99;
 Leave Link    1 at Sat Nov  5 09:24:50 2022, MaxMem=   402653184 cpu:               8.3 elap:               0.9
 (Enter /home/wykgroup/appl/g16/l101.exe)
 ------------------------------
 Gaussian input prepared by ASE
 ------------------------------
 Symbolic Z-matrix:
 Charge =  0 Multiplicity = 1
 C                    -3.38046  -1.89582  -0.60709 
 C                    -2.29957  -1.62898   0.44921 
 C                    -2.33093  -2.64947   1.59734 
 N                    -0.95084  -1.53187  -0.1444 
 C                    -0.29931  -2.54332  -0.84358 
 C                    -0.86858  -3.80455  -1.13128 
 N                    -1.31846  -4.85242  -1.37913 
 C                     0.98654  -2.11551  -1.13357 
 C                     1.16337  -0.83118  -0.57131 
 C                     2.43698  -0.08376  -0.57802 
 C                     2.86965   0.64927   0.54139 
 C                     4.10082   1.30234   0.53316 
 C                     4.9313    1.23443  -0.58843 
 C                     4.51608   0.50687  -1.70428 
 C                     3.28199  -0.14319  -1.69892 
 C                    -0.05626  -0.48045   0.02987 
 N                    -0.36655   0.70001   0.72089 
 C                    -0.8553    1.93907   0.03263 
 C                    -2.22987   1.73859  -0.63697 
 C                    -0.96412   3.00395   1.13512 
 C                     0.16121   2.39064  -1.02465 
 H                    -3.33152  -1.15844  -1.41377 
 H                    -4.36759  -1.82418  -0.13728 
 H                    -3.28765  -2.89373  -1.04247 
 H                    -2.48643  -0.63815   0.8688 
 H                    -3.30833  -2.61915   2.09153 
 H                    -1.56104  -2.42436   2.34318 
 H                    -2.16911  -3.66762   1.23179 
 H                     1.73297  -2.7047   -1.64754 
 H                     2.22912   0.70401   1.41509 
 H                     4.41777   1.86007   1.41097 
 H                     5.8916    1.74312  -0.59144 
 H                     5.15064   0.44822  -2.58492 
 H                     2.96032  -0.69422  -2.57887 
 H                    -0.90821   0.53023   1.56282 
 H                    -3.00016   1.47189   0.09696 
 H                    -2.55482   2.6596   -1.13499 
 H                    -2.18424   0.94949  -1.39501 
 H                     0.00738   3.1658    1.61263 
 H                    -1.31099   3.95539   0.71852 
 H                    -1.68186   2.70241   1.91 
 H                     1.1398    2.57861  -0.57689 
 H                     0.285     1.63729  -1.80863 
 H                    -0.19031   3.31375  -1.49883 
 
 ITRead=  0  0  0  0  0  0  0  0  0  0  0  0  0  0  0  0  0  0  0  0
 ITRead=  0  0  0  0  0  0  0  0  0  0  0  0  0  0  0  0  0  0  0  0
 ITRead=  0  0  0  0
 MicOpt= -1 -1 -1 -1 -1 -1 -1 -1 -1 -1 -1 -1 -1 -1 -1 -1 -1 -1 -1 -1
 MicOpt= -1 -1 -1 -1 -1 -1 -1 -1 -1 -1 -1 -1 -1 -1 -1 -1 -1 -1 -1 -1
 MicOpt= -1 -1 -1 -1
 NAtoms=     44 NQM=       44 NQMF=       0 NMMI=      0 NMMIF=      0
                NMic=       0 NMicF=      0.
                    Isotopes and Nuclear Properties:
 (Nuclear quadrupole moments (NQMom) in fm**2, nuclear magnetic moments (NMagM)
  in nuclear magnetons)

  Atom         1           2           3           4           5           6           7           8           9          10
 IAtWgt=          12          12          12          14          12          12          14          12          12          12
 AtmWgt=  12.0000000  12.0000000  12.0000000  14.0030740  12.0000000  12.0000000  14.0030740  12.0000000  12.0000000  12.0000000
 NucSpn=           0           0           0           2           0           0           2           0           0           0
 AtZEff=  -0.0000000  -0.0000000  -0.0000000  -0.0000000  -0.0000000  -0.0000000  -0.0000000  -0.0000000  -0.0000000  -0.0000000
 NQMom=    0.0000000   0.0000000   0.0000000   2.0440000   0.0000000   0.0000000   2.0440000   0.0000000   0.0000000   0.0000000
 NMagM=    0.0000000   0.0000000   0.0000000   0.4037610   0.0000000   0.0000000   0.4037610   0.0000000   0.0000000   0.0000000
 AtZNuc=   6.0000000   6.0000000   6.0000000   7.0000000   6.0000000   6.0000000   7.0000000   6.0000000   6.0000000   6.0000000

  Atom        11          12          13          14          15          16          17          18          19          20
 IAtWgt=          12          12          12          12          12          12          14          12          12          12
 AtmWgt=  12.0000000  12.0000000  12.0000000  12.0000000  12.0000000  12.0000000  14.0030740  12.0000000  12.0000000  12.0000000
 NucSpn=           0           0           0           0           0           0           2           0           0           0
 AtZEff=  -0.0000000  -0.0000000  -0.0000000  -0.0000000  -0.0000000  -0.0000000  -0.0000000  -0.0000000  -0.0000000  -0.0000000
 NQMom=    0.0000000   0.0000000   0.0000000   0.0000000   0.0000000   0.0000000   2.0440000   0.0000000   0.0000000   0.0000000
 NMagM=    0.0000000   0.0000000   0.0000000   0.0000000   0.0000000   0.0000000   0.4037610   0.0000000   0.0000000   0.0000000
 AtZNuc=   6.0000000   6.0000000   6.0000000   6.0000000   6.0000000   6.0000000   7.0000000   6.0000000   6.0000000   6.0000000

  Atom        21          22          23          24          25          26          27          28          29          30
 IAtWgt=          12           1           1           1           1           1           1           1           1           1
 AtmWgt=  12.0000000   1.0078250   1.0078250   1.0078250   1.0078250   1.0078250   1.0078250   1.0078250   1.0078250   1.0078250
 NucSpn=           0           1           1           1           1           1           1           1           1           1
 AtZEff=  -0.0000000  -0.0000000  -0.0000000  -0.0000000  -0.0000000  -0.0000000  -0.0000000  -0.0000000  -0.0000000  -0.0000000
 NQMom=    0.0000000   0.0000000   0.0000000   0.0000000   0.0000000   0.0000000   0.0000000   0.0000000   0.0000000   0.0000000
 NMagM=    0.0000000   2.7928460   2.7928460   2.7928460   2.7928460   2.7928460   2.7928460   2.7928460   2.7928460   2.7928460
 AtZNuc=   6.0000000   1.0000000   1.0000000   1.0000000   1.0000000   1.0000000   1.0000000   1.0000000   1.0000000   1.0000000

  Atom        31          32          33          34          35          36          37          38          39          40
 IAtWgt=           1           1           1           1           1           1           1           1           1           1
 AtmWgt=   1.0078250   1.0078250   1.0078250   1.0078250   1.0078250   1.0078250   1.0078250   1.0078250   1.0078250   1.0078250
 NucSpn=           1           1           1           1           1           1           1           1           1           1
 AtZEff=  -0.0000000  -0.0000000  -0.0000000  -0.0000000  -0.0000000  -0.0000000  -0.0000000  -0.0000000  -0.0000000  -0.0000000
 NQMom=    0.0000000   0.0000000   0.0000000   0.0000000   0.0000000   0.0000000   0.0000000   0.0000000   0.0000000   0.0000000
 NMagM=    2.7928460   2.7928460   2.7928460   2.7928460   2.7928460   2.7928460   2.7928460   2.7928460   2.7928460   2.7928460
 AtZNuc=   1.0000000   1.0000000   1.0000000   1.0000000   1.0000000   1.0000000   1.0000000   1.0000000   1.0000000   1.0000000

  Atom        41          42          43          44
 IAtWgt=           1           1           1           1
 AtmWgt=   1.0078250   1.0078250   1.0078250   1.0078250
 NucSpn=           1           1           1           1
 AtZEff=  -0.0000000  -0.0000000  -0.0000000  -0.0000000
 NQMom=    0.0000000   0.0000000   0.0000000   0.0000000
 NMagM=    2.7928460   2.7928460   2.7928460   2.7928460
 AtZNuc=   1.0000000   1.0000000   1.0000000   1.0000000
 Leave Link  101 at Sat Nov  5 09:24:51 2022, MaxMem=   402653184 cpu:               1.8 elap:               0.2
 (Enter /home/wykgroup/appl/g16/l202.exe)
                          Input orientation:                          
 ---------------------------------------------------------------------
 Center     Atomic      Atomic             Coordinates (Angstroms)
 Number     Number       Type             X           Y           Z
 ---------------------------------------------------------------------
      1          6           0       -3.380465   -1.895816   -0.607089
      2          6           0       -2.299569   -1.628976    0.449210
      3          6           0       -2.330932   -2.649468    1.597338
      4          7           0       -0.950845   -1.531872   -0.144403
      5          6           0       -0.299310   -2.543315   -0.843585
      6          6           0       -0.868582   -3.804550   -1.131276
      7          7           0       -1.318459   -4.852423   -1.379134
      8          6           0        0.986542   -2.115512   -1.133567
      9          6           0        1.163368   -0.831176   -0.571313
     10          6           0        2.436978   -0.083760   -0.578022
     11          6           0        2.869650    0.649274    0.541394
     12          6           0        4.100820    1.302339    0.533160
     13          6           0        4.931297    1.234433   -0.588433
     14          6           0        4.516078    0.506868   -1.704283
     15          6           0        3.281992   -0.143192   -1.698915
     16          6           0       -0.056265   -0.480445    0.029868
     17          7           0       -0.366552    0.700005    0.720886
     18          6           0       -0.855300    1.939070    0.032629
     19          6           0       -2.229873    1.738590   -0.636971
     20          6           0       -0.964123    3.003954    1.135120
     21          6           0        0.161207    2.390642   -1.024646
     22          1           0       -3.331525   -1.158438   -1.413774
     23          1           0       -4.367592   -1.824185   -0.137282
     24          1           0       -3.287653   -2.893732   -1.042472
     25          1           0       -2.486431   -0.638151    0.868802
     26          1           0       -3.308333   -2.619149    2.091529
     27          1           0       -1.561043   -2.424361    2.343177
     28          1           0       -2.169108   -3.667620    1.231790
     29          1           0        1.732968   -2.704702   -1.647539
     30          1           0        2.229120    0.704013    1.415090
     31          1           0        4.417772    1.860069    1.410975
     32          1           0        5.891602    1.743123   -0.591437
     33          1           0        5.150642    0.448224   -2.584916
     34          1           0        2.960317   -0.694215   -2.578867
     35          1           0       -0.908210    0.530232    1.562823
     36          1           0       -3.000163    1.471894    0.096964
     37          1           0       -2.554817    2.659600   -1.134989
     38          1           0       -2.184241    0.949488   -1.395012
     39          1           0        0.007380    3.165797    1.612627
     40          1           0       -1.310988    3.955388    0.718516
     41          1           0       -1.681855    2.702411    1.910003
     42          1           0        1.139802    2.578607   -0.576893
     43          1           0        0.285005    1.637288   -1.808628
     44          1           0       -0.190308    3.313752   -1.498834
 ---------------------------------------------------------------------
                    Distance matrix (angstroms):
                    1          2          3          4          5
     1  C    0.000000
     2  C    1.534701   0.000000
     3  C    2.555192   1.536420   0.000000
     4  N    2.499917   1.476774   2.487433   0.000000
     5  C    3.157325   2.551150   3.177555   1.391535   0.000000
     6  C    3.198061   3.046109   3.304242   2.479062   1.413347
     7  N    3.686386   3.833539   3.838945   3.561707   2.580204
     8  C    4.404111   3.679732   4.329964   2.252232   1.385829
     9  C    4.667028   3.697280   4.496595   2.267845   2.268255
    10  C    6.093195   5.087020   5.835067   3.709770   3.688795
    11  C    6.845468   5.649756   6.248421   4.452403   4.706708
    12  C    8.215715   7.040215   7.623430   5.831909   6.003801
    13  C    8.881678   7.846097   8.520696   6.515305   6.457224
    14  C    8.326591   7.460054   8.230717   6.039614   5.764754
    15  C    6.975106   6.162453   6.975072   4.718246   4.395214
    16  C    3.668691   2.554875   3.512226   1.391453   2.253314
    17  N    4.193504   3.038835   3.980695   2.464021   3.601558
    18  C    4.635951   3.871744   5.067591   3.476767   4.600940
    19  C    3.812304   3.539088   4.925180   3.546048   4.701539
    20  C    5.734261   4.870106   5.834637   4.712863   5.927010
    21  C    5.575977   4.938117   6.203891   4.171044   4.958709
    22  H    1.094012   2.181066   3.505874   2.723673   3.381912
    23  H    1.095569   2.158425   2.799640   3.429237   4.191293
    24  H    1.092707   2.191125   2.818435   2.849888   3.015384
    25  H    2.135245   1.092113   2.144840   2.045324   3.368296
    26  H    2.794808   2.166855   1.095653   3.426268   4.204148
    27  H    3.506240   2.182926   1.095298   2.712367   3.429514
    28  H    2.826331   2.187583   1.093821   2.817710   3.011210
    29  H    5.280532   4.670641   5.200727   3.292081   2.191470
    30  H    6.505056   5.185054   5.663313   4.188481   4.694647
    31  H    8.887731   7.630275   8.118846   6.538082   6.835474
    32  H    9.960589   8.919040   9.575784   7.598980   7.534223
    33  H    9.065656   8.308208   9.113775   6.863310   6.456278
    34  H    6.748130   6.140800   7.018619   4.682464   4.129836
    35  H    4.087331   2.799678   3.483650   2.677445   3.950728
    36  H    3.461472   3.198485   4.436735   3.644252   4.929619
    37  H    4.659634   4.578943   5.975110   4.595914   5.678253
    38  H    3.185519   3.172213   4.682752   3.040138   4.007083
    39  H    6.482635   5.446596   6.267794   5.106217   6.222620
    40  H    6.346381   5.677583   6.740678   5.566360   6.759941
    41  H    5.510419   4.612635   5.400154   4.762784   6.083693
    42  H    6.360361   5.530454   6.641238   4.631835   5.326937
    43  H    5.230888   4.737756   6.067949   3.786891   4.330148
    44  H    6.173484   5.716154   7.051847   5.088514   5.894614
                    6          7          8          9         10
     6  C    0.000000
     7  N    1.166988   0.000000
     8  C    2.508853   3.586645   0.000000
     9  C    3.644631   4.794004   1.413123   0.000000
    10  C    5.007703   6.122519   2.557422   1.476739   0.000000
    11  C    6.050516   7.176165   3.741073   2.518183   1.406284
    12  C    7.317487   8.420602   4.915120   3.794782   2.434002
    13  C    7.702248   8.759822   5.203882   4.297013   2.821236
    14  C    6.921794   7.929032   4.433984   3.783471   2.437204
    15  C    5.563724   6.591151   3.078758   2.496674   1.404985
    16  C    3.613556   4.763676   2.261519   1.404255   2.596757
    17  N    4.896280   6.012127   3.632767   2.520902   3.187668
    18  C    5.860377   6.952119   4.603480   3.480521   3.912011
    19  C    5.729210   6.694993   5.044406   4.257004   5.010382
    20  C    7.176448   8.256494   5.929668   4.705991   4.902685
    21  C    6.281102   7.401153   4.582408   3.404401   3.391352
    22  H    3.625990   4.207037   4.431728   4.584856   5.926975
    23  H    4.141611   4.473213   5.453826   5.636131   7.037436
    24  H    2.586383   2.797773   4.345419   4.928257   6.393985
    25  H    4.079685   4.917058   4.272426   3.928387   5.161454
    26  H    4.212366   4.581769   5.394520   5.503061   6.823730
    27  H    3.802137   4.450835   4.321265   4.295917   5.476859
    28  H    2.700778   2.990700   4.238170   4.733074   6.110278
    29  H    2.871281   3.741117   1.080955   2.234459   2.916990
    30  H    6.033811   7.160097   3.998671   2.727348   2.153204
    31  H    8.154538   9.259946   5.835518   4.665127   3.414400
    32  H    8.761745   9.803401   6.264389   5.383643   3.907954
    33  H    7.512005   8.449855   5.100871   4.646485   3.416812
    34  H    5.141028   6.085883   2.829268   2.697787   2.156367
    35  H    5.103927   6.147877   4.226176   3.270994   4.018766
    36  H    5.821775   6.708500   5.502499   4.804759   5.695451
    37  H    6.680467   7.616999   5.944991   5.131095   5.723133
    38  H    4.939777   5.866175   4.417742   3.880171   4.805282
    39  H    7.542019   8.660273   6.032625   4.699116   4.611021
    40  H    7.989624   9.054155   6.750162   5.540513   5.660652
    41  H    7.228508   8.247787   6.292538   5.170924   5.560378
    42  H    6.714584   7.868091   4.729495   3.409869   2.961565
    43  H    5.603853   6.698650   3.877031   2.897548   3.017845
    44  H    7.159984   8.244602   5.567342   4.457932   4.392450
                   11         12         13         14         15
    11  C    0.000000
    12  C    1.393679   0.000000
    13  C    2.422666   1.397239   0.000000
    14  C    2.788202   2.410678   1.395306   0.000000
    15  C    2.411849   2.782481   2.418931   1.394839   0.000000
    16  C    3.177877   4.551151   5.310261   4.988826   3.774439
    17  N    3.241573   4.511702   5.483351   5.455165   4.458508
    18  C    3.974628   5.021860   5.862333   5.824068   4.944821
    19  C    5.346053   6.452689   7.179059   6.940040   5.920261
    20  C    4.538154   5.376941   6.392013   6.658097   5.997148
    21  C    3.580574   4.373981   4.927562   4.793268   4.076059
    22  H    6.748709   8.067572   8.641831   8.027610   6.697062
    23  H    7.678299   9.051997   9.799389   9.317130   7.986275
    24  H    7.278317   8.641710   9.208639   8.538167   7.152386
    25  H    5.518357   6.875321   7.787991   7.547647   6.333472
    26  H    7.159119   8.526554   9.482816   9.241298   7.995637
    27  H    5.685481   7.015778   8.008221   7.868001   6.707998
    28  H    6.670930   8.031225   8.818112   8.410624   7.122157
    29  H    4.163247   5.139897   5.183415   4.250071   2.993901
    30  H    1.084722   2.153847   3.405469   3.872924   3.394603
    31  H    2.149158   1.087235   2.157026   3.397889   3.869686
    32  H    3.407639   2.160072   1.086719   2.158429   3.405107
    33  H    3.875198   3.399124   2.156891   1.087026   2.150959
    34  H    3.398412   3.869326   3.400922   2.151253   1.086929
    35  H    3.915318   5.171724   6.262879   6.332253   5.352591
    36  H    5.943814   7.116387   7.964560   7.789072   6.730465
    37  H    6.022998   6.994453   7.640139   7.413225   6.499385
    38  H    5.420481   6.583642   7.166774   6.722042   5.582653
    39  H    3.958917   4.625362   5.728857   6.196787   5.713039
    40  H    5.332870   6.029983   6.933819   7.191450   6.613457
    41  H    5.177322   6.106982   7.220175   7.503190   6.764727
    42  H    2.822281   3.410089   4.022733   4.118538   3.640894
    43  H    3.630312   4.489611   4.820706   4.380722   3.487705
    44  H    4.541511   5.156410   5.602075   5.483693   4.903812
                   16         17         18         19         20
    16  C    0.000000
    17  N    1.402586   0.000000
    18  C    2.548042   1.499284   0.000000
    19  C    3.177006   2.528715   1.542079   0.000000
    20  C    3.766541   2.415960   1.536655   2.518646   0.000000
    21  C    3.066339   2.486697   1.534613   2.508531   2.511396
    22  H    3.642953   4.098981   4.221175   3.195282   5.424662
    23  H    4.518974   4.807943   5.150452   4.184841   6.042643
    24  H    4.173216   4.955523   5.516172   4.768829   6.702492
    25  H    2.575732   2.511261   3.162569   2.825256   3.956422
    26  H    4.404594   4.642147   5.570799   5.253349   6.166793
    27  H    3.375584   3.717567   4.987608   5.163213   5.593060
    28  H    4.008342   4.752513   5.882095   5.720407   6.780209
    29  H    3.310946   4.648596   5.575545   6.038890   6.899728
    30  H    2.923143   2.686903   3.598640   5.016365   3.945239
    31  H    5.234737   4.971089   5.450814   6.957013   5.509026
    32  H    6.380234   6.478794   6.778535   8.121604   7.181341
    33  H    5.900119   6.436703   6.719041   7.741547   7.600052
    34  H    3.993865   4.888790   5.320999   6.052072   6.547624
    35  H    2.024162   1.015419   2.080653   2.836550   2.511047
    36  H    3.533082   2.814427   2.196094   1.096874   2.751443
    37  H    4.178461   3.474591   2.184228   1.096298   2.793256
    38  H    2.933134   2.800582   2.187124   1.095166   3.480099
    39  H    3.975458   2.648614   2.178410   3.478924   1.094542
    40  H    4.661029   3.389614   2.177988   2.756064   1.095035
    41  H    4.038320   2.674631   2.188702   2.777832   1.098413
    42  H    3.340140   2.735412   2.181962   3.473320   2.745617
    43  H    2.825124   2.775151   2.186686   2.776266   3.477607
    44  H    4.092778   3.433641   2.162717   2.717309   2.762695
                   21         22         23         24         25
    21  C    0.000000
    22  H    4.994654   0.000000
    23  H    6.249977   1.773721   0.000000
    24  H    6.310274   1.775116   1.769059   0.000000
    25  H    4.446203   2.488983   2.440829   3.063098   0.000000
    26  H    6.844433   3.797547   2.592605   3.146075   2.468793
    27  H    6.123123   4.341871   3.793363   3.829374   2.494127
    28  H    6.872002   3.827038   3.178985   2.649964   3.067594
    29  H    5.368515   5.300440   6.346103   5.060481   5.329722
    30  H    3.615701   6.510911   7.233136   7.029805   4.933179
    31  H    4.932758   8.783063   9.651604   9.380384   7.362274
    32  H    5.783111   9.703677  10.871201  10.293812   8.831433
    33  H    5.576907   8.712066  10.087197   9.206119   8.451821
    34  H    4.446005   6.415623   7.806179   6.799670   6.446443
    35  H    3.361514   4.193351   4.516742   4.916588   2.082683
    36  H    3.477983   3.051356   3.576153   4.521023   2.304765
    37  H    2.731538   3.906201   4.938209   5.602241   3.859406
    38  H    2.777629   2.399993   3.747289   4.013994   2.781505
    39  H    2.753133   6.245510   6.863125   7.390851   4.608947
    40  H    2.766660   5.897495   6.593837   7.342937   4.743928
    41  H    3.479403   5.354909   5.647533   6.527825   3.590375
    42  H    1.092457   5.887159   7.064647   7.054475   5.058373
    43  H    1.094301   4.588167   6.035052   5.820741   4.475166
    44  H    1.095696   5.465799   6.760320   6.952314   5.147370
                   26         27         28         29         30
    26  H    0.000000
    27  H    1.776032   0.000000
    28  H    1.770953   1.774997   0.000000
    29  H    6.277154   5.182173   4.944082   0.000000
    30  H    6.493409   5.001340   6.203965   4.609252   0.000000
    31  H    8.956520   7.414282   8.600840   6.115539   2.475214
    32  H   10.529317   9.028942   9.878023   6.180027   4.303449
    33  H   10.140620   8.808210   9.224216   4.743428   4.959917
    34  H    8.050710   6.903812   7.047925   2.532945   4.294343
    35  H    3.994837   3.124862   4.395612   5.267546   3.145610
    36  H    4.561786   4.722006   5.328516   6.549027   5.447246
    37  H    6.232447   6.239542   6.766397   6.886475   5.763095
    38  H    5.114169   5.073981   5.312062   5.362966   5.237813
    39  H    6.684976   5.851796   7.181763   6.933188   3.321977
    40  H    7.007075   6.588114   7.688307   7.695497   4.856853
    41  H    5.567529   5.146457   6.424537   7.318059   4.419758
    42  H    7.343232   6.391484   7.296271   5.423235   2.944268
    43  H    6.800041   6.094454   6.588540   4.579893   3.878524
    44  H    7.603427   7.040306   7.753161   6.320038   4.599492
                   31         32         33         34         35
    31  H    0.000000
    32  H    2.489077   0.000000
    33  H    4.300878   2.489928   0.000000
    34  H    4.956549   4.299177   2.470370   0.000000
    35  H    5.491595   7.235287   7.343035   5.798134   0.000000
    36  H    7.543412   8.922496   8.641528   6.883271   2.722450
    37  H    7.465800   8.513364   8.146568   6.614345   3.810998
    38  H    7.231134   8.154436   7.447661   5.528992   3.248510
    39  H    4.604037   6.442513   7.173404   6.417800   2.790518
    40  H    6.139101   7.647705   8.060120   7.122892   3.550603
    41  H    6.177704   8.033348   8.483436   7.296354   2.331828
    42  H    3.900385   4.824712   4.965635   4.246592   3.601191
    43  H    5.243590   5.738178   5.068622   3.631318   3.743797
    44  H    5.640442   6.346643   6.157644   5.211210   4.199656
                   36         37         38         39         40
    36  H    0.000000
    37  H    1.768244   0.000000
    38  H    1.778939   1.769017   0.000000
    39  H    3.769862   3.790841   4.331410   0.000000
    40  H    3.067146   2.581018   3.776904   1.777915   0.000000
    41  H    2.557189   3.167943   3.774685   1.776703   1.768371
    42  H    4.337996   3.737410   3.791122   2.534003   3.095155
    43  H    3.801442   3.092490   2.596406   3.757446   3.782491
    44  H    3.719448   2.480161   3.094558   3.121244   2.565982
                   41         42         43         44
    41  H    0.000000
    42  H    3.763207   0.000000
    43  H    4.339497   1.770291   0.000000
    44  H    3.770759   1.777528   1.769866   0.000000
 Symmetry turned off by external request.
 Stoichiometry    C18H23N3
 Framework group  C1[X(C18H23N3)]
 Deg. of freedom   126
 Full point group                 C1      NOp   1
 Rotational constants (GHZ):           0.4320658           0.2364733           0.1735867
 Leave Link  202 at Sat Nov  5 09:24:51 2022, MaxMem=   402653184 cpu:               1.1 elap:               0.2
 (Enter /home/wykgroup/appl/g16/l301.exe)
 Standard basis: 6-31G(d) (6D, 10F)
 Ernie: Thresh=  0.10000D-02 Tol=  0.10000D-05 Strict=F.
 AO basis set in the form of general basis input (Overlap normalization):
      1 0
 S   6 1.00       0.000000000000
      0.3047524880D+04  0.1834737132D-02
      0.4573695180D+03  0.1403732281D-01
      0.1039486850D+03  0.6884262226D-01
      0.2921015530D+02  0.2321844432D+00
      0.9286662960D+01  0.4679413484D+00
      0.3163926960D+01  0.3623119853D+00
 SP   3 1.00       0.000000000000
      0.7868272350D+01 -0.1193324198D+00  0.6899906659D-01
      0.1881288540D+01 -0.1608541517D+00  0.3164239610D+00
      0.5442492580D+00  0.1143456438D+01  0.7443082909D+00
 SP   1 1.00       0.000000000000
      0.1687144782D+00  0.1000000000D+01  0.1000000000D+01
 D   1 1.00       0.000000000000
      0.8000000000D+00  0.1000000000D+01
 ****
      2 0
 S   6 1.00       0.000000000000
      0.3047524880D+04  0.1834737132D-02
      0.4573695180D+03  0.1403732281D-01
      0.1039486850D+03  0.6884262226D-01
      0.2921015530D+02  0.2321844432D+00
      0.9286662960D+01  0.4679413484D+00
      0.3163926960D+01  0.3623119853D+00
 SP   3 1.00       0.000000000000
      0.7868272350D+01 -0.1193324198D+00  0.6899906659D-01
      0.1881288540D+01 -0.1608541517D+00  0.3164239610D+00
      0.5442492580D+00  0.1143456438D+01  0.7443082909D+00
 SP   1 1.00       0.000000000000
      0.1687144782D+00  0.1000000000D+01  0.1000000000D+01
 D   1 1.00       0.000000000000
      0.8000000000D+00  0.1000000000D+01
 ****
      3 0
 S   6 1.00       0.000000000000
      0.3047524880D+04  0.1834737132D-02
      0.4573695180D+03  0.1403732281D-01
      0.1039486850D+03  0.6884262226D-01
      0.2921015530D+02  0.2321844432D+00
      0.9286662960D+01  0.4679413484D+00
      0.3163926960D+01  0.3623119853D+00
 SP   3 1.00       0.000000000000
      0.7868272350D+01 -0.1193324198D+00  0.6899906659D-01
      0.1881288540D+01 -0.1608541517D+00  0.3164239610D+00
      0.5442492580D+00  0.1143456438D+01  0.7443082909D+00
 SP   1 1.00       0.000000000000
      0.1687144782D+00  0.1000000000D+01  0.1000000000D+01
 D   1 1.00       0.000000000000
      0.8000000000D+00  0.1000000000D+01
 ****
      4 0
 S   6 1.00       0.000000000000
      0.4173511460D+04  0.1834772160D-02
      0.6274579110D+03  0.1399462700D-01
      0.1429020930D+03  0.6858655181D-01
      0.4023432930D+02  0.2322408730D+00
      0.1282021290D+02  0.4690699481D+00
      0.4390437010D+01  0.3604551991D+00
 SP   3 1.00       0.000000000000
      0.1162636186D+02 -0.1149611817D+00  0.6757974388D-01
      0.2716279807D+01 -0.1691174786D+00  0.3239072959D+00
      0.7722183966D+00  0.1145851947D+01  0.7408951398D+00
 SP   1 1.00       0.000000000000
      0.2120314975D+00  0.1000000000D+01  0.1000000000D+01
 D   1 1.00       0.000000000000
      0.8000000000D+00  0.1000000000D+01
 ****
      5 0
 S   6 1.00       0.000000000000
      0.3047524880D+04  0.1834737132D-02
      0.4573695180D+03  0.1403732281D-01
      0.1039486850D+03  0.6884262226D-01
      0.2921015530D+02  0.2321844432D+00
      0.9286662960D+01  0.4679413484D+00
      0.3163926960D+01  0.3623119853D+00
 SP   3 1.00       0.000000000000
      0.7868272350D+01 -0.1193324198D+00  0.6899906659D-01
      0.1881288540D+01 -0.1608541517D+00  0.3164239610D+00
      0.5442492580D+00  0.1143456438D+01  0.7443082909D+00
 SP   1 1.00       0.000000000000
      0.1687144782D+00  0.1000000000D+01  0.1000000000D+01
 D   1 1.00       0.000000000000
      0.8000000000D+00  0.1000000000D+01
 ****
      6 0
 S   6 1.00       0.000000000000
      0.3047524880D+04  0.1834737132D-02
      0.4573695180D+03  0.1403732281D-01
      0.1039486850D+03  0.6884262226D-01
      0.2921015530D+02  0.2321844432D+00
      0.9286662960D+01  0.4679413484D+00
      0.3163926960D+01  0.3623119853D+00
 SP   3 1.00       0.000000000000
      0.7868272350D+01 -0.1193324198D+00  0.6899906659D-01
      0.1881288540D+01 -0.1608541517D+00  0.3164239610D+00
      0.5442492580D+00  0.1143456438D+01  0.7443082909D+00
 SP   1 1.00       0.000000000000
      0.1687144782D+00  0.1000000000D+01  0.1000000000D+01
 D   1 1.00       0.000000000000
      0.8000000000D+00  0.1000000000D+01
 ****
      7 0
 S   6 1.00       0.000000000000
      0.4173511460D+04  0.1834772160D-02
      0.6274579110D+03  0.1399462700D-01
      0.1429020930D+03  0.6858655181D-01
      0.4023432930D+02  0.2322408730D+00
      0.1282021290D+02  0.4690699481D+00
      0.4390437010D+01  0.3604551991D+00
 SP   3 1.00       0.000000000000
      0.1162636186D+02 -0.1149611817D+00  0.6757974388D-01
      0.2716279807D+01 -0.1691174786D+00  0.3239072959D+00
      0.7722183966D+00  0.1145851947D+01  0.7408951398D+00
 SP   1 1.00       0.000000000000
      0.2120314975D+00  0.1000000000D+01  0.1000000000D+01
 D   1 1.00       0.000000000000
      0.8000000000D+00  0.1000000000D+01
 ****
      8 0
 S   6 1.00       0.000000000000
      0.3047524880D+04  0.1834737132D-02
      0.4573695180D+03  0.1403732281D-01
      0.1039486850D+03  0.6884262226D-01
      0.2921015530D+02  0.2321844432D+00
      0.9286662960D+01  0.4679413484D+00
      0.3163926960D+01  0.3623119853D+00
 SP   3 1.00       0.000000000000
      0.7868272350D+01 -0.1193324198D+00  0.6899906659D-01
      0.1881288540D+01 -0.1608541517D+00  0.3164239610D+00
      0.5442492580D+00  0.1143456438D+01  0.7443082909D+00
 SP   1 1.00       0.000000000000
      0.1687144782D+00  0.1000000000D+01  0.1000000000D+01
 D   1 1.00       0.000000000000
      0.8000000000D+00  0.1000000000D+01
 ****
      9 0
 S   6 1.00       0.000000000000
      0.3047524880D+04  0.1834737132D-02
      0.4573695180D+03  0.1403732281D-01
      0.1039486850D+03  0.6884262226D-01
      0.2921015530D+02  0.2321844432D+00
      0.9286662960D+01  0.4679413484D+00
      0.3163926960D+01  0.3623119853D+00
 SP   3 1.00       0.000000000000
      0.7868272350D+01 -0.1193324198D+00  0.6899906659D-01
      0.1881288540D+01 -0.1608541517D+00  0.3164239610D+00
      0.5442492580D+00  0.1143456438D+01  0.7443082909D+00
 SP   1 1.00       0.000000000000
      0.1687144782D+00  0.1000000000D+01  0.1000000000D+01
 D   1 1.00       0.000000000000
      0.8000000000D+00  0.1000000000D+01
 ****
     10 0
 S   6 1.00       0.000000000000
      0.3047524880D+04  0.1834737132D-02
      0.4573695180D+03  0.1403732281D-01
      0.1039486850D+03  0.6884262226D-01
      0.2921015530D+02  0.2321844432D+00
      0.9286662960D+01  0.4679413484D+00
      0.3163926960D+01  0.3623119853D+00
 SP   3 1.00       0.000000000000
      0.7868272350D+01 -0.1193324198D+00  0.6899906659D-01
      0.1881288540D+01 -0.1608541517D+00  0.3164239610D+00
      0.5442492580D+00  0.1143456438D+01  0.7443082909D+00
 SP   1 1.00       0.000000000000
      0.1687144782D+00  0.1000000000D+01  0.1000000000D+01
 D   1 1.00       0.000000000000
      0.8000000000D+00  0.1000000000D+01
 ****
     11 0
 S   6 1.00       0.000000000000
      0.3047524880D+04  0.1834737132D-02
      0.4573695180D+03  0.1403732281D-01
      0.1039486850D+03  0.6884262226D-01
      0.2921015530D+02  0.2321844432D+00
      0.9286662960D+01  0.4679413484D+00
      0.3163926960D+01  0.3623119853D+00
 SP   3 1.00       0.000000000000
      0.7868272350D+01 -0.1193324198D+00  0.6899906659D-01
      0.1881288540D+01 -0.1608541517D+00  0.3164239610D+00
      0.5442492580D+00  0.1143456438D+01  0.7443082909D+00
 SP   1 1.00       0.000000000000
      0.1687144782D+00  0.1000000000D+01  0.1000000000D+01
 D   1 1.00       0.000000000000
      0.8000000000D+00  0.1000000000D+01
 ****
     12 0
 S   6 1.00       0.000000000000
      0.3047524880D+04  0.1834737132D-02
      0.4573695180D+03  0.1403732281D-01
      0.1039486850D+03  0.6884262226D-01
      0.2921015530D+02  0.2321844432D+00
      0.9286662960D+01  0.4679413484D+00
      0.3163926960D+01  0.3623119853D+00
 SP   3 1.00       0.000000000000
      0.7868272350D+01 -0.1193324198D+00  0.6899906659D-01
      0.1881288540D+01 -0.1608541517D+00  0.3164239610D+00
      0.5442492580D+00  0.1143456438D+01  0.7443082909D+00
 SP   1 1.00       0.000000000000
      0.1687144782D+00  0.1000000000D+01  0.1000000000D+01
 D   1 1.00       0.000000000000
      0.8000000000D+00  0.1000000000D+01
 ****
     13 0
 S   6 1.00       0.000000000000
      0.3047524880D+04  0.1834737132D-02
      0.4573695180D+03  0.1403732281D-01
      0.1039486850D+03  0.6884262226D-01
      0.2921015530D+02  0.2321844432D+00
      0.9286662960D+01  0.4679413484D+00
      0.3163926960D+01  0.3623119853D+00
 SP   3 1.00       0.000000000000
      0.7868272350D+01 -0.1193324198D+00  0.6899906659D-01
      0.1881288540D+01 -0.1608541517D+00  0.3164239610D+00
      0.5442492580D+00  0.1143456438D+01  0.7443082909D+00
 SP   1 1.00       0.000000000000
      0.1687144782D+00  0.1000000000D+01  0.1000000000D+01
 D   1 1.00       0.000000000000
      0.8000000000D+00  0.1000000000D+01
 ****
     14 0
 S   6 1.00       0.000000000000
      0.3047524880D+04  0.1834737132D-02
      0.4573695180D+03  0.1403732281D-01
      0.1039486850D+03  0.6884262226D-01
      0.2921015530D+02  0.2321844432D+00
      0.9286662960D+01  0.4679413484D+00
      0.3163926960D+01  0.3623119853D+00
 SP   3 1.00       0.000000000000
      0.7868272350D+01 -0.1193324198D+00  0.6899906659D-01
      0.1881288540D+01 -0.1608541517D+00  0.3164239610D+00
      0.5442492580D+00  0.1143456438D+01  0.7443082909D+00
 SP   1 1.00       0.000000000000
      0.1687144782D+00  0.1000000000D+01  0.1000000000D+01
 D   1 1.00       0.000000000000
      0.8000000000D+00  0.1000000000D+01
 ****
     15 0
 S   6 1.00       0.000000000000
      0.3047524880D+04  0.1834737132D-02
      0.4573695180D+03  0.1403732281D-01
      0.1039486850D+03  0.6884262226D-01
      0.2921015530D+02  0.2321844432D+00
      0.9286662960D+01  0.4679413484D+00
      0.3163926960D+01  0.3623119853D+00
 SP   3 1.00       0.000000000000
      0.7868272350D+01 -0.1193324198D+00  0.6899906659D-01
      0.1881288540D+01 -0.1608541517D+00  0.3164239610D+00
      0.5442492580D+00  0.1143456438D+01  0.7443082909D+00
 SP   1 1.00       0.000000000000
      0.1687144782D+00  0.1000000000D+01  0.1000000000D+01
 D   1 1.00       0.000000000000
      0.8000000000D+00  0.1000000000D+01
 ****
     16 0
 S   6 1.00       0.000000000000
      0.3047524880D+04  0.1834737132D-02
      0.4573695180D+03  0.1403732281D-01
      0.1039486850D+03  0.6884262226D-01
      0.2921015530D+02  0.2321844432D+00
      0.9286662960D+01  0.4679413484D+00
      0.3163926960D+01  0.3623119853D+00
 SP   3 1.00       0.000000000000
      0.7868272350D+01 -0.1193324198D+00  0.6899906659D-01
      0.1881288540D+01 -0.1608541517D+00  0.3164239610D+00
      0.5442492580D+00  0.1143456438D+01  0.7443082909D+00
 SP   1 1.00       0.000000000000
      0.1687144782D+00  0.1000000000D+01  0.1000000000D+01
 D   1 1.00       0.000000000000
      0.8000000000D+00  0.1000000000D+01
 ****
     17 0
 S   6 1.00       0.000000000000
      0.4173511460D+04  0.1834772160D-02
      0.6274579110D+03  0.1399462700D-01
      0.1429020930D+03  0.6858655181D-01
      0.4023432930D+02  0.2322408730D+00
      0.1282021290D+02  0.4690699481D+00
      0.4390437010D+01  0.3604551991D+00
 SP   3 1.00       0.000000000000
      0.1162636186D+02 -0.1149611817D+00  0.6757974388D-01
      0.2716279807D+01 -0.1691174786D+00  0.3239072959D+00
      0.7722183966D+00  0.1145851947D+01  0.7408951398D+00
 SP   1 1.00       0.000000000000
      0.2120314975D+00  0.1000000000D+01  0.1000000000D+01
 D   1 1.00       0.000000000000
      0.8000000000D+00  0.1000000000D+01
 ****
     18 0
 S   6 1.00       0.000000000000
      0.3047524880D+04  0.1834737132D-02
      0.4573695180D+03  0.1403732281D-01
      0.1039486850D+03  0.6884262226D-01
      0.2921015530D+02  0.2321844432D+00
      0.9286662960D+01  0.4679413484D+00
      0.3163926960D+01  0.3623119853D+00
 SP   3 1.00       0.000000000000
      0.7868272350D+01 -0.1193324198D+00  0.6899906659D-01
      0.1881288540D+01 -0.1608541517D+00  0.3164239610D+00
      0.5442492580D+00  0.1143456438D+01  0.7443082909D+00
 SP   1 1.00       0.000000000000
      0.1687144782D+00  0.1000000000D+01  0.1000000000D+01
 D   1 1.00       0.000000000000
      0.8000000000D+00  0.1000000000D+01
 ****
     19 0
 S   6 1.00       0.000000000000
      0.3047524880D+04  0.1834737132D-02
      0.4573695180D+03  0.1403732281D-01
      0.1039486850D+03  0.6884262226D-01
      0.2921015530D+02  0.2321844432D+00
      0.9286662960D+01  0.4679413484D+00
      0.3163926960D+01  0.3623119853D+00
 SP   3 1.00       0.000000000000
      0.7868272350D+01 -0.1193324198D+00  0.6899906659D-01
      0.1881288540D+01 -0.1608541517D+00  0.3164239610D+00
      0.5442492580D+00  0.1143456438D+01  0.7443082909D+00
 SP   1 1.00       0.000000000000
      0.1687144782D+00  0.1000000000D+01  0.1000000000D+01
 D   1 1.00       0.000000000000
      0.8000000000D+00  0.1000000000D+01
 ****
     20 0
 S   6 1.00       0.000000000000
      0.3047524880D+04  0.1834737132D-02
      0.4573695180D+03  0.1403732281D-01
      0.1039486850D+03  0.6884262226D-01
      0.2921015530D+02  0.2321844432D+00
      0.9286662960D+01  0.4679413484D+00
      0.3163926960D+01  0.3623119853D+00
 SP   3 1.00       0.000000000000
      0.7868272350D+01 -0.1193324198D+00  0.6899906659D-01
      0.1881288540D+01 -0.1608541517D+00  0.3164239610D+00
      0.5442492580D+00  0.1143456438D+01  0.7443082909D+00
 SP   1 1.00       0.000000000000
      0.1687144782D+00  0.1000000000D+01  0.1000000000D+01
 D   1 1.00       0.000000000000
      0.8000000000D+00  0.1000000000D+01
 ****
     21 0
 S   6 1.00       0.000000000000
      0.3047524880D+04  0.1834737132D-02
      0.4573695180D+03  0.1403732281D-01
      0.1039486850D+03  0.6884262226D-01
      0.2921015530D+02  0.2321844432D+00
      0.9286662960D+01  0.4679413484D+00
      0.3163926960D+01  0.3623119853D+00
 SP   3 1.00       0.000000000000
      0.7868272350D+01 -0.1193324198D+00  0.6899906659D-01
      0.1881288540D+01 -0.1608541517D+00  0.3164239610D+00
      0.5442492580D+00  0.1143456438D+01  0.7443082909D+00
 SP   1 1.00       0.000000000000
      0.1687144782D+00  0.1000000000D+01  0.1000000000D+01
 D   1 1.00       0.000000000000
      0.8000000000D+00  0.1000000000D+01
 ****
     22 0
 S   3 1.00       0.000000000000
      0.1873113696D+02  0.3349460434D-01
      0.2825394365D+01  0.2347269535D+00
      0.6401216923D+00  0.8137573261D+00
 S   1 1.00       0.000000000000
      0.1612777588D+00  0.1000000000D+01
 ****
     23 0
 S   3 1.00       0.000000000000
      0.1873113696D+02  0.3349460434D-01
      0.2825394365D+01  0.2347269535D+00
      0.6401216923D+00  0.8137573261D+00
 S   1 1.00       0.000000000000
      0.1612777588D+00  0.1000000000D+01
 ****
     24 0
 S   3 1.00       0.000000000000
      0.1873113696D+02  0.3349460434D-01
      0.2825394365D+01  0.2347269535D+00
      0.6401216923D+00  0.8137573261D+00
 S   1 1.00       0.000000000000
      0.1612777588D+00  0.1000000000D+01
 ****
     25 0
 S   3 1.00       0.000000000000
      0.1873113696D+02  0.3349460434D-01
      0.2825394365D+01  0.2347269535D+00
      0.6401216923D+00  0.8137573261D+00
 S   1 1.00       0.000000000000
      0.1612777588D+00  0.1000000000D+01
 ****
     26 0
 S   3 1.00       0.000000000000
      0.1873113696D+02  0.3349460434D-01
      0.2825394365D+01  0.2347269535D+00
      0.6401216923D+00  0.8137573261D+00
 S   1 1.00       0.000000000000
      0.1612777588D+00  0.1000000000D+01
 ****
     27 0
 S   3 1.00       0.000000000000
      0.1873113696D+02  0.3349460434D-01
      0.2825394365D+01  0.2347269535D+00
      0.6401216923D+00  0.8137573261D+00
 S   1 1.00       0.000000000000
      0.1612777588D+00  0.1000000000D+01
 ****
     28 0
 S   3 1.00       0.000000000000
      0.1873113696D+02  0.3349460434D-01
      0.2825394365D+01  0.2347269535D+00
      0.6401216923D+00  0.8137573261D+00
 S   1 1.00       0.000000000000
      0.1612777588D+00  0.1000000000D+01
 ****
     29 0
 S   3 1.00       0.000000000000
      0.1873113696D+02  0.3349460434D-01
      0.2825394365D+01  0.2347269535D+00
      0.6401216923D+00  0.8137573261D+00
 S   1 1.00       0.000000000000
      0.1612777588D+00  0.1000000000D+01
 ****
     30 0
 S   3 1.00       0.000000000000
      0.1873113696D+02  0.3349460434D-01
      0.2825394365D+01  0.2347269535D+00
      0.6401216923D+00  0.8137573261D+00
 S   1 1.00       0.000000000000
      0.1612777588D+00  0.1000000000D+01
 ****
     31 0
 S   3 1.00       0.000000000000
      0.1873113696D+02  0.3349460434D-01
      0.2825394365D+01  0.2347269535D+00
      0.6401216923D+00  0.8137573261D+00
 S   1 1.00       0.000000000000
      0.1612777588D+00  0.1000000000D+01
 ****
     32 0
 S   3 1.00       0.000000000000
      0.1873113696D+02  0.3349460434D-01
      0.2825394365D+01  0.2347269535D+00
      0.6401216923D+00  0.8137573261D+00
 S   1 1.00       0.000000000000
      0.1612777588D+00  0.1000000000D+01
 ****
     33 0
 S   3 1.00       0.000000000000
      0.1873113696D+02  0.3349460434D-01
      0.2825394365D+01  0.2347269535D+00
      0.6401216923D+00  0.8137573261D+00
 S   1 1.00       0.000000000000
      0.1612777588D+00  0.1000000000D+01
 ****
     34 0
 S   3 1.00       0.000000000000
      0.1873113696D+02  0.3349460434D-01
      0.2825394365D+01  0.2347269535D+00
      0.6401216923D+00  0.8137573261D+00
 S   1 1.00       0.000000000000
      0.1612777588D+00  0.1000000000D+01
 ****
     35 0
 S   3 1.00       0.000000000000
      0.1873113696D+02  0.3349460434D-01
      0.2825394365D+01  0.2347269535D+00
      0.6401216923D+00  0.8137573261D+00
 S   1 1.00       0.000000000000
      0.1612777588D+00  0.1000000000D+01
 ****
     36 0
 S   3 1.00       0.000000000000
      0.1873113696D+02  0.3349460434D-01
      0.2825394365D+01  0.2347269535D+00
      0.6401216923D+00  0.8137573261D+00
 S   1 1.00       0.000000000000
      0.1612777588D+00  0.1000000000D+01
 ****
     37 0
 S   3 1.00       0.000000000000
      0.1873113696D+02  0.3349460434D-01
      0.2825394365D+01  0.2347269535D+00
      0.6401216923D+00  0.8137573261D+00
 S   1 1.00       0.000000000000
      0.1612777588D+00  0.1000000000D+01
 ****
     38 0
 S   3 1.00       0.000000000000
      0.1873113696D+02  0.3349460434D-01
      0.2825394365D+01  0.2347269535D+00
      0.6401216923D+00  0.8137573261D+00
 S   1 1.00       0.000000000000
      0.1612777588D+00  0.1000000000D+01
 ****
     39 0
 S   3 1.00       0.000000000000
      0.1873113696D+02  0.3349460434D-01
      0.2825394365D+01  0.2347269535D+00
      0.6401216923D+00  0.8137573261D+00
 S   1 1.00       0.000000000000
      0.1612777588D+00  0.1000000000D+01
 ****
     40 0
 S   3 1.00       0.000000000000
      0.1873113696D+02  0.3349460434D-01
      0.2825394365D+01  0.2347269535D+00
      0.6401216923D+00  0.8137573261D+00
 S   1 1.00       0.000000000000
      0.1612777588D+00  0.1000000000D+01
 ****
     41 0
 S   3 1.00       0.000000000000
      0.1873113696D+02  0.3349460434D-01
      0.2825394365D+01  0.2347269535D+00
      0.6401216923D+00  0.8137573261D+00
 S   1 1.00       0.000000000000
      0.1612777588D+00  0.1000000000D+01
 ****
     42 0
 S   3 1.00       0.000000000000
      0.1873113696D+02  0.3349460434D-01
      0.2825394365D+01  0.2347269535D+00
      0.6401216923D+00  0.8137573261D+00
 S   1 1.00       0.000000000000
      0.1612777588D+00  0.1000000000D+01
 ****
     43 0
 S   3 1.00       0.000000000000
      0.1873113696D+02  0.3349460434D-01
      0.2825394365D+01  0.2347269535D+00
      0.6401216923D+00  0.8137573261D+00
 S   1 1.00       0.000000000000
      0.1612777588D+00  0.1000000000D+01
 ****
     44 0
 S   3 1.00       0.000000000000
      0.1873113696D+02  0.3349460434D-01
      0.2825394365D+01  0.2347269535D+00
      0.6401216923D+00  0.8137573261D+00
 S   1 1.00       0.000000000000
      0.1612777588D+00  0.1000000000D+01
 ****

   361 basis functions,   680 primitive gaussians,   361 cartesian basis functions
    76 alpha electrons       76 beta electrons
       nuclear repulsion energy      1677.5683093835 Hartrees.
 IExCor=  402 DFT=T Ex+Corr=B3LYP ExCW=0 ScaHFX=  0.200000
 ScaDFX=  0.800000  0.720000  1.000000  0.810000 ScalE2=  1.000000  1.000000
 IRadAn=      5 IRanWt=     -1 IRanGd=            0 ICorTp=0 IEmpDi=  4
 NAtoms=   44 NActive=   44 NUniq=   44 SFac= 1.00D+00 NAtFMM=   60 NAOKFM=F Big=F
 Integral buffers will be    131072 words long.
 Regular integral format.
 Two-electron integral symmetry is turned off.
 Leave Link  301 at Sat Nov  5 09:24:52 2022, MaxMem=   402653184 cpu:               3.2 elap:               0.4
 (Enter /home/wykgroup/appl/g16/l302.exe)
 NPDir=0 NMtPBC=     1 NCelOv=     1 NCel=       1 NClECP=     1 NCelD=      1
         NCelK=      1 NCelE2=     1 NClLst=     1 CellRange=     0.0.
 One-electron integrals computed using PRISM.
 NBasis=   361 RedAO= T EigKep=  4.54D-04  NBF=   361
 NBsUse=   361 1.00D-06 EigRej= -1.00D+00 NBFU=   361
 Precomputing XC quadrature grid using
 IXCGrd= 4 IRadAn=           5 IRanWt=          -1 IRanGd=           0 AccXCQ= 0.00D+00.
 Generated NRdTot=       0 NPtTot=           0 NUsed=           0 NTot=          32
 NSgBfM=   360   360   360   360   360 MxSgAt=    44 MxSgA2=    44.
 Leave Link  302 at Sat Nov  5 09:24:53 2022, MaxMem=   402653184 cpu:              14.7 elap:               1.4
 (Enter /home/wykgroup/appl/g16/l303.exe)
 DipDrv:  MaxL=1.
 Leave Link  303 at Sat Nov  5 09:24:53 2022, MaxMem=   402653184 cpu:               1.8 elap:               0.3
 (Enter /home/wykgroup/appl/g16/l308.exe)
 Leave Link  308 at Sat Nov  5 09:24:54 2022, MaxMem=   402653184 cpu:               1.4 elap:               0.2
 (Enter /home/wykgroup/appl/g16/l401.exe)
 ExpMin= 1.61D-01 ExpMax= 4.17D+03 ExpMxC= 6.27D+02 IAcc=3 IRadAn=         5 AccDes= 0.00D+00
 Harris functional with IExCor=  402 and IRadAn=       5 diagonalized for initial guess.
 HarFok:  IExCor=  402 AccDes= 0.00D+00 IRadAn=         5 IDoV= 1 UseB2=F ITyADJ=14
 ICtDFT=  3500011 ScaDFX=  1.000000  1.000000  1.000000  1.000000
 FoFCou: FMM=F IPFlag=           0 FMFlag=      100000 FMFlg1=           0
         NFxFlg=           0 DoJE=T BraDBF=F KetDBF=T FulRan=T
         wScrn=  0.000000 ICntrl=       500 IOpCl=  0 I1Cent=   200000004 NGrid=           0
         NMat0=    1 NMatS0=      1 NMatT0=    0 NMatD0=    1 NMtDS0=    0 NMtDT0=    0
 Symmetry not used in FoFCou.
 Harris En= -864.058485255714    
 JPrj=0 DoOrth=F DoCkMO=F.
 Leave Link  401 at Sat Nov  5 09:24:56 2022, MaxMem=   402653184 cpu:              24.0 elap:               2.4
 (Enter /home/wykgroup/appl/g16/l502.exe)
 Two-electron integral symmetry not used.
 Closed shell SCF:
 Using DIIS extrapolation, IDIIS=  1040.
 NGot=   402653184 LenX=   402384153 LenY=   402253391
 Requested convergence on RMS density matrix=1.00D-08 within  32 cycles.
 Requested convergence on MAX density matrix=1.00D-06.
 Requested convergence on             energy=1.00D-06.
 No special actions if energy rises.
 Fock matrices will be formed incrementally for  20 cycles.
 Integral accuracy reduced to 1.0D-05 until final iterations.

 Cycle   1  Pass 0  IDiag  1:
 FoFJK:  IHMeth= 1 ICntrl=       0 DoSepK=F KAlg= 0 I1Cent=           0 FoldK=F
 IRaf= 810000000 NMat=       1 IRICut=       1 DoRegI=T DoRafI=F ISym2E= 0 IDoP0=0 IntGTp=1.
 FoFCou: FMM=F IPFlag=           0 FMFlag=      100000 FMFlg1=           0
         NFxFlg=           0 DoJE=F BraDBF=F KetDBF=F FulRan=T
         wScrn=  0.000000 ICntrl=         0 IOpCl=  0 I1Cent=           0 NGrid=           0
         NMat0=    1 NMatS0=      1 NMatT0=    0 NMatD0=    1 NMtDS0=    0 NMtDT0=    0
 Symmetry not used in FoFCou.
 E= -863.428523890351    
 DIIS: error= 3.02D-02 at cycle   1 NSaved=   1.
 NSaved= 1 IEnMin= 1 EnMin= -863.428523890351     IErMin= 1 ErrMin= 3.02D-02
 ErrMax= 3.02D-02  0.00D+00 EMaxC= 1.00D-01 BMatC= 5.57D-01 BMatP= 5.57D-01
 IDIUse=3 WtCom= 6.98D-01 WtEn= 3.02D-01
 Coeff-Com:  0.100D+01
 Coeff-En:   0.100D+01
 Coeff:      0.100D+01
 Gap=     0.245 Goal=   None    Shift=    0.000
 GapD=    0.245 DampG=1.000 DampE=0.500 DampFc=0.5000 IDamp=-1.
 Damping current iteration by 5.00D-01
 RMSDP=5.07D-03 MaxDP=2.56D-01              OVMax= 2.18D-01

 Cycle   2  Pass 0  IDiag  1:
 RMSU=  2.48D-03    CP:  9.72D-01
 E= -863.670710355889     Delta-E=       -0.242186465538 Rises=F Damp=T
 DIIS: error= 8.21D-03 at cycle   2 NSaved=   2.
 NSaved= 2 IEnMin= 2 EnMin= -863.670710355889     IErMin= 2 ErrMin= 8.21D-03
 ErrMax= 8.21D-03  0.00D+00 EMaxC= 1.00D-01 BMatC= 4.99D-02 BMatP= 5.57D-01
 IDIUse=3 WtCom= 9.18D-01 WtEn= 8.21D-02
 Coeff-Com:  0.104D+00 0.896D+00
 Coeff-En:   0.165D+00 0.835D+00
 Coeff:      0.109D+00 0.891D+00
 Gap=     0.204 Goal=   None    Shift=    0.000
 RMSDP=1.64D-03 MaxDP=7.68D-02 DE=-2.42D-01 OVMax= 2.27D-01

 Cycle   3  Pass 0  IDiag  1:
 RMSU=  1.52D-03    CP:  9.59D-01  7.73D-01
 E= -863.932839491031     Delta-E=       -0.262129135142 Rises=F Damp=F
 DIIS: error= 1.71D-02 at cycle   3 NSaved=   3.
 NSaved= 3 IEnMin= 3 EnMin= -863.932839491031     IErMin= 2 ErrMin= 8.21D-03
 ErrMax= 1.71D-02  0.00D+00 EMaxC= 1.00D-01 BMatC= 8.61D-02 BMatP= 4.99D-02
 IDIUse=2 WtCom= 0.00D+00 WtEn= 1.00D+00
 Coeff-En:   0.000D+00 0.000D+00 0.100D+01
 Coeff:      0.000D+00 0.000D+00 0.100D+01
 Gap=     0.226 Goal=   None    Shift=    0.000
 RMSDP=3.04D-03 MaxDP=1.63D-01 DE=-2.62D-01 OVMax= 2.29D-01

 Cycle   4  Pass 0  IDiag  1:
 RMSU=  1.64D-03    CP:  9.64D-01  1.29D+00 -4.58D-01
 E= -863.503717072070     Delta-E=        0.429122418961 Rises=F Damp=F
 DIIS: error= 3.88D-02 at cycle   4 NSaved=   4.
 NSaved= 4 IEnMin= 3 EnMin= -863.932839491031     IErMin= 2 ErrMin= 8.21D-03
 ErrMax= 3.88D-02  0.00D+00 EMaxC= 1.00D-01 BMatC= 5.45D-01 BMatP= 4.99D-02
 IDIUse=2 WtCom= 0.00D+00 WtEn= 1.00D+00
 Coeff-En:   0.000D+00 0.000D+00 0.802D+00 0.198D+00
 Coeff:      0.000D+00 0.000D+00 0.802D+00 0.198D+00
 Gap=     0.176 Goal=   None    Shift=    0.000
 RMSDP=1.70D-03 MaxDP=1.04D-01 DE= 4.29D-01 OVMax= 1.38D-01

 Cycle   5  Pass 0  IDiag  1:
 RMSU=  3.57D-04    CP:  9.62D-01  9.84D-01  3.02D-01  4.33D-01
 E= -863.969379744371     Delta-E=       -0.465662672301 Rises=F Damp=F
 DIIS: error= 1.19D-02 at cycle   5 NSaved=   5.
 NSaved= 5 IEnMin= 5 EnMin= -863.969379744371     IErMin= 2 ErrMin= 8.21D-03
 ErrMax= 1.19D-02  0.00D+00 EMaxC= 1.00D-01 BMatC= 4.79D-02 BMatP= 4.99D-02
 IDIUse=3 WtCom= 8.81D-01 WtEn= 1.19D-01
 Coeff-Com:  0.394D-02 0.124D-01 0.359D+00-0.646D-01 0.689D+00
 Coeff-En:   0.000D+00 0.000D+00 0.394D+00 0.000D+00 0.606D+00
 Coeff:      0.347D-02 0.109D-01 0.364D+00-0.569D-01 0.679D+00
 Gap=     0.181 Goal=   None    Shift=    0.000
 RMSDP=6.37D-04 MaxDP=3.09D-02 DE=-4.66D-01 OVMax= 4.91D-02

 Cycle   6  Pass 0  IDiag  1:
 RMSU=  9.97D-05    CP:  9.61D-01  8.80D-01  6.06D-01  2.40D-01  6.51D-01
 E= -864.012983858680     Delta-E=       -0.043604114309 Rises=F Damp=F
 DIIS: error= 9.29D-04 at cycle   6 NSaved=   6.
 NSaved= 6 IEnMin= 6 EnMin= -864.012983858680     IErMin= 6 ErrMin= 9.29D-04
 ErrMax= 9.29D-04  0.00D+00 EMaxC= 1.00D-01 BMatC= 4.74D-04 BMatP= 4.79D-02
 IDIUse=3 WtCom= 9.91D-01 WtEn= 9.29D-03
 Coeff-Com:  0.267D-03 0.521D-02 0.181D+00-0.685D-01 0.466D+00 0.416D+00
 Coeff-En:   0.000D+00 0.000D+00 0.000D+00 0.000D+00 0.000D+00 0.100D+01
 Coeff:      0.264D-03 0.517D-02 0.179D+00-0.678D-01 0.462D+00 0.421D+00
 Gap=     0.180 Goal=   None    Shift=    0.000
 RMSDP=6.52D-05 MaxDP=4.15D-03 DE=-4.36D-02 OVMax= 6.93D-03

 Cycle   7  Pass 0  IDiag  1:
 RMSU=  2.70D-05    CP:  9.61D-01  8.83D-01  6.01D-01  2.38D-01  7.41D-01
                    CP:  5.11D-01
 E= -864.013400381795     Delta-E=       -0.000416523115 Rises=F Damp=F
 DIIS: error= 1.51D-04 at cycle   7 NSaved=   7.
 NSaved= 7 IEnMin= 7 EnMin= -864.013400381795     IErMin= 7 ErrMin= 1.51D-04
 ErrMax= 1.51D-04  0.00D+00 EMaxC= 1.00D-01 BMatC= 1.91D-05 BMatP= 4.74D-04
 IDIUse=3 WtCom= 9.98D-01 WtEn= 1.51D-03
 Coeff-Com:  0.284D-03 0.556D-03 0.510D-01-0.230D-01 0.134D+00 0.156D+00
 Coeff-Com:  0.681D+00
 Coeff-En:   0.000D+00 0.000D+00 0.000D+00 0.000D+00 0.000D+00 0.000D+00
 Coeff-En:   0.100D+01
 Coeff:      0.283D-03 0.555D-03 0.509D-01-0.230D-01 0.134D+00 0.155D+00
 Coeff:      0.682D+00
 Gap=     0.180 Goal=   None    Shift=    0.000
 RMSDP=1.71D-05 MaxDP=4.98D-04 DE=-4.17D-04 OVMax= 1.62D-03

 Cycle   8  Pass 0  IDiag  1:
 RMSU=  1.21D-05    CP:  9.61D-01  8.82D-01  6.04D-01  2.38D-01  7.35D-01
                    CP:  5.44D-01  6.31D-01
 E= -864.013413043163     Delta-E=       -0.000012661368 Rises=F Damp=F
 DIIS: error= 9.16D-05 at cycle   8 NSaved=   8.
 NSaved= 8 IEnMin= 8 EnMin= -864.013413043163     IErMin= 8 ErrMin= 9.16D-05
 ErrMax= 9.16D-05  0.00D+00 EMaxC= 1.00D-01 BMatC= 5.92D-06 BMatP= 1.91D-05
 IDIUse=1 WtCom= 1.00D+00 WtEn= 0.00D+00
 Coeff-Com:  0.313D-03-0.810D-03 0.118D-01-0.539D-02 0.253D-01 0.369D-01
 Coeff-Com:  0.454D+00 0.477D+00
 Coeff:      0.313D-03-0.810D-03 0.118D-01-0.539D-02 0.253D-01 0.369D-01
 Coeff:      0.454D+00 0.477D+00
 Gap=     0.180 Goal=   None    Shift=    0.000
 RMSDP=8.67D-06 MaxDP=2.71D-04 DE=-1.27D-05 OVMax= 9.28D-04

 Initial convergence to 1.0D-05 achieved.  Increase integral accuracy.
 Cycle   9  Pass 1  IDiag  1:
 E= -864.013424707563     Delta-E=       -0.000011664400 Rises=F Damp=F
 DIIS: error= 7.54D-05 at cycle   1 NSaved=   1.
 NSaved= 1 IEnMin= 1 EnMin= -864.013424707563     IErMin= 1 ErrMin= 7.54D-05
 ErrMax= 7.54D-05  0.00D+00 EMaxC= 1.00D-01 BMatC= 1.54D-06 BMatP= 1.54D-06
 IDIUse=1 WtCom= 1.00D+00 WtEn= 0.00D+00
 Coeff-Com:  0.100D+01
 Coeff:      0.100D+01
 Gap=     0.180 Goal=   None    Shift=    0.000
 RMSDP=8.67D-06 MaxDP=2.71D-04 DE=-1.17D-05 OVMax= 4.87D-04

 Cycle  10  Pass 1  IDiag  1:
 RMSU=  4.61D-05    CP:  1.00D+00
 E= -864.013424610151     Delta-E=        0.000000097412 Rises=F Damp=F
 DIIS: error= 4.94D-05 at cycle   2 NSaved=   2.
 NSaved= 2 IEnMin= 1 EnMin= -864.013424707563     IErMin= 2 ErrMin= 4.94D-05
 ErrMax= 4.94D-05  0.00D+00 EMaxC= 1.00D-01 BMatC= 1.32D-06 BMatP= 1.54D-06
 IDIUse=1 WtCom= 1.00D+00 WtEn= 0.00D+00
 Coeff-Com:  0.474D+00 0.526D+00
 Coeff:      0.474D+00 0.526D+00
 Gap=     0.180 Goal=   None    Shift=    0.000
 RMSDP=6.18D-06 MaxDP=2.17D-04 DE= 9.74D-08 OVMax= 5.65D-04

 Cycle  11  Pass 1  IDiag  1:
 RMSU=  6.16D-06    CP:  1.00D+00  9.90D-01
 E= -864.013425304523     Delta-E=       -0.000000694372 Rises=F Damp=F
 DIIS: error= 3.26D-05 at cycle   3 NSaved=   3.
 NSaved= 3 IEnMin= 3 EnMin= -864.013425304523     IErMin= 3 ErrMin= 3.26D-05
 ErrMax= 3.26D-05  0.00D+00 EMaxC= 1.00D-01 BMatC= 6.99D-07 BMatP= 1.32D-06
 IDIUse=1 WtCom= 1.00D+00 WtEn= 0.00D+00
 Coeff-Com:  0.326D-01 0.414D+00 0.553D+00
 Coeff:      0.326D-01 0.414D+00 0.553D+00
 Gap=     0.180 Goal=   None    Shift=    0.000
 RMSDP=2.78D-06 MaxDP=1.27D-04 DE=-6.94D-07 OVMax= 2.10D-04

 Cycle  12  Pass 1  IDiag  1:
 RMSU=  1.15D-06    CP:  1.00D+00  1.00D+00  5.98D-01
 E= -864.013425970064     Delta-E=       -0.000000665541 Rises=F Damp=F
 DIIS: error= 1.06D-05 at cycle   4 NSaved=   4.
 NSaved= 4 IEnMin= 4 EnMin= -864.013425970064     IErMin= 4 ErrMin= 1.06D-05
 ErrMax= 1.06D-05  0.00D+00 EMaxC= 1.00D-01 BMatC= 6.13D-08 BMatP= 6.99D-07
 IDIUse=1 WtCom= 1.00D+00 WtEn= 0.00D+00
 Coeff-Com: -0.105D-02 0.257D+00 0.375D+00 0.369D+00
 Coeff:     -0.105D-02 0.257D+00 0.375D+00 0.369D+00
 Gap=     0.180 Goal=   None    Shift=    0.000
 RMSDP=7.85D-07 MaxDP=6.24D-05 DE=-6.66D-07 OVMax= 6.92D-05

 Cycle  13  Pass 1  IDiag  1:
 RMSU=  2.68D-07    CP:  1.00D+00  1.00D+00  5.96D-01  3.57D-01
 E= -864.013426022194     Delta-E=       -0.000000052130 Rises=F Damp=F
 DIIS: error= 3.11D-06 at cycle   5 NSaved=   5.
 NSaved= 5 IEnMin= 5 EnMin= -864.013426022194     IErMin= 5 ErrMin= 3.11D-06
 ErrMax= 3.11D-06  0.00D+00 EMaxC= 1.00D-01 BMatC= 2.73D-09 BMatP= 6.13D-08
 IDIUse=1 WtCom= 1.00D+00 WtEn= 0.00D+00
 Coeff-Com: -0.211D-02 0.157D+00 0.231D+00 0.250D+00 0.365D+00
 Coeff:     -0.211D-02 0.157D+00 0.231D+00 0.250D+00 0.365D+00
 Gap=     0.180 Goal=   None    Shift=    0.000
 RMSDP=1.71D-07 MaxDP=8.00D-06 DE=-5.21D-08 OVMax= 1.45D-05

 Cycle  14  Pass 1  IDiag  1:
 RMSU=  7.17D-08    CP:  1.00D+00  1.00D+00  6.00D-01  3.91D-01  4.47D-01
 E= -864.013426024855     Delta-E=       -0.000000002661 Rises=F Damp=F
 DIIS: error= 3.57D-07 at cycle   6 NSaved=   6.
 NSaved= 6 IEnMin= 6 EnMin= -864.013426024855     IErMin= 6 ErrMin= 3.57D-07
 ErrMax= 3.57D-07  0.00D+00 EMaxC= 1.00D-01 BMatC= 6.77D-11 BMatP= 2.73D-09
 IDIUse=1 WtCom= 1.00D+00 WtEn= 0.00D+00
 Coeff-Com: -0.108D-02 0.700D-01 0.103D+00 0.113D+00 0.203D+00 0.512D+00
 Coeff:     -0.108D-02 0.700D-01 0.103D+00 0.113D+00 0.203D+00 0.512D+00
 Gap=     0.180 Goal=   None    Shift=    0.000
 RMSDP=3.35D-08 MaxDP=2.43D-06 DE=-2.66D-09 OVMax= 3.20D-06

 Cycle  15  Pass 1  IDiag  1:
 RMSU=  2.70D-08    CP:  1.00D+00  1.00D+00  5.99D-01  3.83D-01  4.68D-01
                    CP:  7.83D-01
 E= -864.013426024935     Delta-E=       -0.000000000080 Rises=F Damp=F
 DIIS: error= 1.07D-07 at cycle   7 NSaved=   7.
 NSaved= 7 IEnMin= 7 EnMin= -864.013426024935     IErMin= 7 ErrMin= 1.07D-07
 ErrMax= 1.07D-07  0.00D+00 EMaxC= 1.00D-01 BMatC= 9.61D-12 BMatP= 6.77D-11
 IDIUse=1 WtCom= 1.00D+00 WtEn= 0.00D+00
 Coeff-Com: -0.420D-03 0.247D-01 0.363D-01 0.394D-01 0.826D-01 0.314D+00
 Coeff-Com:  0.504D+00
 Coeff:     -0.420D-03 0.247D-01 0.363D-01 0.394D-01 0.826D-01 0.314D+00
 Coeff:      0.504D+00
 Gap=     0.180 Goal=   None    Shift=    0.000
 RMSDP=1.14D-08 MaxDP=6.14D-07 DE=-8.00D-11 OVMax= 1.17D-06

 Cycle  16  Pass 1  IDiag  1:
 RMSU=  7.63D-09    CP:  1.00D+00  1.00D+00  5.99D-01  3.85D-01  4.77D-01
                    CP:  8.22D-01  7.32D-01
 E= -864.013426024942     Delta-E=       -0.000000000006 Rises=F Damp=F
 DIIS: error= 3.04D-08 at cycle   8 NSaved=   8.
 NSaved= 8 IEnMin= 8 EnMin= -864.013426024942     IErMin= 8 ErrMin= 3.04D-08
 ErrMax= 3.04D-08  0.00D+00 EMaxC= 1.00D-01 BMatC= 7.42D-13 BMatP= 9.61D-12
 IDIUse=1 WtCom= 1.00D+00 WtEn= 0.00D+00
 Coeff-Com: -0.291D-04 0.758D-03 0.102D-02 0.577D-03 0.799D-02 0.788D-01
 Coeff-Com:  0.253D+00 0.658D+00
 Coeff:     -0.291D-04 0.758D-03 0.102D-02 0.577D-03 0.799D-02 0.788D-01
 Coeff:      0.253D+00 0.658D+00
 Gap=     0.180 Goal=   None    Shift=    0.000
 RMSDP=3.34D-09 MaxDP=1.23D-07 DE=-6.37D-12 OVMax= 3.33D-07

 SCF Done:  E(RB3LYP) =  -864.013426025     A.U. after   16 cycles
            NFock= 16  Conv=0.33D-08     -V/T= 2.0099
 KE= 8.555817958396D+02 PE=-5.355912455962D+03 EE= 1.958748924714D+03
 Leave Link  502 at Sat Nov  5 09:25:49 2022, MaxMem=   402653184 cpu:             594.3 elap:              52.6
 (Enter /home/wykgroup/appl/g16/l508.exe)
 QCSCF skips out because SCF is already converged.
 Leave Link  508 at Sat Nov  5 09:25:50 2022, MaxMem=   402653184 cpu:               0.4 elap:               0.1
 (Enter /home/wykgroup/appl/g16/l801.exe)
 DoSCS=F DFT=T ScalE2(SS,OS)=  1.000000  1.000000
 ExpMin= 1.61D-01 ExpMax= 4.17D+03 ExpMxC= 6.27D+02 IAcc=3 IRadAn=         5 AccDes= 0.00D+00
 HarFok:  IExCor=  205 AccDes= 0.00D+00 IRadAn=         5 IDoV=-2 UseB2=F ITyADJ=14
 ICtDFT= 12500011 ScaDFX=  1.000000  1.000000  1.000000  1.000000
 GSVD:  LWork=        -609 too small for GESVD, short by        2520 words or        2520 for optimal perf.
 Largest valence mixing into a core orbital is  6.03D-05
 Largest core mixing into a valence orbital is  1.46D-05
 Range of M.O.s used for correlation:    22   361
 NBasis=   361 NAE=    76 NBE=    76 NFC=    21 NFV=     0
 NROrb=    340 NOA=    55 NOB=    55 NVA=   285 NVB=   285
 Leave Link  801 at Sat Nov  5 09:25:51 2022, MaxMem=   402653184 cpu:              13.4 elap:               1.3
 (Enter /home/wykgroup/appl/g16/l914.exe)
 RHF ground state
 Two-electron integral symmetry not used.
 MDV=   402653184 DFT=T DoStab=F Mixed=T DoRPA=T DoScal=F NonHer=T
 Making orbital integer symmetry assigments:
    16 initial guesses have been made.
 Convergence on wavefunction:    0.001000000000000
 Davidson Disk Diagonalization:  ConvIn= 1.00D-03 SkipCon=T Conv= 1.00D-03.
 Max sub-space:  2000 roots to seek:    16 dimension of matrix:        31350
 Iteration     1 Dimension    16 NMult     0 NNew     16
 CISAX will form    16 AO SS matrices at one time.
 NMat=    16 NSing=     8 JSym2X= 0.
 FoFJK:  IHMeth= 1 ICntrl=       0 DoSepK=F KAlg= 0 I1Cent=           0 FoldK=F
 IRaf= 810000000 NMat=      32 IRICut=       1 DoRegI=T DoRafI=F ISym2E= 0 IDoP0=0 IntGTp=1.
 FoFCou: FMM=F IPFlag=           0 FMFlag=      100000 FMFlg1=           0
         NFxFlg=           0 DoJE=F BraDBF=F KetDBF=F FulRan=T
         wScrn=  0.000000 ICntrl=         0 IOpCl=  0 I1Cent=           0 NGrid=           0
         NMat0=   32 NMatS0=      8 NMatT0=    8 NMatD0=   32 NMtDS0=    0 NMtDT0=    0
 Symmetry not used in FoFCou.
 New state      1 was old state      2
 New state      2 was old state      4
 New state      3 was old state      8
 New state      4 was old state      6
 New state      5 was old state      3
 New state      6 was old state     10
 New state      7 was old state      5
 New state      8 was old state     13
 Excitation Energies [eV] at current iteration:
 Root      1 :     3.427125481965886
 Root      2 :     3.968763385858195
 Root      3 :     4.470788378744736
 Root      4 :     4.555623653144137
 Root      5 :     4.759465230426960
 Root      6 :     4.856826524518360
 Root      7 :     5.010097168491151
 Root      8 :     5.199511543064012
 Root      9 :     5.211073091524373
 Root     10 :     5.397051889352978
 Root     11 :     5.464933487751392
 Root     12 :     5.475881564775251
 Root     13 :     5.645663811050268
 Root     14 :     6.040763617179589
 Root     15 :     6.456570861346712
 Root     16 :     6.484790276774820
 Vector   3 SDiff=1.02D+00 TDiff=8.86D+00 assumed to be singlet.
 Vector   4 SDiff=2.65D+00 TDiff=1.10D+01 assumed to be singlet.
 Vector   7 SDiff=1.04D+00 TDiff=7.59D+00 assumed to be singlet.
 Vector   8 SDiff=2.57D+00 TDiff=7.94D+00 assumed to be singlet.
 Iteration     2 Dimension    24 NMult    16 NNew      8
 CISAX will form     8 AO SS matrices at one time.
 NMat=     8 NSing=     4 JSym2X= 0.
 Root      1 not converged, maximum delta is    0.153004830913009
 Root      2 not converged, maximum delta is    0.201595516283841
 New state      3 was old state      5
 Root      3 not converged, maximum delta is    0.420405793660641
 New state      4 was old state      7
 Root      4 not converged, maximum delta is    0.422675504593988
 Excitation Energies [eV] at current iteration:
 Root      1 :     3.141728907389148   Change is   -0.285396574576738
 Root      2 :     3.606391978017927   Change is   -0.362371407840268
 Root      3 :     4.603463406133792   Change is   -0.156001824293167
 Root      4 :     4.645905716175244   Change is   -0.364191452315907
 Iteration     3 Dimension    32 NMult    24 NNew      8
 CISAX will form     8 AO SS matrices at one time.
 NMat=     8 NSing=     4 JSym2X= 0.
 Root      1 not converged, maximum delta is    0.040282145304452
 Root      2 not converged, maximum delta is    0.134823563055936
 Root      3 not converged, maximum delta is    0.291726341730881
 Root      4 not converged, maximum delta is    0.237271486357042
 Excitation Energies [eV] at current iteration:
 Root      1 :     3.111281146651669   Change is   -0.030447760737479
 Root      2 :     3.509980439880864   Change is   -0.096411538137063
 Root      3 :     4.510245085034059   Change is   -0.093218321099733
 Root      4 :     4.593438872505390   Change is   -0.052466843669854
 Iteration     4 Dimension    40 NMult    32 NNew      8
 CISAX will form     8 AO SS matrices at one time.
 NMat=     8 NSing=     4 JSym2X= 0.
 Root      1 not converged, maximum delta is    0.007663743682774
 Root      2 not converged, maximum delta is    0.023111194768492
 Root      3 not converged, maximum delta is    0.040703983843116
 Root      4 not converged, maximum delta is    0.019289804080820
 Excitation Energies [eV] at current iteration:
 Root      1 :     3.108681566082858   Change is   -0.002599580568812
 Root      2 :     3.501319805419074   Change is   -0.008660634461790
 Root      3 :     4.488841624431609   Change is   -0.021403460602450
 Root      4 :     4.585880557033754   Change is   -0.007558315471636
 Iteration     5 Dimension    48 NMult    40 NNew      8
 CISAX will form     8 AO SS matrices at one time.
 NMat=     8 NSing=     4 JSym2X= 0.
 Root      1 not converged, maximum delta is    0.003259013013983
 Root      2 not converged, maximum delta is    0.002946947623500
 Root      3 not converged, maximum delta is    0.008123253927841
 Root      4 not converged, maximum delta is    0.003668274613562
 Excitation Energies [eV] at current iteration:
 Root      1 :     3.108445741333013   Change is   -0.000235824749845
 Root      2 :     3.500665626051031   Change is   -0.000654179368043
 Root      3 :     4.485380728045137   Change is   -0.003460896386472
 Root      4 :     4.584548554694742   Change is   -0.001332002339012
 Iteration     6 Dimension    56 NMult    48 NNew      8
 CISAX will form     8 AO SS matrices at one time.
 NMat=     8 NSing=     4 JSym2X= 0.
 Root      1 has converged.
 Root      2 has converged.
 Root      3 not converged, maximum delta is    0.002295482852370
 Root      4 not converged, maximum delta is    0.001521120781458
 Excitation Energies [eV] at current iteration:
 Root      1 :     3.108426833117834   Change is   -0.000018908215178
 Root      2 :     3.500611561294141   Change is   -0.000054064756890
 Root      3 :     4.485012229255923   Change is   -0.000368498789214
 Root      4 :     4.584358829682259   Change is   -0.000189725012483
 Iteration     7 Dimension    60 NMult    56 NNew      4
 CISAX will form     4 AO SS matrices at one time.
 NMat=     4 NSing=     4 JSym2X= 0.
 Root      1 has converged.
 Root      2 has converged.
 Root      3 has converged.
 Root      4 has converged.
 Excitation Energies [eV] at current iteration:
 Root      1 :     3.108426833117808   Change is   -0.000000000000026
 Root      2 :     3.500611561294164   Change is    0.000000000000023
 Root      3 :     4.484969784027597   Change is   -0.000042445228326
 Root      4 :     4.584338454833719   Change is   -0.000020374848539
 Convergence achieved on expansion vectors.
 ***********************************************************************
 Excited states from <AA,BB:AA,BB> singles matrix:
 ***********************************************************************
 
 1PDM for each excited state written to RWF  633
 Ground to excited state transition densities written to RWF  633
 Ground to excited state transition electric dipole moments (Au):
       state          X           Y           Z        Dip. S.      Osc.
         1        -0.0000      0.0000     -0.0000      0.0000      0.0000
         2         0.0000      0.0000     -0.0000      0.0000      0.0000
         3         0.5248     -0.8343     -0.2868      1.0537      0.1158
         4         0.9574      0.8157      0.0857      1.5893      0.1785
 Ground to excited state transition velocity dipole moments (Au):
       state          X           Y           Z        Dip. S.      Osc.
         1         0.0000      0.0000      0.0000      0.0000      0.0000
         2        -0.0000     -0.0000      0.0000      0.0000      0.0000
         3        -0.0870      0.1338      0.0438      0.0274      0.1108
         4        -0.1593     -0.1336     -0.0103      0.0433      0.1714
 Ground to excited state transition magnetic dipole moments (Au):
       state          X           Y           Z
         1         0.0000     -0.0000      0.0000
         2         0.0000     -0.0000     -0.0000
         3        -0.0616      0.3128     -0.2668
         4        -0.1127      0.2288     -0.7025
 Ground to excited state transition velocity quadrupole moments (Au):
       state          XX          YY          ZZ          XY          XZ          YZ
         1         0.0000      0.0000     -0.0000      0.0000      0.0000      0.0000
         2        -0.0000      0.0000     -0.0000      0.0000      0.0000      0.0000
         3        -0.5347     -0.7290     -0.0108     -0.4530     -0.1282     -0.3131
         4        -1.1686      0.9271     -0.0194     -0.0645      0.2537      0.3156
 <0|del|b> * <b|rxdel|0> + <0|del|b> * <b|delr+rdel|0>
 Rotatory Strengths (R) in cgs (10**-40 erg-esu-cm/Gauss)
       state          XX          YY          ZZ    R(velocity)    E-M Angle
         1         0.0000     -0.0000     -0.0000      0.0000       90.00
         2         0.0000     -0.0000      0.0000      0.0000       90.00
         3        58.8463     87.4711      6.0218     50.7797       58.93
         4        23.5354    -54.0596      7.8988     -7.5418       91.99
 1/2[<0|r|b>*<b|rxdel|0> + (<0|rxdel|b>*<b|r|0>)*]
 Rotatory Strengths (R) in cgs (10**-40 erg-esu-cm/Gauss)
       state          XX          YY          ZZ     R(length)
         1         0.0000      0.0000      0.0000      0.0000
         2        -0.0000      0.0000     -0.0000      0.0000
         3        22.8614    184.5296    -54.1020     51.0964
         4        76.3347   -131.9628     42.5582     -4.3566
  1/2[<0|del|b>*<b|r|0> + (<0|r|b>*<b|del|0>)*] (Au)
       state          X           Y           Z        Dip. S.   Osc.(frdel)
         1        -0.0000      0.0000     -0.0000      0.0000      0.0000
         2        -0.0000     -0.0000     -0.0000      0.0000      0.0000
         3        -0.0457     -0.1116     -0.0126      0.1698      0.1132
         4        -0.1525     -0.1090     -0.0009      0.2623      0.1749

 Excitation energies and oscillator strengths:
 
 Excited state symmetry could not be determined.
 Excited State   1:      Triplet-?Sym    3.1084 eV  398.86 nm  f=0.0000  <S**2>=2.000
      73 -> 77         0.12308
      75 -> 77        -0.18031
      75 -> 78         0.16082
      76 -> 77         0.63236
 This state for optimization and/or second-order correction.
 Total Energy, E(TD-HF/TD-DFT) =  -863.899193441    
 Copying the excited state density for this state as the 1-particle RhoCI density.
 
 Excited state symmetry could not be determined.
 Excited State   2:      Triplet-?Sym    3.5006 eV  354.18 nm  f=0.0000  <S**2>=2.000
      72 -> 78         0.15783
      74 -> 79        -0.29116
      75 -> 77         0.19196
      75 -> 78         0.24466
      76 -> 77        -0.10565
      76 -> 78         0.50617
 
 Excited state symmetry could not be determined.
 Excited State   3:      Singlet-?Sym    4.4850 eV  276.44 nm  f=0.1158  <S**2>=0.000
      73 -> 77        -0.11872
      76 -> 77         0.64990
      76 -> 78         0.19506
      76 -> 79        -0.10404
 
 Excited state symmetry could not be determined.
 Excited State   4:      Singlet-?Sym    4.5843 eV  270.45 nm  f=0.1785  <S**2>=0.000
      75 -> 77        -0.19771
      76 -> 77        -0.17968
      76 -> 78         0.64402
 SavETr:  write IOETrn=   770 NScale= 10 NData=  16 NLR=1 NState=    4 LETran=      82.
 Leave Link  914 at Sat Nov  5 09:31:26 2022, MaxMem=   402653184 cpu:            3802.0 elap:             334.8
 (Enter /home/wykgroup/appl/g16/l601.exe)
 Copying SCF densities to generalized density rwf, IOpCl= 0 IROHF=0.

 **********************************************************************

            Population analysis using the SCF Density.

 **********************************************************************

 Alpha  occ. eigenvalues --  -14.39736 -14.34551 -14.32640 -10.25502 -10.24988
 Alpha  occ. eigenvalues --  -10.23955 -10.23868 -10.22359 -10.19716 -10.19139
 Alpha  occ. eigenvalues --  -10.19100 -10.18942 -10.18908 -10.18641 -10.18610
 Alpha  occ. eigenvalues --  -10.18586 -10.18518 -10.18464 -10.18448 -10.18232
 Alpha  occ. eigenvalues --  -10.17412  -1.00418  -0.92090  -0.89235  -0.85438
 Alpha  occ. eigenvalues --   -0.83347  -0.79870  -0.77431  -0.74520  -0.73889
 Alpha  occ. eigenvalues --   -0.72138  -0.70339  -0.69791  -0.69268  -0.63781
 Alpha  occ. eigenvalues --   -0.62318  -0.60611  -0.59645  -0.56960  -0.55285
 Alpha  occ. eigenvalues --   -0.53373  -0.51798  -0.50009  -0.48541  -0.46468
 Alpha  occ. eigenvalues --   -0.45824  -0.45216  -0.44969  -0.44606  -0.43929
 Alpha  occ. eigenvalues --   -0.43611  -0.41460  -0.41283  -0.40985  -0.40740
 Alpha  occ. eigenvalues --   -0.39877  -0.39420  -0.38924  -0.38788  -0.37743
 Alpha  occ. eigenvalues --   -0.37441  -0.36434  -0.36259  -0.35965  -0.35336
 Alpha  occ. eigenvalues --   -0.34568  -0.34307  -0.33974  -0.33651  -0.33293
 Alpha  occ. eigenvalues --   -0.31857  -0.27224  -0.26072  -0.24535  -0.23129
 Alpha  occ. eigenvalues --   -0.20019
 Alpha virt. eigenvalues --   -0.01985  -0.00948   0.00401   0.02830   0.04992
 Alpha virt. eigenvalues --    0.07337   0.09107   0.09464   0.10092   0.10903
 Alpha virt. eigenvalues --    0.11809   0.12599   0.13105   0.13865   0.14224
 Alpha virt. eigenvalues --    0.14393   0.15116   0.15716   0.16212   0.16636
 Alpha virt. eigenvalues --    0.16728   0.17120   0.17807   0.17977   0.18330
 Alpha virt. eigenvalues --    0.18963   0.18988   0.19369   0.20209   0.20241
 Alpha virt. eigenvalues --    0.21000   0.21624   0.22375   0.22990   0.24109
 Alpha virt. eigenvalues --    0.24590   0.25515   0.26176   0.27307   0.28537
 Alpha virt. eigenvalues --    0.29811   0.29998   0.31208   0.32751   0.34717
 Alpha virt. eigenvalues --    0.36178   0.38517   0.41935   0.45097   0.45705
[...]
    32  H    0.000000  -0.000000   0.000000  -0.000000  -0.000000   0.000000
    33  H   -0.000000   0.000000  -0.000000  -0.000000   0.000000  -0.000000
    34  H    0.000000  -0.000000  -0.000009  -0.000000  -0.000000  -0.000000
    35  H   -0.001740  -0.004563   0.006579   0.000002   0.000003   0.000005
    36  H    0.361169  -0.005368   0.005678   0.000116   0.000080   0.000002
    37  H    0.356345  -0.002856  -0.002395  -0.000030  -0.000000  -0.000001
    38  H    0.366059   0.005531  -0.004203   0.004814  -0.000028   0.000010
    39  H    0.006161   0.365358  -0.006219  -0.000000  -0.000000  -0.000000
    40  H   -0.000669   0.367181  -0.005159  -0.000000  -0.000000   0.000000
    41  H   -0.006689   0.360596   0.005843  -0.000000   0.000000   0.000000
    42  H    0.005572  -0.005887   0.366819  -0.000000   0.000000  -0.000000
    43  H   -0.004717   0.005454   0.367538  -0.000004  -0.000000   0.000000
    44  H   -0.002850  -0.005616   0.359763  -0.000000  -0.000000   0.000000
              25         26         27         28         29         30
     1  C   -0.043155  -0.001092   0.004974  -0.005149   0.000002  -0.000000
     2  C    0.376500  -0.028784  -0.029150  -0.026558  -0.000099  -0.000000
     3  C   -0.049323   0.362769   0.366715   0.371355   0.000003   0.000001
     4  N   -0.053138   0.004328  -0.001185  -0.005517   0.003687   0.000025
     5  C    0.005254   0.000017  -0.000229   0.002978  -0.043306   0.000037
     6  C   -0.000251   0.000034   0.000170   0.004903  -0.002596   0.000001
     7  N   -0.000007   0.000035   0.000029   0.002805   0.000090  -0.000000
     8  C   -0.000188  -0.000000  -0.000101  -0.000050   0.363159  -0.000013
     9  C    0.000607   0.000003  -0.000079   0.000056  -0.032907  -0.013944
    10  C   -0.000017  -0.000000  -0.000002   0.000000  -0.006808  -0.035469
    11  C    0.000002   0.000000   0.000000   0.000000  -0.000049   0.350617
    12  C   -0.000000  -0.000000   0.000000   0.000000  -0.000003  -0.048089
    13  C   -0.000000  -0.000000   0.000000   0.000000  -0.000001   0.004774
    14  C    0.000000   0.000000   0.000000   0.000000  -0.000040   0.000212
    15  C    0.000000   0.000000   0.000000  -0.000000   0.003473   0.006508
    16  C   -0.005389  -0.000069   0.002157  -0.000192   0.007384   0.003152
    17  N    0.012071   0.000001   0.000111  -0.000016  -0.000065   0.012490
    18  C   -0.000275   0.000001   0.000010  -0.000000  -0.000001  -0.000076
    19  C   -0.000063  -0.000000  -0.000000  -0.000000  -0.000000   0.000051
    20  C   -0.000113  -0.000000  -0.000001  -0.000000  -0.000000  -0.000148
    21  C    0.000142   0.000000   0.000000   0.000000  -0.000000  -0.000557
    22  H   -0.003529  -0.000025  -0.000174  -0.000019  -0.000000  -0.000000
    23  H   -0.003859   0.001765  -0.000028  -0.000018  -0.000000   0.000000
    24  H    0.004667   0.000021  -0.000016   0.003151   0.000001   0.000000
    25  H    0.616264  -0.002556  -0.003542   0.004710   0.000006  -0.000006
    26  H   -0.002556   0.563539  -0.027127  -0.025492  -0.000000  -0.000000
    27  H   -0.003542  -0.027127   0.561311  -0.027215  -0.000000  -0.000001
    28  H    0.004710  -0.025492  -0.027215   0.515736   0.000002   0.000000
    29  H    0.000006  -0.000000  -0.000000   0.000002   0.554274  -0.000006
    30  H   -0.000006  -0.000000  -0.000001   0.000000  -0.000006   0.587039
    31  H    0.000000   0.000000  -0.000000  -0.000000   0.000000  -0.005437
    32  H   -0.000000  -0.000000  -0.000000   0.000000  -0.000000  -0.000163
    33  H    0.000000   0.000000  -0.000000   0.000000   0.000001   0.000016
    34  H   -0.000000   0.000000   0.000000   0.000000   0.001936  -0.000169
    35  H    0.006393   0.000009   0.000384  -0.000021   0.000005  -0.000104
    36  H    0.005290   0.000001   0.000001  -0.000000   0.000000  -0.000001
    37  H    0.000107  -0.000000  -0.000000   0.000000   0.000000  -0.000001
    38  H   -0.000801  -0.000001  -0.000001  -0.000001  -0.000000  -0.000001
    39  H   -0.000013  -0.000000  -0.000000   0.000000  -0.000000   0.000685
    40  H   -0.000010  -0.000000  -0.000000   0.000000   0.000000   0.000004
    41  H    0.000137   0.000000  -0.000000   0.000000   0.000000  -0.000014
    42  H   -0.000003  -0.000000  -0.000000   0.000000  -0.000000   0.000371
    43  H   -0.000001   0.000000   0.000000  -0.000000  -0.000004   0.000002
    44  H   -0.000002   0.000000  -0.000000   0.000000   0.000000   0.000009
              31         32         33         34         35         36
     1  C   -0.000000   0.000000  -0.000000   0.000000  -0.000090   0.000387
     2  C    0.000000  -0.000000   0.000000   0.000000   0.000410  -0.002514
     3  C   -0.000000   0.000000  -0.000000  -0.000000   0.000397   0.000014
     4  N   -0.000000   0.000000  -0.000000  -0.000002  -0.005941   0.000029
     5  C   -0.000000   0.000000  -0.000000  -0.000072   0.000099  -0.000000
     6  C   -0.000000  -0.000000  -0.000000  -0.000003   0.000007  -0.000000
     7  N   -0.000000  -0.000000  -0.000000  -0.000000  -0.000000   0.000000
     8  C    0.000001  -0.000000  -0.000006   0.005300  -0.000144   0.000001
     9  C   -0.000204   0.000002  -0.000196  -0.010063   0.003310   0.000000
    10  C    0.003342   0.000529   0.003430  -0.042192   0.000027  -0.000001
    11  C   -0.039775   0.004759   0.000775   0.006432  -0.000071   0.000000
    12  C    0.356667  -0.043530   0.004655   0.000286  -0.000007  -0.000000
    13  C   -0.043652   0.358886  -0.043387   0.004808   0.000000  -0.000000
    14  C    0.004645  -0.043356   0.356635  -0.045003   0.000000   0.000000
    15  C    0.000865   0.004842  -0.038910   0.350970   0.000001  -0.000000
    16  C   -0.000004   0.000000   0.000001   0.000060  -0.032854  -0.000469
    17  N   -0.000003   0.000000  -0.000000   0.000005   0.303251  -0.001949
    18  C   -0.000001   0.000000   0.000000  -0.000000  -0.038592  -0.027846
    19  C   -0.000000   0.000000  -0.000000   0.000000  -0.001740   0.361169
    20  C    0.000000  -0.000000   0.000000  -0.000000  -0.004563  -0.005368
    21  C   -0.000004   0.000000  -0.000000  -0.000009   0.006579   0.005678
    22  H   -0.000000  -0.000000  -0.000000  -0.000000   0.000002   0.000116
    23  H   -0.000000  -0.000000   0.000000  -0.000000   0.000003   0.000080
    24  H   -0.000000   0.000000  -0.000000  -0.000000   0.000005   0.000002
    25  H    0.000000  -0.000000   0.000000  -0.000000   0.006393   0.005290
    26  H    0.000000  -0.000000   0.000000   0.000000   0.000009   0.000001
    27  H   -0.000000  -0.000000  -0.000000   0.000000   0.000384   0.000001
    28  H   -0.000000   0.000000   0.000000   0.000000  -0.000021  -0.000000
    29  H    0.000000  -0.000000   0.000001   0.001936   0.000005   0.000000
    30  H   -0.005437  -0.000163   0.000016  -0.000169  -0.000104  -0.000001
    31  H    0.602952  -0.005570  -0.000192   0.000018   0.000000   0.000000
    32  H   -0.005570   0.602641  -0.005573  -0.000177  -0.000000  -0.000000
    33  H   -0.000192  -0.005573   0.600182  -0.005696  -0.000000   0.000000
    34  H    0.000018  -0.000177  -0.005696   0.604867  -0.000000  -0.000000
    35  H    0.000000  -0.000000  -0.000000  -0.000000   0.447236   0.001926
    36  H    0.000000  -0.000000   0.000000  -0.000000   0.001926   0.585209
    37  H    0.000000  -0.000000   0.000000  -0.000000  -0.000129  -0.028932
    38  H    0.000000  -0.000000  -0.000000  -0.000000  -0.000074  -0.032177
    39  H   -0.000001   0.000000  -0.000000  -0.000000  -0.000155  -0.000055
    40  H   -0.000000   0.000000  -0.000000   0.000000  -0.000214  -0.000052
    41  H    0.000000  -0.000000   0.000000  -0.000000   0.007093   0.004476
    42  H    0.000014   0.000000  -0.000000  -0.000002  -0.000071  -0.000190
    43  H    0.000000  -0.000000  -0.000001   0.000101  -0.000044  -0.000048
    44  H    0.000000   0.000000  -0.000000   0.000001  -0.000177   0.000018
              37         38         39         40         41         42
     1  C    0.000029  -0.000863  -0.000000   0.000000  -0.000001  -0.000000
     2  C    0.000045   0.000100   0.000002   0.000001  -0.000039   0.000001
     3  C   -0.000001   0.000068   0.000000  -0.000000   0.000000   0.000000
     4  N   -0.000023   0.000970   0.000004   0.000002  -0.000004   0.000027
     5  C    0.000002  -0.000028  -0.000000  -0.000000   0.000000  -0.000002
     6  C   -0.000000  -0.000001   0.000000   0.000000  -0.000000  -0.000000
     7  N   -0.000000   0.000000  -0.000000   0.000000  -0.000000  -0.000000
     8  C   -0.000001  -0.000059   0.000000  -0.000000  -0.000000   0.000030
     9  C   -0.000001  -0.000064  -0.000011  -0.000003  -0.000000  -0.000595
    10  C    0.000000  -0.000021  -0.000012   0.000001  -0.000000  -0.000037
    11  C    0.000000  -0.000001  -0.000018  -0.000001   0.000004   0.005696
    12  C    0.000000   0.000000   0.000013   0.000000  -0.000000   0.001597
    13  C   -0.000000   0.000000   0.000001   0.000000  -0.000000   0.000166
    14  C   -0.000000   0.000000  -0.000000  -0.000000   0.000000  -0.000139
    15  C    0.000000  -0.000001   0.000000   0.000000  -0.000000  -0.000498
    16  C   -0.000052   0.005104   0.000064  -0.000042  -0.000074  -0.000356
    17  N    0.004740  -0.004371   0.001724   0.004622  -0.005620  -0.000766
    18  C   -0.023099  -0.026162  -0.027446  -0.027671  -0.027717  -0.025982
    19  C    0.356345   0.366059   0.006161  -0.000669  -0.006689   0.005572
    20  C   -0.002856   0.005531   0.365358   0.367181   0.360596  -0.005887
    21  C   -0.002395  -0.004203  -0.006219  -0.005159   0.005843   0.366819
    22  H   -0.000030   0.004814  -0.000000  -0.000000  -0.000000  -0.000000
    23  H   -0.000000  -0.000028  -0.000000  -0.000000   0.000000   0.000000
    24  H   -0.000001   0.000010  -0.000000   0.000000   0.000000  -0.000000
    25  H    0.000107  -0.000801  -0.000013  -0.000010   0.000137  -0.000003
    26  H   -0.000000  -0.000001  -0.000000  -0.000000   0.000000  -0.000000
    27  H   -0.000000  -0.000001  -0.000000  -0.000000  -0.000000  -0.000000
    28  H    0.000000  -0.000001   0.000000   0.000000   0.000000   0.000000
    29  H    0.000000  -0.000000  -0.000000   0.000000   0.000000  -0.000000
    30  H   -0.000001  -0.000001   0.000685   0.000004  -0.000014   0.000371
    31  H    0.000000   0.000000  -0.000001  -0.000000   0.000000   0.000014
    32  H   -0.000000  -0.000000   0.000000   0.000000  -0.000000   0.000000
    33  H    0.000000  -0.000000  -0.000000  -0.000000   0.000000  -0.000000
    34  H   -0.000000  -0.000000  -0.000000   0.000000  -0.000000  -0.000002
    35  H   -0.000129  -0.000074  -0.000155  -0.000214   0.007093  -0.000071
    36  H   -0.028932  -0.032177  -0.000055  -0.000052   0.004476  -0.000190
    37  H    0.572411  -0.027925  -0.000101   0.001709   0.000118  -0.000016
    38  H   -0.027925   0.552930  -0.000183  -0.000005  -0.000065  -0.000050
    39  H   -0.000101  -0.000183   0.551403  -0.025343  -0.031015   0.004258
    40  H    0.001709  -0.000005  -0.025343   0.561014  -0.029596   0.000099
    41  H    0.000118  -0.000065  -0.031015  -0.029596   0.591554  -0.000035
    42  H   -0.000016  -0.000050   0.004258   0.000099  -0.000035   0.535670
    43  H   -0.000073   0.003698  -0.000047  -0.000046  -0.000194  -0.028578
    44  H    0.002534  -0.000100   0.000140   0.003281  -0.000029  -0.026324
              43         44
     1  C   -0.000000  -0.000000
     2  C   -0.000011   0.000001
     3  C   -0.000000  -0.000000
     4  N   -0.000185   0.000008
     5  C   -0.000009  -0.000001
     6  C    0.000000   0.000000
     7  N    0.000000   0.000000
     8  C   -0.000019   0.000001
     9  C    0.002681  -0.000010
    10  C    0.000294   0.000188
    11  C   -0.000520   0.000091
    12  C   -0.000071   0.000001
    13  C    0.000008  -0.000002
    14  C    0.000044  -0.000002
    15  C    0.000663   0.000016
    16  C    0.005315   0.000178
    17  N   -0.004882   0.004442
    18  C   -0.026460  -0.027299
    19  C   -0.004717  -0.002850
    20  C    0.005454  -0.005616
    21  C    0.367538   0.359763
    22  H   -0.000004  -0.000000
    23  H   -0.000000  -0.000000
    24  H    0.000000   0.000000
    25  H   -0.000001  -0.000002
    26  H    0.000000   0.000000
    27  H    0.000000  -0.000000
    28  H   -0.000000   0.000000
    29  H   -0.000004   0.000000
    30  H    0.000002   0.000009
    31  H    0.000000   0.000000
    32  H   -0.000000   0.000000
    33  H   -0.000001  -0.000000
    34  H    0.000101   0.000001
    35  H   -0.000044  -0.000177
    36  H   -0.000048   0.000018
    37  H   -0.000073   0.002534
    38  H    0.003698  -0.000100
    39  H   -0.000047   0.000140
    40  H   -0.000046   0.003281
    41  H   -0.000194  -0.000029
    42  H   -0.028578  -0.026324
    43  H    0.552100  -0.028741
    44  H   -0.028741   0.581451
 Mulliken charges:
               1
     1  C   -0.466073
     2  C    0.008861
     3  C   -0.451980
     4  N   -0.500301
     5  C    0.329282
     6  C    0.271250
     7  N   -0.532711
     8  C   -0.230670
     9  C    0.013667
    10  C    0.100865
    11  C   -0.164295
    12  C   -0.139228
    13  C   -0.127568
    14  C   -0.135280
    15  C   -0.176311
    16  C    0.440285
    17  N   -0.677247
    18  C    0.208155
    19  C   -0.451908
    20  C   -0.453625
    21  C   -0.447649
    22  H    0.161865
    23  H    0.151491
    24  H    0.188356
    25  H    0.134091
    26  H    0.152623
    27  H    0.152990
    28  H    0.184551
    29  H    0.151864
    30  H    0.138205
    31  H    0.126336
    32  H    0.126710
    33  H    0.128265
    34  H    0.128605
    35  H    0.307856
    36  H    0.135207
    37  H    0.147594
    38  H    0.157902
    39  H    0.160805
    40  H    0.150897
    41  H    0.131270
    42  H    0.169212
    43  H    0.156754
    44  H    0.139031
 Sum of Mulliken charges =  -0.00000
 Mulliken charges with hydrogens summed into heavy atoms:
               1
     1  C    0.035639
     2  C    0.142953
     3  C    0.038184
     4  N   -0.500301
     5  C    0.329282
     6  C    0.271250
     7  N   -0.532711
     8  C   -0.078806
     9  C    0.013667
    10  C    0.100865
    11  C   -0.026090
    12  C   -0.012892
    13  C   -0.000859
    14  C   -0.007015
    15  C   -0.047706
    16  C    0.440285
    17  N   -0.369391
    18  C    0.208155
    19  C   -0.011205
    20  C   -0.010652
    21  C    0.017348
 Electronic spatial extent (au):  <R**2>=           6659.6861
 Charge=             -0.0000 electrons
 Dipole moment (field-independent basis, Debye):
    X=             -1.2247    Y=              4.6749    Z=              2.0208  Tot=              5.2381
 Quadrupole moment (field-independent basis, Debye-Ang):
   XX=           -118.3171   YY=           -149.4505   ZZ=           -123.2166
   XY=             -4.7208   XZ=             -6.9139   YZ=             -6.4883
 Traceless Quadrupole moment (field-independent basis, Debye-Ang):
   XX=             12.0109   YY=            -19.1224   ZZ=              7.1115
   XY=             -4.7208   XZ=             -6.9139   YZ=             -6.4883
 Octapole moment (field-independent basis, Debye-Ang**2):
  XXX=            -98.5739  YYY=            288.2608  ZZZ=            116.5784  XYY=              1.5251
  XXY=             61.6326  XXZ=             34.7899  XZZ=            -24.7676  YZZ=             52.5263
  YYZ=             82.2231  XYZ=             24.8367
 Hexadecapole moment (field-independent basis, Debye-Ang**3):
 XXXX=          -4457.8771 YYYY=          -4390.3282 ZZZZ=           -940.5070 XXXY=           -448.0745
 XXXZ=            195.1985 YYYX=           -844.0431 YYYZ=           -441.0349 ZZZX=            250.2996
 ZZZY=           -209.4437 XXYY=          -1400.3024 XXZZ=           -884.8787 YYZZ=           -814.6439
 XXYZ=            -70.9700 YYXZ=             26.4922 ZZXY=           -219.7571
 N-N= 1.677568309384D+03 E-N=-5.355912460522D+03  KE= 8.555817958396D+02
 Leave Link  601 at Sat Nov  5 09:31:27 2022, MaxMem=   402653184 cpu:               2.1 elap:               0.3
 (Enter /home/wykgroup/appl/g16/l9999.exe)
 Electronic transition elements 
                 1             2             3             4 
      1  -0.863899D+03 -0.863885D+03 -0.863849D+03 -0.863845D+03
      2   0.000000D+00  0.000000D+00  0.524832D+00  0.957407D+00
      3   0.000000D+00  0.000000D+00 -0.834268D+00  0.815674D+00
      4   0.000000D+00  0.000000D+00 -0.286790D+00  0.856642D-01
      5   0.000000D+00  0.000000D+00 -0.870154D-01 -0.159267D+00
      6   0.000000D+00  0.000000D+00  0.133775D+00 -0.133609D+00
      7   0.000000D+00  0.000000D+00  0.438452D-01 -0.102770D-01
      8   0.000000D+00  0.000000D+00 -0.615973D-01 -0.112747D+00
      9   0.000000D+00  0.000000D+00  0.312780D+00  0.228778D+00
     10   0.000000D+00  0.000000D+00 -0.266764D+00 -0.702527D+00
     11   0.000000D+00  0.000000D+00 -0.534656D+00 -0.116861D+01
     12   0.000000D+00  0.000000D+00 -0.728981D+00  0.927087D+00
     13   0.000000D+00  0.000000D+00 -0.107807D-01 -0.194482D-01
     14   0.000000D+00  0.000000D+00 -0.453011D+00 -0.644740D-01
     15   0.000000D+00  0.000000D+00 -0.128179D+00  0.253712D+00
     16   0.000000D+00  0.000000D+00 -0.313140D+00  0.315645D+00
 1\1\GINC-NODE39\SP\RB3LYP TD-FC\6-31G(d)\C18H23N3\WYKGROUP\05-Nov-2022
 \0\\#p b3lyp/6-31g(d) 6D 10F nosymm GFInput td=(50-50,nstate=2) SCF=XQ
 C\\Gaussian input prepared by ASE\\0,1\C,0,-3.3804646849,-1.8958163438
 ,-0.6070887396\C,0,-2.2995688509,-1.6289763699,0.4492097415\C,0,-2.330
 9318384,-2.6494679095,1.5973380956\N,0,-0.9508445704,-1.5318723648,-0.
 144403141\C,0,-0.2993101515,-2.5433154979,-0.8435845739\C,0,-0.8685819
 573,-3.8045501007,-1.1312756857\N,0,-1.3184591788,-4.8524230617,-1.379
 133536\C,0,0.9865423743,-2.1155116527,-1.1335668666\C,0,1.1633677115,-
 0.8311755846,-0.5713126835\C,0,2.4369777511,-0.0837599346,-0.578021934
 7\C,0,2.8696499511,0.6492736597,0.5413936404\C,0,4.1008196656,1.302338
 8589,0.5331604199\C,0,4.931297436,1.2344325369,-0.588433462\C,0,4.5160
 783964,0.5068676398,-1.7042832\C,0,3.281992404,-0.1431924581,-1.698915
 4328\C,0,-0.0562645118,-0.48044541,0.0298677807\N,0,-0.3665517244,0.70
 00052765,0.7208856561\C,0,-0.8553000968,1.9390696665,0.0326290127\C,0,
 -2.2298731355,1.7385895435,-0.6369708095\C,0,-0.9641229228,3.003954046
 3,1.1351204702\C,0,0.1612070952,2.3906419843,-1.0246463685\H,0,-3.3315
 249892,-1.1584376907,-1.413773709\H,0,-4.367592488,-1.8241849504,-0.13
 72816918\H,0,-3.287652609,-2.8937321836,-1.0424716418\H,0,-2.486431476
 6,-0.6381511003,0.868802297\H,0,-3.3083326363,-2.6191494849,2.09152926
 3\H,0,-1.5610434287,-2.4243609158,2.3431768819\H,0,-2.1691083323,-3.66
 76197135,1.2317903725\H,0,1.7329677283,-2.7047016028,-1.647538993\H,0,
 2.2291195613,0.7040129732,1.4150903737\H,0,4.4177722043,1.8600691597,1
 .410974664\H,0,5.8916016133,1.7431226559,-0.591437038\H,0,5.1506423659
 ,0.4482236353,-2.5849161216\H,0,2.9603169121,-0.6942154518,-2.57886651
 92\H,0,-0.9082099819,0.5302320321,1.5628229343\H,0,-3.0001628128,1.471
 8935003,0.0969637023\H,0,-2.554816629,2.6596000403,-1.1349886336\H,0,-
 2.184241177,0.9494884359,-1.3950116026\H,0,0.0073795613,3.1657971803,1
 .6126270914\H,0,-1.3109882669,3.9553881435,0.7185161732\H,0,-1.6818554
 562,2.7024106665,1.9100025548\H,0,1.1398018821,2.5786072907,-0.5768932
 722\H,0,0.2850047097,1.6372881165,-1.8086280077\H,0,-0.1903084157,3.31
 37517396,-1.498834461\\Version=ES64L-G16RevB.01\HF=-864.013426\RMSD=3.
 341e-09\PG=C01 [X(C18H23N3)]\\@


 THE REAL VOYAGE OF DISCOVERY CONSISTS NOT IN SEEKING NEW LANDSCAPES 
 BUT IN HAVING NEW EYES.
                                                    -- MARCEL PROUST
 Job cpu time:       0 days  1 hours 14 minutes 30.0 seconds.
 Elapsed time:       0 days  0 hours  6 minutes 35.3 seconds.
 File lengths (MBytes):  RWF=    824 Int=      0 D2E=      0 Chk=     28 Scr=      1
 Normal termination of Gaussian 16 at Sat Nov  5 09:31:27 2022.
