 Entering Gaussian System, Link 0=/home/wykgroup/appl/g16/g16
 Input=calculation/no_transfer_pubchem_sampling_5_b3lyp/121292988_rwf.com
 Output=calculation/no_transfer_pubchem_sampling_5_b3lyp/121292988_rwf.log
 Initial command:
 /home/wykgroup/appl/g16/l1.exe "/userdata/scratch/wykgroup/khs/calculation/no_transfer_pubchem_sampling_5_b3lyp/121292988_rwf/Gau-24637.inp" -scrdir="/userdata/scratch/wykgroup/khs/calculation/no_transfer_pubchem_sampling_5_b3lyp/121292988_rwf/"
 Entering Link 1 = /home/wykgroup/appl/g16/l1.exe PID=     24639.
  
 Copyright (c) 1988-2017, Gaussian, Inc.  All Rights Reserved.
  
 This is part of the Gaussian(R) 16 program.  It is based on
 the Gaussian(R) 09 system (copyright 2009, Gaussian, Inc.),
 the Gaussian(R) 03 system (copyright 2003, Gaussian, Inc.),
 the Gaussian(R) 98 system (copyright 1998, Gaussian, Inc.),
 the Gaussian(R) 94 system (copyright 1995, Gaussian, Inc.),
 the Gaussian 92(TM) system (copyright 1992, Gaussian, Inc.),
 the Gaussian 90(TM) system (copyright 1990, Gaussian, Inc.),
 the Gaussian 88(TM) system (copyright 1988, Gaussian, Inc.),
 the Gaussian 86(TM) system (copyright 1986, Carnegie Mellon
 University), and the Gaussian 82(TM) system (copyright 1983,
 Carnegie Mellon University). Gaussian is a federally registered
 trademark of Gaussian, Inc.
  
 This software contains proprietary and confidential information,
 including trade secrets, belonging to Gaussian, Inc.
  
 This software is provided under written license and may be
 used, copied, transmitted, or stored only in accord with that
 written license.
  
 The following legend is applicable only to US Government
 contracts under FAR:
  
                    RESTRICTED RIGHTS LEGEND
  
 Use, reproduction and disclosure by the US Government is
 subject to restrictions as set forth in subparagraphs (a)
 and (c) of the Commercial Computer Software - Restricted
 Rights clause in FAR 52.227-19.
  
 Gaussian, Inc.
 340 Quinnipiac St., Bldg. 40, Wallingford CT 06492
  
  
 ---------------------------------------------------------------
 Warning -- This program may not be used in any manner that
 competes with the business of Gaussian, Inc. or will provide
 assistance to any competitor of Gaussian, Inc.  The licensee
 of this program is prohibited from giving any competitor of
 Gaussian, Inc. access to this program.  By using this program,
 the user acknowledges that Gaussian, Inc. is engaged in the
 business of creating and licensing software in the field of
 computational chemistry and represents and warrants to the
 licensee that it is not a competitor of Gaussian, Inc. and that
 it will not use this program in any manner prohibited above.
 ---------------------------------------------------------------
  

 Cite this work as:
 Gaussian 16, Revision B.01,
 M. J. Frisch, G. W. Trucks, H. B. Schlegel, G. E. Scuseria, 
 M. A. Robb, J. R. Cheeseman, G. Scalmani, V. Barone, 
 G. A. Petersson, H. Nakatsuji, X. Li, M. Caricato, A. V. Marenich, 
 J. Bloino, B. G. Janesko, R. Gomperts, B. Mennucci, H. P. Hratchian, 
 J. V. Ortiz, A. F. Izmaylov, J. L. Sonnenberg, D. Williams-Young, 
 F. Ding, F. Lipparini, F. Egidi, J. Goings, B. Peng, A. Petrone, 
 T. Henderson, D. Ranasinghe, V. G. Zakrzewski, J. Gao, N. Rega, 
 G. Zheng, W. Liang, M. Hada, M. Ehara, K. Toyota, R. Fukuda, 
 J. Hasegawa, M. Ishida, T. Nakajima, Y. Honda, O. Kitao, H. Nakai, 
 T. Vreven, K. Throssell, J. A. Montgomery, Jr., J. E. Peralta, 
 F. Ogliaro, M. J. Bearpark, J. J. Heyd, E. N. Brothers, K. N. Kudin, 
 V. N. Staroverov, T. A. Keith, R. Kobayashi, J. Normand, 
 K. Raghavachari, A. P. Rendell, J. C. Burant, S. S. Iyengar, 
 J. Tomasi, M. Cossi, J. M. Millam, M. Klene, C. Adamo, R. Cammi, 
 J. W. Ochterski, R. L. Martin, K. Morokuma, O. Farkas, 
 J. B. Foresman, and D. J. Fox, Gaussian, Inc., Wallingford CT, 2016.
 
 ******************************************
 Gaussian 16:  ES64L-G16RevB.01 20-Dec-2017
                 5-Nov-2022 
 ******************************************
 %chk=calculation/no_transfer_pubchem_sampling_5_b3lyp/121292988_rwf.chk
 %rwf=calculation/no_transfer_pubchem_sampling_5_b3lyp/121292988_rwf.rwf
 %nprocshared=14
 Will use up to   14 processors via shared memory.
 %mem=3GB
 -------------------------------------------------------------------
 #p b3lyp/6-31g(d) 6D 10F nosymm GFInput td=(50-50,nstate=2) SCF=XQC
 -------------------------------------------------------------------
 1/38=1,172=1/1;
 2/12=2,15=1,17=6,18=5,40=1/2;
 3/5=1,6=6,7=1,8=22,11=9,24=10,25=1,30=1,74=-5/1,2,3,8;
 4//1;
 5/5=2,8=3,13=1,38=5/2,8;
 8/6=1,10=2,108=2/1;
 9/41=2,42=1,48=2,70=2/14;
 6/7=2,8=2,9=2,10=2/1;
 99/5=1,9=1/99;
 Leave Link    1 at Sat Nov  5 09:26:49 2022, MaxMem=   402653184 cpu:               5.9 elap:               0.6
 (Enter /home/wykgroup/appl/g16/l101.exe)
 ------------------------------
 Gaussian input prepared by ASE
 ------------------------------
 Symbolic Z-matrix:
 Charge =  0 Multiplicity = 1
 C                    -1.69682   4.56744  -1.43138 
 C                    -1.05653   3.27258  -1.05265 
 N                    -1.68441   2.22712  -0.56716 
 C                    -0.70188   1.26812  -0.3658 
 C                    -0.81502  -0.03899   0.14504 
 C                    -2.12741  -0.60477   0.56832 
 C                    -3.12463  -0.94006  -0.36972 
 C                    -2.94346  -0.72133  -1.8485 
 N                    -4.29621  -1.47094   0.01717 
 C                    -4.46468  -1.65476   1.32699 
 N                    -3.60437  -1.36172   2.30156 
 C                    -2.42866  -0.83      1.92481 
 C                    -1.47308  -0.47934   3.03826 
 C                     0.3632   -0.78498   0.23111 
 C                     1.62871  -0.28341  -0.16005 
 C                     2.82907  -1.13562  -0.05397 
 C                     3.28877  -1.89823   1.07741 
 C                     2.67326  -2.02511   2.43779 
 N                     4.41598  -2.51989   0.82013 
 O                     4.73436  -2.19471  -0.50587 
 C                     3.78699  -1.37456  -1.00531 
 C                     3.95746  -0.95118  -2.42407 
 C                     1.73587   1.02355  -0.65591 
 C                     0.56334   1.76867  -0.75293 
 N                     0.30267   3.05748  -1.18556 
 H                    -1.29498   5.40237  -0.84393 
 H                    -1.53983   4.80053  -2.49186 
 H                    -2.76963   4.49605  -1.24509 
 H                    -1.97825  -1.10515  -2.19655 
 H                    -2.9687    0.35101  -2.0752 
 H                    -3.75179  -1.21812  -2.38869 
 H                    -5.41405  -2.09037   1.63541 
 H                    -0.65037  -1.20214   3.09986 
 H                    -1.0237    0.50709   2.88562 
 H                    -2.0118   -0.49545   3.98792 
 H                     0.30235  -1.80853   0.58851 
 H                     3.37692  -2.51346   3.11652 
 H                     1.75557  -2.62378   2.40941 
 H                     2.41195  -1.04136   2.84225 
 H                     4.79681  -0.25378  -2.53636 
 H                     4.16542  -1.81899  -3.05944 
 H                     3.04931  -0.46055  -2.7824 
 H                     2.70331   1.43517  -0.92744 
 H                     0.97896   3.72411  -1.52825 
 
 ITRead=  0  0  0  0  0  0  0  0  0  0  0  0  0  0  0  0  0  0  0  0
 ITRead=  0  0  0  0  0  0  0  0  0  0  0  0  0  0  0  0  0  0  0  0
 ITRead=  0  0  0  0
 MicOpt= -1 -1 -1 -1 -1 -1 -1 -1 -1 -1 -1 -1 -1 -1 -1 -1 -1 -1 -1 -1
 MicOpt= -1 -1 -1 -1 -1 -1 -1 -1 -1 -1 -1 -1 -1 -1 -1 -1 -1 -1 -1 -1
 MicOpt= -1 -1 -1 -1
 NAtoms=     44 NQM=       44 NQMF=       0 NMMI=      0 NMMIF=      0
                NMic=       0 NMicF=      0.
                    Isotopes and Nuclear Properties:
 (Nuclear quadrupole moments (NQMom) in fm**2, nuclear magnetic moments (NMagM)
  in nuclear magnetons)

  Atom         1           2           3           4           5           6           7           8           9          10
 IAtWgt=          12          12          14          12          12          12          12          12          14          12
 AtmWgt=  12.0000000  12.0000000  14.0030740  12.0000000  12.0000000  12.0000000  12.0000000  12.0000000  14.0030740  12.0000000
 NucSpn=           0           0           2           0           0           0           0           0           2           0
 AtZEff=  -0.0000000  -0.0000000  -0.0000000  -0.0000000  -0.0000000  -0.0000000  -0.0000000  -0.0000000  -0.0000000  -0.0000000
 NQMom=    0.0000000   0.0000000   2.0440000   0.0000000   0.0000000   0.0000000   0.0000000   0.0000000   2.0440000   0.0000000
 NMagM=    0.0000000   0.0000000   0.4037610   0.0000000   0.0000000   0.0000000   0.0000000   0.0000000   0.4037610   0.0000000
 AtZNuc=   6.0000000   6.0000000   7.0000000   6.0000000   6.0000000   6.0000000   6.0000000   6.0000000   7.0000000   6.0000000

  Atom        11          12          13          14          15          16          17          18          19          20
 IAtWgt=          14          12          12          12          12          12          12          12          14          16
 AtmWgt=  14.0030740  12.0000000  12.0000000  12.0000000  12.0000000  12.0000000  12.0000000  12.0000000  14.0030740  15.9949146
 NucSpn=           2           0           0           0           0           0           0           0           2           0
 AtZEff=  -0.0000000  -0.0000000  -0.0000000  -0.0000000  -0.0000000  -0.0000000  -0.0000000  -0.0000000  -0.0000000  -0.0000000
 NQMom=    2.0440000   0.0000000   0.0000000   0.0000000   0.0000000   0.0000000   0.0000000   0.0000000   2.0440000   0.0000000
 NMagM=    0.4037610   0.0000000   0.0000000   0.0000000   0.0000000   0.0000000   0.0000000   0.0000000   0.4037610   0.0000000
 AtZNuc=   7.0000000   6.0000000   6.0000000   6.0000000   6.0000000   6.0000000   6.0000000   6.0000000   7.0000000   8.0000000

  Atom        21          22          23          24          25          26          27          28          29          30
 IAtWgt=          12          12          12          12          14           1           1           1           1           1
 AtmWgt=  12.0000000  12.0000000  12.0000000  12.0000000  14.0030740   1.0078250   1.0078250   1.0078250   1.0078250   1.0078250
 NucSpn=           0           0           0           0           2           1           1           1           1           1
 AtZEff=  -0.0000000  -0.0000000  -0.0000000  -0.0000000  -0.0000000  -0.0000000  -0.0000000  -0.0000000  -0.0000000  -0.0000000
 NQMom=    0.0000000   0.0000000   0.0000000   0.0000000   2.0440000   0.0000000   0.0000000   0.0000000   0.0000000   0.0000000
 NMagM=    0.0000000   0.0000000   0.0000000   0.0000000   0.4037610   2.7928460   2.7928460   2.7928460   2.7928460   2.7928460
 AtZNuc=   6.0000000   6.0000000   6.0000000   6.0000000   7.0000000   1.0000000   1.0000000   1.0000000   1.0000000   1.0000000

  Atom        31          32          33          34          35          36          37          38          39          40
 IAtWgt=           1           1           1           1           1           1           1           1           1           1
 AtmWgt=   1.0078250   1.0078250   1.0078250   1.0078250   1.0078250   1.0078250   1.0078250   1.0078250   1.0078250   1.0078250
 NucSpn=           1           1           1           1           1           1           1           1           1           1
 AtZEff=  -0.0000000  -0.0000000  -0.0000000  -0.0000000  -0.0000000  -0.0000000  -0.0000000  -0.0000000  -0.0000000  -0.0000000
 NQMom=    0.0000000   0.0000000   0.0000000   0.0000000   0.0000000   0.0000000   0.0000000   0.0000000   0.0000000   0.0000000
 NMagM=    2.7928460   2.7928460   2.7928460   2.7928460   2.7928460   2.7928460   2.7928460   2.7928460   2.7928460   2.7928460
 AtZNuc=   1.0000000   1.0000000   1.0000000   1.0000000   1.0000000   1.0000000   1.0000000   1.0000000   1.0000000   1.0000000

  Atom        41          42          43          44
 IAtWgt=           1           1           1           1
 AtmWgt=   1.0078250   1.0078250   1.0078250   1.0078250
 NucSpn=           1           1           1           1
 AtZEff=  -0.0000000  -0.0000000  -0.0000000  -0.0000000
 NQMom=    0.0000000   0.0000000   0.0000000   0.0000000
 NMagM=    2.7928460   2.7928460   2.7928460   2.7928460
 AtZNuc=   1.0000000   1.0000000   1.0000000   1.0000000
 Leave Link  101 at Sat Nov  5 09:26:49 2022, MaxMem=   402653184 cpu:               1.4 elap:               0.2
 (Enter /home/wykgroup/appl/g16/l202.exe)
                          Input orientation:                          
 ---------------------------------------------------------------------
 Center     Atomic      Atomic             Coordinates (Angstroms)
 Number     Number       Type             X           Y           Z
 ---------------------------------------------------------------------
      1          6           0       -1.696821    4.567440   -1.431379
      2          6           0       -1.056532    3.272577   -1.052653
      3          7           0       -1.684406    2.227121   -0.567163
      4          6           0       -0.701880    1.268123   -0.365802
      5          6           0       -0.815022   -0.038990    0.145039
      6          6           0       -2.127415   -0.604774    0.568315
      7          6           0       -3.124630   -0.940056   -0.369724
      8          6           0       -2.943457   -0.721328   -1.848498
      9          7           0       -4.296214   -1.470943    0.017169
     10          6           0       -4.464682   -1.654756    1.326992
     11          7           0       -3.604375   -1.361716    2.301561
     12          6           0       -2.428659   -0.830003    1.924812
     13          6           0       -1.473076   -0.479339    3.038256
     14          6           0        0.363203   -0.784985    0.231112
     15          6           0        1.628710   -0.283415   -0.160054
     16          6           0        2.829074   -1.135616   -0.053966
     17          6           0        3.288773   -1.898228    1.077414
     18          6           0        2.673264   -2.025112    2.437792
     19          7           0        4.415978   -2.519890    0.820133
     20          8           0        4.734355   -2.194713   -0.505866
     21          6           0        3.786990   -1.374557   -1.005307
     22          6           0        3.957459   -0.951183   -2.424075
     23          6           0        1.735866    1.023553   -0.655907
     24          6           0        0.563336    1.768673   -0.752931
     25          7           0        0.302665    3.057482   -1.185557
     26          1           0       -1.294976    5.402370   -0.843933
     27          1           0       -1.539833    4.800527   -2.491862
     28          1           0       -2.769629    4.496050   -1.245095
     29          1           0       -1.978254   -1.105153   -2.196547
     30          1           0       -2.968703    0.351007   -2.075196
     31          1           0       -3.751794   -1.218116   -2.388689
     32          1           0       -5.414053   -2.090366    1.635412
     33          1           0       -0.650365   -1.202144    3.099859
     34          1           0       -1.023701    0.507090    2.885619
     35          1           0       -2.011796   -0.495451    3.987923
     36          1           0        0.302350   -1.808530    0.588507
     37          1           0        3.376925   -2.513464    3.116516
     38          1           0        1.755569   -2.623780    2.409410
     39          1           0        2.411949   -1.041363    2.842248
     40          1           0        4.796809   -0.253777   -2.536356
     41          1           0        4.165423   -1.818988   -3.059445
     42          1           0        3.049305   -0.460554   -2.782401
     43          1           0        2.703310    1.435166   -0.927437
     44          1           0        0.978961    3.724110   -1.528247
 ---------------------------------------------------------------------
                    Distance matrix (angstroms):
                    1          2          3          4          5
     1  C    0.000000
     2  C    1.493344   0.000000
     3  N    2.494818   1.312594   0.000000
     4  C    3.607056   2.148342   1.387653   0.000000
     5  C    4.947915   3.529768   2.529490   1.407943   0.000000
     6  C    5.562013   4.336839   3.083050   2.532286   1.490520
     7  C    5.787769   4.742330   3.484859   3.278078   2.532033
     8  C    5.449693   4.488332   3.452590   3.343796   2.994998
     9  N    6.731806   5.843033   4.564938   4.535239   3.766369
    10  C    7.347475   6.446457   5.136801   5.056428   4.162659
    11  N    7.261439   6.262501   4.979518   4.738708   3.765724
    12  C    6.397811   5.251589   4.013708   3.553985   2.529252
    13  C    6.745197   5.566499   4.513162   3.903329   2.999607
    14  C    5.971267   4.486369   3.728636   2.388715   1.397187
    15  C    6.017160   4.544484   4.176753   2.807357   2.474804
    16  C    7.409848   5.960493   5.651803   4.282855   3.810726
    17  C    8.541373   7.082096   6.667507   5.294711   4.600785
    18  C    8.805105   7.359354   6.789737   5.486086   4.622720
    19  N    9.626311   8.185863   7.853240   6.476724   5.828720
    20  O    9.377810   7.982770   7.794669   6.446976   5.988857
    21  C    8.096978   6.712511   6.565077   5.248112   4.928038
    22  C    7.963135   6.697839   6.736496   5.556189   5.496273
    23  C    4.994381   3.607354   3.626943   2.467100   2.877072
    24  C    3.660833   2.230590   2.301528   1.414634   2.444149
    25  N    2.517608   1.382515   2.240616   2.209731   3.550753
    26  H    1.097123   2.153239   3.210991   4.203851   5.551289
    27  H    1.097086   2.153958   3.216798   4.207157   5.558734
    28  H    1.091199   2.113912   2.604869   3.932970   5.130258
    29  H    5.730881   4.617638   3.720926   3.257790   2.823622
    30  H    4.450898   3.638345   2.728257   2.983557   3.117672
    31  H    6.213857   5.405159   4.411543   4.424413   4.053979
    32  H    8.218845   7.414502   6.115742   6.122817   5.251709
    33  H    7.410486   6.118125   5.126027   4.256253   3.179780
    34  H    5.964563   4.812378   3.913661   3.354770   2.802236
    35  H    7.422999   6.365373   5.316802   4.876576   4.050726
    36  H    6.980660   5.509774   4.644271   3.374163   2.139265
    37  H    9.826772   8.397367   7.852369   6.562285   5.703080
    38  H    8.853491   7.393295   6.650162   5.374734   4.291440
    39  H    8.161162   6.768360   6.251976   5.032023   4.323544
    40  H    8.162863   6.992721   7.213787   6.104348   6.223236
    41  H    8.820599   7.564394   7.536775   6.362123   6.184007
    42  H    7.044977   5.812590   5.876981   4.785360   4.866277
    43  H    5.424597   4.186666   4.473147   3.455235   3.962575
    44  H    2.807205   2.138529   3.202840   3.195054   4.492124
                    6          7          8          9         10
     6  C    0.000000
     7  C    1.409529   0.000000
     8  C    2.553526   1.505802   0.000000
     9  N    2.399521   1.343181   2.423342   0.000000
    10  C    2.672241   2.277143   3.642684   1.333343   0.000000
    11  N    2.399690   2.746582   4.250870   2.389355   1.332586
    12  C    1.407678   2.400288   3.809815   2.745482   2.276620
    13  C    2.558222   3.814999   5.108908   4.252100   3.641392
    14  C    2.519793   3.542602   3.906767   4.714496   5.026523
    15  C    3.839566   4.803060   4.893600   6.045358   6.420383
    16  C    5.023526   5.965279   6.059216   7.133529   7.441468
    17  C    5.591717   6.644098   6.984751   7.670640   7.761291
    18  C    5.344046   6.532616   7.184685   7.398659   7.233348
    19  N    6.822541   7.795666   8.032291   8.811772   8.937085
    20  O    7.125003   7.959670   7.932360   9.074612   9.395383
    21  C    6.168390   6.954370   6.814441   8.148186   8.579524
    22  C    6.789704   7.374040   6.928691   8.622815   9.246512
    23  C    4.367506   5.249961   5.134487   6.562129   7.039321
    24  C    3.823491   4.591858   4.438240   5.890959   6.428601
    25  N    4.732174   5.328437   5.025555   6.565278   7.158609
    26  H    6.226811   6.618072   6.420772   7.549262   8.035109
    27  H    6.239168   6.322132   5.733669   7.295493   8.050408
    28  H    5.451541   5.517567   5.255030   6.287192   6.879044
    29  H    2.813733   2.163034   1.095480   3.226031   4.347380
    30  H    2.934184   2.144713   1.096326   3.075676   4.223260
    31  H    3.429092   2.132339   1.091794   2.479610   3.808562
    32  H    3.761339   3.253496   4.485057   2.062028   1.089121
    33  H    2.991194   4.269507   5.475006   4.781992   4.230477
    34  H    2.797199   4.135867   5.254173   4.780163   4.352384
    35  H    3.423307   4.519420   5.914628   4.683699   3.800157
    36  H    2.711677   3.662874   4.201936   4.646201   4.826345
    37  H    6.358788   7.543189   8.234704   8.340855   8.088917
    38  H    4.748008   5.863008   6.620419   6.608777   6.387657
    39  H    5.095803   6.401621   7.126423   7.291438   7.068261
    40  H    7.596517   8.241024   7.784823   9.522870  10.132296
    41  H    7.364426   7.819975   7.294342   9.010327   9.682279
    42  H    6.168188   6.645933   6.070699   7.925600   8.647152
    43  H    5.452937   6.318038   6.114311   7.637479   8.124665
    44  H    5.725764   6.319500   5.937158   7.563356   8.168099
                   11         12         13         14         15
    11  N    0.000000
    12  C    1.344235   0.000000
    13  C    2.421516   1.508595   0.000000
    14  C    4.512322   3.265752   3.368292   0.000000
    15  C    5.882810   4.594308   4.459669   1.416366   0.000000
    16  C    6.854845   5.626075   5.338636   2.506937   1.475932
    17  C    7.021529   5.877772   5.341661   3.242606   2.625787
    18  C    6.314064   5.265079   4.465659   3.426913   3.297485
    19  N    8.237842   7.136181   6.615502   4.447676   3.705597
    20  O    8.837983   7.686312   7.350885   4.651607   3.663015
    21  C    8.097395   6.893216   6.694782   3.687634   2.561878
    22  C    8.926449   7.727224   7.716890   4.471724   3.315837
    23  C    6.553953   5.238229   5.118870   2.437584   1.401969
    24  C    6.041446   4.782829   4.855268   2.744005   2.386962
    25  N    6.852318   5.678649   5.788174   4.095750   3.737866
    26  H    7.808989   6.913295   7.049653   6.495278   6.429913
    27  H    8.075424   7.211094   7.646152   6.498775   6.428332
    28  H    6.898477   6.207367   6.691984   6.315311   6.585286
    29  H    4.789892   4.155017   5.296226   3.387987   4.222884
    30  H    4.742731   4.205531   5.392009   4.208459   5.020604
    31  H    4.694762   4.528532   5.932122   4.897362   5.898331
    32  H    2.061461   3.253437   4.482709   6.087098   7.489278
    33  H    3.064134   2.163690   1.096857   3.071002   4.082313
    34  H    3.239357   2.164457   1.094659   3.261804   4.115374
    35  H    2.475992   2.131226   1.091946   4.453995   5.523038
    36  H    4.289137   3.193999   3.304565   1.085854   2.155354
    37  H    7.122445   6.161087   5.259876   4.516162   4.331892
    38  H    5.507580   4.578235   3.926604   3.172512   3.477865
    39  H    6.049060   4.931313   3.930358   3.328832   3.194021
    40  H    9.757708   8.511254   8.392773   5.253373   3.960372
    41  H    9.450886   8.324831   8.412448   5.133596   4.147212
    42  H    8.422008   7.232042   7.371047   4.049897   2.987671
    43  H    7.618127   6.293124   6.069122   3.427449   2.167293
    44  H    7.844744   6.653978   6.673411   4.879184   4.284201
                   16         17         18         19         20
    16  C    0.000000
    17  C    1.439764   0.000000
    18  C    2.650346   1.498525   0.000000
    19  N    2.280027   1.312725   2.428719   0.000000
    20  O    2.226206   2.164344   3.597496   1.401919   0.000000
    21  C    1.371038   2.204581   3.676756   2.244915   1.348925
    22  C    2.631479   3.688422   5.142006   3.632625   2.414427
    23  C    2.493882   3.735334   4.443427   4.681632   4.401214
    24  C    3.749269   4.921822   5.387515   5.975713   5.759068
    25  N    5.024471   6.212643   6.676912   7.214513   6.905607
    26  H    7.770270   8.831821   9.037928   9.906882   9.704782
    27  H    7.763278   8.996026   9.414936  10.001474   9.604322
    28  H    8.029940   9.109614   9.258202  10.252879  10.080801
    29  H    5.263268   6.252149   6.630237   7.210273   7.007473
    30  H    6.317408   7.358941   7.605576   8.435549   8.263207
    31  H    6.983235   7.876928   8.076356   8.871507   8.747199
    32  H    8.468453   8.722813   8.127286   9.873129  10.372374
    33  H    4.696545   4.482368   3.487423   5.709767   6.556040
    34  H    5.116983   5.258573   4.503349   6.558883   7.208129
    35  H    6.338825   6.207646   5.166484   7.446443   8.282040
    36  H    2.692568   3.027507   3.014631   4.181102   4.581426
    37  H    3.500080   2.131719   1.092837   2.520526   3.881478
    38  H    3.071688   2.156699   1.096072   3.100705   4.190000
    39  H    2.927616   2.148878   1.095278   3.207978   4.234814
    40  H    3.288143   4.247085   5.691153   4.067717   2.809631
    41  H    3.359424   4.229467   5.699880   3.950337   2.643032
    42  H    2.819321   4.125824   5.462570   4.368856   3.321041
    43  H    2.718030   3.933663   4.826924   4.650774   4.180776
    44  H    5.404939   6.613273   7.187050   7.504366   7.083835
                   21         22         23         24         25
    21  C    0.000000
    22  C    1.490371   0.000000
    23  C    3.174920   3.458536   0.000000
    24  C    4.509494   4.659443   1.392640   0.000000
    25  N    5.640565   5.564246   2.543907   1.384248   0.000000
    26  H    8.472258   8.393602   5.328733   4.082323   2.857913
    27  H    8.289545   7.956568   5.326018   4.079135   2.852970
    28  H    8.804021   8.735906   5.718817   4.334682   3.392936
    29  H    5.893189   5.942067   4.549687   4.099095   4.853063
    30  H    7.054192   7.056141   4.959805   4.029077   4.338007
    31  H    7.666256   7.713954   6.175924   5.496996   6.013892
    32  H    9.599218  10.276303   8.128222   7.505035   8.193843
    33  H    6.047498   7.197838   4.975300   5.014261   6.116982
    34  H    6.467043   7.425049   4.519331   4.165252   4.983796
    35  H    7.702667   8.772309   6.157719   5.850919   6.689167
    36  H    3.856331   4.813576   3.409432   3.829353   5.179321
    37  H    4.295892   5.785835   5.425379   6.420716   7.680777
    38  H    4.165035   5.568525   4.764409   5.542153   6.878332
    39  H    4.099443   5.489161   4.118016   4.923311   6.121505
    40  H    2.149417   1.097038   3.812746   5.019283   5.743381
    41  H    2.135465   1.095459   4.445197   5.582683   6.497100
    42  H    2.130175   1.092638   2.906833   3.907461   4.740308
    43  H    3.012469   3.083419   1.085864   2.172824   2.908888
    44  H    5.844219   5.615365   2.937157   2.144200   1.009557
                   26         27         28         29         30
    26  H    0.000000
    27  H    1.771394   0.000000
    28  H    1.776780   1.777508   0.000000
    29  H    6.681638   5.929290   5.736289   0.000000
    30  H    5.462017   4.691856   4.232030   1.765252   0.000000
    31  H    7.228628   6.413072   5.909666   1.787490   1.781476
    32  H    8.902530   8.917869   7.659711   5.240159   5.070370
    33  H    7.719367   8.251701   7.472572   5.461192   5.879470
    34  H    6.160107   6.900529   6.001905   5.416540   5.330767
    35  H    7.657999   8.381989   7.271442   6.214541   6.196255
    36  H    7.523324   7.520767   7.248922   3.667754   4.739061
    37  H   10.008608  10.446189  10.292573   7.673977   8.684818
    38  H    9.182001   9.486963   9.193737   6.120662   7.160991
    39  H    8.297646   8.842907   8.614992   6.683369   7.421009
    40  H    8.483286   8.105615   9.026583   6.836797   7.802666
    41  H    9.320540   8.757287   9.553351   6.244912   7.521527
    42  H    7.550121   6.987387   7.796874   5.102459   6.113525
    43  H    5.633114   5.637139   6.278772   5.475482   5.887654
    44  H    2.907857   2.903713   3.837707   5.702063   5.221209
                   31         32         33         34         35
    31  H    0.000000
    32  H    4.440418   0.000000
    33  H    6.304227   5.062240   0.000000
    34  H    6.183620   5.252141   1.762600   0.000000
    35  H    6.649136   4.433217   1.772446   1.787874   0.000000
    36  H    5.064421   5.818308   2.753590   3.520970   4.316882
    37  H    9.099661   8.924908   4.235434   5.342524   5.819797
    38  H    7.438326   7.230981   2.878591   4.213486   4.605923
    39  H    8.086141   7.987689   3.077334   3.768724   4.602186
    40  H    8.604090  11.182058   7.895444   7.990937   9.433012
    41  H    7.968268  10.671537   7.842789   8.226872   9.464416
    42  H    6.854478   9.685133   6.988455   7.046430   8.453003
    43  H    7.130465   9.213531   5.866997   5.412146   7.079566
    44  H    6.895361   9.202581   6.952845   5.817395   7.561577
                   36         37         38         39         40
    36  H    0.000000
    37  H    4.042372   0.000000
    38  H    2.468231   1.772276   0.000000
    39  H    3.180928   1.781426   1.766982   0.000000
    40  H    5.690535   6.251178   6.271097   5.936096   0.000000
    41  H    5.313285   6.264704   6.030212   6.205590   1.766962
    42  H    4.552562   6.254518   5.771326   5.690365   1.776813
    43  H    4.310946   5.692011   5.339269   4.519802   3.134308
    44  H    5.962260   8.138266   7.510257   6.623022   5.604983
                   41         42         43         44
    41  H    0.000000
    42  H    1.779835   0.000000
    43  H    4.156050   2.674764   0.000000
    44  H    6.574499   4.834320   2.928074   0.000000
 Symmetry turned off by external request.
 Stoichiometry    C19H19N5O
 Framework group  C1[X(C19H19N5O)]
 Deg. of freedom   126
 Full point group                 C1      NOp   1
 Rotational constants (GHZ):           0.2914130           0.1587527           0.1210422
 Leave Link  202 at Sat Nov  5 09:26:49 2022, MaxMem=   402653184 cpu:               0.2 elap:               0.0
 (Enter /home/wykgroup/appl/g16/l301.exe)
 Standard basis: 6-31G(d) (6D, 10F)
 Ernie: Thresh=  0.10000D-02 Tol=  0.10000D-05 Strict=F.
 AO basis set in the form of general basis input (Overlap normalization):
      1 0
 S   6 1.00       0.000000000000
      0.3047524880D+04  0.1834737132D-02
      0.4573695180D+03  0.1403732281D-01
      0.1039486850D+03  0.6884262226D-01
      0.2921015530D+02  0.2321844432D+00
      0.9286662960D+01  0.4679413484D+00
      0.3163926960D+01  0.3623119853D+00
 SP   3 1.00       0.000000000000
      0.7868272350D+01 -0.1193324198D+00  0.6899906659D-01
      0.1881288540D+01 -0.1608541517D+00  0.3164239610D+00
      0.5442492580D+00  0.1143456438D+01  0.7443082909D+00
 SP   1 1.00       0.000000000000
      0.1687144782D+00  0.1000000000D+01  0.1000000000D+01
 D   1 1.00       0.000000000000
      0.8000000000D+00  0.1000000000D+01
 ****
      2 0
 S   6 1.00       0.000000000000
      0.3047524880D+04  0.1834737132D-02
      0.4573695180D+03  0.1403732281D-01
      0.1039486850D+03  0.6884262226D-01
      0.2921015530D+02  0.2321844432D+00
      0.9286662960D+01  0.4679413484D+00
      0.3163926960D+01  0.3623119853D+00
 SP   3 1.00       0.000000000000
      0.7868272350D+01 -0.1193324198D+00  0.6899906659D-01
      0.1881288540D+01 -0.1608541517D+00  0.3164239610D+00
      0.5442492580D+00  0.1143456438D+01  0.7443082909D+00
 SP   1 1.00       0.000000000000
      0.1687144782D+00  0.1000000000D+01  0.1000000000D+01
 D   1 1.00       0.000000000000
      0.8000000000D+00  0.1000000000D+01
 ****
      3 0
 S   6 1.00       0.000000000000
      0.4173511460D+04  0.1834772160D-02
      0.6274579110D+03  0.1399462700D-01
      0.1429020930D+03  0.6858655181D-01
      0.4023432930D+02  0.2322408730D+00
      0.1282021290D+02  0.4690699481D+00
      0.4390437010D+01  0.3604551991D+00
 SP   3 1.00       0.000000000000
      0.1162636186D+02 -0.1149611817D+00  0.6757974388D-01
      0.2716279807D+01 -0.1691174786D+00  0.3239072959D+00
      0.7722183966D+00  0.1145851947D+01  0.7408951398D+00
 SP   1 1.00       0.000000000000
      0.2120314975D+00  0.1000000000D+01  0.1000000000D+01
 D   1 1.00       0.000000000000
      0.8000000000D+00  0.1000000000D+01
 ****
      4 0
 S   6 1.00       0.000000000000
      0.3047524880D+04  0.1834737132D-02
      0.4573695180D+03  0.1403732281D-01
      0.1039486850D+03  0.6884262226D-01
      0.2921015530D+02  0.2321844432D+00
      0.9286662960D+01  0.4679413484D+00
      0.3163926960D+01  0.3623119853D+00
 SP   3 1.00       0.000000000000
      0.7868272350D+01 -0.1193324198D+00  0.6899906659D-01
      0.1881288540D+01 -0.1608541517D+00  0.3164239610D+00
      0.5442492580D+00  0.1143456438D+01  0.7443082909D+00
 SP   1 1.00       0.000000000000
      0.1687144782D+00  0.1000000000D+01  0.1000000000D+01
 D   1 1.00       0.000000000000
      0.8000000000D+00  0.1000000000D+01
 ****
      5 0
 S   6 1.00       0.000000000000
      0.3047524880D+04  0.1834737132D-02
      0.4573695180D+03  0.1403732281D-01
      0.1039486850D+03  0.6884262226D-01
      0.2921015530D+02  0.2321844432D+00
      0.9286662960D+01  0.4679413484D+00
      0.3163926960D+01  0.3623119853D+00
 SP   3 1.00       0.000000000000
      0.7868272350D+01 -0.1193324198D+00  0.6899906659D-01
      0.1881288540D+01 -0.1608541517D+00  0.3164239610D+00
      0.5442492580D+00  0.1143456438D+01  0.7443082909D+00
 SP   1 1.00       0.000000000000
      0.1687144782D+00  0.1000000000D+01  0.1000000000D+01
 D   1 1.00       0.000000000000
      0.8000000000D+00  0.1000000000D+01
 ****
      6 0
 S   6 1.00       0.000000000000
      0.3047524880D+04  0.1834737132D-02
      0.4573695180D+03  0.1403732281D-01
      0.1039486850D+03  0.6884262226D-01
      0.2921015530D+02  0.2321844432D+00
      0.9286662960D+01  0.4679413484D+00
      0.3163926960D+01  0.3623119853D+00
 SP   3 1.00       0.000000000000
      0.7868272350D+01 -0.1193324198D+00  0.6899906659D-01
      0.1881288540D+01 -0.1608541517D+00  0.3164239610D+00
      0.5442492580D+00  0.1143456438D+01  0.7443082909D+00
 SP   1 1.00       0.000000000000
      0.1687144782D+00  0.1000000000D+01  0.1000000000D+01
 D   1 1.00       0.000000000000
      0.8000000000D+00  0.1000000000D+01
 ****
      7 0
 S   6 1.00       0.000000000000
      0.3047524880D+04  0.1834737132D-02
      0.4573695180D+03  0.1403732281D-01
      0.1039486850D+03  0.6884262226D-01
      0.2921015530D+02  0.2321844432D+00
      0.9286662960D+01  0.4679413484D+00
      0.3163926960D+01  0.3623119853D+00
 SP   3 1.00       0.000000000000
      0.7868272350D+01 -0.1193324198D+00  0.6899906659D-01
      0.1881288540D+01 -0.1608541517D+00  0.3164239610D+00
      0.5442492580D+00  0.1143456438D+01  0.7443082909D+00
 SP   1 1.00       0.000000000000
      0.1687144782D+00  0.1000000000D+01  0.1000000000D+01
 D   1 1.00       0.000000000000
      0.8000000000D+00  0.1000000000D+01
 ****
      8 0
 S   6 1.00       0.000000000000
      0.3047524880D+04  0.1834737132D-02
      0.4573695180D+03  0.1403732281D-01
      0.1039486850D+03  0.6884262226D-01
      0.2921015530D+02  0.2321844432D+00
      0.9286662960D+01  0.4679413484D+00
      0.3163926960D+01  0.3623119853D+00
 SP   3 1.00       0.000000000000
      0.7868272350D+01 -0.1193324198D+00  0.6899906659D-01
      0.1881288540D+01 -0.1608541517D+00  0.3164239610D+00
      0.5442492580D+00  0.1143456438D+01  0.7443082909D+00
 SP   1 1.00       0.000000000000
      0.1687144782D+00  0.1000000000D+01  0.1000000000D+01
 D   1 1.00       0.000000000000
      0.8000000000D+00  0.1000000000D+01
 ****
      9 0
 S   6 1.00       0.000000000000
      0.4173511460D+04  0.1834772160D-02
      0.6274579110D+03  0.1399462700D-01
      0.1429020930D+03  0.6858655181D-01
      0.4023432930D+02  0.2322408730D+00
      0.1282021290D+02  0.4690699481D+00
      0.4390437010D+01  0.3604551991D+00
 SP   3 1.00       0.000000000000
      0.1162636186D+02 -0.1149611817D+00  0.6757974388D-01
      0.2716279807D+01 -0.1691174786D+00  0.3239072959D+00
      0.7722183966D+00  0.1145851947D+01  0.7408951398D+00
 SP   1 1.00       0.000000000000
      0.2120314975D+00  0.1000000000D+01  0.1000000000D+01
 D   1 1.00       0.000000000000
      0.8000000000D+00  0.1000000000D+01
 ****
     10 0
 S   6 1.00       0.000000000000
      0.3047524880D+04  0.1834737132D-02
      0.4573695180D+03  0.1403732281D-01
      0.1039486850D+03  0.6884262226D-01
      0.2921015530D+02  0.2321844432D+00
      0.9286662960D+01  0.4679413484D+00
      0.3163926960D+01  0.3623119853D+00
 SP   3 1.00       0.000000000000
      0.7868272350D+01 -0.1193324198D+00  0.6899906659D-01
      0.1881288540D+01 -0.1608541517D+00  0.3164239610D+00
      0.5442492580D+00  0.1143456438D+01  0.7443082909D+00
 SP   1 1.00       0.000000000000
      0.1687144782D+00  0.1000000000D+01  0.1000000000D+01
 D   1 1.00       0.000000000000
      0.8000000000D+00  0.1000000000D+01
 ****
     11 0
 S   6 1.00       0.000000000000
      0.4173511460D+04  0.1834772160D-02
      0.6274579110D+03  0.1399462700D-01
      0.1429020930D+03  0.6858655181D-01
      0.4023432930D+02  0.2322408730D+00
      0.1282021290D+02  0.4690699481D+00
      0.4390437010D+01  0.3604551991D+00
 SP   3 1.00       0.000000000000
      0.1162636186D+02 -0.1149611817D+00  0.6757974388D-01
      0.2716279807D+01 -0.1691174786D+00  0.3239072959D+00
      0.7722183966D+00  0.1145851947D+01  0.7408951398D+00
 SP   1 1.00       0.000000000000
      0.2120314975D+00  0.1000000000D+01  0.1000000000D+01
 D   1 1.00       0.000000000000
      0.8000000000D+00  0.1000000000D+01
 ****
     12 0
 S   6 1.00       0.000000000000
      0.3047524880D+04  0.1834737132D-02
      0.4573695180D+03  0.1403732281D-01
      0.1039486850D+03  0.6884262226D-01
      0.2921015530D+02  0.2321844432D+00
      0.9286662960D+01  0.4679413484D+00
      0.3163926960D+01  0.3623119853D+00
 SP   3 1.00       0.000000000000
      0.7868272350D+01 -0.1193324198D+00  0.6899906659D-01
      0.1881288540D+01 -0.1608541517D+00  0.3164239610D+00
      0.5442492580D+00  0.1143456438D+01  0.7443082909D+00
 SP   1 1.00       0.000000000000
      0.1687144782D+00  0.1000000000D+01  0.1000000000D+01
 D   1 1.00       0.000000000000
      0.8000000000D+00  0.1000000000D+01
 ****
     13 0
 S   6 1.00       0.000000000000
      0.3047524880D+04  0.1834737132D-02
      0.4573695180D+03  0.1403732281D-01
      0.1039486850D+03  0.6884262226D-01
      0.2921015530D+02  0.2321844432D+00
      0.9286662960D+01  0.4679413484D+00
      0.3163926960D+01  0.3623119853D+00
 SP   3 1.00       0.000000000000
      0.7868272350D+01 -0.1193324198D+00  0.6899906659D-01
      0.1881288540D+01 -0.1608541517D+00  0.3164239610D+00
      0.5442492580D+00  0.1143456438D+01  0.7443082909D+00
 SP   1 1.00       0.000000000000
      0.1687144782D+00  0.1000000000D+01  0.1000000000D+01
 D   1 1.00       0.000000000000
      0.8000000000D+00  0.1000000000D+01
 ****
     14 0
 S   6 1.00       0.000000000000
      0.3047524880D+04  0.1834737132D-02
      0.4573695180D+03  0.1403732281D-01
      0.1039486850D+03  0.6884262226D-01
      0.2921015530D+02  0.2321844432D+00
      0.9286662960D+01  0.4679413484D+00
      0.3163926960D+01  0.3623119853D+00
 SP   3 1.00       0.000000000000
      0.7868272350D+01 -0.1193324198D+00  0.6899906659D-01
      0.1881288540D+01 -0.1608541517D+00  0.3164239610D+00
      0.5442492580D+00  0.1143456438D+01  0.7443082909D+00
 SP   1 1.00       0.000000000000
      0.1687144782D+00  0.1000000000D+01  0.1000000000D+01
 D   1 1.00       0.000000000000
      0.8000000000D+00  0.1000000000D+01
 ****
     15 0
 S   6 1.00       0.000000000000
      0.3047524880D+04  0.1834737132D-02
      0.4573695180D+03  0.1403732281D-01
      0.1039486850D+03  0.6884262226D-01
      0.2921015530D+02  0.2321844432D+00
      0.9286662960D+01  0.4679413484D+00
      0.3163926960D+01  0.3623119853D+00
 SP   3 1.00       0.000000000000
      0.7868272350D+01 -0.1193324198D+00  0.6899906659D-01
      0.1881288540D+01 -0.1608541517D+00  0.3164239610D+00
      0.5442492580D+00  0.1143456438D+01  0.7443082909D+00
 SP   1 1.00       0.000000000000
      0.1687144782D+00  0.1000000000D+01  0.1000000000D+01
 D   1 1.00       0.000000000000
      0.8000000000D+00  0.1000000000D+01
 ****
     16 0
 S   6 1.00       0.000000000000
      0.3047524880D+04  0.1834737132D-02
      0.4573695180D+03  0.1403732281D-01
      0.1039486850D+03  0.6884262226D-01
      0.2921015530D+02  0.2321844432D+00
      0.9286662960D+01  0.4679413484D+00
      0.3163926960D+01  0.3623119853D+00
 SP   3 1.00       0.000000000000
      0.7868272350D+01 -0.1193324198D+00  0.6899906659D-01
      0.1881288540D+01 -0.1608541517D+00  0.3164239610D+00
      0.5442492580D+00  0.1143456438D+01  0.7443082909D+00
 SP   1 1.00       0.000000000000
      0.1687144782D+00  0.1000000000D+01  0.1000000000D+01
 D   1 1.00       0.000000000000
      0.8000000000D+00  0.1000000000D+01
 ****
     17 0
 S   6 1.00       0.000000000000
      0.3047524880D+04  0.1834737132D-02
      0.4573695180D+03  0.1403732281D-01
      0.1039486850D+03  0.6884262226D-01
      0.2921015530D+02  0.2321844432D+00
      0.9286662960D+01  0.4679413484D+00
      0.3163926960D+01  0.3623119853D+00
 SP   3 1.00       0.000000000000
      0.7868272350D+01 -0.1193324198D+00  0.6899906659D-01
      0.1881288540D+01 -0.1608541517D+00  0.3164239610D+00
      0.5442492580D+00  0.1143456438D+01  0.7443082909D+00
 SP   1 1.00       0.000000000000
      0.1687144782D+00  0.1000000000D+01  0.1000000000D+01
 D   1 1.00       0.000000000000
      0.8000000000D+00  0.1000000000D+01
 ****
     18 0
 S   6 1.00       0.000000000000
      0.3047524880D+04  0.1834737132D-02
      0.4573695180D+03  0.1403732281D-01
      0.1039486850D+03  0.6884262226D-01
      0.2921015530D+02  0.2321844432D+00
      0.9286662960D+01  0.4679413484D+00
      0.3163926960D+01  0.3623119853D+00
 SP   3 1.00       0.000000000000
      0.7868272350D+01 -0.1193324198D+00  0.6899906659D-01
      0.1881288540D+01 -0.1608541517D+00  0.3164239610D+00
      0.5442492580D+00  0.1143456438D+01  0.7443082909D+00
 SP   1 1.00       0.000000000000
      0.1687144782D+00  0.1000000000D+01  0.1000000000D+01
 D   1 1.00       0.000000000000
      0.8000000000D+00  0.1000000000D+01
 ****
     19 0
 S   6 1.00       0.000000000000
      0.4173511460D+04  0.1834772160D-02
      0.6274579110D+03  0.1399462700D-01
      0.1429020930D+03  0.6858655181D-01
      0.4023432930D+02  0.2322408730D+00
      0.1282021290D+02  0.4690699481D+00
      0.4390437010D+01  0.3604551991D+00
 SP   3 1.00       0.000000000000
      0.1162636186D+02 -0.1149611817D+00  0.6757974388D-01
      0.2716279807D+01 -0.1691174786D+00  0.3239072959D+00
      0.7722183966D+00  0.1145851947D+01  0.7408951398D+00
 SP   1 1.00       0.000000000000
      0.2120314975D+00  0.1000000000D+01  0.1000000000D+01
 D   1 1.00       0.000000000000
      0.8000000000D+00  0.1000000000D+01
 ****
     20 0
 S   6 1.00       0.000000000000
      0.5484671660D+04  0.1831074430D-02
      0.8252349460D+03  0.1395017220D-01
      0.1880469580D+03  0.6844507810D-01
      0.5296450000D+02  0.2327143360D+00
      0.1689757040D+02  0.4701928980D+00
      0.5799635340D+01  0.3585208530D+00
 SP   3 1.00       0.000000000000
      0.1553961625D+02 -0.1107775495D+00  0.7087426823D-01
      0.3599933586D+01 -0.1480262627D+00  0.3397528391D+00
      0.1013761750D+01  0.1130767015D+01  0.7271585773D+00
 SP   1 1.00       0.000000000000
      0.2700058226D+00  0.1000000000D+01  0.1000000000D+01
 D   1 1.00       0.000000000000
      0.8000000000D+00  0.1000000000D+01
 ****
     21 0
 S   6 1.00       0.000000000000
      0.3047524880D+04  0.1834737132D-02
      0.4573695180D+03  0.1403732281D-01
      0.1039486850D+03  0.6884262226D-01
      0.2921015530D+02  0.2321844432D+00
      0.9286662960D+01  0.4679413484D+00
      0.3163926960D+01  0.3623119853D+00
 SP   3 1.00       0.000000000000
      0.7868272350D+01 -0.1193324198D+00  0.6899906659D-01
      0.1881288540D+01 -0.1608541517D+00  0.3164239610D+00
      0.5442492580D+00  0.1143456438D+01  0.7443082909D+00
 SP   1 1.00       0.000000000000
      0.1687144782D+00  0.1000000000D+01  0.1000000000D+01
 D   1 1.00       0.000000000000
      0.8000000000D+00  0.1000000000D+01
 ****
     22 0
 S   6 1.00       0.000000000000
      0.3047524880D+04  0.1834737132D-02
      0.4573695180D+03  0.1403732281D-01
      0.1039486850D+03  0.6884262226D-01
      0.2921015530D+02  0.2321844432D+00
      0.9286662960D+01  0.4679413484D+00
      0.3163926960D+01  0.3623119853D+00
 SP   3 1.00       0.000000000000
      0.7868272350D+01 -0.1193324198D+00  0.6899906659D-01
      0.1881288540D+01 -0.1608541517D+00  0.3164239610D+00
      0.5442492580D+00  0.1143456438D+01  0.7443082909D+00
 SP   1 1.00       0.000000000000
      0.1687144782D+00  0.1000000000D+01  0.1000000000D+01
 D   1 1.00       0.000000000000
      0.8000000000D+00  0.1000000000D+01
 ****
     23 0
 S   6 1.00       0.000000000000
      0.3047524880D+04  0.1834737132D-02
      0.4573695180D+03  0.1403732281D-01
      0.1039486850D+03  0.6884262226D-01
      0.2921015530D+02  0.2321844432D+00
      0.9286662960D+01  0.4679413484D+00
      0.3163926960D+01  0.3623119853D+00
 SP   3 1.00       0.000000000000
      0.7868272350D+01 -0.1193324198D+00  0.6899906659D-01
      0.1881288540D+01 -0.1608541517D+00  0.3164239610D+00
      0.5442492580D+00  0.1143456438D+01  0.7443082909D+00
 SP   1 1.00       0.000000000000
      0.1687144782D+00  0.1000000000D+01  0.1000000000D+01
 D   1 1.00       0.000000000000
      0.8000000000D+00  0.1000000000D+01
 ****
     24 0
 S   6 1.00       0.000000000000
      0.3047524880D+04  0.1834737132D-02
      0.4573695180D+03  0.1403732281D-01
      0.1039486850D+03  0.6884262226D-01
      0.2921015530D+02  0.2321844432D+00
      0.9286662960D+01  0.4679413484D+00
      0.3163926960D+01  0.3623119853D+00
 SP   3 1.00       0.000000000000
      0.7868272350D+01 -0.1193324198D+00  0.6899906659D-01
      0.1881288540D+01 -0.1608541517D+00  0.3164239610D+00
      0.5442492580D+00  0.1143456438D+01  0.7443082909D+00
 SP   1 1.00       0.000000000000
      0.1687144782D+00  0.1000000000D+01  0.1000000000D+01
 D   1 1.00       0.000000000000
      0.8000000000D+00  0.1000000000D+01
 ****
     25 0
 S   6 1.00       0.000000000000
      0.4173511460D+04  0.1834772160D-02
      0.6274579110D+03  0.1399462700D-01
      0.1429020930D+03  0.6858655181D-01
      0.4023432930D+02  0.2322408730D+00
      0.1282021290D+02  0.4690699481D+00
      0.4390437010D+01  0.3604551991D+00
 SP   3 1.00       0.000000000000
      0.1162636186D+02 -0.1149611817D+00  0.6757974388D-01
      0.2716279807D+01 -0.1691174786D+00  0.3239072959D+00
      0.7722183966D+00  0.1145851947D+01  0.7408951398D+00
 SP   1 1.00       0.000000000000
      0.2120314975D+00  0.1000000000D+01  0.1000000000D+01
 D   1 1.00       0.000000000000
      0.8000000000D+00  0.1000000000D+01
 ****
     26 0
 S   3 1.00       0.000000000000
      0.1873113696D+02  0.3349460434D-01
      0.2825394365D+01  0.2347269535D+00
      0.6401216923D+00  0.8137573261D+00
 S   1 1.00       0.000000000000
      0.1612777588D+00  0.1000000000D+01
 ****
     27 0
 S   3 1.00       0.000000000000
      0.1873113696D+02  0.3349460434D-01
      0.2825394365D+01  0.2347269535D+00
      0.6401216923D+00  0.8137573261D+00
 S   1 1.00       0.000000000000
      0.1612777588D+00  0.1000000000D+01
 ****
     28 0
 S   3 1.00       0.000000000000
      0.1873113696D+02  0.3349460434D-01
      0.2825394365D+01  0.2347269535D+00
      0.6401216923D+00  0.8137573261D+00
 S   1 1.00       0.000000000000
      0.1612777588D+00  0.1000000000D+01
 ****
     29 0
 S   3 1.00       0.000000000000
      0.1873113696D+02  0.3349460434D-01
      0.2825394365D+01  0.2347269535D+00
      0.6401216923D+00  0.8137573261D+00
 S   1 1.00       0.000000000000
      0.1612777588D+00  0.1000000000D+01
 ****
     30 0
 S   3 1.00       0.000000000000
      0.1873113696D+02  0.3349460434D-01
      0.2825394365D+01  0.2347269535D+00
      0.6401216923D+00  0.8137573261D+00
 S   1 1.00       0.000000000000
      0.1612777588D+00  0.1000000000D+01
 ****
     31 0
 S   3 1.00       0.000000000000
      0.1873113696D+02  0.3349460434D-01
      0.2825394365D+01  0.2347269535D+00
      0.6401216923D+00  0.8137573261D+00
 S   1 1.00       0.000000000000
      0.1612777588D+00  0.1000000000D+01
 ****
     32 0
 S   3 1.00       0.000000000000
      0.1873113696D+02  0.3349460434D-01
      0.2825394365D+01  0.2347269535D+00
      0.6401216923D+00  0.8137573261D+00
 S   1 1.00       0.000000000000
      0.1612777588D+00  0.1000000000D+01
 ****
     33 0
 S   3 1.00       0.000000000000
      0.1873113696D+02  0.3349460434D-01
      0.2825394365D+01  0.2347269535D+00
      0.6401216923D+00  0.8137573261D+00
 S   1 1.00       0.000000000000
      0.1612777588D+00  0.1000000000D+01
 ****
     34 0
 S   3 1.00       0.000000000000
      0.1873113696D+02  0.3349460434D-01
      0.2825394365D+01  0.2347269535D+00
      0.6401216923D+00  0.8137573261D+00
 S   1 1.00       0.000000000000
      0.1612777588D+00  0.1000000000D+01
 ****
     35 0
 S   3 1.00       0.000000000000
      0.1873113696D+02  0.3349460434D-01
      0.2825394365D+01  0.2347269535D+00
      0.6401216923D+00  0.8137573261D+00
 S   1 1.00       0.000000000000
      0.1612777588D+00  0.1000000000D+01
 ****
     36 0
 S   3 1.00       0.000000000000
      0.1873113696D+02  0.3349460434D-01
      0.2825394365D+01  0.2347269535D+00
      0.6401216923D+00  0.8137573261D+00
 S   1 1.00       0.000000000000
      0.1612777588D+00  0.1000000000D+01
 ****
     37 0
 S   3 1.00       0.000000000000
      0.1873113696D+02  0.3349460434D-01
      0.2825394365D+01  0.2347269535D+00
      0.6401216923D+00  0.8137573261D+00
 S   1 1.00       0.000000000000
      0.1612777588D+00  0.1000000000D+01
 ****
     38 0
 S   3 1.00       0.000000000000
      0.1873113696D+02  0.3349460434D-01
      0.2825394365D+01  0.2347269535D+00
      0.6401216923D+00  0.8137573261D+00
 S   1 1.00       0.000000000000
      0.1612777588D+00  0.1000000000D+01
 ****
     39 0
 S   3 1.00       0.000000000000
      0.1873113696D+02  0.3349460434D-01
      0.2825394365D+01  0.2347269535D+00
      0.6401216923D+00  0.8137573261D+00
 S   1 1.00       0.000000000000
      0.1612777588D+00  0.1000000000D+01
 ****
     40 0
 S   3 1.00       0.000000000000
      0.1873113696D+02  0.3349460434D-01
      0.2825394365D+01  0.2347269535D+00
      0.6401216923D+00  0.8137573261D+00
 S   1 1.00       0.000000000000
      0.1612777588D+00  0.1000000000D+01
 ****
     41 0
 S   3 1.00       0.000000000000
      0.1873113696D+02  0.3349460434D-01
      0.2825394365D+01  0.2347269535D+00
      0.6401216923D+00  0.8137573261D+00
 S   1 1.00       0.000000000000
      0.1612777588D+00  0.1000000000D+01
 ****
     42 0
 S   3 1.00       0.000000000000
      0.1873113696D+02  0.3349460434D-01
      0.2825394365D+01  0.2347269535D+00
      0.6401216923D+00  0.8137573261D+00
 S   1 1.00       0.000000000000
      0.1612777588D+00  0.1000000000D+01
 ****
     43 0
 S   3 1.00       0.000000000000
      0.1873113696D+02  0.3349460434D-01
      0.2825394365D+01  0.2347269535D+00
      0.6401216923D+00  0.8137573261D+00
 S   1 1.00       0.000000000000
      0.1612777588D+00  0.1000000000D+01
 ****
     44 0
 S   3 1.00       0.000000000000
      0.1873113696D+02  0.3349460434D-01
      0.2825394365D+01  0.2347269535D+00
      0.6401216923D+00  0.8137573261D+00
 S   1 1.00       0.000000000000
      0.1612777588D+00  0.1000000000D+01
 ****

   413 basis functions,   776 primitive gaussians,   413 cartesian basis functions
    88 alpha electrons       88 beta electrons
       nuclear repulsion energy      2107.1360531140 Hartrees.
 IExCor=  402 DFT=T Ex+Corr=B3LYP ExCW=0 ScaHFX=  0.200000
 ScaDFX=  0.800000  0.720000  1.000000  0.810000 ScalE2=  1.000000  1.000000
 IRadAn=      5 IRanWt=     -1 IRanGd=            0 ICorTp=0 IEmpDi=  4
 NAtoms=   44 NActive=   44 NUniq=   44 SFac= 1.00D+00 NAtFMM=   60 NAOKFM=F Big=F
 Integral buffers will be    131072 words long.
 Regular integral format.
 Two-electron integral symmetry is turned off.
 Leave Link  301 at Sat Nov  5 09:26:49 2022, MaxMem=   402653184 cpu:               0.6 elap:               0.1
 (Enter /home/wykgroup/appl/g16/l302.exe)
 NPDir=0 NMtPBC=     1 NCelOv=     1 NCel=       1 NClECP=     1 NCelD=      1
         NCelK=      1 NCelE2=     1 NClLst=     1 CellRange=     0.0.
 One-electron integrals computed using PRISM.
 NBasis=   413 RedAO= T EigKep=  2.87D-04  NBF=   413
 NBsUse=   413 1.00D-06 EigRej= -1.00D+00 NBFU=   413
 Precomputing XC quadrature grid using
 IXCGrd= 4 IRadAn=           5 IRanWt=          -1 IRanGd=           0 AccXCQ= 0.00D+00.
 Generated NRdTot=       0 NPtTot=           0 NUsed=           0 NTot=          32
 NSgBfM=   411   411   411   411   411 MxSgAt=    44 MxSgA2=    44.
 Leave Link  302 at Sat Nov  5 09:26:52 2022, MaxMem=   402653184 cpu:              22.3 elap:               2.4
 (Enter /home/wykgroup/appl/g16/l303.exe)
 DipDrv:  MaxL=1.
 Leave Link  303 at Sat Nov  5 09:26:52 2022, MaxMem=   402653184 cpu:               1.9 elap:               0.4
 (Enter /home/wykgroup/appl/g16/l308.exe)
 Leave Link  308 at Sat Nov  5 09:26:53 2022, MaxMem=   402653184 cpu:               1.2 elap:               0.3
 (Enter /home/wykgroup/appl/g16/l401.exe)
 ExpMin= 1.61D-01 ExpMax= 5.48D+03 ExpMxC= 8.25D+02 IAcc=3 IRadAn=         5 AccDes= 0.00D+00
 Harris functional with IExCor=  402 and IRadAn=       5 diagonalized for initial guess.
 HarFok:  IExCor=  402 AccDes= 0.00D+00 IRadAn=         5 IDoV= 1 UseB2=F ITyADJ=14
 ICtDFT=  3500011 ScaDFX=  1.000000  1.000000  1.000000  1.000000
 FoFCou: FMM=F IPFlag=           0 FMFlag=      100000 FMFlg1=           0
         NFxFlg=           0 DoJE=T BraDBF=F KetDBF=T FulRan=T
         wScrn=  0.000000 ICntrl=       500 IOpCl=  0 I1Cent=   200000004 NGrid=           0
         NMat0=    1 NMatS0=      1 NMatT0=    0 NMatD0=    1 NMtDS0=    0 NMtDT0=    0
 Symmetry not used in FoFCou.
 Harris En= -1084.40675703272    
 JPrj=0 DoOrth=F DoCkMO=F.
 Leave Link  401 at Sat Nov  5 09:26:57 2022, MaxMem=   402653184 cpu:              36.4 elap:               3.8
 (Enter /home/wykgroup/appl/g16/l502.exe)
 Two-electron integral symmetry not used.
 Closed shell SCF:
 Using DIIS extrapolation, IDIIS=  1040.
 NGot=   402653184 LenX=   402302669 LenY=   402131659
 Requested convergence on RMS density matrix=1.00D-08 within  32 cycles.
 Requested convergence on MAX density matrix=1.00D-06.
 Requested convergence on             energy=1.00D-06.
 No special actions if energy rises.
 Fock matrices will be formed incrementally for  20 cycles.
 Integral accuracy reduced to 1.0D-05 until final iterations.

 Cycle   1  Pass 0  IDiag  1:
 FoFJK:  IHMeth= 1 ICntrl=       0 DoSepK=F KAlg= 0 I1Cent=           0 FoldK=F
 IRaf= 750000000 NMat=       1 IRICut=       1 DoRegI=T DoRafI=F ISym2E= 0 IDoP0=0 IntGTp=1.
 FoFCou: FMM=F IPFlag=           0 FMFlag=      100000 FMFlg1=           0
         NFxFlg=           0 DoJE=F BraDBF=F KetDBF=F FulRan=T
         wScrn=  0.000000 ICntrl=         0 IOpCl=  0 I1Cent=           0 NGrid=           0
         NMat0=    1 NMatS0=      1 NMatT0=    0 NMatD0=    1 NMtDS0=    0 NMtDT0=    0
 Symmetry not used in FoFCou.
 E= -1083.93195620713    
 DIIS: error= 2.65D-02 at cycle   1 NSaved=   1.
 NSaved= 1 IEnMin= 1 EnMin= -1083.93195620713     IErMin= 1 ErrMin= 2.65D-02
 ErrMax= 2.65D-02  0.00D+00 EMaxC= 1.00D-01 BMatC= 5.16D-01 BMatP= 5.16D-01
 IDIUse=3 WtCom= 7.35D-01 WtEn= 2.65D-01
 Coeff-Com:  0.100D+01
 Coeff-En:   0.100D+01
 Coeff:      0.100D+01
 Gap=     0.194 Goal=   None    Shift=    0.000
 GapD=    0.194 DampG=1.000 DampE=0.500 DampFc=0.5000 IDamp=-1.
 Damping current iteration by 5.00D-01
 RMSDP=4.12D-03 MaxDP=1.53D-01              OVMax= 2.27D-01

 Cycle   2  Pass 0  IDiag  1:
 RMSU=  2.01D-03    CP:  9.73D-01
 E= -1084.15243612288     Delta-E=       -0.220479915748 Rises=F Damp=T
 DIIS: error= 7.84D-03 at cycle   2 NSaved=   2.
 NSaved= 2 IEnMin= 2 EnMin= -1084.15243612288     IErMin= 2 ErrMin= 7.84D-03
 ErrMax= 7.84D-03  0.00D+00 EMaxC= 1.00D-01 BMatC= 4.77D-02 BMatP= 5.16D-01
 IDIUse=3 WtCom= 9.22D-01 WtEn= 7.84D-02
 Coeff-Com:  0.734D-01 0.927D+00
 Coeff-En:   0.134D+00 0.866D+00
 Coeff:      0.781D-01 0.922D+00
 Gap=     0.212 Goal=   None    Shift=    0.000
 RMSDP=1.46D-03 MaxDP=7.05D-02 DE=-2.20D-01 OVMax= 2.05D-01

 Cycle   3  Pass 0  IDiag  1:
 RMSU=  1.41D-03    CP:  9.61D-01  8.43D-01
 E= -1084.37232644644     Delta-E=       -0.219890323562 Rises=F Damp=F
 DIIS: error= 1.06D-02 at cycle   3 NSaved=   3.
 NSaved= 3 IEnMin= 3 EnMin= -1084.37232644644     IErMin= 2 ErrMin= 7.84D-03
 ErrMax= 1.06D-02  0.00D+00 EMaxC= 1.00D-01 BMatC= 8.20D-02 BMatP= 4.77D-02
 IDIUse=2 WtCom= 0.00D+00 WtEn= 1.00D+00
 Coeff-En:   0.000D+00 0.000D+00 0.100D+01
 Coeff:      0.000D+00 0.000D+00 0.100D+01
 Gap=     0.190 Goal=   None    Shift=    0.000
 RMSDP=2.38D-03 MaxDP=1.04D-01 DE=-2.20D-01 OVMax= 2.39D-01

 Cycle   4  Pass 0  IDiag  1:
 RMSU=  1.14D-03    CP:  9.63D-01  1.34D+00 -3.01D-01
 E= -1084.01916488908     Delta-E=        0.353161557364 Rises=F Damp=F
 DIIS: error= 2.12D-02 at cycle   4 NSaved=   4.
 NSaved= 4 IEnMin= 3 EnMin= -1084.37232644644     IErMin= 2 ErrMin= 7.84D-03
 ErrMax= 2.12D-02  0.00D+00 EMaxC= 1.00D-01 BMatC= 4.46D-01 BMatP= 4.77D-02
 IDIUse=2 WtCom= 0.00D+00 WtEn= 1.00D+00
 Coeff-En:   0.000D+00 0.000D+00 0.787D+00 0.213D+00
 Coeff:      0.000D+00 0.000D+00 0.787D+00 0.213D+00
 Gap=     0.199 Goal=   None    Shift=    0.000
 RMSDP=1.22D-03 MaxDP=5.60D-02 DE= 3.53D-01 OVMax= 1.31D-01

 Cycle   5  Pass 0  IDiag  1:
 RMSU=  1.97D-04    CP:  9.63D-01  1.06D+00  3.42D-01  5.13D-01
 E= -1084.41831874955     Delta-E=       -0.399153860472 Rises=F Damp=F
 DIIS: error= 6.87D-03 at cycle   5 NSaved=   5.
 NSaved= 5 IEnMin= 5 EnMin= -1084.41831874955     IErMin= 5 ErrMin= 6.87D-03
 ErrMax= 6.87D-03  0.00D+00 EMaxC= 1.00D-01 BMatC= 3.52D-02 BMatP= 4.77D-02
 IDIUse=3 WtCom= 9.31D-01 WtEn= 6.87D-02
 Coeff-Com:  0.204D-02 0.109D-01 0.320D+00-0.744D-01 0.742D+00
 Coeff-En:   0.000D+00 0.000D+00 0.346D+00 0.000D+00 0.654D+00
 Coeff:      0.190D-02 0.102D-01 0.322D+00-0.693D-01 0.736D+00
 Gap=     0.184 Goal=   None    Shift=    0.000
 RMSDP=4.63D-04 MaxDP=2.26D-02 DE=-3.99D-01 OVMax= 4.96D-02

 Cycle   6  Pass 0  IDiag  1:
 RMSU=  7.41D-05    CP:  9.62D-01  9.69D-01  5.88D-01  3.14D-01  7.57D-01
 E= -1084.45167604495     Delta-E=       -0.033357295400 Rises=F Damp=F
 DIIS: error= 5.90D-04 at cycle   6 NSaved=   6.
 NSaved= 6 IEnMin= 6 EnMin= -1084.45167604495     IErMin= 6 ErrMin= 5.90D-04
 ErrMax= 5.90D-04  0.00D+00 EMaxC= 1.00D-01 BMatC= 2.95D-04 BMatP= 3.52D-02
 IDIUse=3 WtCom= 9.94D-01 WtEn= 5.90D-03
 Coeff-Com: -0.505D-03 0.442D-02 0.156D+00-0.701D-01 0.485D+00 0.425D+00
 Coeff-En:   0.000D+00 0.000D+00 0.000D+00 0.000D+00 0.000D+00 0.100D+01
 Coeff:     -0.502D-03 0.439D-02 0.155D+00-0.697D-01 0.482D+00 0.429D+00
 Gap=     0.183 Goal=   None    Shift=    0.000
 RMSDP=4.79D-05 MaxDP=2.25D-03 DE=-3.34D-02 OVMax= 4.50D-03

 Cycle   7  Pass 0  IDiag  1:
 RMSU=  2.40D-05    CP:  9.62D-01  9.69D-01  5.90D-01  3.12D-01  8.20D-01
                    CP:  4.70D-01
 E= -1084.45192633176     Delta-E=       -0.000250286812 Rises=F Damp=F
 DIIS: error= 2.00D-04 at cycle   7 NSaved=   7.
 NSaved= 7 IEnMin= 7 EnMin= -1084.45192633176     IErMin= 7 ErrMin= 2.00D-04
 ErrMax= 2.00D-04  0.00D+00 EMaxC= 1.00D-01 BMatC= 2.03D-05 BMatP= 2.95D-04
 IDIUse=3 WtCom= 9.98D-01 WtEn= 2.00D-03
 Coeff-Com: -0.403D-03 0.240D-02 0.751D-01-0.391D-01 0.249D+00 0.266D+00
 Coeff-Com:  0.447D+00
 Coeff-En:   0.000D+00 0.000D+00 0.000D+00 0.000D+00 0.000D+00 0.000D+00
 Coeff-En:   0.100D+01
 Coeff:     -0.402D-03 0.240D-02 0.750D-01-0.391D-01 0.248D+00 0.266D+00
 Coeff:      0.448D+00
 Gap=     0.183 Goal=   None    Shift=    0.000
 RMSDP=1.41D-05 MaxDP=5.72D-04 DE=-2.50D-04 OVMax= 1.24D-03

 Cycle   8  Pass 0  IDiag  1:
 RMSU=  7.32D-06    CP:  9.62D-01  9.69D-01  5.92D-01  3.12D-01  8.21D-01
                    CP:  5.25D-01  5.37D-01
 E= -1084.45194483163     Delta-E=       -0.000018499875 Rises=F Damp=F
 DIIS: error= 3.95D-05 at cycle   8 NSaved=   8.
 NSaved= 8 IEnMin= 8 EnMin= -1084.45194483163     IErMin= 8 ErrMin= 3.95D-05
 ErrMax= 3.95D-05  0.00D+00 EMaxC= 1.00D-01 BMatC= 1.93D-06 BMatP= 2.03D-05
 IDIUse=1 WtCom= 1.00D+00 WtEn= 0.00D+00
 Coeff-Com:  0.149D-04 0.246D-04 0.189D-01-0.105D-01 0.630D-01 0.836D-01
 Coeff-Com:  0.258D+00 0.586D+00
 Coeff:      0.149D-04 0.246D-04 0.189D-01-0.105D-01 0.630D-01 0.836D-01
 Coeff:      0.258D+00 0.586D+00
 Gap=     0.183 Goal=   None    Shift=    0.000
 RMSDP=4.67D-06 MaxDP=1.73D-04 DE=-1.85D-05 OVMax= 4.31D-04

 Initial convergence to 1.0D-05 achieved.  Increase integral accuracy.
 Cycle   9  Pass 1  IDiag  1:
 E= -1084.45192419702     Delta-E=        0.000020634614 Rises=F Damp=F
 DIIS: error= 9.14D-05 at cycle   1 NSaved=   1.
 NSaved= 1 IEnMin= 1 EnMin= -1084.45192419702     IErMin= 1 ErrMin= 9.14D-05
 ErrMax= 9.14D-05  0.00D+00 EMaxC= 1.00D-01 BMatC= 1.74D-06 BMatP= 1.74D-06
 IDIUse=1 WtCom= 1.00D+00 WtEn= 0.00D+00
 Coeff-Com:  0.100D+01
 Coeff:      0.100D+01
 Gap=     0.183 Goal=   None    Shift=    0.000
 RMSDP=4.67D-06 MaxDP=1.73D-04 DE= 2.06D-05 OVMax= 3.85D-04

 Cycle  10  Pass 1  IDiag  1:
 RMSU=  5.37D-05    CP:  1.00D+00
 E= -1084.45192474449     Delta-E=       -0.000000547474 Rises=F Damp=F
 DIIS: error= 3.45D-05 at cycle   2 NSaved=   2.
 NSaved= 2 IEnMin= 2 EnMin= -1084.45192474449     IErMin= 2 ErrMin= 3.45D-05
 ErrMax= 3.45D-05  0.00D+00 EMaxC= 1.00D-01 BMatC= 9.54D-07 BMatP= 1.74D-06
 IDIUse=1 WtCom= 1.00D+00 WtEn= 0.00D+00
 Coeff-Com:  0.391D+00 0.609D+00
 Coeff:      0.391D+00 0.609D+00
 Gap=     0.183 Goal=   None    Shift=    0.000
 RMSDP=5.29D-06 MaxDP=1.68D-04 DE=-5.47D-07 OVMax= 4.75D-04

 Cycle  11  Pass 1  IDiag  1:
 RMSU=  5.29D-06    CP:  1.00D+00  9.97D-01
 E= -1084.45192484875     Delta-E=       -0.000000104260 Rises=F Damp=F
 DIIS: error= 3.53D-05 at cycle   3 NSaved=   3.
 NSaved= 3 IEnMin= 3 EnMin= -1084.45192484875     IErMin= 2 ErrMin= 3.45D-05
 ErrMax= 3.53D-05  0.00D+00 EMaxC= 1.00D-01 BMatC= 8.52D-07 BMatP= 9.54D-07
 IDIUse=1 WtCom= 1.00D+00 WtEn= 0.00D+00
 Coeff-Com:  0.234D-01 0.480D+00 0.497D+00
 Coeff:      0.234D-01 0.480D+00 0.497D+00
 Gap=     0.183 Goal=   None    Shift=    0.000
 RMSDP=2.85D-06 MaxDP=9.57D-05 DE=-1.04D-07 OVMax= 2.66D-04

 Cycle  12  Pass 1  IDiag  1:
 RMSU=  9.75D-07    CP:  1.00D+00  1.01D+00  5.04D-01
 E= -1084.45192570289     Delta-E=       -0.000000854133 Rises=F Damp=F
 DIIS: error= 7.54D-06 at cycle   4 NSaved=   4.
 NSaved= 4 IEnMin= 4 EnMin= -1084.45192570289     IErMin= 4 ErrMin= 7.54D-06
 ErrMax= 7.54D-06  0.00D+00 EMaxC= 1.00D-01 BMatC= 4.56D-08 BMatP= 8.52D-07
 IDIUse=1 WtCom= 1.00D+00 WtEn= 0.00D+00
 Coeff-Com: -0.262D-02 0.285D+00 0.322D+00 0.396D+00
 Coeff:     -0.262D-02 0.285D+00 0.322D+00 0.396D+00
 Gap=     0.183 Goal=   None    Shift=    0.000
 RMSDP=5.71D-07 MaxDP=2.74D-05 DE=-8.54D-07 OVMax= 3.99D-05

 Cycle  13  Pass 1  IDiag  1:
 RMSU=  1.82D-07    CP:  1.00D+00  1.01D+00  5.24D-01  4.57D-01
 E= -1084.45192574451     Delta-E=       -0.000000041621 Rises=F Damp=F
 DIIS: error= 1.07D-06 at cycle   5 NSaved=   5.
 NSaved= 5 IEnMin= 5 EnMin= -1084.45192574451     IErMin= 5 ErrMin= 1.07D-06
 ErrMax= 1.07D-06  0.00D+00 EMaxC= 1.00D-01 BMatC= 9.52D-10 BMatP= 4.56D-08
 IDIUse=1 WtCom= 1.00D+00 WtEn= 0.00D+00
 Coeff-Com: -0.219D-02 0.161D+00 0.183D+00 0.241D+00 0.417D+00
 Coeff:     -0.219D-02 0.161D+00 0.183D+00 0.241D+00 0.417D+00
 Gap=     0.183 Goal=   None    Shift=    0.000
 RMSDP=9.54D-08 MaxDP=4.07D-06 DE=-4.16D-08 OVMax= 7.58D-06

 Cycle  14  Pass 1  IDiag  1:
 RMSU=  5.45D-08    CP:  1.00D+00  1.01D+00  5.24D-01  4.39D-01  5.81D-01
 E= -1084.45192574540     Delta-E=       -0.000000000893 Rises=F Damp=F
 DIIS: error= 1.35D-07 at cycle   6 NSaved=   6.
 NSaved= 6 IEnMin= 6 EnMin= -1084.45192574540     IErMin= 6 ErrMin= 1.35D-07
 ErrMax= 1.35D-07  0.00D+00 EMaxC= 1.00D-01 BMatC= 2.24D-11 BMatP= 9.52D-10
 IDIUse=1 WtCom= 1.00D+00 WtEn= 0.00D+00
 Coeff-Com: -0.101D-02 0.710D-01 0.807D-01 0.107D+00 0.213D+00 0.529D+00
 Coeff:     -0.101D-02 0.710D-01 0.807D-01 0.107D+00 0.213D+00 0.529D+00
 Gap=     0.183 Goal=   None    Shift=    0.000
 RMSDP=1.75D-08 MaxDP=8.11D-07 DE=-8.93D-10 OVMax= 1.65D-06

 Cycle  15  Pass 1  IDiag  1:
 RMSU=  1.53D-08    CP:  1.00D+00  1.01D+00  5.24D-01  4.40D-01  6.11D-01
                    CP:  8.93D-01
 E= -1084.45192574542     Delta-E=       -0.000000000023 Rises=F Damp=F
 DIIS: error= 5.99D-08 at cycle   7 NSaved=   7.
 NSaved= 7 IEnMin= 7 EnMin= -1084.45192574542     IErMin= 7 ErrMin= 5.99D-08
 ErrMax= 5.99D-08  0.00D+00 EMaxC= 1.00D-01 BMatC= 3.71D-12 BMatP= 2.24D-11
 IDIUse=1 WtCom= 1.00D+00 WtEn= 0.00D+00
 Coeff-Com: -0.167D-03 0.103D-01 0.116D-01 0.160D-01 0.433D-01 0.301D+00
 Coeff-Com:  0.618D+00
 Coeff:     -0.167D-03 0.103D-01 0.116D-01 0.160D-01 0.433D-01 0.301D+00
 Coeff:      0.618D+00
 Gap=     0.183 Goal=   None    Shift=    0.000
 RMSDP=6.81D-09 MaxDP=2.90D-07 DE=-2.32D-11 OVMax= 6.45D-07

 SCF Done:  E(RB3LYP) =  -1084.45192575     A.U. after   15 cycles
            NFock= 15  Conv=0.68D-08     -V/T= 2.0095
 KE= 1.074273010324D+03 PE=-6.732007202970D+03 EE= 2.466146213787D+03
 Leave Link  502 at Sat Nov  5 09:28:20 2022, MaxMem=   402653184 cpu:             691.3 elap:              83.1
 (Enter /home/wykgroup/appl/g16/l508.exe)
 QCSCF skips out because SCF is already converged.
 Leave Link  508 at Sat Nov  5 09:28:21 2022, MaxMem=   402653184 cpu:               0.0 elap:               0.1
 (Enter /home/wykgroup/appl/g16/l801.exe)
 DoSCS=F DFT=T ScalE2(SS,OS)=  1.000000  1.000000
 ExpMin= 1.61D-01 ExpMax= 5.48D+03 ExpMxC= 8.25D+02 IAcc=3 IRadAn=         5 AccDes= 0.00D+00
 HarFok:  IExCor=  205 AccDes= 0.00D+00 IRadAn=         5 IDoV=-2 UseB2=F ITyADJ=14
 ICtDFT= 12500011 ScaDFX=  1.000000  1.000000  1.000000  1.000000
 GSVD:  LWork=        -825 too small for GESVD, short by        3500 words or        3500 for optimal perf.
 Largest valence mixing into a core orbital is  5.59D-05
 Largest core mixing into a valence orbital is  1.42D-05
 Range of M.O.s used for correlation:    26   413
 NBasis=   413 NAE=    88 NBE=    88 NFC=    25 NFV=     0
 NROrb=    388 NOA=    63 NOB=    63 NVA=   325 NVB=   325
 Leave Link  801 at Sat Nov  5 09:28:23 2022, MaxMem=   402653184 cpu:              16.7 elap:               2.3
 (Enter /home/wykgroup/appl/g16/l914.exe)
 RHF ground state
 Two-electron integral symmetry not used.
 MDV=   402653184 DFT=T DoStab=F Mixed=T DoRPA=T DoScal=F NonHer=T
 Making orbital integer symmetry assigments:
    16 initial guesses have been made.
 Convergence on wavefunction:    0.001000000000000
 Davidson Disk Diagonalization:  ConvIn= 1.00D-03 SkipCon=T Conv= 1.00D-03.
 Max sub-space:  2000 roots to seek:    16 dimension of matrix:        40950
 Iteration     1 Dimension    16 NMult     0 NNew     16
 CISAX will form    16 AO SS matrices at one time.
 NMat=    16 NSing=     8 JSym2X= 0.
 FoFJK:  IHMeth= 1 ICntrl=       0 DoSepK=F KAlg= 0 I1Cent=           0 FoldK=F
 IRaf= 750000000 NMat=      32 IRICut=       1 DoRegI=T DoRafI=F ISym2E= 0 IDoP0=0 IntGTp=1.
 FoFCou: FMM=F IPFlag=           0 FMFlag=      100000 FMFlg1=           0
         NFxFlg=           0 DoJE=F BraDBF=F KetDBF=F FulRan=T
         wScrn=  0.000000 ICntrl=         0 IOpCl=  0 I1Cent=           0 NGrid=           0
         NMat0=   32 NMatS0=      8 NMatT0=    8 NMatD0=   32 NMtDS0=    0 NMtDT0=    0
 Symmetry not used in FoFCou.
 New state      1 was old state      2
 New state      2 was old state      4
 New state      3 was old state     12
 New state      4 was old state     10
 New state      5 was old state      8
 New state      6 was old state      1
 New state      7 was old state      5
 New state      8 was old state      3
 Excitation Energies [eV] at current iteration:
 Root      1 :     3.691160027632306
 Root      2 :     4.099791076651222
 Root      3 :     4.337011846718160
 Root      4 :     4.526659444014086
 Root      5 :     4.537426729518976
 Root      6 :     4.605807300667484
 Root      7 :     4.661320562008600
 Root      8 :     4.838105588953011
 Root      9 :     4.942716161292264
 Root     10 :     4.983227825663191
 Root     11 :     5.001277013368228
 Root     12 :     5.132023429539917
 Root     13 :     5.332118365754502
 Root     14 :     5.412376605589698
 Root     15 :     5.635763742160713
 Root     16 :     6.222133095202318
 Vector   3 SDiff=2.49D-01 TDiff=6.67D+00 assumed to be singlet.
 Vector   4 SDiff=1.09D+00 TDiff=5.41D+00 assumed to be singlet.
 Vector   7 SDiff=2.21D-01 TDiff=5.62D+00 assumed to be singlet.
 Vector   8 SDiff=1.10D+00 TDiff=5.09D+00 assumed to be singlet.
 Iteration     2 Dimension    24 NMult    16 NNew      8
 CISAX will form     8 AO SS matrices at one time.
 NMat=     8 NSing=     4 JSym2X= 0.
 Root      1 not converged, maximum delta is    0.141588829856261
 Root      2 not converged, maximum delta is    0.112863129051520
 New state      3 was old state      6
 Root      3 not converged, maximum delta is    0.113431037458964
 New state      4 was old state      7
 Root      4 not converged, maximum delta is    0.182280624492260
 Excitation Energies [eV] at current iteration:
 Root      1 :     3.294188178558268   Change is   -0.396971849074038
 Root      2 :     3.898471459082320   Change is   -0.201319617568902
 Root      3 :     4.411079086005485   Change is   -0.194728214661999
 Root      4 :     4.474817838623463   Change is   -0.186502723385137
 Iteration     3 Dimension    32 NMult    24 NNew      8
 CISAX will form     8 AO SS matrices at one time.
 NMat=     8 NSing=     4 JSym2X= 0.
 Root      1 not converged, maximum delta is    0.026956043940450
 Root      2 not converged, maximum delta is    0.036118453920896
 Root      3 not converged, maximum delta is    0.033359318309319
 Root      4 not converged, maximum delta is    0.044633390791421
 Excitation Energies [eV] at current iteration:
 Root      1 :     3.247960717849438   Change is   -0.046227460708830
 Root      2 :     3.862879032198691   Change is   -0.035592426883629
 Root      3 :     4.378482806687721   Change is   -0.032596279317765
 Root      4 :     4.433189161330879   Change is   -0.041628677292584
 Iteration     4 Dimension    40 NMult    32 NNew      8
 CISAX will form     8 AO SS matrices at one time.
 NMat=     8 NSing=     4 JSym2X= 0.
 Root      1 not converged, maximum delta is    0.006830690701112
 Root      2 not converged, maximum delta is    0.055652410910524
 Root      3 not converged, maximum delta is    0.012144349697628
 Root      4 not converged, maximum delta is    0.009895344149717
 Excitation Energies [eV] at current iteration:
 Root      1 :     3.243241794448041   Change is   -0.004718923401398
 Root      2 :     3.843663852159837   Change is   -0.019215180038854
 Root      3 :     4.371502236612059   Change is   -0.006980570075662
 Root      4 :     4.427366622118417   Change is   -0.005822539212461
 Iteration     5 Dimension    48 NMult    40 NNew      8
 CISAX will form     8 AO SS matrices at one time.
 NMat=     8 NSing=     4 JSym2X= 0.
 Root      1 not converged, maximum delta is    0.004200276442836
 Root      2 not converged, maximum delta is    0.083098124761969
 Root      3 not converged, maximum delta is    0.003514488166214
 Root      4 not converged, maximum delta is    0.003152555439419
 Excitation Energies [eV] at current iteration:
 Root      1 :     3.242723801755314   Change is   -0.000517992692727
 Root      2 :     3.823813847819882   Change is   -0.019850004339955
 Root      3 :     4.370119429930793   Change is   -0.001382806681266
 Root      4 :     4.426334555204979   Change is   -0.001032066913439
 Iteration     6 Dimension    56 NMult    48 NNew      8
 CISAX will form     8 AO SS matrices at one time.
 NMat=     8 NSing=     4 JSym2X= 0.
 Root      1 not converged, maximum delta is    0.001807144277810
 Root      2 not converged, maximum delta is    0.058793070906487
 Root      3 not converged, maximum delta is    0.002003453477487
 Root      4 not converged, maximum delta is    0.002238182970096
 Excitation Energies [eV] at current iteration:
 Root      1 :     3.242637097674552   Change is   -0.000086704080762
 Root      2 :     3.811369350312753   Change is   -0.012444497507129
 Root      3 :     4.369886850248644   Change is   -0.000232579682149
 Root      4 :     4.426157781556623   Change is   -0.000176773648356
 Iteration     7 Dimension    64 NMult    56 NNew      8
 CISAX will form     8 AO SS matrices at one time.
 NMat=     8 NSing=     4 JSym2X= 0.
 Root      1 has converged.
 Root      2 not converged, maximum delta is    0.010725669987617
 Root      3 has converged.
 Root      4 not converged, maximum delta is    0.002498240999145
 Excitation Energies [eV] at current iteration:
 Root      1 :     3.242621536028661   Change is   -0.000015561645891
 Root      2 :     3.809385541987716   Change is   -0.001983808325037
 Root      3 :     4.369845778179064   Change is   -0.000041072069580
 Root      4 :     4.426112044066426   Change is   -0.000045737490198
 Iteration     8 Dimension    68 NMult    64 NNew      4
 CISAX will form     4 AO SS matrices at one time.
 NMat=     4 NSing=     2 JSym2X= 0.
 Root      1 has converged.
 Root      2 not converged, maximum delta is    0.004151343647079
 Root      3 has converged.
 Root      4 not converged, maximum delta is    0.001098932451351
 Excitation Energies [eV] at current iteration:
 Root      1 :     3.242621286640805   Change is   -0.000000249387856
 Root      2 :     3.809038685400627   Change is   -0.000346856587090
 Root      3 :     4.369845532734571   Change is   -0.000000245444494
 Root      4 :     4.426102807616612   Change is   -0.000009236449813
 Iteration     9 Dimension    72 NMult    68 NNew      4
 CISAX will form     4 AO SS matrices at one time.
 NMat=     4 NSing=     2 JSym2X= 0.
 Root      1 has converged.
 Root      2 not converged, maximum delta is    0.003554290197093
 Root      3 has converged.
 Root      4 has converged.
 Excitation Energies [eV] at current iteration:
 Root      1 :     3.242621229223011   Change is   -0.000000057417793
 Root      2 :     3.808965819846027   Change is   -0.000072865554599
 Root      3 :     4.369845281867730   Change is   -0.000000250866840
 Root      4 :     4.426100002265437   Change is   -0.000002805351175
 Iteration    10 Dimension    74 NMult    72 NNew      2
 CISAX will form     2 AO SS matrices at one time.
 NMat=     2 NSing=     0 JSym2X= 0.
 Root      1 has converged.
 Root      2 not converged, maximum delta is    0.002224132316101
 Root      3 has converged.
 Root      4 has converged.
 Excitation Energies [eV] at current iteration:
 Root      1 :     3.242621094849865   Change is   -0.000000134373146
 Root      2 :     3.808947205804335   Change is   -0.000018614041692
 Root      3 :     4.369845281867825   Change is    0.000000000000094
 Root      4 :     4.426100002265362   Change is   -0.000000000000075
 Iteration    11 Dimension    76 NMult    74 NNew      2
 CISAX will form     2 AO SS matrices at one time.
 NMat=     2 NSing=     0 JSym2X= 0.
 Root      1 has converged.
 Root      2 has converged.
 Root      3 has converged.
 Root      4 has converged.
 Excitation Energies [eV] at current iteration:
 Root      1 :     3.242621083813655   Change is   -0.000000011036210
 Root      2 :     3.808942999950943   Change is   -0.000004205853392
 Root      3 :     4.369845281867730   Change is   -0.000000000000094
 Root      4 :     4.426100002265362   Change is    0.000000000000000
 Convergence achieved on expansion vectors.
 ***********************************************************************
 Excited states from <AA,BB:AA,BB> singles matrix:
 ***********************************************************************
 
 1PDM for each excited state written to RWF  633
 Ground to excited state transition densities written to RWF  633
 Ground to excited state transition electric dipole moments (Au):
       state          X           Y           Z        Dip. S.      Osc.
         1        -0.0000      0.0000     -0.0000      0.0000      0.0000
         2        -0.0000      0.0000      0.0000      0.0000      0.0000
         3        -0.3120     -0.6600      0.2754      0.6088      0.0652
         4         0.0598     -0.0111     -0.0028      0.0037      0.0004
 Ground to excited state transition velocity dipole moments (Au):
       state          X           Y           Z        Dip. S.      Osc.
         1        -0.0000      0.0000     -0.0000      0.0000      0.0000
         2         0.0000      0.0000     -0.0000      0.0000      0.0000
         3         0.0514      0.1054     -0.0436      0.0156      0.0649
         4        -0.0158      0.0115     -0.0004      0.0004      0.0016
 Ground to excited state transition magnetic dipole moments (Au):
       state          X           Y           Z
         1        -0.0000     -0.0000     -0.0000
         2         0.0000     -0.0000      0.0000
         3         0.0167     -0.0362     -0.1703
         4        -0.1869     -0.0593     -0.6083
 Ground to excited state transition velocity quadrupole moments (Au):
       state          XX          YY          ZZ          XY          XZ          YZ
         1        -0.0000     -0.0000     -0.0000      0.0000      0.0000      0.0000
         2        -0.0000      0.0000     -0.0000     -0.0000      0.0000      0.0000
         3        -0.4937      0.3843     -0.1372     -0.2455      0.1654     -0.1367
         4         0.3612     -0.3043     -0.0076     -0.1802     -0.0507      0.1172
 <0|del|b> * <b|rxdel|0> + <0|del|b> * <b|delr+rdel|0>
 Rotatory Strengths (R) in cgs (10**-40 erg-esu-cm/Gauss)
       state          XX          YY          ZZ    R(velocity)    E-M Angle
         1        -0.0000      0.0000      0.0000     -0.0000       90.00
         2         0.0000     -0.0000      0.0000     -0.0000       90.00
         3        -6.8832    -20.7857     47.3285      6.5532       78.22
         4         0.5348      2.7981      7.6886      3.6738       78.28
 1/2[<0|r|b>*<b|rxdel|0> + (<0|rxdel|b>*<b|r|0>)*]
 Rotatory Strengths (R) in cgs (10**-40 erg-esu-cm/Gauss)
       state          XX          YY          ZZ     R(length)
         1        -0.0000      0.0000     -0.0000      0.0000
         2         0.0000      0.0000     -0.0000     -0.0000
         3         3.6873    -16.8971     33.1658      6.6520
         4         7.9077     -0.4662     -1.1968      2.0816
  1/2[<0|del|b>*<b|r|0> + (<0|r|b>*<b|del|0>)*] (Au)
       state          X           Y           Z        Dip. S.   Osc.(frdel)
         1         0.0000      0.0000      0.0000     -0.0000     -0.0000
         2        -0.0000      0.0000     -0.0000      0.0000      0.0000
         3        -0.0160     -0.0695     -0.0120      0.0976      0.0650
         4        -0.0009     -0.0001      0.0000      0.0011      0.0007

 Excitation energies and oscillator strengths:
 
 Excited state symmetry could not be determined.
 Excited State   1:      Triplet-?Sym    3.2426 eV  382.36 nm  f=0.0000  <S**2>=2.000
      84 -> 89        -0.10287
      86 -> 89        -0.15849
      87 -> 91         0.11640
      88 -> 89         0.59955
[...]
    34  H   -0.000000  -0.000000  -0.000000   0.000000  -0.000017   0.000067
    35  H    0.000000  -0.000000   0.000000  -0.000000  -0.000000  -0.000001
    36  H   -0.000105  -0.000007   0.000144  -0.000004   0.006036   0.000159
    37  H    0.002673  -0.000163   0.000146   0.000002   0.000001  -0.000000
    38  H   -0.000143  -0.000051  -0.000075   0.000001   0.000007  -0.000000
    39  H    0.001685  -0.000081   0.000010  -0.000003   0.000066  -0.000002
    40  H    0.000020  -0.000142  -0.024980   0.361267  -0.000442  -0.000028
    41  H    0.000035   0.000086  -0.024693   0.361152   0.000155   0.000007
    42  H   -0.000147   0.002409  -0.025141   0.361433   0.006263  -0.000059
    43  H   -0.000009  -0.000061   0.001901   0.001115   0.342788  -0.035221
    44  H   -0.000000  -0.000000  -0.000000  -0.000000  -0.001938  -0.025514
              25         26         27         28         29         30
     1  C   -0.080953   0.361219   0.361305   0.362652   0.000000  -0.000050
     2  C    0.318766  -0.027551  -0.027931  -0.022121   0.000006   0.000616
     3  N   -0.094889   0.000501   0.000591   0.004126  -0.000159   0.009726
     4  C   -0.038457  -0.000038  -0.000026   0.000295  -0.000131  -0.000130
     5  C    0.011014   0.000007   0.000007  -0.000013   0.004936  -0.002388
     6  C   -0.000095   0.000000  -0.000000   0.000005  -0.002020   0.000066
     7  C   -0.000003  -0.000000   0.000000   0.000000  -0.026715  -0.023396
     8  C   -0.000013  -0.000000   0.000001  -0.000006   0.358103   0.355724
     9  N   -0.000000  -0.000000   0.000000  -0.000000   0.002332   0.000168
    10  C    0.000000   0.000000  -0.000000   0.000000  -0.000196  -0.000116
    11  N   -0.000000   0.000000  -0.000000  -0.000000   0.000017   0.000023
    12  C   -0.000001   0.000000  -0.000000   0.000000   0.000133  -0.000114
    13  C    0.000001  -0.000000   0.000000   0.000000  -0.000002   0.000004
    14  C    0.001059  -0.000000  -0.000000  -0.000000   0.001554  -0.000144
    15  C    0.002625  -0.000000  -0.000000   0.000000  -0.000010   0.000030
    16  C   -0.000194   0.000000  -0.000000   0.000000  -0.000001   0.000000
    17  C   -0.000000   0.000000  -0.000000  -0.000000   0.000000   0.000000
    18  C   -0.000000  -0.000000   0.000000  -0.000000  -0.000000   0.000000
    19  N    0.000000  -0.000000   0.000000   0.000000   0.000000  -0.000000
    20  O   -0.000000   0.000000  -0.000000   0.000000   0.000000   0.000000
    21  C   -0.000002  -0.000000   0.000000  -0.000000  -0.000000  -0.000000
    22  C    0.000001  -0.000000   0.000000   0.000000   0.000000  -0.000000
    23  C   -0.077911  -0.000003  -0.000003  -0.000000  -0.000026  -0.000015
    24  C    0.219959   0.000128   0.000064   0.000009  -0.000010   0.000172
    25  N    7.166695   0.000060   0.000094   0.003936   0.000003   0.000007
    26  H    0.000060   0.548257  -0.033928  -0.021451  -0.000000   0.000001
    27  H    0.000094  -0.033928   0.549931  -0.021600   0.000000  -0.000006
    28  H    0.003936  -0.021451  -0.021600   0.492117   0.000000   0.000046
    29  H    0.000003  -0.000000   0.000000   0.000000   0.555759  -0.029037
    30  H    0.000007   0.000001  -0.000006   0.000046  -0.029037   0.521288
    31  H   -0.000000   0.000000   0.000000   0.000000  -0.023879  -0.021194
    32  H   -0.000000   0.000000   0.000000   0.000000   0.000004   0.000005
    33  H   -0.000000  -0.000000   0.000000  -0.000000  -0.000000   0.000000
    34  H   -0.000004   0.000000  -0.000000   0.000000   0.000001  -0.000000
    35  H    0.000000  -0.000000   0.000000  -0.000000  -0.000000   0.000000
    36  H    0.000007   0.000000   0.000000  -0.000000  -0.000004  -0.000001
    37  H    0.000000  -0.000000   0.000000  -0.000000  -0.000000   0.000000
    38  H   -0.000000   0.000000  -0.000000   0.000000   0.000000   0.000000
    39  H   -0.000000  -0.000000   0.000000   0.000000  -0.000000  -0.000000
    40  H    0.000000  -0.000000   0.000000  -0.000000  -0.000000  -0.000000
    41  H   -0.000000   0.000000  -0.000000   0.000000  -0.000000   0.000000
    42  H   -0.000020   0.000000  -0.000000  -0.000000   0.000000   0.000000
    43  H   -0.005192   0.000000   0.000000   0.000000   0.000000   0.000000
    44  H    0.308984   0.000611   0.000620  -0.000158   0.000000  -0.000003
              31         32         33         34         35         36
     1  C   -0.000000   0.000000   0.000000  -0.000000  -0.000000  -0.000000
     2  C   -0.000002   0.000000   0.000000  -0.000012   0.000000   0.000003
     3  N    0.000073   0.000000   0.000001   0.000068  -0.000001  -0.000074
     4  C    0.000100   0.000000  -0.000007   0.001056   0.000011   0.004503
     5  C    0.000221   0.000044   0.000395   0.003962   0.000351  -0.043069
     6  C    0.005155   0.001458  -0.000972  -0.000915   0.004878  -0.002427
     7  C   -0.024491   0.003797  -0.000099   0.000140  -0.000066   0.000552
     8  C    0.350113  -0.000275   0.000002  -0.000002   0.000002   0.000007
     9  N    0.007446  -0.065860   0.000017   0.000020   0.000038  -0.000020
    10  C    0.000308   0.387960  -0.000140  -0.000182   0.000324  -0.000009
    11  N    0.000039  -0.066070   0.000375   0.002292   0.007557  -0.000100
    12  C   -0.000077   0.003881  -0.023358  -0.026712  -0.024963   0.001729
    13  C    0.000002  -0.000278   0.358529   0.361840   0.351954  -0.000176
    14  C    0.000003  -0.000000   0.000910  -0.000420   0.000118   0.350034
    15  C   -0.000001   0.000000  -0.000146  -0.000002   0.000002  -0.040703
    16  C    0.000000   0.000000   0.000016  -0.000007   0.000000  -0.005967
    17  C   -0.000000  -0.000000  -0.000027   0.000001   0.000000   0.001352
    18  C    0.000000   0.000000   0.000719  -0.000004   0.000003   0.001117
    19  N    0.000000  -0.000000   0.000000  -0.000000   0.000000  -0.000105
    20  O   -0.000000  -0.000000  -0.000000  -0.000000  -0.000000  -0.000007
    21  C    0.000000   0.000000  -0.000000  -0.000000   0.000000   0.000144
    22  C    0.000000   0.000000  -0.000000   0.000000  -0.000000  -0.000004
    23  C   -0.000000   0.000000   0.000003  -0.000017  -0.000000   0.006036
    24  C    0.000003   0.000000   0.000003   0.000067  -0.000001   0.000159
    25  N   -0.000000  -0.000000  -0.000000  -0.000004   0.000000   0.000007
    26  H    0.000000   0.000000  -0.000000   0.000000  -0.000000   0.000000
    27  H    0.000000   0.000000   0.000000  -0.000000   0.000000   0.000000
    28  H    0.000000   0.000000  -0.000000   0.000000  -0.000000  -0.000000
    29  H   -0.023879   0.000004  -0.000000   0.000001  -0.000000  -0.000004
    30  H   -0.021194   0.000005   0.000000  -0.000000   0.000000  -0.000001
    31  H    0.533212  -0.000035  -0.000000  -0.000000  -0.000000   0.000001
    32  H   -0.000035   0.589569   0.000005   0.000004  -0.000036  -0.000000
    33  H   -0.000000   0.000005   0.550285  -0.030710  -0.023498   0.000502
    34  H   -0.000000   0.000004  -0.030710   0.544234  -0.022883   0.000028
    35  H   -0.000000  -0.000036  -0.023498  -0.022883   0.528098   0.000012
    36  H    0.000001  -0.000000   0.000502   0.000028   0.000012   0.589196
    37  H    0.000000   0.000000  -0.000010  -0.000000  -0.000000   0.000017
    38  H   -0.000000  -0.000000   0.001527  -0.000014  -0.000001   0.002623
    39  H    0.000000   0.000000   0.000522   0.000066   0.000001  -0.000265
    40  H    0.000000  -0.000000   0.000000  -0.000000   0.000000   0.000000
    41  H   -0.000000   0.000000  -0.000000   0.000000   0.000000  -0.000001
    42  H   -0.000000   0.000000  -0.000000   0.000000   0.000000  -0.000002
    43  H   -0.000000   0.000000  -0.000000   0.000000  -0.000000  -0.000171
    44  H   -0.000000   0.000000   0.000000  -0.000000  -0.000000  -0.000000
              37         38         39         40         41         42
     1  C   -0.000000  -0.000000   0.000000   0.000000   0.000000   0.000000
     2  C    0.000000   0.000000   0.000000  -0.000000   0.000000   0.000000
     3  N   -0.000000  -0.000000   0.000000  -0.000000  -0.000000   0.000000
     4  C   -0.000000   0.000002  -0.000007   0.000000  -0.000000  -0.000013
     5  C    0.000001   0.000011  -0.000058   0.000000  -0.000000  -0.000023
     6  C    0.000000  -0.000007  -0.000001  -0.000000   0.000000  -0.000000
     7  C    0.000000   0.000000  -0.000000  -0.000000   0.000000   0.000000
     8  C    0.000000  -0.000000   0.000000   0.000000  -0.000000   0.000000
     9  N   -0.000000   0.000000   0.000000  -0.000000  -0.000000  -0.000000
    10  C   -0.000000  -0.000000  -0.000000   0.000000  -0.000000  -0.000000
    11  N    0.000000  -0.000000  -0.000000  -0.000000   0.000000   0.000000
    12  C   -0.000000  -0.000010  -0.000002   0.000000  -0.000000  -0.000000
    13  C    0.000007  -0.000125   0.000092   0.000000   0.000000   0.000000
    14  C    0.000088  -0.000675   0.001163   0.000001   0.000004  -0.000036
    15  C   -0.000031   0.000382   0.002352   0.000366   0.000042   0.002749
    16  C    0.003808  -0.001051  -0.002057   0.000318   0.001335  -0.003341
    17  C   -0.024743  -0.026151  -0.026707  -0.000056   0.000020   0.000191
    18  C    0.359673   0.362584   0.364098   0.000003   0.000003  -0.000004
    19  N    0.002673  -0.000143   0.001685   0.000020   0.000035  -0.000147
    20  O   -0.000163  -0.000051  -0.000081  -0.000142   0.000086   0.002409
    21  C    0.000146  -0.000075   0.000010  -0.024980  -0.024693  -0.025141
    22  C    0.000002   0.000001  -0.000003   0.361267   0.361152   0.361433
    23  C    0.000001   0.000007   0.000066  -0.000442   0.000155   0.006263
    24  C   -0.000000  -0.000000  -0.000002  -0.000028   0.000007  -0.000059
    25  N    0.000000  -0.000000  -0.000000   0.000000  -0.000000  -0.000020
    26  H   -0.000000   0.000000  -0.000000  -0.000000   0.000000   0.000000
    27  H    0.000000  -0.000000   0.000000   0.000000  -0.000000  -0.000000
    28  H   -0.000000   0.000000   0.000000  -0.000000   0.000000  -0.000000
    29  H   -0.000000   0.000000  -0.000000  -0.000000  -0.000000   0.000000
    30  H    0.000000   0.000000  -0.000000  -0.000000   0.000000   0.000000
    31  H    0.000000  -0.000000   0.000000   0.000000  -0.000000  -0.000000
    32  H    0.000000  -0.000000   0.000000  -0.000000   0.000000   0.000000
    33  H   -0.000010   0.001527   0.000522   0.000000  -0.000000  -0.000000
    34  H   -0.000000  -0.000014   0.000066  -0.000000   0.000000   0.000000
    35  H   -0.000000  -0.000001   0.000001   0.000000   0.000000   0.000000
    36  H    0.000017   0.002623  -0.000265   0.000000  -0.000001  -0.000002
    37  H    0.523169  -0.024193  -0.024045  -0.000000  -0.000000   0.000000
    38  H   -0.024193   0.546821  -0.033879   0.000000  -0.000000   0.000000
    39  H   -0.024045  -0.033879   0.545167  -0.000000   0.000000   0.000000
    40  H   -0.000000   0.000000  -0.000000   0.545269  -0.030377  -0.028424
    41  H   -0.000000  -0.000000   0.000000  -0.030377   0.529374  -0.022150
    42  H    0.000000   0.000000   0.000000  -0.028424  -0.022150   0.530361
    43  H   -0.000000   0.000000  -0.000002   0.000212   0.000043   0.000206
    44  H   -0.000000   0.000000  -0.000000  -0.000000   0.000000  -0.000000
              43         44
     1  C    0.000002  -0.000159
     2  C   -0.000134  -0.025208
     3  N   -0.000140   0.004736
     4  C    0.003745   0.008092
     5  C    0.000428  -0.000074
     6  C    0.000010  -0.000000
     7  C    0.000000   0.000000
     8  C   -0.000000   0.000000
     9  N    0.000000   0.000000
    10  C    0.000000  -0.000000
    11  N    0.000000   0.000000
    12  C    0.000000   0.000000
    13  C   -0.000000  -0.000000
    14  C    0.004986   0.000007
    15  C   -0.037773  -0.000106
    16  C   -0.004271   0.000002
    17  C    0.000149   0.000000
    18  C   -0.000004   0.000000
    19  N   -0.000009  -0.000000
    20  O   -0.000061  -0.000000
    21  C    0.001901  -0.000000
    22  C    0.001115  -0.000000
    23  C    0.342788  -0.001938
    24  C   -0.035221  -0.025514
    25  N   -0.005192   0.308984
    26  H    0.000000   0.000611
    27  H    0.000000   0.000620
    28  H    0.000000  -0.000158
    29  H    0.000000   0.000000
    30  H    0.000000  -0.000003
    31  H   -0.000000  -0.000000
    32  H    0.000000   0.000000
    33  H   -0.000000   0.000000
    34  H    0.000000  -0.000000
    35  H   -0.000000  -0.000000
    36  H   -0.000171  -0.000000
    37  H   -0.000000  -0.000000
    38  H    0.000000   0.000000
    39  H   -0.000002  -0.000000
    40  H    0.000212  -0.000000
    41  H    0.000043   0.000000
    42  H    0.000206  -0.000000
    43  H    0.592207   0.001954
    44  H    0.001954   0.396735
 Mulliken charges:
               1
     1  C   -0.539482
     2  C    0.508992
     3  N   -0.539350
     4  C    0.190601
     5  C   -0.013831
     6  C    0.013087
     7  C    0.308423
     8  C   -0.527329
     9  N   -0.447890
    10  C    0.167679
    11  N   -0.447212
    12  C    0.294915
    13  C   -0.519802
    14  C   -0.238494
    15  C    0.084824
    16  C   -0.126625
    17  C    0.314594
    18  C   -0.526355
    19  N   -0.233089
    20  O   -0.375853
    21  C    0.383462
    22  C   -0.528894
    23  C   -0.231275
    24  C    0.375554
    25  N   -0.735479
    26  H    0.172188
    27  H    0.170880
    28  H    0.202161
    29  H    0.159343
    30  H    0.188717
    31  H    0.173006
    32  H    0.145828
    33  H    0.165157
    34  H    0.168104
    35  H    0.178101
    36  H    0.135082
    37  H    0.183599
    38  H    0.172417
    39  H    0.171889
    40  H    0.176992
    41  H    0.184965
    42  H    0.175747
    43  H    0.133232
    44  H    0.331421
 Sum of Mulliken charges =  -0.00000
 Mulliken charges with hydrogens summed into heavy atoms:
               1
     1  C    0.005747
     2  C    0.508992
     3  N   -0.539350
     4  C    0.190601
     5  C   -0.013831
     6  C    0.013087
     7  C    0.308423
     8  C   -0.006263
     9  N   -0.447890
    10  C    0.313507
    11  N   -0.447212
    12  C    0.294915
    13  C   -0.008439
    14  C   -0.103411
    15  C    0.084824
    16  C   -0.126625
    17  C    0.314594
    18  C    0.001549
    19  N   -0.233089
    20  O   -0.375853
    21  C    0.383462
    22  C    0.008811
    23  C   -0.098043
    24  C    0.375554
    25  N   -0.404058
 Electronic spatial extent (au):  <R**2>=           9137.8464
 Charge=             -0.0000 electrons
 Dipole moment (field-independent basis, Debye):
    X=              2.2774    Y=              5.9615    Z=             -3.1349  Tot=              7.1101
 Quadrupole moment (field-independent basis, Debye-Ang):
   XX=           -172.8486   YY=           -131.1979   ZZ=           -137.3005
   XY=             10.2879   XZ=             -3.7604   YZ=             -6.6812
 Traceless Quadrupole moment (field-independent basis, Debye-Ang):
   XX=            -25.7330   YY=             15.9178   ZZ=              9.8152
   XY=             10.2879   XZ=             -3.7604   YZ=             -6.6812
 Octapole moment (field-independent basis, Debye-Ang**2):
  XXX=            -29.7048  YYY=            178.3492  ZZZ=            -41.3742  XYY=            -25.5482
  XXY=            109.6452  XXZ=            -52.1904  XZZ=             35.9353  YZZ=             30.7337
  YYZ=            -47.3093  XYZ=              3.3558
 Hexadecapole moment (field-independent basis, Debye-Ang**3):
 XXXX=          -7659.4434 YYYY=          -2918.0997 ZZZZ=          -1999.4493 XXXY=            856.6536
 XXXZ=            111.7864 YYYX=            621.2885 YYYZ=            395.2693 ZZZX=            351.6058
 ZZZY=            545.4125 XXYY=          -1880.8123 XXZZ=          -1471.5101 YYZZ=           -819.0511
 XXYZ=            203.5989 YYXZ=             76.4284 ZZXY=            124.3528
 N-N= 2.107136053114D+03 E-N=-6.732007202919D+03  KE= 1.074273010324D+03
 Leave Link  601 at Sat Nov  5 09:39:56 2022, MaxMem=   402653184 cpu:               1.3 elap:               0.3
 (Enter /home/wykgroup/appl/g16/l9999.exe)
 Electronic transition elements 
                 1             2             3             4 
      1  -0.108433D+04 -0.108431D+04 -0.108429D+04 -0.108429D+04
      2   0.000000D+00  0.000000D+00 -0.312015D+00  0.598267D-01
      3   0.000000D+00  0.000000D+00 -0.660044D+00 -0.111079D-01
      4   0.000000D+00  0.000000D+00  0.275359D+00 -0.278232D-02
      5   0.000000D+00  0.000000D+00  0.513814D-01 -0.157840D-01
      6   0.000000D+00  0.000000D+00  0.105357D+00  0.114772D-01
      7   0.000000D+00  0.000000D+00 -0.435635D-01 -0.437255D-03
      8   0.000000D+00  0.000000D+00  0.167112D-01 -0.186911D+00
      9   0.000000D+00  0.000000D+00 -0.362008D-01 -0.593435D-01
     10   0.000000D+00  0.000000D+00 -0.170322D+00 -0.608278D+00
     11   0.000000D+00  0.000000D+00 -0.493687D+00  0.361153D+00
     12   0.000000D+00  0.000000D+00  0.384334D+00 -0.304322D+00
     13   0.000000D+00  0.000000D+00 -0.137244D+00 -0.759105D-02
     14   0.000000D+00  0.000000D+00 -0.245497D+00 -0.180245D+00
     15   0.000000D+00  0.000000D+00  0.165407D+00 -0.507392D-01
     16   0.000000D+00  0.000000D+00 -0.136705D+00  0.117217D+00
 1\1\GINC-NODE59\SP\RB3LYP TD-FC\6-31G(d)\C19H19N5O1\WYKGROUP\05-Nov-20
 22\0\\#p b3lyp/6-31g(d) 6D 10F nosymm GFInput td=(50-50,nstate=2) SCF=
 XQC\\Gaussian input prepared by ASE\\0,1\C,0,-1.6968209235,4.567440325
 3,-1.4313790159\C,0,-1.0565323391,3.2725765114,-1.052653257\N,0,-1.684
 406139,2.2271211776,-0.5671627212\C,0,-0.7018798167,1.2681234418,-0.36
 5802409\C,0,-0.81502225,-0.0389895246,0.1450392998\C,0,-2.1274149464,-
 0.6047736858,0.5683154906\C,0,-3.1246304887,-0.9400558794,-0.369723889
 5\C,0,-2.9434572718,-0.7213277768,-1.8484979485\N,0,-4.2962142103,-1.4
 709429609,0.0171690298\C,0,-4.4646824647,-1.6547558588,1.3269919114\N,
 0,-3.604374742,-1.3617156223,2.3015607585\C,0,-2.4286585338,-0.8300025
 919,1.924811621\C,0,-1.473075918,-0.479339406,3.0382555595\C,0,0.36320
 26988,-0.7849847766,0.2311122504\C,0,1.6287100065,-0.2834147338,-0.160
 0539468\C,0,2.8290744637,-1.1356160712,-0.0539657274\C,0,3.2887726998,
 -1.8982279541,1.077413861\C,0,2.6732642483,-2.0251124028,2.4377917697\
 N,0,4.4159775919,-2.5198899646,0.8201325433\O,0,4.7343550567,-2.194713
 1259,-0.5058659345\C,0,3.7869900974,-1.3745569747,-1.0053067875\C,0,3.
 9574586907,-0.9511829816,-2.4240745504\C,0,1.7358664738,1.0235530353,-
 0.6559069278\C,0,0.5633361177,1.7686729897,-0.7529307692\N,0,0.3026650
 587,3.0574815988,-1.1855572181\H,0,-1.2949762926,5.4023698037,-0.84393
 3042\H,0,-1.5398327478,4.80052735,-2.4918616588\H,0,-2.7696292414,4.49
 60501706,-1.2450949518\H,0,-1.9782544531,-1.105152575,-2.1965469917\H,
 0,-2.9687026227,0.3510072502,-2.0751960216\H,0,-3.7517940541,-1.218116
 261,-2.3886888089\H,0,-5.4140533634,-2.0903658734,1.6354118096\H,0,-0.
 6503650095,-1.2021444414,3.0998592037\H,0,-1.0237009207,0.5070897426,2
 .8856190097\H,0,-2.0117958506,-0.495451352,3.9879226935\H,0,0.30234984
 18,-1.8085295764,0.5885068763\H,0,3.3769246902,-2.5134636883,3.1165162
 816\H,0,1.7555690475,-2.6237799441,2.4094098043\H,0,2.4119494792,-1.04
 13632694,2.8422484828\H,0,4.7968090564,-0.2537767677,-2.5363562116\H,0
 ,4.1654232498,-1.818987766,-3.0594446881\H,0,3.0493054939,-0.460554342
 8,-2.7824014125\H,0,2.7033095603,1.4351657512,-0.9274367989\H,0,0.9789
 609766,3.7241100012,-1.5282465677\\Version=ES64L-G16RevB.01\HF=-1084.4
 519257\RMSD=6.812e-09\PG=C01 [X(C19H19N5O1)]\\@


 A MUSTACHE HAIR ACROSS A CHIP IS LIKE A REDWOOD
 TREE FALLING THROUGH A HOUSING PROJECT.
 - AN IBM MANAGER IN EAST FISHKILL, NEW YORK
   AS QUOTED IN "FROM SANDS TO CIRCUITS", IBM INNOVATION JANUARY 1985.
 Job cpu time:       0 days  1 hours 50 minutes  7.0 seconds.
 Elapsed time:       0 days  0 hours 13 minutes  5.5 seconds.
 File lengths (MBytes):  RWF=   1029 Int=      0 D2E=      0 Chk=     37 Scr=      1
 Normal termination of Gaussian 16 at Sat Nov  5 09:39:57 2022.
