 Entering Gaussian System, Link 0=/home/wykgroup/appl/g16/g16
 Input=calculation/no_transfer_pubchem_sampling_5_b3lyp/133214082_rwf.com
 Output=calculation/no_transfer_pubchem_sampling_5_b3lyp/133214082_rwf.log
 Initial command:
 /home/wykgroup/appl/g16/l1.exe "/userdata/scratch/wykgroup/khs/calculation/no_transfer_pubchem_sampling_5_b3lyp/133214082_rwf/Gau-26355.inp" -scrdir="/userdata/scratch/wykgroup/khs/calculation/no_transfer_pubchem_sampling_5_b3lyp/133214082_rwf/"
 Entering Link 1 = /home/wykgroup/appl/g16/l1.exe PID=     26356.
  
 Copyright (c) 1988-2017, Gaussian, Inc.  All Rights Reserved.
  
 This is part of the Gaussian(R) 16 program.  It is based on
 the Gaussian(R) 09 system (copyright 2009, Gaussian, Inc.),
 the Gaussian(R) 03 system (copyright 2003, Gaussian, Inc.),
 the Gaussian(R) 98 system (copyright 1998, Gaussian, Inc.),
 the Gaussian(R) 94 system (copyright 1995, Gaussian, Inc.),
 the Gaussian 92(TM) system (copyright 1992, Gaussian, Inc.),
 the Gaussian 90(TM) system (copyright 1990, Gaussian, Inc.),
 the Gaussian 88(TM) system (copyright 1988, Gaussian, Inc.),
 the Gaussian 86(TM) system (copyright 1986, Carnegie Mellon
 University), and the Gaussian 82(TM) system (copyright 1983,
 Carnegie Mellon University). Gaussian is a federally registered
 trademark of Gaussian, Inc.
  
 This software contains proprietary and confidential information,
 including trade secrets, belonging to Gaussian, Inc.
  
 This software is provided under written license and may be
 used, copied, transmitted, or stored only in accord with that
 written license.
  
 The following legend is applicable only to US Government
 contracts under FAR:
  
                    RESTRICTED RIGHTS LEGEND
  
 Use, reproduction and disclosure by the US Government is
 subject to restrictions as set forth in subparagraphs (a)
 and (c) of the Commercial Computer Software - Restricted
 Rights clause in FAR 52.227-19.
  
 Gaussian, Inc.
 340 Quinnipiac St., Bldg. 40, Wallingford CT 06492
  
  
 ---------------------------------------------------------------
 Warning -- This program may not be used in any manner that
 competes with the business of Gaussian, Inc. or will provide
 assistance to any competitor of Gaussian, Inc.  The licensee
 of this program is prohibited from giving any competitor of
 Gaussian, Inc. access to this program.  By using this program,
 the user acknowledges that Gaussian, Inc. is engaged in the
 business of creating and licensing software in the field of
 computational chemistry and represents and warrants to the
 licensee that it is not a competitor of Gaussian, Inc. and that
 it will not use this program in any manner prohibited above.
 ---------------------------------------------------------------
  

 Cite this work as:
 Gaussian 16, Revision B.01,
 M. J. Frisch, G. W. Trucks, H. B. Schlegel, G. E. Scuseria, 
 M. A. Robb, J. R. Cheeseman, G. Scalmani, V. Barone, 
 G. A. Petersson, H. Nakatsuji, X. Li, M. Caricato, A. V. Marenich, 
 J. Bloino, B. G. Janesko, R. Gomperts, B. Mennucci, H. P. Hratchian, 
 J. V. Ortiz, A. F. Izmaylov, J. L. Sonnenberg, D. Williams-Young, 
 F. Ding, F. Lipparini, F. Egidi, J. Goings, B. Peng, A. Petrone, 
 T. Henderson, D. Ranasinghe, V. G. Zakrzewski, J. Gao, N. Rega, 
 G. Zheng, W. Liang, M. Hada, M. Ehara, K. Toyota, R. Fukuda, 
 J. Hasegawa, M. Ishida, T. Nakajima, Y. Honda, O. Kitao, H. Nakai, 
 T. Vreven, K. Throssell, J. A. Montgomery, Jr., J. E. Peralta, 
 F. Ogliaro, M. J. Bearpark, J. J. Heyd, E. N. Brothers, K. N. Kudin, 
 V. N. Staroverov, T. A. Keith, R. Kobayashi, J. Normand, 
 K. Raghavachari, A. P. Rendell, J. C. Burant, S. S. Iyengar, 
 J. Tomasi, M. Cossi, J. M. Millam, M. Klene, C. Adamo, R. Cammi, 
 J. W. Ochterski, R. L. Martin, K. Morokuma, O. Farkas, 
 J. B. Foresman, and D. J. Fox, Gaussian, Inc., Wallingford CT, 2016.
 
 ******************************************
 Gaussian 16:  ES64L-G16RevB.01 20-Dec-2017
                 5-Nov-2022 
 ******************************************
 %chk=calculation/no_transfer_pubchem_sampling_5_b3lyp/133214082_rwf.chk
 %rwf=calculation/no_transfer_pubchem_sampling_5_b3lyp/133214082_rwf.rwf
 %nprocshared=14
 Will use up to   14 processors via shared memory.
 %mem=3GB
 -------------------------------------------------------------------
 #p b3lyp/6-31g(d) 6D 10F nosymm GFInput td=(50-50,nstate=2) SCF=XQC
 -------------------------------------------------------------------
 1/38=1,172=1/1;
 2/12=2,15=1,17=6,18=5,40=1/2;
 3/5=1,6=6,7=1,8=22,11=9,24=10,25=1,30=1,74=-5/1,2,3,8;
 4//1;
 5/5=2,8=3,13=1,38=5/2,8;
 8/6=1,10=2,108=2/1;
 9/41=2,42=1,48=2,70=2/14;
 6/7=2,8=2,9=2,10=2/1;
 99/5=1,9=1/99;
 Leave Link    1 at Sat Nov  5 09:28:22 2022, MaxMem=   402653184 cpu:               6.9 elap:               0.7
 (Enter /home/wykgroup/appl/g16/l101.exe)
 ------------------------------
 Gaussian input prepared by ASE
 ------------------------------
 Symbolic Z-matrix:
 Charge =  0 Multiplicity = 1
 C                    -1.16797  -0.09609  -2.50433 
 C                    -1.847     0.99177  -1.64466 
 C                    -3.26893   1.28259  -2.14173 
 C                    -1.89898   0.52735  -0.17972 
 O                    -2.9075   -0.02763   0.25198 
 N                    -0.78313   0.66994   0.63512 
 C                    -0.95859   0.28136   2.05602 
 C                    -0.59651  -1.1529    2.41038 
 C                     0.43304  -1.40931   3.32531 
 C                     0.75844  -2.71735   3.69188 
 C                     0.05745  -3.79117   3.14041 
 C                    -0.97281  -3.54607   2.2287 
 C                    -1.30402  -2.23851   1.87003 
 C                     0.41447   1.44436   0.27629 
 C                     0.49471   2.84659   0.93085 
 C                    -0.57345   3.79829   0.44071 
 C                    -1.82612   3.87466   1.06525 
 C                    -2.81603   4.73542   0.58672 
 C                    -2.56801   5.53877  -0.52743 
 C                    -1.32246   5.47859  -1.15588 
 C                    -0.33634   4.61728  -0.67354 
 C                     1.73254   0.65441   0.5071 
 O                     2.76127   1.21826   0.86428 
 N                     1.67142  -0.66282   0.17276 
 C                     2.80243  -1.57047   0.35805 
 C                     2.87967  -2.5997   -0.7499 
 C                     2.5375   -3.93441  -0.50792 
 C                     2.59924  -4.88303  -1.53181 
 C                     3.00365  -4.50394  -2.81161 
 C                     3.34509  -3.17213  -3.06421 
 C                     3.2827   -2.22844  -2.0405 
 H                    -1.1645    0.20347  -3.55819 
 H                    -0.13004  -0.2829   -2.20607 
 H                    -1.71739  -1.04103  -2.42409 
 H                    -1.27311   1.91938  -1.72844 
 H                    -3.89954   0.39375  -2.05906 
 H                    -3.73371   2.08052  -1.55451 
 H                    -3.2379    1.60093  -3.18986 
 H                    -2.00885   0.46084   2.3005 
 H                    -0.34973   0.95687   2.66154 
 H                     0.98808  -0.57797   3.75486 
 H                     1.55712  -2.89469   4.40752 
 H                     0.30531  -4.81032   3.42551 
 H                    -1.53113  -4.37636   1.80384 
 H                    -2.12149  -2.04513   1.18296 
 H                     0.38275   1.59653  -0.8043 
 H                     1.49144   3.23425   0.70517 
 H                     0.45147   2.75123   2.02119 
 H                    -2.02754   3.26092   1.93999 
 H                    -3.7792    4.78032   1.08818 
 H                    -3.33637   6.21135  -0.89897 
 H                    -1.11534   6.10796  -2.01755 
 H                     0.63578   4.58439  -1.16171 
 H                     0.75509  -1.07752   0.06296 
 H                     2.72114  -2.07044   1.33195 
 H                     3.69528  -0.94035   0.38397 
 H                     2.21611  -4.23041   0.4882 
 H                     2.33135  -5.91646  -1.32796 
 H                     3.05447  -5.24048  -3.60911 
 H                     3.66445  -2.87138  -4.05868 
 H                     3.55022  -1.19297  -2.23843 
 
 ITRead=  0  0  0  0  0  0  0  0  0  0  0  0  0  0  0  0  0  0  0  0
 ITRead=  0  0  0  0  0  0  0  0  0  0  0  0  0  0  0  0  0  0  0  0
 ITRead=  0  0  0  0  0  0  0  0  0  0  0  0  0  0  0  0  0  0  0  0
 ITRead=  0
 MicOpt= -1 -1 -1 -1 -1 -1 -1 -1 -1 -1 -1 -1 -1 -1 -1 -1 -1 -1 -1 -1
 MicOpt= -1 -1 -1 -1 -1 -1 -1 -1 -1 -1 -1 -1 -1 -1 -1 -1 -1 -1 -1 -1
 MicOpt= -1 -1 -1 -1 -1 -1 -1 -1 -1 -1 -1 -1 -1 -1 -1 -1 -1 -1 -1 -1
 MicOpt= -1
 NAtoms=     61 NQM=       61 NQMF=       0 NMMI=      0 NMMIF=      0
                NMic=       0 NMicF=      0.
                    Isotopes and Nuclear Properties:
 (Nuclear quadrupole moments (NQMom) in fm**2, nuclear magnetic moments (NMagM)
  in nuclear magnetons)

  Atom         1           2           3           4           5           6           7           8           9          10
 IAtWgt=          12          12          12          12          16          14          12          12          12          12
 AtmWgt=  12.0000000  12.0000000  12.0000000  12.0000000  15.9949146  14.0030740  12.0000000  12.0000000  12.0000000  12.0000000
 NucSpn=           0           0           0           0           0           2           0           0           0           0
 AtZEff=  -0.0000000  -0.0000000  -0.0000000  -0.0000000  -0.0000000  -0.0000000  -0.0000000  -0.0000000  -0.0000000  -0.0000000
 NQMom=    0.0000000   0.0000000   0.0000000   0.0000000   0.0000000   2.0440000   0.0000000   0.0000000   0.0000000   0.0000000
 NMagM=    0.0000000   0.0000000   0.0000000   0.0000000   0.0000000   0.4037610   0.0000000   0.0000000   0.0000000   0.0000000
 AtZNuc=   6.0000000   6.0000000   6.0000000   6.0000000   8.0000000   7.0000000   6.0000000   6.0000000   6.0000000   6.0000000

  Atom        11          12          13          14          15          16          17          18          19          20
 IAtWgt=          12          12          12          12          12          12          12          12          12          12
 AtmWgt=  12.0000000  12.0000000  12.0000000  12.0000000  12.0000000  12.0000000  12.0000000  12.0000000  12.0000000  12.0000000
 NucSpn=           0           0           0           0           0           0           0           0           0           0
 AtZEff=  -0.0000000  -0.0000000  -0.0000000  -0.0000000  -0.0000000  -0.0000000  -0.0000000  -0.0000000  -0.0000000  -0.0000000
 NQMom=    0.0000000   0.0000000   0.0000000   0.0000000   0.0000000   0.0000000   0.0000000   0.0000000   0.0000000   0.0000000
 NMagM=    0.0000000   0.0000000   0.0000000   0.0000000   0.0000000   0.0000000   0.0000000   0.0000000   0.0000000   0.0000000
 AtZNuc=   6.0000000   6.0000000   6.0000000   6.0000000   6.0000000   6.0000000   6.0000000   6.0000000   6.0000000   6.0000000

  Atom        21          22          23          24          25          26          27          28          29          30
 IAtWgt=          12          12          16          14          12          12          12          12          12          12
 AtmWgt=  12.0000000  12.0000000  15.9949146  14.0030740  12.0000000  12.0000000  12.0000000  12.0000000  12.0000000  12.0000000
 NucSpn=           0           0           0           2           0           0           0           0           0           0
 AtZEff=  -0.0000000  -0.0000000  -0.0000000  -0.0000000  -0.0000000  -0.0000000  -0.0000000  -0.0000000  -0.0000000  -0.0000000
 NQMom=    0.0000000   0.0000000   0.0000000   2.0440000   0.0000000   0.0000000   0.0000000   0.0000000   0.0000000   0.0000000
 NMagM=    0.0000000   0.0000000   0.0000000   0.4037610   0.0000000   0.0000000   0.0000000   0.0000000   0.0000000   0.0000000
 AtZNuc=   6.0000000   6.0000000   8.0000000   7.0000000   6.0000000   6.0000000   6.0000000   6.0000000   6.0000000   6.0000000

  Atom        31          32          33          34          35          36          37          38          39          40
 IAtWgt=          12           1           1           1           1           1           1           1           1           1
 AtmWgt=  12.0000000   1.0078250   1.0078250   1.0078250   1.0078250   1.0078250   1.0078250   1.0078250   1.0078250   1.0078250
 NucSpn=           0           1           1           1           1           1           1           1           1           1
 AtZEff=  -0.0000000  -0.0000000  -0.0000000  -0.0000000  -0.0000000  -0.0000000  -0.0000000  -0.0000000  -0.0000000  -0.0000000
 NQMom=    0.0000000   0.0000000   0.0000000   0.0000000   0.0000000   0.0000000   0.0000000   0.0000000   0.0000000   0.0000000
 NMagM=    0.0000000   2.7928460   2.7928460   2.7928460   2.7928460   2.7928460   2.7928460   2.7928460   2.7928460   2.7928460
 AtZNuc=   6.0000000   1.0000000   1.0000000   1.0000000   1.0000000   1.0000000   1.0000000   1.0000000   1.0000000   1.0000000

  Atom        41          42          43          44          45          46          47          48          49          50
 IAtWgt=           1           1           1           1           1           1           1           1           1           1
 AtmWgt=   1.0078250   1.0078250   1.0078250   1.0078250   1.0078250   1.0078250   1.0078250   1.0078250   1.0078250   1.0078250
 NucSpn=           1           1           1           1           1           1           1           1           1           1
 AtZEff=  -0.0000000  -0.0000000  -0.0000000  -0.0000000  -0.0000000  -0.0000000  -0.0000000  -0.0000000  -0.0000000  -0.0000000
 NQMom=    0.0000000   0.0000000   0.0000000   0.0000000   0.0000000   0.0000000   0.0000000   0.0000000   0.0000000   0.0000000
 NMagM=    2.7928460   2.7928460   2.7928460   2.7928460   2.7928460   2.7928460   2.7928460   2.7928460   2.7928460   2.7928460
 AtZNuc=   1.0000000   1.0000000   1.0000000   1.0000000   1.0000000   1.0000000   1.0000000   1.0000000   1.0000000   1.0000000

  Atom        51          52          53          54          55          56          57          58          59          60
 IAtWgt=           1           1           1           1           1           1           1           1           1           1
 AtmWgt=   1.0078250   1.0078250   1.0078250   1.0078250   1.0078250   1.0078250   1.0078250   1.0078250   1.0078250   1.0078250
 NucSpn=           1           1           1           1           1           1           1           1           1           1
 AtZEff=  -0.0000000  -0.0000000  -0.0000000  -0.0000000  -0.0000000  -0.0000000  -0.0000000  -0.0000000  -0.0000000  -0.0000000
 NQMom=    0.0000000   0.0000000   0.0000000   0.0000000   0.0000000   0.0000000   0.0000000   0.0000000   0.0000000   0.0000000
 NMagM=    2.7928460   2.7928460   2.7928460   2.7928460   2.7928460   2.7928460   2.7928460   2.7928460   2.7928460   2.7928460
 AtZNuc=   1.0000000   1.0000000   1.0000000   1.0000000   1.0000000   1.0000000   1.0000000   1.0000000   1.0000000   1.0000000

  Atom        61
 IAtWgt=           1
 AtmWgt=   1.0078250
 NucSpn=           1
 AtZEff=  -0.0000000
 NQMom=    0.0000000
 NMagM=    2.7928460
 AtZNuc=   1.0000000
 Leave Link  101 at Sat Nov  5 09:28:23 2022, MaxMem=   402653184 cpu:               2.5 elap:               0.3
 (Enter /home/wykgroup/appl/g16/l202.exe)
 Symmetry turned off by external request.
 Stoichiometry    C27H30N2O2
 Framework group  C1[X(C27H30N2O2)]
 Deg. of freedom   177
 Full point group                 C1      NOp   1
                          Input orientation:                          
 ---------------------------------------------------------------------
 Center     Atomic      Atomic             Coordinates (Angstroms)
 Number     Number       Type             X           Y           Z
 ---------------------------------------------------------------------
      1          6           0       -1.167971   -0.096091   -2.504332
      2          6           0       -1.847002    0.991769   -1.644663
      3          6           0       -3.268932    1.282590   -2.141733
      4          6           0       -1.898983    0.527350   -0.179716
      5          8           0       -2.907495   -0.027626    0.251981
      6          7           0       -0.783125    0.669944    0.635116
      7          6           0       -0.958594    0.281357    2.056016
      8          6           0       -0.596515   -1.152896    2.410376
      9          6           0        0.433044   -1.409314    3.325313
     10          6           0        0.758443   -2.717348    3.691878
     11          6           0        0.057446   -3.791165    3.140409
     12          6           0       -0.972811   -3.546072    2.228699
     13          6           0       -1.304023   -2.238511    1.870027
     14          6           0        0.414466    1.444360    0.276285
     15          6           0        0.494708    2.846587    0.930854
     16          6           0       -0.573453    3.798293    0.440712
     17          6           0       -1.826125    3.874662    1.065247
     18          6           0       -2.816031    4.735422    0.586725
     19          6           0       -2.568012    5.538769   -0.527434
     20          6           0       -1.322459    5.478595   -1.155883
     21          6           0       -0.336338    4.617279   -0.673538
     22          6           0        1.732543    0.654415    0.507097
     23          8           0        2.761271    1.218263    0.864284
     24          7           0        1.671421   -0.662820    0.172760
     25          6           0        2.802430   -1.570473    0.358047
     26          6           0        2.879670   -2.599700   -0.749898
     27          6           0        2.537498   -3.934413   -0.507919
     28          6           0        2.599244   -4.883025   -1.531812
     29          6           0        3.003648   -4.503944   -2.811608
     30          6           0        3.345087   -3.172130   -3.064206
     31          6           0        3.282702   -2.228440   -2.040498
     32          1           0       -1.164496    0.203474   -3.558187
     33          1           0       -0.130043   -0.282898   -2.206073
     34          1           0       -1.717386   -1.041027   -2.424088
     35          1           0       -1.273115    1.919382   -1.728439
     36          1           0       -3.899538    0.393754   -2.059060
     37          1           0       -3.733706    2.080516   -1.554510
     38          1           0       -3.237897    1.600929   -3.189864
     39          1           0       -2.008849    0.460840    2.300496
     40          1           0       -0.349734    0.956872    2.661538
     41          1           0        0.988081   -0.577970    3.754857
     42          1           0        1.557122   -2.894687    4.407518
     43          1           0        0.305312   -4.810318    3.425513
     44          1           0       -1.531127   -4.376356    1.803845
     45          1           0       -2.121494   -2.045128    1.182960
     46          1           0        0.382754    1.596529   -0.804304
     47          1           0        1.491443    3.234252    0.705172
     48          1           0        0.451473    2.751232    2.021188
     49          1           0       -2.027541    3.260917    1.939993
     50          1           0       -3.779205    4.780321    1.088182
     51          1           0       -3.336374    6.211346   -0.898968
     52          1           0       -1.115337    6.107961   -2.017545
     53          1           0        0.635784    4.584391   -1.161713
     54          1           0        0.755090   -1.077516    0.062962
     55          1           0        2.721140   -2.070439    1.331951
     56          1           0        3.695284   -0.940350    0.383970
     57          1           0        2.216108   -4.230412    0.488200
     58          1           0        2.331348   -5.916464   -1.327964
     59          1           0        3.054466   -5.240482   -3.609109
     60          1           0        3.664454   -2.871377   -4.058677
     61          1           0        3.550224   -1.192969   -2.238429
 ---------------------------------------------------------------------
 Rotational constants (GHZ):           0.2183105           0.0960190           0.0861283
 Leave Link  202 at Sat Nov  5 09:28:23 2022, MaxMem=   402653184 cpu:               2.5 elap:               0.3
 (Enter /home/wykgroup/appl/g16/l301.exe)
 Standard basis: 6-31G(d) (6D, 10F)
 Ernie: Thresh=  0.10000D-02 Tol=  0.10000D-05 Strict=F.
 AO basis set in the form of general basis input (Overlap normalization):
      1 0
 S   6 1.00       0.000000000000
      0.3047524880D+04  0.1834737132D-02
      0.4573695180D+03  0.1403732281D-01
      0.1039486850D+03  0.6884262226D-01
      0.2921015530D+02  0.2321844432D+00
      0.9286662960D+01  0.4679413484D+00
      0.3163926960D+01  0.3623119853D+00
 SP   3 1.00       0.000000000000
      0.7868272350D+01 -0.1193324198D+00  0.6899906659D-01
      0.1881288540D+01 -0.1608541517D+00  0.3164239610D+00
      0.5442492580D+00  0.1143456438D+01  0.7443082909D+00
 SP   1 1.00       0.000000000000
      0.1687144782D+00  0.1000000000D+01  0.1000000000D+01
 D   1 1.00       0.000000000000
      0.8000000000D+00  0.1000000000D+01
 ****
      2 0
 S   6 1.00       0.000000000000
      0.3047524880D+04  0.1834737132D-02
      0.4573695180D+03  0.1403732281D-01
      0.1039486850D+03  0.6884262226D-01
      0.2921015530D+02  0.2321844432D+00
      0.9286662960D+01  0.4679413484D+00
      0.3163926960D+01  0.3623119853D+00
 SP   3 1.00       0.000000000000
      0.7868272350D+01 -0.1193324198D+00  0.6899906659D-01
      0.1881288540D+01 -0.1608541517D+00  0.3164239610D+00
      0.5442492580D+00  0.1143456438D+01  0.7443082909D+00
 SP   1 1.00       0.000000000000
      0.1687144782D+00  0.1000000000D+01  0.1000000000D+01
 D   1 1.00       0.000000000000
      0.8000000000D+00  0.1000000000D+01
 ****
      3 0
 S   6 1.00       0.000000000000
      0.3047524880D+04  0.1834737132D-02
      0.4573695180D+03  0.1403732281D-01
      0.1039486850D+03  0.6884262226D-01
      0.2921015530D+02  0.2321844432D+00
      0.9286662960D+01  0.4679413484D+00
      0.3163926960D+01  0.3623119853D+00
 SP   3 1.00       0.000000000000
      0.7868272350D+01 -0.1193324198D+00  0.6899906659D-01
      0.1881288540D+01 -0.1608541517D+00  0.3164239610D+00
      0.5442492580D+00  0.1143456438D+01  0.7443082909D+00
 SP   1 1.00       0.000000000000
      0.1687144782D+00  0.1000000000D+01  0.1000000000D+01
 D   1 1.00       0.000000000000
      0.8000000000D+00  0.1000000000D+01
 ****
      4 0
 S   6 1.00       0.000000000000
      0.3047524880D+04  0.1834737132D-02
      0.4573695180D+03  0.1403732281D-01
      0.1039486850D+03  0.6884262226D-01
      0.2921015530D+02  0.2321844432D+00
      0.9286662960D+01  0.4679413484D+00
      0.3163926960D+01  0.3623119853D+00
 SP   3 1.00       0.000000000000
      0.7868272350D+01 -0.1193324198D+00  0.6899906659D-01
      0.1881288540D+01 -0.1608541517D+00  0.3164239610D+00
      0.5442492580D+00  0.1143456438D+01  0.7443082909D+00
 SP   1 1.00       0.000000000000
      0.1687144782D+00  0.1000000000D+01  0.1000000000D+01
 D   1 1.00       0.000000000000
      0.8000000000D+00  0.1000000000D+01
 ****
      5 0
 S   6 1.00       0.000000000000
      0.5484671660D+04  0.1831074430D-02
      0.8252349460D+03  0.1395017220D-01
      0.1880469580D+03  0.6844507810D-01
      0.5296450000D+02  0.2327143360D+00
      0.1689757040D+02  0.4701928980D+00
      0.5799635340D+01  0.3585208530D+00
 SP   3 1.00       0.000000000000
      0.1553961625D+02 -0.1107775495D+00  0.7087426823D-01
      0.3599933586D+01 -0.1480262627D+00  0.3397528391D+00
      0.1013761750D+01  0.1130767015D+01  0.7271585773D+00
 SP   1 1.00       0.000000000000
      0.2700058226D+00  0.1000000000D+01  0.1000000000D+01
 D   1 1.00       0.000000000000
      0.8000000000D+00  0.1000000000D+01
 ****
      6 0
 S   6 1.00       0.000000000000
      0.4173511460D+04  0.1834772160D-02
      0.6274579110D+03  0.1399462700D-01
      0.1429020930D+03  0.6858655181D-01
      0.4023432930D+02  0.2322408730D+00
      0.1282021290D+02  0.4690699481D+00
      0.4390437010D+01  0.3604551991D+00
 SP   3 1.00       0.000000000000
      0.1162636186D+02 -0.1149611817D+00  0.6757974388D-01
      0.2716279807D+01 -0.1691174786D+00  0.3239072959D+00
      0.7722183966D+00  0.1145851947D+01  0.7408951398D+00
 SP   1 1.00       0.000000000000
      0.2120314975D+00  0.1000000000D+01  0.1000000000D+01
 D   1 1.00       0.000000000000
      0.8000000000D+00  0.1000000000D+01
 ****
      7 0
 S   6 1.00       0.000000000000
      0.3047524880D+04  0.1834737132D-02
      0.4573695180D+03  0.1403732281D-01
      0.1039486850D+03  0.6884262226D-01
      0.2921015530D+02  0.2321844432D+00
      0.9286662960D+01  0.4679413484D+00
      0.3163926960D+01  0.3623119853D+00
 SP   3 1.00       0.000000000000
      0.7868272350D+01 -0.1193324198D+00  0.6899906659D-01
      0.1881288540D+01 -0.1608541517D+00  0.3164239610D+00
      0.5442492580D+00  0.1143456438D+01  0.7443082909D+00
 SP   1 1.00       0.000000000000
      0.1687144782D+00  0.1000000000D+01  0.1000000000D+01
 D   1 1.00       0.000000000000
      0.8000000000D+00  0.1000000000D+01
 ****
      8 0
 S   6 1.00       0.000000000000
      0.3047524880D+04  0.1834737132D-02
      0.4573695180D+03  0.1403732281D-01
      0.1039486850D+03  0.6884262226D-01
      0.2921015530D+02  0.2321844432D+00
      0.9286662960D+01  0.4679413484D+00
      0.3163926960D+01  0.3623119853D+00
 SP   3 1.00       0.000000000000
      0.7868272350D+01 -0.1193324198D+00  0.6899906659D-01
      0.1881288540D+01 -0.1608541517D+00  0.3164239610D+00
      0.5442492580D+00  0.1143456438D+01  0.7443082909D+00
 SP   1 1.00       0.000000000000
      0.1687144782D+00  0.1000000000D+01  0.1000000000D+01
 D   1 1.00       0.000000000000
      0.8000000000D+00  0.1000000000D+01
 ****
      9 0
 S   6 1.00       0.000000000000
      0.3047524880D+04  0.1834737132D-02
      0.4573695180D+03  0.1403732281D-01
      0.1039486850D+03  0.6884262226D-01
      0.2921015530D+02  0.2321844432D+00
      0.9286662960D+01  0.4679413484D+00
      0.3163926960D+01  0.3623119853D+00
 SP   3 1.00       0.000000000000
      0.7868272350D+01 -0.1193324198D+00  0.6899906659D-01
      0.1881288540D+01 -0.1608541517D+00  0.3164239610D+00
      0.5442492580D+00  0.1143456438D+01  0.7443082909D+00
 SP   1 1.00       0.000000000000
      0.1687144782D+00  0.1000000000D+01  0.1000000000D+01
 D   1 1.00       0.000000000000
      0.8000000000D+00  0.1000000000D+01
 ****
     10 0
 S   6 1.00       0.000000000000
      0.3047524880D+04  0.1834737132D-02
      0.4573695180D+03  0.1403732281D-01
      0.1039486850D+03  0.6884262226D-01
      0.2921015530D+02  0.2321844432D+00
      0.9286662960D+01  0.4679413484D+00
      0.3163926960D+01  0.3623119853D+00
 SP   3 1.00       0.000000000000
      0.7868272350D+01 -0.1193324198D+00  0.6899906659D-01
      0.1881288540D+01 -0.1608541517D+00  0.3164239610D+00
      0.5442492580D+00  0.1143456438D+01  0.7443082909D+00
 SP   1 1.00       0.000000000000
      0.1687144782D+00  0.1000000000D+01  0.1000000000D+01
 D   1 1.00       0.000000000000
      0.8000000000D+00  0.1000000000D+01
 ****
     11 0
 S   6 1.00       0.000000000000
      0.3047524880D+04  0.1834737132D-02
      0.4573695180D+03  0.1403732281D-01
      0.1039486850D+03  0.6884262226D-01
      0.2921015530D+02  0.2321844432D+00
      0.9286662960D+01  0.4679413484D+00
      0.3163926960D+01  0.3623119853D+00
 SP   3 1.00       0.000000000000
      0.7868272350D+01 -0.1193324198D+00  0.6899906659D-01
      0.1881288540D+01 -0.1608541517D+00  0.3164239610D+00
      0.5442492580D+00  0.1143456438D+01  0.7443082909D+00
 SP   1 1.00       0.000000000000
      0.1687144782D+00  0.1000000000D+01  0.1000000000D+01
 D   1 1.00       0.000000000000
      0.8000000000D+00  0.1000000000D+01
 ****
     12 0
 S   6 1.00       0.000000000000
      0.3047524880D+04  0.1834737132D-02
      0.4573695180D+03  0.1403732281D-01
      0.1039486850D+03  0.6884262226D-01
      0.2921015530D+02  0.2321844432D+00
      0.9286662960D+01  0.4679413484D+00
      0.3163926960D+01  0.3623119853D+00
 SP   3 1.00       0.000000000000
      0.7868272350D+01 -0.1193324198D+00  0.6899906659D-01
      0.1881288540D+01 -0.1608541517D+00  0.3164239610D+00
      0.5442492580D+00  0.1143456438D+01  0.7443082909D+00
 SP   1 1.00       0.000000000000
      0.1687144782D+00  0.1000000000D+01  0.1000000000D+01
 D   1 1.00       0.000000000000
      0.8000000000D+00  0.1000000000D+01
 ****
     13 0
 S   6 1.00       0.000000000000
      0.3047524880D+04  0.1834737132D-02
      0.4573695180D+03  0.1403732281D-01
      0.1039486850D+03  0.6884262226D-01
      0.2921015530D+02  0.2321844432D+00
      0.9286662960D+01  0.4679413484D+00
      0.3163926960D+01  0.3623119853D+00
 SP   3 1.00       0.000000000000
      0.7868272350D+01 -0.1193324198D+00  0.6899906659D-01
      0.1881288540D+01 -0.1608541517D+00  0.3164239610D+00
      0.5442492580D+00  0.1143456438D+01  0.7443082909D+00
 SP   1 1.00       0.000000000000
      0.1687144782D+00  0.1000000000D+01  0.1000000000D+01
 D   1 1.00       0.000000000000
      0.8000000000D+00  0.1000000000D+01
 ****
     14 0
 S   6 1.00       0.000000000000
      0.3047524880D+04  0.1834737132D-02
      0.4573695180D+03  0.1403732281D-01
      0.1039486850D+03  0.6884262226D-01
      0.2921015530D+02  0.2321844432D+00
      0.9286662960D+01  0.4679413484D+00
      0.3163926960D+01  0.3623119853D+00
 SP   3 1.00       0.000000000000
      0.7868272350D+01 -0.1193324198D+00  0.6899906659D-01
      0.1881288540D+01 -0.1608541517D+00  0.3164239610D+00
      0.5442492580D+00  0.1143456438D+01  0.7443082909D+00
 SP   1 1.00       0.000000000000
      0.1687144782D+00  0.1000000000D+01  0.1000000000D+01
 D   1 1.00       0.000000000000
      0.8000000000D+00  0.1000000000D+01
 ****
     15 0
 S   6 1.00       0.000000000000
      0.3047524880D+04  0.1834737132D-02
      0.4573695180D+03  0.1403732281D-01
      0.1039486850D+03  0.6884262226D-01
      0.2921015530D+02  0.2321844432D+00
      0.9286662960D+01  0.4679413484D+00
      0.3163926960D+01  0.3623119853D+00
 SP   3 1.00       0.000000000000
      0.7868272350D+01 -0.1193324198D+00  0.6899906659D-01
      0.1881288540D+01 -0.1608541517D+00  0.3164239610D+00
      0.5442492580D+00  0.1143456438D+01  0.7443082909D+00
 SP   1 1.00       0.000000000000
      0.1687144782D+00  0.1000000000D+01  0.1000000000D+01
 D   1 1.00       0.000000000000
      0.8000000000D+00  0.1000000000D+01
 ****
     16 0
 S   6 1.00       0.000000000000
      0.3047524880D+04  0.1834737132D-02
      0.4573695180D+03  0.1403732281D-01
      0.1039486850D+03  0.6884262226D-01
      0.2921015530D+02  0.2321844432D+00
      0.9286662960D+01  0.4679413484D+00
      0.3163926960D+01  0.3623119853D+00
 SP   3 1.00       0.000000000000
      0.7868272350D+01 -0.1193324198D+00  0.6899906659D-01
      0.1881288540D+01 -0.1608541517D+00  0.3164239610D+00
      0.5442492580D+00  0.1143456438D+01  0.7443082909D+00
 SP   1 1.00       0.000000000000
      0.1687144782D+00  0.1000000000D+01  0.1000000000D+01
 D   1 1.00       0.000000000000
      0.8000000000D+00  0.1000000000D+01
 ****
     17 0
 S   6 1.00       0.000000000000
      0.3047524880D+04  0.1834737132D-02
      0.4573695180D+03  0.1403732281D-01
      0.1039486850D+03  0.6884262226D-01
      0.2921015530D+02  0.2321844432D+00
      0.9286662960D+01  0.4679413484D+00
      0.3163926960D+01  0.3623119853D+00
 SP   3 1.00       0.000000000000
      0.7868272350D+01 -0.1193324198D+00  0.6899906659D-01
      0.1881288540D+01 -0.1608541517D+00  0.3164239610D+00
      0.5442492580D+00  0.1143456438D+01  0.7443082909D+00
 SP   1 1.00       0.000000000000
      0.1687144782D+00  0.1000000000D+01  0.1000000000D+01
 D   1 1.00       0.000000000000
      0.8000000000D+00  0.1000000000D+01
 ****
     18 0
 S   6 1.00       0.000000000000
      0.3047524880D+04  0.1834737132D-02
      0.4573695180D+03  0.1403732281D-01
      0.1039486850D+03  0.6884262226D-01
      0.2921015530D+02  0.2321844432D+00
      0.9286662960D+01  0.4679413484D+00
      0.3163926960D+01  0.3623119853D+00
 SP   3 1.00       0.000000000000
      0.7868272350D+01 -0.1193324198D+00  0.6899906659D-01
      0.1881288540D+01 -0.1608541517D+00  0.3164239610D+00
      0.5442492580D+00  0.1143456438D+01  0.7443082909D+00
 SP   1 1.00       0.000000000000
      0.1687144782D+00  0.1000000000D+01  0.1000000000D+01
 D   1 1.00       0.000000000000
      0.8000000000D+00  0.1000000000D+01
 ****
     19 0
 S   6 1.00       0.000000000000
      0.3047524880D+04  0.1834737132D-02
      0.4573695180D+03  0.1403732281D-01
      0.1039486850D+03  0.6884262226D-01
      0.2921015530D+02  0.2321844432D+00
      0.9286662960D+01  0.4679413484D+00
      0.3163926960D+01  0.3623119853D+00
 SP   3 1.00       0.000000000000
      0.7868272350D+01 -0.1193324198D+00  0.6899906659D-01
      0.1881288540D+01 -0.1608541517D+00  0.3164239610D+00
      0.5442492580D+00  0.1143456438D+01  0.7443082909D+00
 SP   1 1.00       0.000000000000
      0.1687144782D+00  0.1000000000D+01  0.1000000000D+01
 D   1 1.00       0.000000000000
      0.8000000000D+00  0.1000000000D+01
 ****
     20 0
 S   6 1.00       0.000000000000
      0.3047524880D+04  0.1834737132D-02
      0.4573695180D+03  0.1403732281D-01
      0.1039486850D+03  0.6884262226D-01
      0.2921015530D+02  0.2321844432D+00
      0.9286662960D+01  0.4679413484D+00
      0.3163926960D+01  0.3623119853D+00
 SP   3 1.00       0.000000000000
      0.7868272350D+01 -0.1193324198D+00  0.6899906659D-01
      0.1881288540D+01 -0.1608541517D+00  0.3164239610D+00
      0.5442492580D+00  0.1143456438D+01  0.7443082909D+00
 SP   1 1.00       0.000000000000
      0.1687144782D+00  0.1000000000D+01  0.1000000000D+01
 D   1 1.00       0.000000000000
      0.8000000000D+00  0.1000000000D+01
 ****
     21 0
 S   6 1.00       0.000000000000
      0.3047524880D+04  0.1834737132D-02
      0.4573695180D+03  0.1403732281D-01
      0.1039486850D+03  0.6884262226D-01
      0.2921015530D+02  0.2321844432D+00
      0.9286662960D+01  0.4679413484D+00
      0.3163926960D+01  0.3623119853D+00
 SP   3 1.00       0.000000000000
      0.7868272350D+01 -0.1193324198D+00  0.6899906659D-01
      0.1881288540D+01 -0.1608541517D+00  0.3164239610D+00
      0.5442492580D+00  0.1143456438D+01  0.7443082909D+00
 SP   1 1.00       0.000000000000
      0.1687144782D+00  0.1000000000D+01  0.1000000000D+01
 D   1 1.00       0.000000000000
      0.8000000000D+00  0.1000000000D+01
 ****
     22 0
 S   6 1.00       0.000000000000
      0.3047524880D+04  0.1834737132D-02
      0.4573695180D+03  0.1403732281D-01
      0.1039486850D+03  0.6884262226D-01
      0.2921015530D+02  0.2321844432D+00
      0.9286662960D+01  0.4679413484D+00
      0.3163926960D+01  0.3623119853D+00
 SP   3 1.00       0.000000000000
      0.7868272350D+01 -0.1193324198D+00  0.6899906659D-01
      0.1881288540D+01 -0.1608541517D+00  0.3164239610D+00
      0.5442492580D+00  0.1143456438D+01  0.7443082909D+00
 SP   1 1.00       0.000000000000
      0.1687144782D+00  0.1000000000D+01  0.1000000000D+01
 D   1 1.00       0.000000000000
      0.8000000000D+00  0.1000000000D+01
 ****
     23 0
 S   6 1.00       0.000000000000
      0.5484671660D+04  0.1831074430D-02
      0.8252349460D+03  0.1395017220D-01
      0.1880469580D+03  0.6844507810D-01
      0.5296450000D+02  0.2327143360D+00
      0.1689757040D+02  0.4701928980D+00
      0.5799635340D+01  0.3585208530D+00
 SP   3 1.00       0.000000000000
      0.1553961625D+02 -0.1107775495D+00  0.7087426823D-01
      0.3599933586D+01 -0.1480262627D+00  0.3397528391D+00
      0.1013761750D+01  0.1130767015D+01  0.7271585773D+00
 SP   1 1.00       0.000000000000
      0.2700058226D+00  0.1000000000D+01  0.1000000000D+01
 D   1 1.00       0.000000000000
      0.8000000000D+00  0.1000000000D+01
 ****
     24 0
 S   6 1.00       0.000000000000
      0.4173511460D+04  0.1834772160D-02
      0.6274579110D+03  0.1399462700D-01
      0.1429020930D+03  0.6858655181D-01
      0.4023432930D+02  0.2322408730D+00
      0.1282021290D+02  0.4690699481D+00
      0.4390437010D+01  0.3604551991D+00
 SP   3 1.00       0.000000000000
      0.1162636186D+02 -0.1149611817D+00  0.6757974388D-01
      0.2716279807D+01 -0.1691174786D+00  0.3239072959D+00
      0.7722183966D+00  0.1145851947D+01  0.7408951398D+00
 SP   1 1.00       0.000000000000
      0.2120314975D+00  0.1000000000D+01  0.1000000000D+01
 D   1 1.00       0.000000000000
      0.8000000000D+00  0.1000000000D+01
 ****
     25 0
 S   6 1.00       0.000000000000
      0.3047524880D+04  0.1834737132D-02
      0.4573695180D+03  0.1403732281D-01
      0.1039486850D+03  0.6884262226D-01
      0.2921015530D+02  0.2321844432D+00
      0.9286662960D+01  0.4679413484D+00
      0.3163926960D+01  0.3623119853D+00
 SP   3 1.00       0.000000000000
      0.7868272350D+01 -0.1193324198D+00  0.6899906659D-01
      0.1881288540D+01 -0.1608541517D+00  0.3164239610D+00
      0.5442492580D+00  0.1143456438D+01  0.7443082909D+00
 SP   1 1.00       0.000000000000
      0.1687144782D+00  0.1000000000D+01  0.1000000000D+01
 D   1 1.00       0.000000000000
      0.8000000000D+00  0.1000000000D+01
 ****
     26 0
 S   6 1.00       0.000000000000
      0.3047524880D+04  0.1834737132D-02
      0.4573695180D+03  0.1403732281D-01
      0.1039486850D+03  0.6884262226D-01
      0.2921015530D+02  0.2321844432D+00
      0.9286662960D+01  0.4679413484D+00
      0.3163926960D+01  0.3623119853D+00
 SP   3 1.00       0.000000000000
      0.7868272350D+01 -0.1193324198D+00  0.6899906659D-01
      0.1881288540D+01 -0.1608541517D+00  0.3164239610D+00
      0.5442492580D+00  0.1143456438D+01  0.7443082909D+00
 SP   1 1.00       0.000000000000
      0.1687144782D+00  0.1000000000D+01  0.1000000000D+01
 D   1 1.00       0.000000000000
      0.8000000000D+00  0.1000000000D+01
 ****
     27 0
 S   6 1.00       0.000000000000
      0.3047524880D+04  0.1834737132D-02
      0.4573695180D+03  0.1403732281D-01
      0.1039486850D+03  0.6884262226D-01
      0.2921015530D+02  0.2321844432D+00
      0.9286662960D+01  0.4679413484D+00
      0.3163926960D+01  0.3623119853D+00
 SP   3 1.00       0.000000000000
      0.7868272350D+01 -0.1193324198D+00  0.6899906659D-01
      0.1881288540D+01 -0.1608541517D+00  0.3164239610D+00
      0.5442492580D+00  0.1143456438D+01  0.7443082909D+00
 SP   1 1.00       0.000000000000
      0.1687144782D+00  0.1000000000D+01  0.1000000000D+01
 D   1 1.00       0.000000000000
      0.8000000000D+00  0.1000000000D+01
 ****
     28 0
 S   6 1.00       0.000000000000
      0.3047524880D+04  0.1834737132D-02
      0.4573695180D+03  0.1403732281D-01
      0.1039486850D+03  0.6884262226D-01
      0.2921015530D+02  0.2321844432D+00
      0.9286662960D+01  0.4679413484D+00
      0.3163926960D+01  0.3623119853D+00
 SP   3 1.00       0.000000000000
      0.7868272350D+01 -0.1193324198D+00  0.6899906659D-01
      0.1881288540D+01 -0.1608541517D+00  0.3164239610D+00
      0.5442492580D+00  0.1143456438D+01  0.7443082909D+00
 SP   1 1.00       0.000000000000
      0.1687144782D+00  0.1000000000D+01  0.1000000000D+01
 D   1 1.00       0.000000000000
      0.8000000000D+00  0.1000000000D+01
 ****
     29 0
 S   6 1.00       0.000000000000
      0.3047524880D+04  0.1834737132D-02
      0.4573695180D+03  0.1403732281D-01
      0.1039486850D+03  0.6884262226D-01
      0.2921015530D+02  0.2321844432D+00
      0.9286662960D+01  0.4679413484D+00
      0.3163926960D+01  0.3623119853D+00
 SP   3 1.00       0.000000000000
      0.7868272350D+01 -0.1193324198D+00  0.6899906659D-01
      0.1881288540D+01 -0.1608541517D+00  0.3164239610D+00
      0.5442492580D+00  0.1143456438D+01  0.7443082909D+00
 SP   1 1.00       0.000000000000
      0.1687144782D+00  0.1000000000D+01  0.1000000000D+01
 D   1 1.00       0.000000000000
      0.8000000000D+00  0.1000000000D+01
 ****
     30 0
 S   6 1.00       0.000000000000
      0.3047524880D+04  0.1834737132D-02
      0.4573695180D+03  0.1403732281D-01
      0.1039486850D+03  0.6884262226D-01
      0.2921015530D+02  0.2321844432D+00
      0.9286662960D+01  0.4679413484D+00
      0.3163926960D+01  0.3623119853D+00
 SP   3 1.00       0.000000000000
      0.7868272350D+01 -0.1193324198D+00  0.6899906659D-01
      0.1881288540D+01 -0.1608541517D+00  0.3164239610D+00
      0.5442492580D+00  0.1143456438D+01  0.7443082909D+00
 SP   1 1.00       0.000000000000
      0.1687144782D+00  0.1000000000D+01  0.1000000000D+01
 D   1 1.00       0.000000000000
      0.8000000000D+00  0.1000000000D+01
 ****
     31 0
 S   6 1.00       0.000000000000
      0.3047524880D+04  0.1834737132D-02
      0.4573695180D+03  0.1403732281D-01
      0.1039486850D+03  0.6884262226D-01
      0.2921015530D+02  0.2321844432D+00
      0.9286662960D+01  0.4679413484D+00
      0.3163926960D+01  0.3623119853D+00
 SP   3 1.00       0.000000000000
      0.7868272350D+01 -0.1193324198D+00  0.6899906659D-01
      0.1881288540D+01 -0.1608541517D+00  0.3164239610D+00
      0.5442492580D+00  0.1143456438D+01  0.7443082909D+00
 SP   1 1.00       0.000000000000
      0.1687144782D+00  0.1000000000D+01  0.1000000000D+01
 D   1 1.00       0.000000000000
      0.8000000000D+00  0.1000000000D+01
 ****
     32 0
 S   3 1.00       0.000000000000
      0.1873113696D+02  0.3349460434D-01
      0.2825394365D+01  0.2347269535D+00
      0.6401216923D+00  0.8137573261D+00
 S   1 1.00       0.000000000000
      0.1612777588D+00  0.1000000000D+01
 ****
     33 0
 S   3 1.00       0.000000000000
      0.1873113696D+02  0.3349460434D-01
      0.2825394365D+01  0.2347269535D+00
      0.6401216923D+00  0.8137573261D+00
 S   1 1.00       0.000000000000
      0.1612777588D+00  0.1000000000D+01
 ****
     34 0
 S   3 1.00       0.000000000000
      0.1873113696D+02  0.3349460434D-01
      0.2825394365D+01  0.2347269535D+00
      0.6401216923D+00  0.8137573261D+00
 S   1 1.00       0.000000000000
      0.1612777588D+00  0.1000000000D+01
 ****
     35 0
 S   3 1.00       0.000000000000
      0.1873113696D+02  0.3349460434D-01
      0.2825394365D+01  0.2347269535D+00
      0.6401216923D+00  0.8137573261D+00
 S   1 1.00       0.000000000000
      0.1612777588D+00  0.1000000000D+01
 ****
     36 0
 S   3 1.00       0.000000000000
      0.1873113696D+02  0.3349460434D-01
      0.2825394365D+01  0.2347269535D+00
      0.6401216923D+00  0.8137573261D+00
 S   1 1.00       0.000000000000
      0.1612777588D+00  0.1000000000D+01
 ****
     37 0
 S   3 1.00       0.000000000000
      0.1873113696D+02  0.3349460434D-01
      0.2825394365D+01  0.2347269535D+00
      0.6401216923D+00  0.8137573261D+00
 S   1 1.00       0.000000000000
      0.1612777588D+00  0.1000000000D+01
 ****
     38 0
 S   3 1.00       0.000000000000
      0.1873113696D+02  0.3349460434D-01
      0.2825394365D+01  0.2347269535D+00
      0.6401216923D+00  0.8137573261D+00
 S   1 1.00       0.000000000000
      0.1612777588D+00  0.1000000000D+01
 ****
     39 0
 S   3 1.00       0.000000000000
      0.1873113696D+02  0.3349460434D-01
      0.2825394365D+01  0.2347269535D+00
      0.6401216923D+00  0.8137573261D+00
 S   1 1.00       0.000000000000
      0.1612777588D+00  0.1000000000D+01
 ****
     40 0
 S   3 1.00       0.000000000000
      0.1873113696D+02  0.3349460434D-01
      0.2825394365D+01  0.2347269535D+00
      0.6401216923D+00  0.8137573261D+00
 S   1 1.00       0.000000000000
      0.1612777588D+00  0.1000000000D+01
 ****
     41 0
 S   3 1.00       0.000000000000
      0.1873113696D+02  0.3349460434D-01
      0.2825394365D+01  0.2347269535D+00
      0.6401216923D+00  0.8137573261D+00
 S   1 1.00       0.000000000000
      0.1612777588D+00  0.1000000000D+01
 ****
     42 0
 S   3 1.00       0.000000000000
      0.1873113696D+02  0.3349460434D-01
      0.2825394365D+01  0.2347269535D+00
      0.6401216923D+00  0.8137573261D+00
 S   1 1.00       0.000000000000
      0.1612777588D+00  0.1000000000D+01
 ****
     43 0
 S   3 1.00       0.000000000000
      0.1873113696D+02  0.3349460434D-01
      0.2825394365D+01  0.2347269535D+00
      0.6401216923D+00  0.8137573261D+00
 S   1 1.00       0.000000000000
      0.1612777588D+00  0.1000000000D+01
 ****
     44 0
 S   3 1.00       0.000000000000
      0.1873113696D+02  0.3349460434D-01
      0.2825394365D+01  0.2347269535D+00
      0.6401216923D+00  0.8137573261D+00
 S   1 1.00       0.000000000000
      0.1612777588D+00  0.1000000000D+01
 ****
     45 0
 S   3 1.00       0.000000000000
      0.1873113696D+02  0.3349460434D-01
      0.2825394365D+01  0.2347269535D+00
      0.6401216923D+00  0.8137573261D+00
 S   1 1.00       0.000000000000
      0.1612777588D+00  0.1000000000D+01
 ****
     46 0
 S   3 1.00       0.000000000000
      0.1873113696D+02  0.3349460434D-01
      0.2825394365D+01  0.2347269535D+00
      0.6401216923D+00  0.8137573261D+00
 S   1 1.00       0.000000000000
      0.1612777588D+00  0.1000000000D+01
 ****
     47 0
 S   3 1.00       0.000000000000
      0.1873113696D+02  0.3349460434D-01
      0.2825394365D+01  0.2347269535D+00
      0.6401216923D+00  0.8137573261D+00
 S   1 1.00       0.000000000000
      0.1612777588D+00  0.1000000000D+01
 ****
     48 0
 S   3 1.00       0.000000000000
      0.1873113696D+02  0.3349460434D-01
      0.2825394365D+01  0.2347269535D+00
      0.6401216923D+00  0.8137573261D+00
 S   1 1.00       0.000000000000
      0.1612777588D+00  0.1000000000D+01
 ****
     49 0
 S   3 1.00       0.000000000000
      0.1873113696D+02  0.3349460434D-01
      0.2825394365D+01  0.2347269535D+00
      0.6401216923D+00  0.8137573261D+00
 S   1 1.00       0.000000000000
      0.1612777588D+00  0.1000000000D+01
 ****
     50 0
 S   3 1.00       0.000000000000
      0.1873113696D+02  0.3349460434D-01
      0.2825394365D+01  0.2347269535D+00
      0.6401216923D+00  0.8137573261D+00
 S   1 1.00       0.000000000000
      0.1612777588D+00  0.1000000000D+01
 ****
     51 0
 S   3 1.00       0.000000000000
      0.1873113696D+02  0.3349460434D-01
      0.2825394365D+01  0.2347269535D+00
      0.6401216923D+00  0.8137573261D+00
 S   1 1.00       0.000000000000
      0.1612777588D+00  0.1000000000D+01
 ****
     52 0
 S   3 1.00       0.000000000000
      0.1873113696D+02  0.3349460434D-01
      0.2825394365D+01  0.2347269535D+00
      0.6401216923D+00  0.8137573261D+00
 S   1 1.00       0.000000000000
      0.1612777588D+00  0.1000000000D+01
 ****
     53 0
 S   3 1.00       0.000000000000
      0.1873113696D+02  0.3349460434D-01
      0.2825394365D+01  0.2347269535D+00
      0.6401216923D+00  0.8137573261D+00
 S   1 1.00       0.000000000000
      0.1612777588D+00  0.1000000000D+01
 ****
     54 0
 S   3 1.00       0.000000000000
      0.1873113696D+02  0.3349460434D-01
      0.2825394365D+01  0.2347269535D+00
      0.6401216923D+00  0.8137573261D+00
 S   1 1.00       0.000000000000
      0.1612777588D+00  0.1000000000D+01
 ****
     55 0
 S   3 1.00       0.000000000000
      0.1873113696D+02  0.3349460434D-01
      0.2825394365D+01  0.2347269535D+00
      0.6401216923D+00  0.8137573261D+00
 S   1 1.00       0.000000000000
      0.1612777588D+00  0.1000000000D+01
 ****
     56 0
 S   3 1.00       0.000000000000
      0.1873113696D+02  0.3349460434D-01
      0.2825394365D+01  0.2347269535D+00
      0.6401216923D+00  0.8137573261D+00
 S   1 1.00       0.000000000000
      0.1612777588D+00  0.1000000000D+01
 ****
     57 0
 S   3 1.00       0.000000000000
      0.1873113696D+02  0.3349460434D-01
      0.2825394365D+01  0.2347269535D+00
      0.6401216923D+00  0.8137573261D+00
 S   1 1.00       0.000000000000
      0.1612777588D+00  0.1000000000D+01
 ****
     58 0
 S   3 1.00       0.000000000000
      0.1873113696D+02  0.3349460434D-01
      0.2825394365D+01  0.2347269535D+00
      0.6401216923D+00  0.8137573261D+00
 S   1 1.00       0.000000000000
      0.1612777588D+00  0.1000000000D+01
 ****
     59 0
 S   3 1.00       0.000000000000
      0.1873113696D+02  0.3349460434D-01
      0.2825394365D+01  0.2347269535D+00
      0.6401216923D+00  0.8137573261D+00
 S   1 1.00       0.000000000000
      0.1612777588D+00  0.1000000000D+01
 ****
     60 0
 S   3 1.00       0.000000000000
      0.1873113696D+02  0.3349460434D-01
      0.2825394365D+01  0.2347269535D+00
      0.6401216923D+00  0.8137573261D+00
 S   1 1.00       0.000000000000
      0.1612777588D+00  0.1000000000D+01
 ****
     61 0
 S   3 1.00       0.000000000000
      0.1873113696D+02  0.3349460434D-01
      0.2825394365D+01  0.2347269535D+00
      0.6401216923D+00  0.8137573261D+00
 S   1 1.00       0.000000000000
      0.1612777588D+00  0.1000000000D+01
 ****

   525 basis functions,   988 primitive gaussians,   525 cartesian basis functions
   111 alpha electrons      111 beta electrons
       nuclear repulsion energy      3074.6493494705 Hartrees.
 IExCor=  402 DFT=T Ex+Corr=B3LYP ExCW=0 ScaHFX=  0.200000
 ScaDFX=  0.800000  0.720000  1.000000  0.810000 ScalE2=  1.000000  1.000000
 IRadAn=      5 IRanWt=     -1 IRanGd=            0 ICorTp=0 IEmpDi=  4
 NAtoms=   61 NActive=   61 NUniq=   61 SFac= 1.00D+00 NAtFMM=   60 NAOKFM=T Big=T
 Integral buffers will be    131072 words long.
 Regular integral format.
 Two-electron integral symmetry is turned off.
 Leave Link  301 at Sat Nov  5 09:28:24 2022, MaxMem=   402653184 cpu:               2.4 elap:               0.3
 (Enter /home/wykgroup/appl/g16/l302.exe)
 NPDir=0 NMtPBC=     1 NCelOv=     1 NCel=       1 NClECP=     1 NCelD=      1
         NCelK=      1 NCelE2=     1 NClLst=     1 CellRange=     0.0.
 One-electron integrals computed using PRISM.
 NBasis=   525 RedAO= T EigKep=  4.58D-04  NBF=   525
 NBsUse=   525 1.00D-06 EigRej= -1.00D+00 NBFU=   525
 Precomputing XC quadrature grid using
 IXCGrd= 4 IRadAn=           5 IRanWt=          -1 IRanGd=           0 AccXCQ= 0.00D+00.
 Generated NRdTot=       0 NPtTot=           0 NUsed=           0 NTot=          32
 NSgBfM=   518   516   517   517   518 MxSgAt=    61 MxSgA2=    61.
 Leave Link  302 at Sat Nov  5 09:28:25 2022, MaxMem=   402653184 cpu:              18.0 elap:               1.5
 (Enter /home/wykgroup/appl/g16/l303.exe)
 DipDrv:  MaxL=1.
 Leave Link  303 at Sat Nov  5 09:28:26 2022, MaxMem=   402653184 cpu:               3.0 elap:               0.3
 (Enter /home/wykgroup/appl/g16/l308.exe)
 Leave Link  308 at Sat Nov  5 09:28:26 2022, MaxMem=   402653184 cpu:               1.8 elap:               0.2
 (Enter /home/wykgroup/appl/g16/l401.exe)
 ExpMin= 1.61D-01 ExpMax= 5.48D+03 ExpMxC= 8.25D+02 IAcc=3 IRadAn=         5 AccDes= 0.00D+00
 Harris functional with IExCor=  402 and IRadAn=       5 diagonalized for initial guess.
 HarFok:  IExCor=  402 AccDes= 0.00D+00 IRadAn=         5 IDoV= 1 UseB2=F ITyADJ=14
 ICtDFT=  3500011 ScaDFX=  1.000000  1.000000  1.000000  1.000000
 FoFCou: FMM=F IPFlag=           0 FMFlag=      100000 FMFlg1=        2001
         NFxFlg=           0 DoJE=T BraDBF=F KetDBF=T FulRan=T
         wScrn=  0.000000 ICntrl=       500 IOpCl=  0 I1Cent=   200000004 NGrid=           0
         NMat0=    1 NMatS0=      1 NMatT0=    0 NMatD0=    1 NMtDS0=    0 NMtDT0=    0
 Symmetry not used in FoFCou.
 Harris En= -1306.97678215335    
 JPrj=0 DoOrth=F DoCkMO=F.
 Leave Link  401 at Sat Nov  5 09:28:30 2022, MaxMem=   402653184 cpu:              43.2 elap:               3.4
 (Enter /home/wykgroup/appl/g16/l502.exe)
 Two-electron integral symmetry not used.
 Closed shell SCF:
 Using DIIS extrapolation, IDIIS=  1040.
 NGot=   402653184 LenX=   402089902 LenY=   401813752
 Requested convergence on RMS density matrix=1.00D-08 within  32 cycles.
 Requested convergence on MAX density matrix=1.00D-06.
 Requested convergence on             energy=1.00D-06.
 No special actions if energy rises.
 Fock matrices will be formed incrementally for  20 cycles.
 Integral accuracy reduced to 1.0D-05 until final iterations.

 Cycle   1  Pass 0  IDiag  1:
 FoFJK:  IHMeth= 1 ICntrl=       0 DoSepK=F KAlg= 0 I1Cent=           0 FoldK=F
 IRaf= 990000000 NMat=       1 IRICut=       1 DoRegI=T DoRafI=F ISym2E= 0 IDoP0=0 IntGTp=1.
 FoFCou: FMM=T IPFlag=           0 FMFlag=      100000 FMFlg1=        2001
         NFxFlg=           0 DoJE=F BraDBF=F KetDBF=F FulRan=T
         wScrn=  0.000000 ICntrl=         0 IOpCl=  0 I1Cent=           0 NGrid=           0
         NMat0=    1 NMatS0=      1 NMatT0=    0 NMatD0=    1 NMtDS0=    0 NMtDT0=    0
 Symmetry not used in FoFCou.
 FMM levels:  10  Number of levels for PrismC:   9
 E= -1306.14928309472    
 DIIS: error= 3.07D-02 at cycle   1 NSaved=   1.
 NSaved= 1 IEnMin= 1 EnMin= -1306.14928309472     IErMin= 1 ErrMin= 3.07D-02
 ErrMax= 3.07D-02  0.00D+00 EMaxC= 1.00D-01 BMatC= 7.76D-01 BMatP= 7.76D-01
 IDIUse=3 WtCom= 6.93D-01 WtEn= 3.07D-01
 Coeff-Com:  0.100D+01
 Coeff-En:   0.100D+01
 Coeff:      0.100D+01
 Gap=     0.304 Goal=   None    Shift=    0.000
 GapD=    0.304 DampG=1.000 DampE=0.500 DampFc=0.5000 IDamp=-1.
 Damping current iteration by 5.00D-01
 RMSDP=4.20D-03 MaxDP=2.53D-01              OVMax= 2.99D-01

 Cycle   2  Pass 0  IDiag  1:
 RMSU=  2.08D-03    CP:  9.80D-01
 E= -1306.42396176162     Delta-E=       -0.274678666894 Rises=F Damp=T
 DIIS: error= 1.10D-02 at cycle   2 NSaved=   2.
 NSaved= 2 IEnMin= 2 EnMin= -1306.42396176162     IErMin= 2 ErrMin= 1.10D-02
 ErrMax= 1.10D-02  0.00D+00 EMaxC= 1.00D-01 BMatC= 1.11D-01 BMatP= 7.76D-01
 IDIUse=3 WtCom= 8.90D-01 WtEn= 1.10D-01
 Coeff-Com:  0.171D+00 0.829D+00
 Coeff-En:   0.248D+00 0.752D+00
 Coeff:      0.180D+00 0.820D+00
 Gap=     0.284 Goal=   None    Shift=    0.000
 RMSDP=1.47D-03 MaxDP=1.39D-01 DE=-2.75D-01 OVMax= 2.13D-01

 Cycle   3  Pass 0  IDiag  1:
 RMSU=  1.32D-03    CP:  9.66D-01  7.04D-01
 E= -1306.78892538734     Delta-E=       -0.364963625720 Rises=F Damp=F
 DIIS: error= 1.63D-02 at cycle   3 NSaved=   3.
 NSaved= 3 IEnMin= 3 EnMin= -1306.78892538734     IErMin= 2 ErrMin= 1.10D-02
 ErrMax= 1.63D-02  0.00D+00 EMaxC= 1.00D-01 BMatC= 1.66D-01 BMatP= 1.11D-01
 IDIUse=2 WtCom= 0.00D+00 WtEn= 1.00D+00
 Coeff-En:   0.000D+00 0.000D+00 0.100D+01
 Coeff:      0.000D+00 0.000D+00 0.100D+01
 Gap=     0.284 Goal=   None    Shift=    0.000
 RMSDP=2.91D-03 MaxDP=3.23D-01 DE=-3.65D-01 OVMax= 3.57D-01

 Cycle   4  Pass 0  IDiag  1:
 RMSU=  1.36D-03    CP:  9.78D-01  1.34D+00 -6.74D-01
 E= -1305.96384825621     Delta-E=        0.825077131121 Rises=F Damp=F
 DIIS: error= 4.29D-02 at cycle   4 NSaved=   4.
 NSaved= 4 IEnMin= 3 EnMin= -1306.78892538734     IErMin= 2 ErrMin= 1.10D-02
 ErrMax= 4.29D-02  0.00D+00 EMaxC= 1.00D-01 BMatC= 1.19D+00 BMatP= 1.11D-01
 IDIUse=2 WtCom= 0.00D+00 WtEn= 1.00D+00
 Coeff-En:   0.000D+00 0.000D+00 0.815D+00 0.185D+00
 Coeff:      0.000D+00 0.000D+00 0.815D+00 0.185D+00
 Gap=     0.202 Goal=   None    Shift=    0.000
 RMSDP=1.66D-03 MaxDP=2.13D-01 DE= 8.25D-01 OVMax= 1.70D-01

 Cycle   5  Pass 0  IDiag  1:
 RMSU=  3.16D-04    CP:  9.74D-01  9.14D-01  2.05D-01  4.59D-01
 E= -1306.85200897860     Delta-E=       -0.888160722387 Rises=F Damp=F
 DIIS: error= 1.19D-02 at cycle   5 NSaved=   5.
 NSaved= 5 IEnMin= 5 EnMin= -1306.85200897860     IErMin= 2 ErrMin= 1.10D-02
 ErrMax= 1.19D-02  0.00D+00 EMaxC= 1.00D-01 BMatC= 9.59D-02 BMatP= 1.11D-01
 IDIUse=3 WtCom= 8.81D-01 WtEn= 1.19D-01
 Coeff-Com: -0.438D-02 0.525D-01 0.332D+00-0.949D-01 0.715D+00
 Coeff-En:   0.000D+00 0.000D+00 0.394D+00 0.000D+00 0.606D+00
 Coeff:     -0.386D-02 0.463D-01 0.340D+00-0.836D-01 0.702D+00
 Gap=     0.236 Goal=   None    Shift=    0.000
 RMSDP=5.94D-04 MaxDP=5.81D-02 DE=-8.88D-01 OVMax= 5.63D-02

 Cycle   6  Pass 0  IDiag  1:
 RMSU=  8.13D-05    CP:  9.71D-01  8.07D-01  5.49D-01  2.47D-01  7.48D-01
 E= -1306.93088162911     Delta-E=       -0.078872650512 Rises=F Damp=F
 DIIS: error= 6.62D-04 at cycle   6 NSaved=   6.
 NSaved= 6 IEnMin= 6 EnMin= -1306.93088162911     IErMin= 6 ErrMin= 6.62D-04
 ErrMax= 6.62D-04  0.00D+00 EMaxC= 1.00D-01 BMatC= 5.49D-04 BMatP= 9.59D-02
 IDIUse=3 WtCom= 9.93D-01 WtEn= 6.62D-03
 Coeff-Com: -0.425D-02 0.189D-01 0.159D+00-0.598D-01 0.400D+00 0.486D+00
 Coeff-En:   0.000D+00 0.000D+00 0.000D+00 0.000D+00 0.000D+00 0.100D+01
 Coeff:     -0.423D-02 0.188D-01 0.158D+00-0.594D-01 0.397D+00 0.489D+00
 Gap=     0.221 Goal=   None    Shift=    0.000
 RMSDP=5.16D-05 MaxDP=5.26D-03 DE=-7.89D-02 OVMax= 4.95D-03

 Cycle   7  Pass 0  IDiag  1:
 RMSU=  2.41D-05    CP:  9.71D-01  8.15D-01  5.40D-01  2.53D-01  7.82D-01
                    CP:  5.27D-01
 E= -1306.93131166523     Delta-E=       -0.000430036112 Rises=F Damp=F
 DIIS: error= 2.32D-04 at cycle   7 NSaved=   7.
 NSaved= 7 IEnMin= 7 EnMin= -1306.93131166523     IErMin= 7 ErrMin= 2.32D-04
 ErrMax= 2.32D-04  0.00D+00 EMaxC= 1.00D-01 BMatC= 6.24D-05 BMatP= 5.49D-04
 IDIUse=3 WtCom= 9.98D-01 WtEn= 2.32D-03
 Coeff-Com: -0.272D-03-0.419D-04 0.342D-01-0.131D-01 0.802D-01 0.232D+00
 Coeff-Com:  0.668D+00
 Coeff-En:   0.000D+00 0.000D+00 0.000D+00 0.000D+00 0.000D+00 0.640D-01
 Coeff-En:   0.936D+00
 Coeff:     -0.272D-03-0.418D-04 0.341D-01-0.131D-01 0.800D-01 0.231D+00
 Coeff:      0.668D+00
 Gap=     0.221 Goal=   None    Shift=    0.000
 RMSDP=1.70D-05 MaxDP=1.28D-03 DE=-4.30D-04 OVMax= 1.49D-03

 Cycle   8  Pass 0  IDiag  1:
 RMSU=  8.48D-06    CP:  9.71D-01  8.12D-01  5.46D-01  2.50D-01  7.71D-01
                    CP:  6.10D-01  7.13D-01
 E= -1306.93136607341     Delta-E=       -0.000054408187 Rises=F Damp=F
 DIIS: error= 8.22D-05 at cycle   8 NSaved=   8.
 NSaved= 8 IEnMin= 8 EnMin= -1306.93136607341     IErMin= 8 ErrMin= 8.22D-05
 ErrMax= 8.22D-05  0.00D+00 EMaxC= 1.00D-01 BMatC= 5.72D-06 BMatP= 6.24D-05
 IDIUse=1 WtCom= 1.00D+00 WtEn= 0.00D+00
 Coeff-Com:  0.320D-03-0.161D-02 0.902D-02-0.305D-02 0.164D-01 0.108D+00
 Coeff-Com:  0.403D+00 0.468D+00
 Coeff:      0.320D-03-0.161D-02 0.902D-02-0.305D-02 0.164D-01 0.108D+00
 Coeff:      0.403D+00 0.468D+00
 Gap=     0.221 Goal=   None    Shift=    0.000
 RMSDP=5.72D-06 MaxDP=2.81D-04 DE=-5.44D-05 OVMax= 6.24D-04

 Initial convergence to 1.0D-05 achieved.  Increase integral accuracy.
 Cycle   9  Pass 1  IDiag  1:
 E= -1306.93132350540     Delta-E=        0.000042568017 Rises=F Damp=F
 DIIS: error= 1.44D-04 at cycle   1 NSaved=   1.
 NSaved= 1 IEnMin= 1 EnMin= -1306.93132350540     IErMin= 1 ErrMin= 1.44D-04
 ErrMax= 1.44D-04  0.00D+00 EMaxC= 1.00D-01 BMatC= 6.49D-06 BMatP= 6.49D-06
 IDIUse=3 WtCom= 9.99D-01 WtEn= 1.44D-03
 Coeff-Com:  0.100D+01
 Coeff-En:   0.100D+01
 Coeff:      0.100D+01
 Gap=     0.221 Goal=   None    Shift=    0.000
 RMSDP=5.72D-06 MaxDP=2.81D-04 DE= 4.26D-05 OVMax= 5.34D-04

 Cycle  10  Pass 1  IDiag  1:
 RMSU=  7.34D-05    CP:  1.00D+00
 E= -1306.93132828560     Delta-E=       -0.000004780207 Rises=F Damp=F
 DIIS: error= 4.63D-05 at cycle   2 NSaved=   2.
 NSaved= 2 IEnMin= 2 EnMin= -1306.93132828560     IErMin= 2 ErrMin= 4.63D-05
 ErrMax= 4.63D-05  0.00D+00 EMaxC= 1.00D-01 BMatC= 1.64D-06 BMatP= 6.49D-06
 IDIUse=1 WtCom= 1.00D+00 WtEn= 0.00D+00
 Coeff-Com:  0.246D+00 0.754D+00
 Coeff:      0.246D+00 0.754D+00
 Gap=     0.221 Goal=   None    Shift=    0.000
 RMSDP=6.35D-06 MaxDP=3.44D-04 DE=-4.78D-06 OVMax= 7.26D-04

 Cycle  11  Pass 1  IDiag  1:
 RMSU=  6.33D-06    CP:  1.00D+00  1.01D+00
 E= -1306.93132668499     Delta-E=        0.000001600614 Rises=F Damp=F
 DIIS: error= 6.46D-05 at cycle   3 NSaved=   3.
 NSaved= 3 IEnMin= 2 EnMin= -1306.93132828560     IErMin= 2 ErrMin= 4.63D-05
 ErrMax= 6.46D-05  0.00D+00 EMaxC= 1.00D-01 BMatC= 3.21D-06 BMatP= 1.64D-06
 IDIUse=1 WtCom= 1.00D+00 WtEn= 0.00D+00
 Coeff-Com: -0.118D-02 0.584D+00 0.417D+00
 Coeff:     -0.118D-02 0.584D+00 0.417D+00
 Gap=     0.221 Goal=   None    Shift=    0.000
 RMSDP=3.71D-06 MaxDP=2.38D-04 DE= 1.60D-06 OVMax= 3.97D-04

 Cycle  12  Pass 1  IDiag  1:
 RMSU=  6.23D-07    CP:  1.00D+00  1.01D+00  4.26D-01
 E= -1306.93133001146     Delta-E=       -0.000003326471 Rises=F Damp=F
 DIIS: error= 7.87D-06 at cycle   4 NSaved=   4.
 NSaved= 4 IEnMin= 4 EnMin= -1306.93133001146     IErMin= 4 ErrMin= 7.87D-06
 ErrMax= 7.87D-06  0.00D+00 EMaxC= 1.00D-01 BMatC= 4.05D-08 BMatP= 1.64D-06
 IDIUse=1 WtCom= 1.00D+00 WtEn= 0.00D+00
 Coeff-Com: -0.352D-02 0.375D+00 0.273D+00 0.356D+00
 Coeff:     -0.352D-02 0.375D+00 0.273D+00 0.356D+00
 Gap=     0.221 Goal=   None    Shift=    0.000
 RMSDP=4.09D-07 MaxDP=3.36D-05 DE=-3.33D-06 OVMax= 3.91D-05

 Cycle  13  Pass 1  IDiag  1:
 RMSU=  1.81D-07    CP:  1.00D+00  1.01D+00  4.28D-01  4.15D-01
 E= -1306.93133004513     Delta-E=       -0.000000033669 Rises=F Damp=F
 DIIS: error= 1.28D-06 at cycle   5 NSaved=   5.
 NSaved= 5 IEnMin= 5 EnMin= -1306.93133004513     IErMin= 5 ErrMin= 1.28D-06
 ErrMax= 1.28D-06  0.00D+00 EMaxC= 1.00D-01 BMatC= 1.20D-09 BMatP= 4.05D-08
 IDIUse=1 WtCom= 1.00D+00 WtEn= 0.00D+00
 Coeff-Com: -0.197D-02 0.173D+00 0.127D+00 0.202D+00 0.499D+00
 Coeff:     -0.197D-02 0.173D+00 0.127D+00 0.202D+00 0.499D+00
 Gap=     0.221 Goal=   None    Shift=    0.000
 RMSDP=7.34D-08 MaxDP=6.50D-06 DE=-3.37D-08 OVMax= 5.80D-06

 Cycle  14  Pass 1  IDiag  1:
 RMSU=  5.25D-08    CP:  1.00D+00  1.01D+00  4.29D-01  4.42D-01  7.35D-01
 E= -1306.93133004603     Delta-E=       -0.000000000899 Rises=F Damp=F
 DIIS: error= 3.74D-07 at cycle   6 NSaved=   6.
 NSaved= 6 IEnMin= 6 EnMin= -1306.93133004603     IErMin= 6 ErrMin= 3.74D-07
 ErrMax= 3.74D-07  0.00D+00 EMaxC= 1.00D-01 BMatC= 8.55D-11 BMatP= 1.20D-09
 IDIUse=1 WtCom= 1.00D+00 WtEn= 0.00D+00
 Coeff-Com: -0.897D-03 0.747D-01 0.548D-01 0.936D-01 0.291D+00 0.487D+00
 Coeff:     -0.897D-03 0.747D-01 0.548D-01 0.936D-01 0.291D+00 0.487D+00
 Gap=     0.221 Goal=   None    Shift=    0.000
 RMSDP=2.10D-08 MaxDP=1.94D-06 DE=-8.99D-10 OVMax= 1.56D-06

 Cycle  15  Pass 1  IDiag  1:
 RMSU=  1.74D-08    CP:  1.00D+00  1.01D+00  4.28D-01  4.40D-01  7.57D-01
                    CP:  7.95D-01
 E= -1306.93133004611     Delta-E=       -0.000000000085 Rises=F Damp=F
 DIIS: error= 8.15D-08 at cycle   7 NSaved=   7.
 NSaved= 7 IEnMin= 7 EnMin= -1306.93133004611     IErMin= 7 ErrMin= 8.15D-08
 ErrMax= 8.15D-08  0.00D+00 EMaxC= 1.00D-01 BMatC= 5.89D-12 BMatP= 8.55D-11
 IDIUse=1 WtCom= 1.00D+00 WtEn= 0.00D+00
 Coeff-Com: -0.248D-03 0.198D-01 0.145D-01 0.263D-01 0.934D-01 0.248D+00
 Coeff-Com:  0.598D+00
 Coeff:     -0.248D-03 0.198D-01 0.145D-01 0.263D-01 0.934D-01 0.248D+00
 Coeff:      0.598D+00
 Gap=     0.221 Goal=   None    Shift=    0.000
 RMSDP=6.59D-09 MaxDP=5.53D-07 DE=-8.46D-11 OVMax= 5.25D-07

 SCF Done:  E(RB3LYP) =  -1306.93133005     A.U. after   15 cycles
            NFock= 15  Conv=0.66D-08     -V/T= 2.0097
 KE= 1.294323655436D+03 PE=-9.181804544203D+03 EE= 3.505900209250D+03
 Leave Link  502 at Sat Nov  5 09:29:38 2022, MaxMem=   402653184 cpu:             892.7 elap:              68.1
 (Enter /home/wykgroup/appl/g16/l508.exe)
 QCSCF skips out because SCF is already converged.
 Leave Link  508 at Sat Nov  5 09:29:39 2022, MaxMem=   402653184 cpu:               0.5 elap:               0.1
 (Enter /home/wykgroup/appl/g16/l801.exe)
 DoSCS=F DFT=T ScalE2(SS,OS)=  1.000000  1.000000
 ExpMin= 1.61D-01 ExpMax= 5.48D+03 ExpMxC= 8.25D+02 IAcc=3 IRadAn=         5 AccDes= 0.00D+00
 HarFok:  IExCor=  205 AccDes= 0.00D+00 IRadAn=         5 IDoV=-2 UseB2=F ITyADJ=14
 ICtDFT= 12500011 ScaDFX=  1.000000  1.000000  1.000000  1.000000
 GSVD:  LWork=       -1209 too small for GESVD, short by        5270 words or        5270 for optimal perf.
 Largest valence mixing into a core orbital is  5.81D-05
 Largest core mixing into a valence orbital is  1.22D-05
 Range of M.O.s used for correlation:    32   525
 NBasis=   525 NAE=   111 NBE=   111 NFC=    31 NFV=     0
 NROrb=    494 NOA=    80 NOB=    80 NVA=   414 NVB=   414
 Leave Link  801 at Sat Nov  5 09:29:39 2022, MaxMem=   402653184 cpu:               4.2 elap:               0.4
 (Enter /home/wykgroup/appl/g16/l914.exe)
 RHF ground state
 Two-electron integral symmetry not used.
 MDV=   402653184 DFT=T DoStab=F Mixed=T DoRPA=T DoScal=F NonHer=T
 Making orbital integer symmetry assigments:
    16 initial guesses have been made.
 Convergence on wavefunction:    0.001000000000000
 Davidson Disk Diagonalization:  ConvIn= 1.00D-03 SkipCon=T Conv= 1.00D-03.
 Max sub-space:  2000 roots to seek:    16 dimension of matrix:        66240
 Iteration     1 Dimension    16 NMult     0 NNew     16
 CISAX will form    16 AO SS matrices at one time.
 NMat=    16 NSing=     8 JSym2X= 0.
 FoFJK:  IHMeth= 1 ICntrl=       0 DoSepK=F KAlg= 0 I1Cent=           0 FoldK=F
 IRaf= 990000000 NMat=      32 IRICut=       1 DoRegI=T DoRafI=F ISym2E= 0 IDoP0=0 IntGTp=1.
 FoFCou: FMM=T IPFlag=           0 FMFlag=      100000 FMFlg1=        2001
         NFxFlg=           0 DoJE=F BraDBF=F KetDBF=F FulRan=T
         wScrn=  0.000000 ICntrl=         0 IOpCl=  0 I1Cent=           0 NGrid=           0
         NMat0=   32 NMatS0=      8 NMatT0=    8 NMatD0=   32 NMtDS0=    0 NMtDT0=    0
 Symmetry not used in FoFCou.
 FMM levels:  10  Number of levels for PrismC:   9
 New state      1 was old state     14
 New state      3 was old state      4
 New state      4 was old state      6
 New state      5 was old state      1
 New state      6 was old state     12
 New state      7 was old state      8
 New state      8 was old state     10
 Excitation Energies [eV] at current iteration:
 Root      1 :     5.167273097161626
 Root      2 :     5.208053944233519
 Root      3 :     5.288237261457587
 Root      4 :     5.371720289957977
 Root      5 :     5.470196280225254
 Root      6 :     5.482320604034150
 Root      7 :     5.542665628933998
 Root      8 :     5.563331623192465
 Root      9 :     5.625756804039860
 Root     10 :     5.743979734594947
 Root     11 :     5.749920706126835
 Root     12 :     5.820622240305715
 Root     13 :     5.851758703813614
 Root     14 :     5.950027903867095
 Root     15 :     6.162438691832518
 Root     16 :     6.234069886334357
 Vector   3 SDiff=5.92D+00 TDiff=9.55D+00 assumed to be singlet.
 Vector   4 SDiff=6.88D+00 TDiff=7.50D+00 assumed to be singlet.
 Vector   7 SDiff=6.00D+00 TDiff=9.06D+00 assumed to be singlet.
 Vector   8 SDiff=6.98D+00 TDiff=6.96D+00 assumed to be triplet.
 Iteration     2 Dimension    24 NMult    16 NNew      8
 CISAX will form     8 AO SS matrices at one time.
 NMat=     8 NSing=     3 JSym2X= 0.
 Root      1 not converged, maximum delta is    0.241279811196666
 Root      2 not converged, maximum delta is    0.314550115598841
 New state      3 was old state      5
 Root      3 not converged, maximum delta is    0.093936111792636
 New state      4 was old state      9
 Root      4 not converged, maximum delta is    0.123729103356201
 Excitation Energies [eV] at current iteration:
 Root      1 :     3.962942974072248   Change is   -1.204330123089378
 Root      2 :     3.965864607199089   Change is   -1.242189337034431
 Root      3 :     5.419624507141721   Change is   -0.050571773083533
 Root      4 :     5.532765300345826   Change is   -0.092991503694035
 Iteration     3 Dimension    32 NMult    24 NNew      8
 CISAX will form     8 AO SS matrices at one time.
 NMat=     8 NSing=     4 JSym2X= 0.
 New state      1 was old state      2
 Root      1 not converged, maximum delta is    0.191674048187755
 New state      2 was old state      1
 Root      2 not converged, maximum delta is    0.235146482435890
 Root      3 not converged, maximum delta is    0.213031479766890
 Root      4 not converged, maximum delta is    0.255663640593000
 Excitation Energies [eV] at current iteration:
 Root      1 :     3.754260808401156   Change is   -0.211603798797932
 Root      2 :     3.763401537992282   Change is   -0.199541436079965
 Root      3 :     5.372395786357469   Change is   -0.047228720784252
 Root      4 :     5.425176459058707   Change is   -0.107588841287119
 Iteration     4 Dimension    40 NMult    32 NNew      8
 CISAX will form     8 AO SS matrices at one time.
 NMat=     8 NSing=     4 JSym2X= 0.
 Root      1 not converged, maximum delta is    0.019081943955438
 Root      2 not converged, maximum delta is    0.017302279184740
 Root      3 not converged, maximum delta is    0.341913575015272
 Root      4 not converged, maximum delta is    0.311278113055030
 Excitation Energies [eV] at current iteration:
 Root      1 :     3.735750931727019   Change is   -0.018509876674137
 Root      2 :     3.745125129518394   Change is   -0.018276408473888
 Root      3 :     5.311106897586697   Change is   -0.061288888770772
 Root      4 :     5.382618666487526   Change is   -0.042557792571180
 Iteration     5 Dimension    48 NMult    40 NNew      8
 CISAX will form     8 AO SS matrices at one time.
 NMat=     8 NSing=     4 JSym2X= 0.
 Root      1 not converged, maximum delta is    0.005100299532280
 Root      2 not converged, maximum delta is    0.004325455242252
 Root      3 not converged, maximum delta is    0.030735095778882
 Root      4 not converged, maximum delta is    0.035393735017289
 Excitation Energies [eV] at current iteration:
 Root      1 :     3.733257596805121   Change is   -0.002493334921898
 Root      2 :     3.743038350948723   Change is   -0.002086778569671
 Root      3 :     5.293474333486361   Change is   -0.017632564100336
 Root      4 :     5.371180970716384   Change is   -0.011437695771143
 Iteration     6 Dimension    56 NMult    48 NNew      8
 CISAX will form     8 AO SS matrices at one time.
 NMat=     8 NSing=     4 JSym2X= 0.
 Root      1 not converged, maximum delta is    0.001293232866661
 Root      2 not converged, maximum delta is    0.001566561435767
 Root      3 not converged, maximum delta is    0.015531037242152
 Root      4 not converged, maximum delta is    0.087351699754043
 Excitation Energies [eV] at current iteration:
 Root      1 :     3.733063939028908   Change is   -0.000193657776213
 Root      2 :     3.742836187808148   Change is   -0.000202163140575
 Root      3 :     5.287198442776467   Change is   -0.006275890709894
 Root      4 :     5.356006699628599   Change is   -0.015174271087784
 Iteration     7 Dimension    64 NMult    56 NNew      8
 CISAX will form     8 AO SS matrices at one time.
 NMat=     8 NSing=     4 JSym2X= 0.
 Root      1 has converged.
 Root      2 not converged, maximum delta is    0.001096118727612
 Root      3 not converged, maximum delta is    0.009917592313174
 Root      4 not converged, maximum delta is    0.057699350479588
 Excitation Energies [eV] at current iteration:
 Root      1 :     3.733036784256359   Change is   -0.000027154772550
 Root      2 :     3.742800861043700   Change is   -0.000035326764448
 Root      3 :     5.284769716266181   Change is   -0.002428726510285
 Root      4 :     5.347234746658869   Change is   -0.008771952969730
 Iteration     8 Dimension    70 NMult    64 NNew      6
 CISAX will form     6 AO SS matrices at one time.
 NMat=     6 NSing=     4 JSym2X= 0.
 Root      1 not converged, maximum delta is    0.001017776140502
 Root      2 not converged, maximum delta is    0.003971994126333
 Root      3 not converged, maximum delta is    0.006506707252359
 Root      4 not converged, maximum delta is    0.034152763315227
 Excitation Energies [eV] at current iteration:
 Root      1 :     3.733034238116521   Change is   -0.000002546139838
 Root      2 :     3.742752901012699   Change is   -0.000047960031000
 Root      3 :     5.283879853411007   Change is   -0.000889862855175
 Root      4 :     5.343382970725895   Change is   -0.003851775932974
 Iteration     9 Dimension    78 NMult    70 NNew      8
 CISAX will form     8 AO SS matrices at one time.
 NMat=     8 NSing=     4 JSym2X= 0.
 Root      1 not converged, maximum delta is    0.007842139680193
 Root      2 not converged, maximum delta is    0.038629599779055
 Root      3 not converged, maximum delta is    0.009367776878232
 Root      4 not converged, maximum delta is    0.009214987802640
 Excitation Energies [eV] at current iteration:
 Root      1 :     3.733011879150815   Change is   -0.000022358965706
 Root      2 :     3.742336031488241   Change is   -0.000416869524458
 Root      3 :     5.283132363402250   Change is   -0.000747490008756
 Root      4 :     5.342292083748789   Change is   -0.001090886977107
 Iteration    10 Dimension    86 NMult    78 NNew      8
 CISAX will form     8 AO SS matrices at one time.
 NMat=     8 NSing=     4 JSym2X= 0.
 Root      1 not converged, maximum delta is    0.030840621225629
 Root      2 not converged, maximum delta is    0.247603863915083
 Root      3 not converged, maximum delta is    0.013477446248768
 Root      4 not converged, maximum delta is    0.007162357645919
 Excitation Energies [eV] at current iteration:
 Root      1 :     3.732939505318567   Change is   -0.000072373832247
 Root      2 :     3.738596064543445   Change is   -0.003739966944796
 Root      3 :     5.282571794379948   Change is   -0.000560569022303
 Root      4 :     5.341846878308450   Change is   -0.000445205440338
 Iteration    11 Dimension    94 NMult    86 NNew      8
 CISAX will form     8 AO SS matrices at one time.
 NMat=     8 NSing=     4 JSym2X= 0.
 Root      1 not converged, maximum delta is    0.022841674243628
 Root      2 not converged, maximum delta is    0.047063831359966
 Root      3 not converged, maximum delta is    0.005276306029269
 Root      4 not converged, maximum delta is    0.016763196015007
 Excitation Energies [eV] at current iteration:
 Root      1 :     3.732886324090395   Change is   -0.000053181228173
 Root      2 :     3.736765900687322   Change is   -0.001830163856123
 Root      3 :     5.282354368841222   Change is   -0.000217425538725
 Root      4 :     5.341255712892400   Change is   -0.000591165416051
 Iteration    12 Dimension   102 NMult    94 NNew      8
 CISAX will form     8 AO SS matrices at one time.
 NMat=     8 NSing=     4 JSym2X= 0.
 Root      1 not converged, maximum delta is    0.005029379203950
 Root      2 not converged, maximum delta is    0.007538915910169
 Root      3 not converged, maximum delta is    0.001498355897002
 Root      4 not converged, maximum delta is    0.023283414688479
 Excitation Energies [eV] at current iteration:
 Root      1 :     3.732875095356868   Change is   -0.000011228733527
 Root      2 :     3.736509499716715   Change is   -0.000256400970606
 Root      3 :     5.282304394294004   Change is   -0.000049974547217
 Root      4 :     5.340602808404364   Change is   -0.000652904488035
 Iteration    13 Dimension   110 NMult   102 NNew      8
 CISAX will form     8 AO SS matrices at one time.
 NMat=     8 NSing=     4 JSym2X= 0.
 Root      1 has converged.
 Root      2 has converged.
 Root      3 has converged.
 Root      4 not converged, maximum delta is    0.008177189160373
 Excitation Energies [eV] at current iteration:
 Root      1 :     3.732874138275987   Change is   -0.000000957080881
 Root      2 :     3.736488806663918   Change is   -0.000020693052797
 Root      3 :     5.282295531984341   Change is   -0.000008862309663
 Root      4 :     5.340346093164010   Change is   -0.000256715240354
 Iteration    14 Dimension   112 NMult   110 NNew      2
 CISAX will form     2 AO SS matrices at one time.
 NMat=     2 NSing=     2 JSym2X= 0.
 Root      1 has converged.
 Root      2 has converged.
 Root      3 has converged.
 Root      4 not converged, maximum delta is    0.001721635891868
 Excitation Energies [eV] at current iteration:
 Root      1 :     3.732874138275900   Change is   -0.000000000000088
 Root      2 :     3.736488806663874   Change is   -0.000000000000045
 Root      3 :     5.282295525573806   Change is   -0.000000006410536
 Root      4 :     5.340297734106204   Change is   -0.000048359057807
 Iteration    15 Dimension   114 NMult   112 NNew      2
 CISAX will form     2 AO SS matrices at one time.
 NMat=     2 NSing=     2 JSym2X= 0.
 Root      1 has converged.
 Root      2 has converged.
 Root      3 has converged.
 Root      4 has converged.
 Excitation Energies [eV] at current iteration:
 Root      1 :     3.732874138275900   Change is    0.000000000000000
 Root      2 :     3.736488806663741   Change is   -0.000000000000132
 Root      3 :     5.282295509841300   Change is   -0.000000015732505
 Root      4 :     5.340287997080592   Change is   -0.000009737025611
 Convergence achieved on expansion vectors.
 ***********************************************************************
 Excited states from <AA,BB:AA,BB> singles matrix:
 ***********************************************************************
 
 1PDM for each excited state written to RWF  633
 Ground to excited state transition densities written to RWF  633
 Ground to excited state transition electric dipole moments (Au):
       state          X           Y           Z        Dip. S.      Osc.
         1         0.0000      0.0000     -0.0000      0.0000      0.0000
         2        -0.0000      0.0000     -0.0000      0.0000      0.0000
         3        -0.0816      0.1609      0.0914      0.0409      0.0053
         4         0.0877     -0.0289      0.0515      0.0112      0.0015
 Ground to excited state transition velocity dipole moments (Au):
       state          X           Y           Z        Dip. S.      Osc.
         1         0.0000     -0.0000      0.0000      0.0000      0.0000
         2         0.0000     -0.0000      0.0000      0.0000      0.0000
         3         0.0169     -0.0267     -0.0122      0.0011      0.0039
         4        -0.0160      0.0038     -0.0066      0.0003      0.0011
 Ground to excited state transition magnetic dipole moments (Au):
       state          X           Y           Z
         1        -0.0000     -0.0000      0.0000
         2         0.0000      0.0000      0.0000
         3         0.2505      0.2718     -0.0568
         4         0.0925      0.1026      0.1789
 Ground to excited state transition velocity quadrupole moments (Au):
       state          XX          YY          ZZ          XY          XZ          YZ
         1        -0.0000     -0.0000      0.0000      0.0000      0.0000      0.0000
         2        -0.0000     -0.0000      0.0000      0.0000     -0.0000     -0.0000
         3        -0.0258      0.1071      0.0213     -0.1101      0.0301      0.0949
         4         0.1219     -0.1434     -0.0725     -0.1471     -0.0059      0.2250
 <0|del|b> * <b|rxdel|0> + <0|del|b> * <b|delr+rdel|0>
 Rotatory Strengths (R) in cgs (10**-40 erg-esu-cm/Gauss)
       state          XX          YY          ZZ    R(velocity)    E-M Angle
         1         0.0000      0.0000     -0.0000      0.0000       90.00
         2         0.0000      0.0000      0.0000      0.0000       90.00
         3        -8.0325      9.4384     -9.8770     -2.8237      100.59
         4         0.3610    -13.0087      4.4795     -2.7227      124.51
 1/2[<0|r|b>*<b|rxdel|0> + (<0|rxdel|b>*<b|r|0>)*]
 Rotatory Strengths (R) in cgs (10**-40 erg-esu-cm/Gauss)
       state          XX          YY          ZZ     R(length)
         1         0.0000      0.0000      0.0000      0.0000
         2         0.0000     -0.0000      0.0000      0.0000
         3        14.4624    -30.9373      3.6693     -4.2686
         4        -5.7344      2.0985     -6.5109     -3.3822
  1/2[<0|del|b>*<b|r|0> + (<0|r|b>*<b|del|0>)*] (Au)
       state          X           Y           Z        Dip. S.   Osc.(frdel)
         1         0.0000     -0.0000     -0.0000      0.0000      0.0000
         2        -0.0000     -0.0000     -0.0000      0.0000      0.0000
         3        -0.0014     -0.0043     -0.0011      0.0068      0.0045
         4        -0.0014     -0.0001     -0.0003      0.0019      0.0012

 Excitation energies and oscillator strengths:
 
 Excited state symmetry could not be determined.
 Excited State   1:      Triplet-?Sym    3.7329 eV  332.14 nm  f=0.0000  <S**2>=2.000
     103 ->112        -0.13228
     104 ->114         0.13685
     104 ->115        -0.13748
     105 ->114        -0.17355
     105 ->115         0.13365
     106 ->112         0.18954
     106 ->113        -0.11580
     106 ->114         0.18380
     108 ->112        -0.24969
     109 ->112         0.17623
     110 ->112         0.25089
     110 ->115         0.10499
     111 ->112         0.13850
 This state for optimization and/or second-order correction.
 Total Energy, E(TD-HF/TD-DFT) =  -1306.79414945    
 Copying the excited state density for this state as the 1-particle RhoCI density.
 
 Excited state symmetry could not be determined.
 Excited State   2:      Triplet-?Sym    3.7365 eV  331.82 nm  f=0.0000  <S**2>=2.000
     103 ->113        -0.18888
     105 ->116         0.19360
     105 ->117        -0.13276
     106 ->116         0.20936
     106 ->117        -0.10924
     107 ->116        -0.11179
     107 ->117         0.14641
     108 ->116         0.11958
     108 ->117        -0.12048
     109 ->113        -0.28856
     109 ->116         0.10106
     110 ->113         0.18360
     111 ->113         0.19447
 
 Excited state symmetry could not be determined.
 Excited State   3:      Singlet-?Sym    5.2823 eV  234.72 nm  f=0.0053  <S**2>=0.000
     102 ->119        -0.14583
     111 ->112         0.21863
     111 ->113        -0.11812
     111 ->114         0.37442
     111 ->116         0.19206
     111 ->117        -0.13650
     111 ->119        -0.32389
 
 Excited state symmetry could not be determined.
 Excited State   4:      Singlet-?Sym    5.3403 eV  232.17 nm  f=0.0015  <S**2>=0.000
     107 ->113         0.13228
     107 ->114        -0.10311
     107 ->115        -0.18099
     108 ->115        -0.10826
     110 ->112        -0.11645
     110 ->114         0.10262
     110 ->117         0.10022
     111 ->112         0.40503
     111 ->114        -0.25340
     111 ->117        -0.19524
 SavETr:  write IOETrn=   770 NScale= 10 NData=  16 NLR=1 NState=    4 LETran=      82.
 Leave Link  914 at Sat Nov  5 09:44:35 2022, MaxMem=   402653184 cpu:           11806.3 elap:             895.4
 (Enter /home/wykgroup/appl/g16/l601.exe)
 Copying SCF densities to generalized density rwf, IOpCl= 0 IROHF=0.

 **********************************************************************

            Population analysis using the SCF Density.

 **********************************************************************

 Alpha  occ. eigenvalues --  -19.11697 -19.11465 -14.37210 -14.36006 -10.28897
 Alpha  occ. eigenvalues --  -10.28626 -10.24398 -10.22657 -10.22225 -10.20023
 Alpha  occ. eigenvalues --  -10.20008 -10.19947 -10.19852 -10.19464 -10.19377
 Alpha  occ. eigenvalues --  -10.19345 -10.19331 -10.19297 -10.19270 -10.19258
 Alpha  occ. eigenvalues --  -10.19247 -10.19229 -10.19178 -10.19139 -10.19130
 Alpha  occ. eigenvalues --  -10.19114 -10.19104 -10.19081 -10.18659 -10.18462
 Alpha  occ. eigenvalues --  -10.16901  -1.03786  -1.03296  -0.93994  -0.91956
 Alpha  occ. eigenvalues --   -0.85821  -0.85531  -0.85411  -0.79973  -0.79355
 Alpha  occ. eigenvalues --   -0.77057  -0.76704  -0.74569  -0.74548  -0.74542
 Alpha  occ. eigenvalues --   -0.73550  -0.69582  -0.69298  -0.68404  -0.65212
 Alpha  occ. eigenvalues --   -0.61945  -0.60808  -0.60728  -0.60575  -0.59001
 Alpha  occ. eigenvalues --   -0.58675  -0.58612  -0.57779  -0.54858  -0.52885
 Alpha  occ. eigenvalues --   -0.51699  -0.51552  -0.50550  -0.50467  -0.47617
 Alpha  occ. eigenvalues --   -0.47246  -0.46579  -0.45945  -0.45847  -0.45528
 Alpha  occ. eigenvalues --   -0.45281  -0.44600  -0.44206  -0.43823  -0.42803
 Alpha  occ. eigenvalues --   -0.42470  -0.42125  -0.42099  -0.41907  -0.41633
 Alpha  occ. eigenvalues --   -0.41065  -0.40789  -0.39631  -0.39425  -0.38838
 Alpha  occ. eigenvalues --   -0.38525  -0.37974  -0.37073  -0.36780  -0.36244
 Alpha  occ. eigenvalues --   -0.36015  -0.35713  -0.35399  -0.34681  -0.34516
 Alpha  occ. eigenvalues --   -0.34228  -0.34055  -0.33984  -0.33830  -0.33725
 Alpha  occ. eigenvalues --   -0.33112  -0.27382  -0.26302  -0.25528  -0.25364
 Alpha  occ. eigenvalues --   -0.25212  -0.25077  -0.24985  -0.24633  -0.24005
 Alpha  occ. eigenvalues --   -0.23135
 Alpha virt. eigenvalues --   -0.01015  -0.00800  -0.00603  -0.00396  -0.00336
 Alpha virt. eigenvalues --   -0.00224   0.01938   0.02051   0.08032   0.08544
 Alpha virt. eigenvalues --    0.08972   0.09304   0.10385   0.11663   0.12085
 Alpha virt. eigenvalues --    0.12472   0.12766   0.13412   0.13594   0.14151
 Alpha virt. eigenvalues --    0.14484   0.14633   0.14954   0.15497   0.15630
 Alpha virt. eigenvalues --    0.16074   0.16395   0.16616   0.16965   0.17409
 Alpha virt. eigenvalues --    0.17575   0.17856   0.18094   0.18334   0.18812
 Alpha virt. eigenvalues --    0.19328   0.19339   0.19720   0.20187   0.20499
 Alpha virt. eigenvalues --    0.20658   0.21000   0.21723   0.22843   0.23465
 Alpha virt. eigenvalues --    0.24074   0.24517   0.25003   0.25735   0.26966
 Alpha virt. eigenvalues --    0.27773   0.29322   0.30324   0.30399   0.30435
 Alpha virt. eigenvalues --    0.31297   0.31703   0.32027   0.32699   0.32868
 Alpha virt. eigenvalues --    0.34099   0.34353   0.34495   0.35306   0.35884
 Alpha virt. eigenvalues --    0.38038   0.38904   0.41806   0.45046   0.45275
 Alpha virt. eigenvalues --    0.46449   0.48036   0.48795   0.49479   0.50417
 Alpha virt. eigenvalues --    0.50940   0.52252   0.52461   0.52918   0.53420
 Alpha virt. eigenvalues --    0.53732   0.54400   0.54627   0.54968   0.55167
 Alpha virt. eigenvalues --    0.55557   0.55946   0.56208   0.56955   0.57094
 Alpha virt. eigenvalues --    0.57467   0.58277   0.58884   0.59069   0.59267
 Alpha virt. eigenvalues --    0.59426   0.59879   0.60132   0.60191   0.60643
 Alpha virt. eigenvalues --    0.60960   0.61031   0.61237   0.61421   0.61508
 Alpha virt. eigenvalues --    0.61668   0.61904   0.62394   0.62796   0.62873
 Alpha virt. eigenvalues --    0.63505   0.64062   0.64849   0.65178   0.65869
 Alpha virt. eigenvalues --    0.66195   0.66352   0.67571   0.67867   0.68487
 Alpha virt. eigenvalues --    0.69181   0.69576   0.70066   0.71070   0.71105
 Alpha virt. eigenvalues --    0.74297   0.74924   0.75261   0.76433   0.77048
 Alpha virt. eigenvalues --    0.78035   0.78471   0.80168   0.80325   0.80983
 Alpha virt. eigenvalues --    0.82429   0.82845   0.82951   0.83306   0.83630
 Alpha virt. eigenvalues --    0.83722   0.83919   0.84327   0.84527   0.84734
 Alpha virt. eigenvalues --    0.85147   0.85776   0.86533   0.86724   0.87197
 Alpha virt. eigenvalues --    0.88325   0.88737   0.89051   0.89200   0.89954
 Alpha virt. eigenvalues --    0.90325   0.90663   0.90720   0.90969   0.91792
 Alpha virt. eigenvalues --    0.92600   0.92947   0.93866   0.94151   0.94535
 Alpha virt. eigenvalues --    0.94871   0.95074   0.95615   0.96073   0.96887
 Alpha virt. eigenvalues --    0.97532   0.98321   0.99198   0.99414   0.99892
 Alpha virt. eigenvalues --    1.00826   1.01523   1.02213   1.03309   1.03974
 Alpha virt. eigenvalues --    1.04227   1.05936   1.06866   1.08117   1.09160
 Alpha virt. eigenvalues --    1.09712   1.10439   1.10933   1.11851   1.12159
 Alpha virt. eigenvalues --    1.12735   1.14430   1.15068   1.15401   1.15735
 Alpha virt. eigenvalues --    1.16939   1.17819   1.18550   1.19183   1.19829
 Alpha virt. eigenvalues --    1.21491   1.22722   1.23188   1.24304   1.25459
 Alpha virt. eigenvalues --    1.25544   1.25860   1.27736   1.29769   1.30710
 Alpha virt. eigenvalues --    1.32242   1.36397   1.38448   1.38825   1.40582
 Alpha virt. eigenvalues --    1.41471   1.41756   1.42671   1.42881   1.43338
 Alpha virt. eigenvalues --    1.44095   1.44780   1.46045   1.46804   1.47752
 Alpha virt. eigenvalues --    1.47820   1.48288   1.48350   1.48723   1.48965
 Alpha virt. eigenvalues --    1.49894   1.50241   1.50483   1.51132   1.51258
 Alpha virt. eigenvalues --    1.51489   1.52363   1.53858   1.54463   1.57661
 Alpha virt. eigenvalues --    1.59899   1.61594   1.61881   1.65609   1.68851
 Alpha virt. eigenvalues --    1.69082   1.70783   1.72494   1.73483   1.73974
 Alpha virt. eigenvalues --    1.77853   1.78206   1.78895   1.79278   1.79880
 Alpha virt. eigenvalues --    1.80179   1.81218   1.81546   1.81986   1.83550
 Alpha virt. eigenvalues --    1.84185   1.84471   1.85768   1.86887   1.87291
 Alpha virt. eigenvalues --    1.88887   1.89280   1.89775   1.90444   1.91212
 Alpha virt. eigenvalues --    1.91854   1.92006   1.92331   1.93200   1.94388
 Alpha virt. eigenvalues --    1.94624   1.96836   1.97220   1.97591   1.97961
 Alpha virt. eigenvalues --    1.98166   1.98614   2.00266   2.02016   2.02878
 Alpha virt. eigenvalues --    2.03310   2.04579   2.04907   2.05344   2.05587
 Alpha virt. eigenvalues --    2.05677   2.07041   2.07694   2.08072   2.09037
 Alpha virt. eigenvalues --    2.10498   2.10954   2.12299   2.13970   2.14257
 Alpha virt. eigenvalues --    2.14506   2.14838   2.15340   2.15644   2.16063
 Alpha virt. eigenvalues --    2.17214   2.17780   2.18442   2.21395   2.22035
 Alpha virt. eigenvalues --    2.23347   2.24588   2.25531   2.26112   2.26870
 Alpha virt. eigenvalues --    2.27923   2.28676   2.30349   2.30455   2.30853
 Alpha virt. eigenvalues --    2.30916   2.31494   2.33512   2.35081   2.35693
 Alpha virt. eigenvalues --    2.37508   2.38346   2.38664   2.40049   2.40900
 Alpha virt. eigenvalues --    2.41077   2.42196   2.43281   2.44934   2.46975
 Alpha virt. eigenvalues --    2.51613   2.52477   2.54864   2.55346   2.57545
 Alpha virt. eigenvalues --    2.58355   2.58431   2.58698   2.59200   2.59890
 Alpha virt. eigenvalues --    2.63004   2.64072   2.65377   2.65805   2.66028
 Alpha virt. eigenvalues --    2.66503   2.68668   2.69118   2.71119   2.72152
 Alpha virt. eigenvalues --    2.72596   2.73190   2.73319   2.74446   2.74594
 Alpha virt. eigenvalues --    2.75100   2.75246   2.75665   2.76635   2.77529
 Alpha virt. eigenvalues --    2.77977   2.80084   2.81252   2.86530   2.90511
 Alpha virt. eigenvalues --    2.91996   2.94758   2.97935   3.00938   3.04997
 Alpha virt. eigenvalues --    3.05315   3.05704   3.07157   3.13928   3.19891
 Alpha virt. eigenvalues --    3.40497   3.40761   3.40804   3.96478   4.06850
 Alpha virt. eigenvalues --    4.08699   4.09462   4.09946   4.10290   4.12191
 Alpha virt. eigenvalues --    4.12384   4.14159   4.14648   4.15556   4.17435
 Alpha virt. eigenvalues --    4.17985   4.23919   4.29120   4.31082   4.31818
 Alpha virt. eigenvalues --    4.33855   4.34572   4.34832   4.37758   4.40834
 Alpha virt. eigenvalues --    4.43286   4.47144   4.48746   4.54868   4.67527
 Alpha virt. eigenvalues --    4.70245   4.70909   4.72538   4.73665
          Condensed to atoms (all electrons):
 Mulliken charges:
               1
     1  C   -0.461323
     2  C   -0.179618
     3  C   -0.436504
     4  C    0.617769
     5  O   -0.525998
     6  N   -0.461851
     7  C   -0.243018
     8  C    0.145520
     9  C   -0.183571
    10  C   -0.134001
    11  C   -0.132647
    12  C   -0.129800
    13  C   -0.195999
    14  C   -0.089447
    15  C   -0.359863
    16  C    0.163631
    17  C   -0.181637
    18  C   -0.128089
    19  C   -0.130876
    20  C   -0.126655
    21  C   -0.188781
    22  C    0.614954
    23  O   -0.528838
    24  N   -0.592853
    25  C   -0.215378
    26  C    0.140390
    27  C   -0.186185
    28  C   -0.127859
    29  C   -0.128254
    30  C   -0.129920
    31  C   -0.167736
    32  H    0.153957
    33  H    0.150101
    34  H    0.162114
    35  H    0.154456
    36  H    0.165620
    37  H    0.156867
    38  H    0.132981
    39  H    0.194821
    40  H    0.155457
    41  H    0.134210
    42  H    0.133634
    43  H    0.131178
    44  H    0.134181
    45  H    0.176204
    46  H    0.184419
    47  H    0.185590
    48  H    0.155749
    49  H    0.131676
    50  H    0.134672
    51  H    0.131506
    52  H    0.131445
    53  H    0.128505
    54  H    0.347103
    55  H    0.163705
    56  H    0.191689
    57  H    0.135325
    58  H    0.130715
    59  H    0.130764
    60  H    0.131399
    61  H    0.134391
 Sum of Mulliken charges =  -0.00000
 Mulliken charges with hydrogens summed into heavy atoms:
               1
     1  C    0.004849
     2  C   -0.025162
     3  C    0.018964
     4  C    0.617769
     5  O   -0.525998
     6  N   -0.461851
     7  C    0.107260
     8  C    0.145520
     9  C   -0.049361
    10  C   -0.000367
    11  C   -0.001469
    12  C    0.004381
    13  C   -0.019795
    14  C    0.094972
    15  C   -0.018524
    16  C    0.163631
    17  C   -0.049961
    18  C    0.006584
    19  C    0.000631
    20  C    0.004790
    21  C   -0.060276
    22  C    0.614954
    23  O   -0.528838
    24  N   -0.245750
    25  C    0.140016
    26  C    0.140390
    27  C   -0.050859
    28  C    0.002857
    29  C    0.002510
    30  C    0.001479
    31  C   -0.033345
 Electronic spatial extent (au):  <R**2>=          13556.0745
 Charge=             -0.0000 electrons
 Dipole moment (field-independent basis, Debye):
    X=              0.1216    Y=             -0.8097    Z=             -1.2238  Tot=              1.4724
 Quadrupole moment (field-independent basis, Debye-Ang):
   XX=           -196.1152   YY=           -167.7466   ZZ=           -171.6523
   XY=             -9.4073   XZ=             -1.4335   YZ=             -4.8735
 Traceless Quadrupole moment (field-independent basis, Debye-Ang):
   XX=            -17.6105   YY=             10.7581   ZZ=              6.8524
   XY=             -9.4073   XZ=             -1.4335   YZ=             -4.8735
 Octapole moment (field-independent basis, Debye-Ang**2):
  XXX=            -69.5248  YYY=            -51.0257  ZZZ=            -83.9333  XYY=            -39.5900
  XXY=             18.4784  XXZ=            -39.0010  XZZ=              8.7541  YZZ=             -5.6491
  YYZ=            -49.0013  XYZ=             -9.7387
 Hexadecapole moment (field-independent basis, Debye-Ang**3):
 XXXX=          -5040.2607 YYYY=          -9503.6191 ZZZZ=          -3758.2473 XXXY=           1879.6691
 XXXZ=            261.4041 YYYX=           1753.8327 YYYZ=            -66.8046 ZZZX=            292.9171
 ZZZY=            190.3635 XXYY=          -2391.4353 XXZZ=          -1381.4171 YYZZ=          -2165.2630
 XXYZ=             45.0587 YYXZ=             93.9055 ZZXY=            529.2254
 N-N= 3.074649349470D+03 E-N=-9.181804532530D+03  KE= 1.294323655436D+03
 Leave Link  601 at Sat Nov  5 09:44:36 2022, MaxMem=   402653184 cpu:               1.8 elap:               0.2
 (Enter /home/wykgroup/appl/g16/l9999.exe)
 Electronic transition elements 
                 1             2             3             4 
      1  -0.130679D+04 -0.130679D+04 -0.130674D+04 -0.130674D+04
      2   0.000000D+00  0.000000D+00 -0.816294D-01  0.876968D-01
      3   0.000000D+00  0.000000D+00  0.160945D+00 -0.289278D-01
      4   0.000000D+00  0.000000D+00  0.913563D-01  0.514676D-01
      5   0.000000D+00  0.000000D+00  0.168824D-01 -0.160068D-01
      6   0.000000D+00  0.000000D+00 -0.266620D-01  0.376824D-02
      7   0.000000D+00  0.000000D+00 -0.121888D-01 -0.655883D-02
      8   0.000000D+00  0.000000D+00  0.250538D+00  0.924655D-01
      9   0.000000D+00  0.000000D+00  0.271822D+00  0.102583D+00
     10   0.000000D+00  0.000000D+00 -0.567961D-01  0.178889D+00
     11   0.000000D+00  0.000000D+00 -0.258259D-01  0.121921D+00
     12   0.000000D+00  0.000000D+00  0.107101D+00 -0.143440D+00
     13   0.000000D+00  0.000000D+00  0.212589D-01 -0.724936D-01
     14   0.000000D+00  0.000000D+00 -0.110107D+00 -0.147123D+00
     15   0.000000D+00  0.000000D+00  0.301201D-01 -0.587878D-02
     16   0.000000D+00  0.000000D+00  0.948852D-01  0.225029D+00
 1\1\GINC-NODE69\SP\RB3LYP TD-FC\6-31G(d)\C27H30N2O2\WYKGROUP\05-Nov-20
 22\0\\#p b3lyp/6-31g(d) 6D 10F nosymm GFInput td=(50-50,nstate=2) SCF=
 XQC\\Gaussian input prepared by ASE\\0,1\C,0,-1.167971285,-0.096091068
 3,-2.5043319679\C,0,-1.8470019593,0.9917688348,-1.64466265\C,0,-3.2689
 317857,1.2825896042,-2.1417334731\C,0,-1.8989825568,0.5273496228,-0.17
 9716129\O,0,-2.9074953132,-0.0276264352,0.2519814845\N,0,-0.7831252875
 ,0.6699440253,0.6351161474\C,0,-0.9585935742,0.2813568646,2.0560159897
 \C,0,-0.5965148313,-1.152896263,2.4103762086\C,0,0.4330439877,-1.40931
 38777,3.3253131798\C,0,0.7584434654,-2.717348157,3.6918776988\C,0,0.05
 74459964,-3.7911650226,3.1404091165\C,0,-0.972811481,-3.5460718606,2.2
 286994466\C,0,-1.3040232005,-2.2385106203,1.8700268757\C,0,0.414466346
 8,1.4443595604,0.2762852289\C,0,0.4947078958,2.8465868689,0.9308535397
 \C,0,-0.5734533875,3.79829265,0.4407120687\C,0,-1.826124724,3.87466150
 53,1.0652465731\C,0,-2.8160306242,4.7354217146,0.5867246214\C,0,-2.568
 0116067,5.5387685848,-0.5274343572\C,0,-1.3224589684,5.4785948597,-1.1
 55882912\C,0,-0.3363378654,4.6172785341,-0.6735379375\C,0,1.7325432814
 ,0.6544145453,0.5070968912\O,0,2.7612709765,1.2182634789,0.8642839787\
 N,0,1.6714205511,-0.6628201779,0.1727599399\C,0,2.8024304637,-1.570472
 6026,0.3580469655\C,0,2.8796696549,-2.5996999927,-0.7498981561\C,0,2.5
 374979801,-3.9344129329,-0.5079187538\C,0,2.5992435129,-4.8830250693,-
 1.5318120168\C,0,3.0036475777,-4.5039437797,-2.8116076891\C,0,3.345087
 2925,-3.172129666,-3.0642061618\C,0,3.282702246,-2.2284401364,-2.04049
 82583\H,0,-1.1644956791,0.2034739373,-3.5581871231\H,0,-0.1300426096,-
 0.2828977018,-2.2060727578\H,0,-1.7173861113,-1.0410271165,-2.42408764
 49\H,0,-1.2731147541,1.9193817774,-1.7284389945\H,0,-3.8995380902,0.39
 37544456,-2.0590597071\H,0,-3.7337060831,2.0805161541,-1.5545100648\H,
 0,-3.2378974869,1.6009288559,-3.1898644439\H,0,-2.0088488127,0.4608404
 389,2.3004960114\H,0,-0.3497342003,0.9568719869,2.6615379232\H,0,0.988
 0806572,-0.577970063,3.7548565067\H,0,1.5571222025,-2.8946868848,4.407
 5179375\H,0,0.3053124703,-4.8103180667,3.4255127079\H,0,-1.5311265413,
 -4.3763564873,1.8038447811\H,0,-2.1214942325,-2.0451279019,1.182960097
 7\H,0,0.3827535311,1.5965286851,-0.8043035908\H,0,1.4914433721,3.23425
 21087,0.705171847\H,0,0.4514729684,2.7512319844,2.0211878317\H,0,-2.02
 75406505,3.2609170361,1.939992599\H,0,-3.7792047671,4.7803210756,1.088
 1822376\H,0,-3.3363737331,6.211345852,-0.8989680901\H,0,-1.1153372948,
 6.1079607007,-2.0175453894\H,0,0.6357838891,4.5843913283,-1.1617129855
 \H,0,0.755090384,-1.077516089,0.0629620823\H,0,2.7211400323,-2.0704391
 854,1.3319505519\H,0,3.695284184,-0.9403504954,0.3839701604\H,0,2.2161
 084693,-4.2304120727,0.4882004686\H,0,2.3313481299,-5.9164637403,-1.32
 79636116\H,0,3.0544658411,-5.2404817632,-3.6091086253\H,0,3.6644543841
 ,-2.8713770418,-4.0586773058\H,0,3.550223753,-1.1929693492,-2.23842890
 19\\Version=ES64L-G16RevB.01\HF=-1306.93133\RMSD=6.590e-09\PG=C01 [X(C
 27H30N2O2)]\\@


 THE MEEK SHALL INHERIT THE EARTH.
 (THE REST OF US WILL ESCAPE TO THE STARS)
 Job cpu time:       0 days  3 hours 33 minutes  7.4 seconds.
 Elapsed time:       0 days  0 hours 16 minutes 11.4 seconds.
 File lengths (MBytes):  RWF=   1661 Int=      0 D2E=      0 Chk=     58 Scr=      1
 Normal termination of Gaussian 16 at Sat Nov  5 09:44:36 2022.
