 Entering Gaussian System, Link 0=/home/wykgroup/appl/g16/g16
 Input=calculation/no_transfer_pubchem_sampling_5_b3lyp/136795247_rwf.com
 Output=calculation/no_transfer_pubchem_sampling_5_b3lyp/136795247_rwf.log
 Initial command:
 /home/wykgroup/appl/g16/l1.exe "/userdata/scratch/wykgroup/khs/calculation/no_transfer_pubchem_sampling_5_b3lyp/136795247_rwf/Gau-15829.inp" -scrdir="/userdata/scratch/wykgroup/khs/calculation/no_transfer_pubchem_sampling_5_b3lyp/136795247_rwf/"
 Entering Link 1 = /home/wykgroup/appl/g16/l1.exe PID=     15830.
  
 Copyright (c) 1988-2017, Gaussian, Inc.  All Rights Reserved.
  
 This is part of the Gaussian(R) 16 program.  It is based on
 the Gaussian(R) 09 system (copyright 2009, Gaussian, Inc.),
 the Gaussian(R) 03 system (copyright 2003, Gaussian, Inc.),
 the Gaussian(R) 98 system (copyright 1998, Gaussian, Inc.),
 the Gaussian(R) 94 system (copyright 1995, Gaussian, Inc.),
 the Gaussian 92(TM) system (copyright 1992, Gaussian, Inc.),
 the Gaussian 90(TM) system (copyright 1990, Gaussian, Inc.),
 the Gaussian 88(TM) system (copyright 1988, Gaussian, Inc.),
 the Gaussian 86(TM) system (copyright 1986, Carnegie Mellon
 University), and the Gaussian 82(TM) system (copyright 1983,
 Carnegie Mellon University). Gaussian is a federally registered
 trademark of Gaussian, Inc.
  
 This software contains proprietary and confidential information,
 including trade secrets, belonging to Gaussian, Inc.
  
 This software is provided under written license and may be
 used, copied, transmitted, or stored only in accord with that
 written license.
  
 The following legend is applicable only to US Government
 contracts under FAR:
  
                    RESTRICTED RIGHTS LEGEND
  
 Use, reproduction and disclosure by the US Government is
 subject to restrictions as set forth in subparagraphs (a)
 and (c) of the Commercial Computer Software - Restricted
 Rights clause in FAR 52.227-19.
  
 Gaussian, Inc.
 340 Quinnipiac St., Bldg. 40, Wallingford CT 06492
  
  
 ---------------------------------------------------------------
 Warning -- This program may not be used in any manner that
 competes with the business of Gaussian, Inc. or will provide
 assistance to any competitor of Gaussian, Inc.  The licensee
 of this program is prohibited from giving any competitor of
 Gaussian, Inc. access to this program.  By using this program,
 the user acknowledges that Gaussian, Inc. is engaged in the
 business of creating and licensing software in the field of
 computational chemistry and represents and warrants to the
 licensee that it is not a competitor of Gaussian, Inc. and that
 it will not use this program in any manner prohibited above.
 ---------------------------------------------------------------
  

 Cite this work as:
 Gaussian 16, Revision B.01,
 M. J. Frisch, G. W. Trucks, H. B. Schlegel, G. E. Scuseria, 
 M. A. Robb, J. R. Cheeseman, G. Scalmani, V. Barone, 
 G. A. Petersson, H. Nakatsuji, X. Li, M. Caricato, A. V. Marenich, 
 J. Bloino, B. G. Janesko, R. Gomperts, B. Mennucci, H. P. Hratchian, 
 J. V. Ortiz, A. F. Izmaylov, J. L. Sonnenberg, D. Williams-Young, 
 F. Ding, F. Lipparini, F. Egidi, J. Goings, B. Peng, A. Petrone, 
 T. Henderson, D. Ranasinghe, V. G. Zakrzewski, J. Gao, N. Rega, 
 G. Zheng, W. Liang, M. Hada, M. Ehara, K. Toyota, R. Fukuda, 
 J. Hasegawa, M. Ishida, T. Nakajima, Y. Honda, O. Kitao, H. Nakai, 
 T. Vreven, K. Throssell, J. A. Montgomery, Jr., J. E. Peralta, 
 F. Ogliaro, M. J. Bearpark, J. J. Heyd, E. N. Brothers, K. N. Kudin, 
 V. N. Staroverov, T. A. Keith, R. Kobayashi, J. Normand, 
 K. Raghavachari, A. P. Rendell, J. C. Burant, S. S. Iyengar, 
 J. Tomasi, M. Cossi, J. M. Millam, M. Klene, C. Adamo, R. Cammi, 
 J. W. Ochterski, R. L. Martin, K. Morokuma, O. Farkas, 
 J. B. Foresman, and D. J. Fox, Gaussian, Inc., Wallingford CT, 2016.
 
 ******************************************
 Gaussian 16:  ES64L-G16RevB.01 20-Dec-2017
                 5-Nov-2022 
 ******************************************
 %chk=calculation/no_transfer_pubchem_sampling_5_b3lyp/136795247_rwf.chk
 %rwf=calculation/no_transfer_pubchem_sampling_5_b3lyp/136795247_rwf.rwf
 %nprocshared=14
 Will use up to   14 processors via shared memory.
 %mem=3GB
 -------------------------------------------------------------------
 #p b3lyp/6-31g(d) 6D 10F nosymm GFInput td=(50-50,nstate=2) SCF=XQC
 -------------------------------------------------------------------
 1/38=1,172=1/1;
 2/12=2,15=1,17=6,18=5,40=1/2;
 3/5=1,6=6,7=1,8=22,11=9,24=10,25=1,30=1,74=-5/1,2,3,8;
 4//1;
 5/5=2,8=3,13=1,38=5/2,8;
 8/6=1,10=2,108=2/1;
 9/41=2,42=1,48=2,70=2/14;
 6/7=2,8=2,9=2,10=2/1;
 99/5=1,9=1/99;
 Leave Link    1 at Sat Nov  5 09:29:11 2022, MaxMem=   402653184 cpu:              11.7 elap:               1.0
 (Enter /home/wykgroup/appl/g16/l101.exe)
 ------------------------------
 Gaussian input prepared by ASE
 ------------------------------
 Symbolic Z-matrix:
 Charge =  0 Multiplicity = 1
 C                     2.49496   2.07465  -0.64316 
 C                     1.11952   1.4842   -0.44903 
 C                     0.00591   2.29584  -0.13331 
 C                     0.21475   3.6917    0.09976 
 N                     0.4327    4.81997   0.29114 
 C                    -1.27604   1.69479  -0.00094 
 C                    -2.51796   2.45918   0.30335 
 C                    -3.49853   1.85721   1.11057 
 C                    -4.68167   2.52722   1.40876 
 C                    -4.91606   3.80338   0.89064 
 C                    -3.95963   4.40072   0.06933 
 C                    -2.76843   3.73634  -0.22244 
 N                    -1.43414   0.37747  -0.12335 
 C                    -0.39099  -0.42556  -0.40721 
 C                    -0.61852  -1.85916  -0.52552 
 C                    -1.78089  -2.56011  -0.50263 
 O                    -1.63805  -3.92315  -0.42763 
 C                    -3.18897  -2.10033  -0.54523 
 C                    -4.12483  -2.68644   0.32484 
 C                    -5.47364  -2.33565   0.25716 
 C                    -5.9062   -1.41229  -0.69461 
 C                    -4.98419  -0.83641  -1.57393 
 C                    -3.63625  -1.1745   -1.50037 
 C                     0.91313   0.1066   -0.58051 
 C                     2.09069  -0.75825  -0.97749 
 O                     2.5655   -0.7272   -2.10859 
 N                     2.58492  -1.54963   0.02018 
 C                     3.76441  -2.4001   -0.15536 
 C                     5.04655  -1.76562   0.35025 
 C                     5.6451   -0.71908  -0.36762 
 C                     6.81129  -0.11711   0.10291 
 C                     7.39722  -0.55442   1.29432 
 C                     6.81153  -1.59777   2.01115 
 C                     5.64174  -2.19853   1.53951 
 H                     3.24495   1.52113  -0.06779 
 H                     2.53339   3.12346  -0.34509 
 H                     2.78444   1.99762  -1.69672 
 H                    -3.31745   0.85946   1.49476 
 H                    -5.42347   2.05178   2.04497 
 H                    -5.84026   4.32634   1.12217 
 H                    -4.1385    5.38655  -0.35086 
 H                    -2.04537   4.21208  -0.87503 
 H                     0.2688   -2.47908  -0.59234 
 H                    -2.48879  -4.33223  -0.65575 
 H                    -3.78764  -3.39582   1.07669 
 H                    -6.18283  -2.78382   0.9477 
 H                    -6.95682  -1.1414   -0.75349 
 H                    -5.31822  -0.12124  -2.32019 
 H                    -2.92251  -0.7293   -2.18411 
 H                     2.21401  -1.4274    0.95313 
 H                     3.83045  -2.60292  -1.22689 
 H                     3.58079  -3.34904   0.36005 
 H                     5.19004  -0.38689  -1.29709 
 H                     7.26824   0.69009  -0.46357 
 H                     8.30774  -0.08605   1.65834 
 H                     7.26359  -1.94622   2.93606 
 H                     5.19051  -3.01505   2.10008 
 
 ITRead=  0  0  0  0  0  0  0  0  0  0  0  0  0  0  0  0  0  0  0  0
 ITRead=  0  0  0  0  0  0  0  0  0  0  0  0  0  0  0  0  0  0  0  0
 ITRead=  0  0  0  0  0  0  0  0  0  0  0  0  0  0  0  0  0
 MicOpt= -1 -1 -1 -1 -1 -1 -1 -1 -1 -1 -1 -1 -1 -1 -1 -1 -1 -1 -1 -1
 MicOpt= -1 -1 -1 -1 -1 -1 -1 -1 -1 -1 -1 -1 -1 -1 -1 -1 -1 -1 -1 -1
 MicOpt= -1 -1 -1 -1 -1 -1 -1 -1 -1 -1 -1 -1 -1 -1 -1 -1 -1
 NAtoms=     57 NQM=       57 NQMF=       0 NMMI=      0 NMMIF=      0
                NMic=       0 NMicF=      0.
                    Isotopes and Nuclear Properties:
 (Nuclear quadrupole moments (NQMom) in fm**2, nuclear magnetic moments (NMagM)
  in nuclear magnetons)

  Atom         1           2           3           4           5           6           7           8           9          10
 IAtWgt=          12          12          12          12          14          12          12          12          12          12
 AtmWgt=  12.0000000  12.0000000  12.0000000  12.0000000  14.0030740  12.0000000  12.0000000  12.0000000  12.0000000  12.0000000
 NucSpn=           0           0           0           0           2           0           0           0           0           0
 AtZEff=  -0.0000000  -0.0000000  -0.0000000  -0.0000000  -0.0000000  -0.0000000  -0.0000000  -0.0000000  -0.0000000  -0.0000000
 NQMom=    0.0000000   0.0000000   0.0000000   0.0000000   2.0440000   0.0000000   0.0000000   0.0000000   0.0000000   0.0000000
 NMagM=    0.0000000   0.0000000   0.0000000   0.0000000   0.4037610   0.0000000   0.0000000   0.0000000   0.0000000   0.0000000
 AtZNuc=   6.0000000   6.0000000   6.0000000   6.0000000   7.0000000   6.0000000   6.0000000   6.0000000   6.0000000   6.0000000

  Atom        11          12          13          14          15          16          17          18          19          20
 IAtWgt=          12          12          14          12          12          12          16          12          12          12
 AtmWgt=  12.0000000  12.0000000  14.0030740  12.0000000  12.0000000  12.0000000  15.9949146  12.0000000  12.0000000  12.0000000
 NucSpn=           0           0           2           0           0           0           0           0           0           0
 AtZEff=  -0.0000000  -0.0000000  -0.0000000  -0.0000000  -0.0000000  -0.0000000  -0.0000000  -0.0000000  -0.0000000  -0.0000000
 NQMom=    0.0000000   0.0000000   2.0440000   0.0000000   0.0000000   0.0000000   0.0000000   0.0000000   0.0000000   0.0000000
 NMagM=    0.0000000   0.0000000   0.4037610   0.0000000   0.0000000   0.0000000   0.0000000   0.0000000   0.0000000   0.0000000
 AtZNuc=   6.0000000   6.0000000   7.0000000   6.0000000   6.0000000   6.0000000   8.0000000   6.0000000   6.0000000   6.0000000

  Atom        21          22          23          24          25          26          27          28          29          30
 IAtWgt=          12          12          12          12          12          16          14          12          12          12
 AtmWgt=  12.0000000  12.0000000  12.0000000  12.0000000  12.0000000  15.9949146  14.0030740  12.0000000  12.0000000  12.0000000
 NucSpn=           0           0           0           0           0           0           2           0           0           0
 AtZEff=  -0.0000000  -0.0000000  -0.0000000  -0.0000000  -0.0000000  -0.0000000  -0.0000000  -0.0000000  -0.0000000  -0.0000000
 NQMom=    0.0000000   0.0000000   0.0000000   0.0000000   0.0000000   0.0000000   2.0440000   0.0000000   0.0000000   0.0000000
 NMagM=    0.0000000   0.0000000   0.0000000   0.0000000   0.0000000   0.0000000   0.4037610   0.0000000   0.0000000   0.0000000
 AtZNuc=   6.0000000   6.0000000   6.0000000   6.0000000   6.0000000   8.0000000   7.0000000   6.0000000   6.0000000   6.0000000

  Atom        31          32          33          34          35          36          37          38          39          40
 IAtWgt=          12          12          12          12           1           1           1           1           1           1
 AtmWgt=  12.0000000  12.0000000  12.0000000  12.0000000   1.0078250   1.0078250   1.0078250   1.0078250   1.0078250   1.0078250
 NucSpn=           0           0           0           0           1           1           1           1           1           1
 AtZEff=  -0.0000000  -0.0000000  -0.0000000  -0.0000000  -0.0000000  -0.0000000  -0.0000000  -0.0000000  -0.0000000  -0.0000000
 NQMom=    0.0000000   0.0000000   0.0000000   0.0000000   0.0000000   0.0000000   0.0000000   0.0000000   0.0000000   0.0000000
 NMagM=    0.0000000   0.0000000   0.0000000   0.0000000   2.7928460   2.7928460   2.7928460   2.7928460   2.7928460   2.7928460
 AtZNuc=   6.0000000   6.0000000   6.0000000   6.0000000   1.0000000   1.0000000   1.0000000   1.0000000   1.0000000   1.0000000

  Atom        41          42          43          44          45          46          47          48          49          50
 IAtWgt=           1           1           1           1           1           1           1           1           1           1
 AtmWgt=   1.0078250   1.0078250   1.0078250   1.0078250   1.0078250   1.0078250   1.0078250   1.0078250   1.0078250   1.0078250
 NucSpn=           1           1           1           1           1           1           1           1           1           1
 AtZEff=  -0.0000000  -0.0000000  -0.0000000  -0.0000000  -0.0000000  -0.0000000  -0.0000000  -0.0000000  -0.0000000  -0.0000000
 NQMom=    0.0000000   0.0000000   0.0000000   0.0000000   0.0000000   0.0000000   0.0000000   0.0000000   0.0000000   0.0000000
 NMagM=    2.7928460   2.7928460   2.7928460   2.7928460   2.7928460   2.7928460   2.7928460   2.7928460   2.7928460   2.7928460
 AtZNuc=   1.0000000   1.0000000   1.0000000   1.0000000   1.0000000   1.0000000   1.0000000   1.0000000   1.0000000   1.0000000

  Atom        51          52          53          54          55          56          57
 IAtWgt=           1           1           1           1           1           1           1
 AtmWgt=   1.0078250   1.0078250   1.0078250   1.0078250   1.0078250   1.0078250   1.0078250
 NucSpn=           1           1           1           1           1           1           1
 AtZEff=  -0.0000000  -0.0000000  -0.0000000  -0.0000000  -0.0000000  -0.0000000  -0.0000000
 NQMom=    0.0000000   0.0000000   0.0000000   0.0000000   0.0000000   0.0000000   0.0000000
 NMagM=    2.7928460   2.7928460   2.7928460   2.7928460   2.7928460   2.7928460   2.7928460
 AtZNuc=   1.0000000   1.0000000   1.0000000   1.0000000   1.0000000   1.0000000   1.0000000
 Leave Link  101 at Sat Nov  5 09:29:11 2022, MaxMem=   402653184 cpu:               2.2 elap:               0.2
 (Enter /home/wykgroup/appl/g16/l202.exe)
 Symmetry turned off by external request.
 Stoichiometry    C29H23N3O2
 Framework group  C1[X(C29H23N3O2)]
 Deg. of freedom   165
 Full point group                 C1      NOp   1
                          Input orientation:                          
 ---------------------------------------------------------------------
 Center     Atomic      Atomic             Coordinates (Angstroms)
 Number     Number       Type             X           Y           Z
 ---------------------------------------------------------------------
      1          6           0        2.494960    2.074646   -0.643160
      2          6           0        1.119523    1.484196   -0.449027
      3          6           0        0.005910    2.295841   -0.133314
      4          6           0        0.214752    3.691703    0.099764
      5          7           0        0.432703    4.819969    0.291145
      6          6           0       -1.276037    1.694795   -0.000943
      7          6           0       -2.517960    2.459183    0.303353
      8          6           0       -3.498531    1.857214    1.110569
      9          6           0       -4.681672    2.527221    1.408756
     10          6           0       -4.916055    3.803377    0.890643
     11          6           0       -3.959630    4.400718    0.069333
     12          6           0       -2.768434    3.736338   -0.222443
     13          7           0       -1.434143    0.377468   -0.123345
     14          6           0       -0.390992   -0.425560   -0.407209
     15          6           0       -0.618521   -1.859157   -0.525522
     16          6           0       -1.780893   -2.560111   -0.502627
     17          8           0       -1.638046   -3.923149   -0.427629
     18          6           0       -3.188972   -2.100333   -0.545231
     19          6           0       -4.124826   -2.686442    0.324844
     20          6           0       -5.473641   -2.335651    0.257158
     21          6           0       -5.906200   -1.412288   -0.694610
     22          6           0       -4.984192   -0.836411   -1.573927
     23          6           0       -3.636246   -1.174501   -1.500371
     24          6           0        0.913132    0.106600   -0.580506
     25          6           0        2.090688   -0.758246   -0.977490
     26          8           0        2.565498   -0.727203   -2.108591
     27          7           0        2.584919   -1.549627    0.020184
     28          6           0        3.764409   -2.400095   -0.155359
     29          6           0        5.046550   -1.765620    0.350245
     30          6           0        5.645098   -0.719083   -0.367616
     31          6           0        6.811289   -0.117110    0.102909
     32          6           0        7.397216   -0.554423    1.294324
     33          6           0        6.811525   -1.597769    2.011151
     34          6           0        5.641743   -2.198534    1.539508
     35          1           0        3.244954    1.521126   -0.067791
     36          1           0        2.533385    3.123460   -0.345094
     37          1           0        2.784438    1.997624   -1.696724
     38          1           0       -3.317450    0.859461    1.494762
     39          1           0       -5.423475    2.051777    2.044967
     40          1           0       -5.840263    4.326341    1.122168
     41          1           0       -4.138498    5.386547   -0.350857
     42          1           0       -2.045374    4.212084   -0.875029
     43          1           0        0.268801   -2.479079   -0.592340
     44          1           0       -2.488792   -4.332230   -0.655747
     45          1           0       -3.787642   -3.395824    1.076692
     46          1           0       -6.182833   -2.783825    0.947701
     47          1           0       -6.956818   -1.141405   -0.753494
     48          1           0       -5.318220   -0.121241   -2.320191
     49          1           0       -2.922512   -0.729296   -2.184110
     50          1           0        2.214013   -1.427404    0.953133
     51          1           0        3.830453   -2.602919   -1.226889
     52          1           0        3.580789   -3.349042    0.360052
     53          1           0        5.190042   -0.386892   -1.297090
     54          1           0        7.268236    0.690090   -0.463570
     55          1           0        8.307735   -0.086045    1.658340
     56          1           0        7.263588   -1.946220    2.936063
     57          1           0        5.190515   -3.015047    2.100083
 ---------------------------------------------------------------------
 Rotational constants (GHZ):           0.1879524           0.0708156           0.0552374
 Leave Link  202 at Sat Nov  5 09:29:11 2022, MaxMem=   402653184 cpu:               0.8 elap:               0.1
 (Enter /home/wykgroup/appl/g16/l301.exe)
 Standard basis: 6-31G(d) (6D, 10F)
 Ernie: Thresh=  0.10000D-02 Tol=  0.10000D-05 Strict=F.
 AO basis set in the form of general basis input (Overlap normalization):
      1 0
 S   6 1.00       0.000000000000
      0.3047524880D+04  0.1834737132D-02
      0.4573695180D+03  0.1403732281D-01
      0.1039486850D+03  0.6884262226D-01
      0.2921015530D+02  0.2321844432D+00
      0.9286662960D+01  0.4679413484D+00
      0.3163926960D+01  0.3623119853D+00
 SP   3 1.00       0.000000000000
      0.7868272350D+01 -0.1193324198D+00  0.6899906659D-01
      0.1881288540D+01 -0.1608541517D+00  0.3164239610D+00
      0.5442492580D+00  0.1143456438D+01  0.7443082909D+00
 SP   1 1.00       0.000000000000
      0.1687144782D+00  0.1000000000D+01  0.1000000000D+01
 D   1 1.00       0.000000000000
      0.8000000000D+00  0.1000000000D+01
 ****
      2 0
 S   6 1.00       0.000000000000
      0.3047524880D+04  0.1834737132D-02
      0.4573695180D+03  0.1403732281D-01
      0.1039486850D+03  0.6884262226D-01
      0.2921015530D+02  0.2321844432D+00
      0.9286662960D+01  0.4679413484D+00
      0.3163926960D+01  0.3623119853D+00
 SP   3 1.00       0.000000000000
      0.7868272350D+01 -0.1193324198D+00  0.6899906659D-01
      0.1881288540D+01 -0.1608541517D+00  0.3164239610D+00
      0.5442492580D+00  0.1143456438D+01  0.7443082909D+00
 SP   1 1.00       0.000000000000
      0.1687144782D+00  0.1000000000D+01  0.1000000000D+01
 D   1 1.00       0.000000000000
      0.8000000000D+00  0.1000000000D+01
 ****
      3 0
 S   6 1.00       0.000000000000
      0.3047524880D+04  0.1834737132D-02
      0.4573695180D+03  0.1403732281D-01
      0.1039486850D+03  0.6884262226D-01
      0.2921015530D+02  0.2321844432D+00
      0.9286662960D+01  0.4679413484D+00
      0.3163926960D+01  0.3623119853D+00
 SP   3 1.00       0.000000000000
      0.7868272350D+01 -0.1193324198D+00  0.6899906659D-01
      0.1881288540D+01 -0.1608541517D+00  0.3164239610D+00
      0.5442492580D+00  0.1143456438D+01  0.7443082909D+00
 SP   1 1.00       0.000000000000
      0.1687144782D+00  0.1000000000D+01  0.1000000000D+01
 D   1 1.00       0.000000000000
      0.8000000000D+00  0.1000000000D+01
 ****
      4 0
 S   6 1.00       0.000000000000
      0.3047524880D+04  0.1834737132D-02
      0.4573695180D+03  0.1403732281D-01
      0.1039486850D+03  0.6884262226D-01
      0.2921015530D+02  0.2321844432D+00
      0.9286662960D+01  0.4679413484D+00
      0.3163926960D+01  0.3623119853D+00
 SP   3 1.00       0.000000000000
      0.7868272350D+01 -0.1193324198D+00  0.6899906659D-01
      0.1881288540D+01 -0.1608541517D+00  0.3164239610D+00
      0.5442492580D+00  0.1143456438D+01  0.7443082909D+00
 SP   1 1.00       0.000000000000
      0.1687144782D+00  0.1000000000D+01  0.1000000000D+01
 D   1 1.00       0.000000000000
      0.8000000000D+00  0.1000000000D+01
 ****
      5 0
 S   6 1.00       0.000000000000
      0.4173511460D+04  0.1834772160D-02
      0.6274579110D+03  0.1399462700D-01
      0.1429020930D+03  0.6858655181D-01
      0.4023432930D+02  0.2322408730D+00
      0.1282021290D+02  0.4690699481D+00
      0.4390437010D+01  0.3604551991D+00
 SP   3 1.00       0.000000000000
      0.1162636186D+02 -0.1149611817D+00  0.6757974388D-01
      0.2716279807D+01 -0.1691174786D+00  0.3239072959D+00
      0.7722183966D+00  0.1145851947D+01  0.7408951398D+00
 SP   1 1.00       0.000000000000
      0.2120314975D+00  0.1000000000D+01  0.1000000000D+01
 D   1 1.00       0.000000000000
      0.8000000000D+00  0.1000000000D+01
 ****
      6 0
 S   6 1.00       0.000000000000
      0.3047524880D+04  0.1834737132D-02
      0.4573695180D+03  0.1403732281D-01
      0.1039486850D+03  0.6884262226D-01
      0.2921015530D+02  0.2321844432D+00
      0.9286662960D+01  0.4679413484D+00
      0.3163926960D+01  0.3623119853D+00
 SP   3 1.00       0.000000000000
      0.7868272350D+01 -0.1193324198D+00  0.6899906659D-01
      0.1881288540D+01 -0.1608541517D+00  0.3164239610D+00
      0.5442492580D+00  0.1143456438D+01  0.7443082909D+00
 SP   1 1.00       0.000000000000
      0.1687144782D+00  0.1000000000D+01  0.1000000000D+01
 D   1 1.00       0.000000000000
      0.8000000000D+00  0.1000000000D+01
 ****
      7 0
 S   6 1.00       0.000000000000
      0.3047524880D+04  0.1834737132D-02
      0.4573695180D+03  0.1403732281D-01
      0.1039486850D+03  0.6884262226D-01
      0.2921015530D+02  0.2321844432D+00
      0.9286662960D+01  0.4679413484D+00
      0.3163926960D+01  0.3623119853D+00
 SP   3 1.00       0.000000000000
      0.7868272350D+01 -0.1193324198D+00  0.6899906659D-01
      0.1881288540D+01 -0.1608541517D+00  0.3164239610D+00
      0.5442492580D+00  0.1143456438D+01  0.7443082909D+00
 SP   1 1.00       0.000000000000
      0.1687144782D+00  0.1000000000D+01  0.1000000000D+01
 D   1 1.00       0.000000000000
      0.8000000000D+00  0.1000000000D+01
 ****
      8 0
 S   6 1.00       0.000000000000
      0.3047524880D+04  0.1834737132D-02
      0.4573695180D+03  0.1403732281D-01
      0.1039486850D+03  0.6884262226D-01
      0.2921015530D+02  0.2321844432D+00
      0.9286662960D+01  0.4679413484D+00
      0.3163926960D+01  0.3623119853D+00
 SP   3 1.00       0.000000000000
      0.7868272350D+01 -0.1193324198D+00  0.6899906659D-01
      0.1881288540D+01 -0.1608541517D+00  0.3164239610D+00
      0.5442492580D+00  0.1143456438D+01  0.7443082909D+00
 SP   1 1.00       0.000000000000
      0.1687144782D+00  0.1000000000D+01  0.1000000000D+01
 D   1 1.00       0.000000000000
      0.8000000000D+00  0.1000000000D+01
 ****
      9 0
 S   6 1.00       0.000000000000
      0.3047524880D+04  0.1834737132D-02
      0.4573695180D+03  0.1403732281D-01
      0.1039486850D+03  0.6884262226D-01
      0.2921015530D+02  0.2321844432D+00
      0.9286662960D+01  0.4679413484D+00
      0.3163926960D+01  0.3623119853D+00
 SP   3 1.00       0.000000000000
      0.7868272350D+01 -0.1193324198D+00  0.6899906659D-01
      0.1881288540D+01 -0.1608541517D+00  0.3164239610D+00
      0.5442492580D+00  0.1143456438D+01  0.7443082909D+00
 SP   1 1.00       0.000000000000
      0.1687144782D+00  0.1000000000D+01  0.1000000000D+01
 D   1 1.00       0.000000000000
      0.8000000000D+00  0.1000000000D+01
 ****
     10 0
 S   6 1.00       0.000000000000
      0.3047524880D+04  0.1834737132D-02
      0.4573695180D+03  0.1403732281D-01
      0.1039486850D+03  0.6884262226D-01
      0.2921015530D+02  0.2321844432D+00
      0.9286662960D+01  0.4679413484D+00
      0.3163926960D+01  0.3623119853D+00
 SP   3 1.00       0.000000000000
      0.7868272350D+01 -0.1193324198D+00  0.6899906659D-01
      0.1881288540D+01 -0.1608541517D+00  0.3164239610D+00
      0.5442492580D+00  0.1143456438D+01  0.7443082909D+00
 SP   1 1.00       0.000000000000
      0.1687144782D+00  0.1000000000D+01  0.1000000000D+01
 D   1 1.00       0.000000000000
      0.8000000000D+00  0.1000000000D+01
 ****
     11 0
 S   6 1.00       0.000000000000
      0.3047524880D+04  0.1834737132D-02
      0.4573695180D+03  0.1403732281D-01
      0.1039486850D+03  0.6884262226D-01
      0.2921015530D+02  0.2321844432D+00
      0.9286662960D+01  0.4679413484D+00
      0.3163926960D+01  0.3623119853D+00
 SP   3 1.00       0.000000000000
      0.7868272350D+01 -0.1193324198D+00  0.6899906659D-01
      0.1881288540D+01 -0.1608541517D+00  0.3164239610D+00
      0.5442492580D+00  0.1143456438D+01  0.7443082909D+00
 SP   1 1.00       0.000000000000
      0.1687144782D+00  0.1000000000D+01  0.1000000000D+01
 D   1 1.00       0.000000000000
      0.8000000000D+00  0.1000000000D+01
 ****
     12 0
 S   6 1.00       0.000000000000
      0.3047524880D+04  0.1834737132D-02
      0.4573695180D+03  0.1403732281D-01
      0.1039486850D+03  0.6884262226D-01
      0.2921015530D+02  0.2321844432D+00
      0.9286662960D+01  0.4679413484D+00
      0.3163926960D+01  0.3623119853D+00
 SP   3 1.00       0.000000000000
      0.7868272350D+01 -0.1193324198D+00  0.6899906659D-01
      0.1881288540D+01 -0.1608541517D+00  0.3164239610D+00
      0.5442492580D+00  0.1143456438D+01  0.7443082909D+00
 SP   1 1.00       0.000000000000
      0.1687144782D+00  0.1000000000D+01  0.1000000000D+01
 D   1 1.00       0.000000000000
      0.8000000000D+00  0.1000000000D+01
 ****
     13 0
 S   6 1.00       0.000000000000
      0.4173511460D+04  0.1834772160D-02
      0.6274579110D+03  0.1399462700D-01
      0.1429020930D+03  0.6858655181D-01
      0.4023432930D+02  0.2322408730D+00
      0.1282021290D+02  0.4690699481D+00
      0.4390437010D+01  0.3604551991D+00
 SP   3 1.00       0.000000000000
      0.1162636186D+02 -0.1149611817D+00  0.6757974388D-01
      0.2716279807D+01 -0.1691174786D+00  0.3239072959D+00
      0.7722183966D+00  0.1145851947D+01  0.7408951398D+00
 SP   1 1.00       0.000000000000
      0.2120314975D+00  0.1000000000D+01  0.1000000000D+01
 D   1 1.00       0.000000000000
      0.8000000000D+00  0.1000000000D+01
 ****
     14 0
 S   6 1.00       0.000000000000
      0.3047524880D+04  0.1834737132D-02
      0.4573695180D+03  0.1403732281D-01
      0.1039486850D+03  0.6884262226D-01
      0.2921015530D+02  0.2321844432D+00
      0.9286662960D+01  0.4679413484D+00
      0.3163926960D+01  0.3623119853D+00
 SP   3 1.00       0.000000000000
      0.7868272350D+01 -0.1193324198D+00  0.6899906659D-01
      0.1881288540D+01 -0.1608541517D+00  0.3164239610D+00
      0.5442492580D+00  0.1143456438D+01  0.7443082909D+00
 SP   1 1.00       0.000000000000
      0.1687144782D+00  0.1000000000D+01  0.1000000000D+01
 D   1 1.00       0.000000000000
      0.8000000000D+00  0.1000000000D+01
 ****
     15 0
 S   6 1.00       0.000000000000
      0.3047524880D+04  0.1834737132D-02
      0.4573695180D+03  0.1403732281D-01
      0.1039486850D+03  0.6884262226D-01
      0.2921015530D+02  0.2321844432D+00
      0.9286662960D+01  0.4679413484D+00
      0.3163926960D+01  0.3623119853D+00
 SP   3 1.00       0.000000000000
      0.7868272350D+01 -0.1193324198D+00  0.6899906659D-01
      0.1881288540D+01 -0.1608541517D+00  0.3164239610D+00
      0.5442492580D+00  0.1143456438D+01  0.7443082909D+00
 SP   1 1.00       0.000000000000
      0.1687144782D+00  0.1000000000D+01  0.1000000000D+01
 D   1 1.00       0.000000000000
      0.8000000000D+00  0.1000000000D+01
 ****
     16 0
 S   6 1.00       0.000000000000
      0.3047524880D+04  0.1834737132D-02
      0.4573695180D+03  0.1403732281D-01
      0.1039486850D+03  0.6884262226D-01
      0.2921015530D+02  0.2321844432D+00
      0.9286662960D+01  0.4679413484D+00
      0.3163926960D+01  0.3623119853D+00
 SP   3 1.00       0.000000000000
      0.7868272350D+01 -0.1193324198D+00  0.6899906659D-01
      0.1881288540D+01 -0.1608541517D+00  0.3164239610D+00
      0.5442492580D+00  0.1143456438D+01  0.7443082909D+00
 SP   1 1.00       0.000000000000
      0.1687144782D+00  0.1000000000D+01  0.1000000000D+01
 D   1 1.00       0.000000000000
      0.8000000000D+00  0.1000000000D+01
 ****
     17 0
 S   6 1.00       0.000000000000
      0.5484671660D+04  0.1831074430D-02
      0.8252349460D+03  0.1395017220D-01
      0.1880469580D+03  0.6844507810D-01
      0.5296450000D+02  0.2327143360D+00
      0.1689757040D+02  0.4701928980D+00
      0.5799635340D+01  0.3585208530D+00
 SP   3 1.00       0.000000000000
      0.1553961625D+02 -0.1107775495D+00  0.7087426823D-01
      0.3599933586D+01 -0.1480262627D+00  0.3397528391D+00
      0.1013761750D+01  0.1130767015D+01  0.7271585773D+00
 SP   1 1.00       0.000000000000
      0.2700058226D+00  0.1000000000D+01  0.1000000000D+01
 D   1 1.00       0.000000000000
      0.8000000000D+00  0.1000000000D+01
 ****
     18 0
 S   6 1.00       0.000000000000
      0.3047524880D+04  0.1834737132D-02
      0.4573695180D+03  0.1403732281D-01
      0.1039486850D+03  0.6884262226D-01
      0.2921015530D+02  0.2321844432D+00
      0.9286662960D+01  0.4679413484D+00
      0.3163926960D+01  0.3623119853D+00
 SP   3 1.00       0.000000000000
      0.7868272350D+01 -0.1193324198D+00  0.6899906659D-01
      0.1881288540D+01 -0.1608541517D+00  0.3164239610D+00
      0.5442492580D+00  0.1143456438D+01  0.7443082909D+00
 SP   1 1.00       0.000000000000
      0.1687144782D+00  0.1000000000D+01  0.1000000000D+01
 D   1 1.00       0.000000000000
      0.8000000000D+00  0.1000000000D+01
 ****
     19 0
 S   6 1.00       0.000000000000
      0.3047524880D+04  0.1834737132D-02
      0.4573695180D+03  0.1403732281D-01
      0.1039486850D+03  0.6884262226D-01
      0.2921015530D+02  0.2321844432D+00
      0.9286662960D+01  0.4679413484D+00
      0.3163926960D+01  0.3623119853D+00
 SP   3 1.00       0.000000000000
      0.7868272350D+01 -0.1193324198D+00  0.6899906659D-01
      0.1881288540D+01 -0.1608541517D+00  0.3164239610D+00
      0.5442492580D+00  0.1143456438D+01  0.7443082909D+00
 SP   1 1.00       0.000000000000
      0.1687144782D+00  0.1000000000D+01  0.1000000000D+01
 D   1 1.00       0.000000000000
      0.8000000000D+00  0.1000000000D+01
 ****
     20 0
 S   6 1.00       0.000000000000
      0.3047524880D+04  0.1834737132D-02
      0.4573695180D+03  0.1403732281D-01
      0.1039486850D+03  0.6884262226D-01
      0.2921015530D+02  0.2321844432D+00
      0.9286662960D+01  0.4679413484D+00
      0.3163926960D+01  0.3623119853D+00
 SP   3 1.00       0.000000000000
      0.7868272350D+01 -0.1193324198D+00  0.6899906659D-01
      0.1881288540D+01 -0.1608541517D+00  0.3164239610D+00
      0.5442492580D+00  0.1143456438D+01  0.7443082909D+00
 SP   1 1.00       0.000000000000
      0.1687144782D+00  0.1000000000D+01  0.1000000000D+01
 D   1 1.00       0.000000000000
      0.8000000000D+00  0.1000000000D+01
 ****
     21 0
 S   6 1.00       0.000000000000
      0.3047524880D+04  0.1834737132D-02
      0.4573695180D+03  0.1403732281D-01
      0.1039486850D+03  0.6884262226D-01
      0.2921015530D+02  0.2321844432D+00
      0.9286662960D+01  0.4679413484D+00
      0.3163926960D+01  0.3623119853D+00
 SP   3 1.00       0.000000000000
      0.7868272350D+01 -0.1193324198D+00  0.6899906659D-01
      0.1881288540D+01 -0.1608541517D+00  0.3164239610D+00
      0.5442492580D+00  0.1143456438D+01  0.7443082909D+00
 SP   1 1.00       0.000000000000
      0.1687144782D+00  0.1000000000D+01  0.1000000000D+01
 D   1 1.00       0.000000000000
      0.8000000000D+00  0.1000000000D+01
 ****
     22 0
 S   6 1.00       0.000000000000
      0.3047524880D+04  0.1834737132D-02
      0.4573695180D+03  0.1403732281D-01
      0.1039486850D+03  0.6884262226D-01
      0.2921015530D+02  0.2321844432D+00
      0.9286662960D+01  0.4679413484D+00
      0.3163926960D+01  0.3623119853D+00
 SP   3 1.00       0.000000000000
      0.7868272350D+01 -0.1193324198D+00  0.6899906659D-01
      0.1881288540D+01 -0.1608541517D+00  0.3164239610D+00
      0.5442492580D+00  0.1143456438D+01  0.7443082909D+00
 SP   1 1.00       0.000000000000
      0.1687144782D+00  0.1000000000D+01  0.1000000000D+01
 D   1 1.00       0.000000000000
      0.8000000000D+00  0.1000000000D+01
 ****
     23 0
 S   6 1.00       0.000000000000
      0.3047524880D+04  0.1834737132D-02
      0.4573695180D+03  0.1403732281D-01
      0.1039486850D+03  0.6884262226D-01
      0.2921015530D+02  0.2321844432D+00
      0.9286662960D+01  0.4679413484D+00
      0.3163926960D+01  0.3623119853D+00
 SP   3 1.00       0.000000000000
      0.7868272350D+01 -0.1193324198D+00  0.6899906659D-01
      0.1881288540D+01 -0.1608541517D+00  0.3164239610D+00
      0.5442492580D+00  0.1143456438D+01  0.7443082909D+00
 SP   1 1.00       0.000000000000
      0.1687144782D+00  0.1000000000D+01  0.1000000000D+01
 D   1 1.00       0.000000000000
      0.8000000000D+00  0.1000000000D+01
 ****
     24 0
 S   6 1.00       0.000000000000
      0.3047524880D+04  0.1834737132D-02
      0.4573695180D+03  0.1403732281D-01
      0.1039486850D+03  0.6884262226D-01
      0.2921015530D+02  0.2321844432D+00
      0.9286662960D+01  0.4679413484D+00
      0.3163926960D+01  0.3623119853D+00
 SP   3 1.00       0.000000000000
      0.7868272350D+01 -0.1193324198D+00  0.6899906659D-01
      0.1881288540D+01 -0.1608541517D+00  0.3164239610D+00
      0.5442492580D+00  0.1143456438D+01  0.7443082909D+00
 SP   1 1.00       0.000000000000
      0.1687144782D+00  0.1000000000D+01  0.1000000000D+01
 D   1 1.00       0.000000000000
      0.8000000000D+00  0.1000000000D+01
 ****
     25 0
 S   6 1.00       0.000000000000
      0.3047524880D+04  0.1834737132D-02
      0.4573695180D+03  0.1403732281D-01
      0.1039486850D+03  0.6884262226D-01
      0.2921015530D+02  0.2321844432D+00
      0.9286662960D+01  0.4679413484D+00
      0.3163926960D+01  0.3623119853D+00
 SP   3 1.00       0.000000000000
      0.7868272350D+01 -0.1193324198D+00  0.6899906659D-01
      0.1881288540D+01 -0.1608541517D+00  0.3164239610D+00
      0.5442492580D+00  0.1143456438D+01  0.7443082909D+00
 SP   1 1.00       0.000000000000
      0.1687144782D+00  0.1000000000D+01  0.1000000000D+01
 D   1 1.00       0.000000000000
      0.8000000000D+00  0.1000000000D+01
 ****
     26 0
 S   6 1.00       0.000000000000
      0.5484671660D+04  0.1831074430D-02
      0.8252349460D+03  0.1395017220D-01
      0.1880469580D+03  0.6844507810D-01
      0.5296450000D+02  0.2327143360D+00
      0.1689757040D+02  0.4701928980D+00
      0.5799635340D+01  0.3585208530D+00
 SP   3 1.00       0.000000000000
      0.1553961625D+02 -0.1107775495D+00  0.7087426823D-01
      0.3599933586D+01 -0.1480262627D+00  0.3397528391D+00
      0.1013761750D+01  0.1130767015D+01  0.7271585773D+00
 SP   1 1.00       0.000000000000
      0.2700058226D+00  0.1000000000D+01  0.1000000000D+01
 D   1 1.00       0.000000000000
      0.8000000000D+00  0.1000000000D+01
 ****
     27 0
 S   6 1.00       0.000000000000
      0.4173511460D+04  0.1834772160D-02
      0.6274579110D+03  0.1399462700D-01
      0.1429020930D+03  0.6858655181D-01
      0.4023432930D+02  0.2322408730D+00
      0.1282021290D+02  0.4690699481D+00
      0.4390437010D+01  0.3604551991D+00
 SP   3 1.00       0.000000000000
      0.1162636186D+02 -0.1149611817D+00  0.6757974388D-01
      0.2716279807D+01 -0.1691174786D+00  0.3239072959D+00
      0.7722183966D+00  0.1145851947D+01  0.7408951398D+00
 SP   1 1.00       0.000000000000
      0.2120314975D+00  0.1000000000D+01  0.1000000000D+01
 D   1 1.00       0.000000000000
      0.8000000000D+00  0.1000000000D+01
 ****
     28 0
 S   6 1.00       0.000000000000
      0.3047524880D+04  0.1834737132D-02
      0.4573695180D+03  0.1403732281D-01
      0.1039486850D+03  0.6884262226D-01
      0.2921015530D+02  0.2321844432D+00
      0.9286662960D+01  0.4679413484D+00
      0.3163926960D+01  0.3623119853D+00
 SP   3 1.00       0.000000000000
      0.7868272350D+01 -0.1193324198D+00  0.6899906659D-01
      0.1881288540D+01 -0.1608541517D+00  0.3164239610D+00
      0.5442492580D+00  0.1143456438D+01  0.7443082909D+00
 SP   1 1.00       0.000000000000
      0.1687144782D+00  0.1000000000D+01  0.1000000000D+01
 D   1 1.00       0.000000000000
      0.8000000000D+00  0.1000000000D+01
 ****
     29 0
 S   6 1.00       0.000000000000
      0.3047524880D+04  0.1834737132D-02
      0.4573695180D+03  0.1403732281D-01
      0.1039486850D+03  0.6884262226D-01
      0.2921015530D+02  0.2321844432D+00
      0.9286662960D+01  0.4679413484D+00
      0.3163926960D+01  0.3623119853D+00
 SP   3 1.00       0.000000000000
      0.7868272350D+01 -0.1193324198D+00  0.6899906659D-01
      0.1881288540D+01 -0.1608541517D+00  0.3164239610D+00
      0.5442492580D+00  0.1143456438D+01  0.7443082909D+00
 SP   1 1.00       0.000000000000
      0.1687144782D+00  0.1000000000D+01  0.1000000000D+01
 D   1 1.00       0.000000000000
      0.8000000000D+00  0.1000000000D+01
 ****
     30 0
 S   6 1.00       0.000000000000
      0.3047524880D+04  0.1834737132D-02
      0.4573695180D+03  0.1403732281D-01
      0.1039486850D+03  0.6884262226D-01
      0.2921015530D+02  0.2321844432D+00
      0.9286662960D+01  0.4679413484D+00
      0.3163926960D+01  0.3623119853D+00
 SP   3 1.00       0.000000000000
      0.7868272350D+01 -0.1193324198D+00  0.6899906659D-01
      0.1881288540D+01 -0.1608541517D+00  0.3164239610D+00
      0.5442492580D+00  0.1143456438D+01  0.7443082909D+00
 SP   1 1.00       0.000000000000
      0.1687144782D+00  0.1000000000D+01  0.1000000000D+01
 D   1 1.00       0.000000000000
      0.8000000000D+00  0.1000000000D+01
 ****
     31 0
 S   6 1.00       0.000000000000
      0.3047524880D+04  0.1834737132D-02
      0.4573695180D+03  0.1403732281D-01
      0.1039486850D+03  0.6884262226D-01
      0.2921015530D+02  0.2321844432D+00
      0.9286662960D+01  0.4679413484D+00
      0.3163926960D+01  0.3623119853D+00
 SP   3 1.00       0.000000000000
      0.7868272350D+01 -0.1193324198D+00  0.6899906659D-01
      0.1881288540D+01 -0.1608541517D+00  0.3164239610D+00
      0.5442492580D+00  0.1143456438D+01  0.7443082909D+00
 SP   1 1.00       0.000000000000
      0.1687144782D+00  0.1000000000D+01  0.1000000000D+01
 D   1 1.00       0.000000000000
      0.8000000000D+00  0.1000000000D+01
 ****
     32 0
 S   6 1.00       0.000000000000
      0.3047524880D+04  0.1834737132D-02
      0.4573695180D+03  0.1403732281D-01
      0.1039486850D+03  0.6884262226D-01
      0.2921015530D+02  0.2321844432D+00
      0.9286662960D+01  0.4679413484D+00
      0.3163926960D+01  0.3623119853D+00
 SP   3 1.00       0.000000000000
      0.7868272350D+01 -0.1193324198D+00  0.6899906659D-01
      0.1881288540D+01 -0.1608541517D+00  0.3164239610D+00
      0.5442492580D+00  0.1143456438D+01  0.7443082909D+00
 SP   1 1.00       0.000000000000
      0.1687144782D+00  0.1000000000D+01  0.1000000000D+01
 D   1 1.00       0.000000000000
      0.8000000000D+00  0.1000000000D+01
 ****
     33 0
 S   6 1.00       0.000000000000
      0.3047524880D+04  0.1834737132D-02
      0.4573695180D+03  0.1403732281D-01
      0.1039486850D+03  0.6884262226D-01
      0.2921015530D+02  0.2321844432D+00
      0.9286662960D+01  0.4679413484D+00
      0.3163926960D+01  0.3623119853D+00
 SP   3 1.00       0.000000000000
      0.7868272350D+01 -0.1193324198D+00  0.6899906659D-01
      0.1881288540D+01 -0.1608541517D+00  0.3164239610D+00
      0.5442492580D+00  0.1143456438D+01  0.7443082909D+00
 SP   1 1.00       0.000000000000
      0.1687144782D+00  0.1000000000D+01  0.1000000000D+01
 D   1 1.00       0.000000000000
      0.8000000000D+00  0.1000000000D+01
 ****
     34 0
 S   6 1.00       0.000000000000
      0.3047524880D+04  0.1834737132D-02
      0.4573695180D+03  0.1403732281D-01
      0.1039486850D+03  0.6884262226D-01
      0.2921015530D+02  0.2321844432D+00
      0.9286662960D+01  0.4679413484D+00
      0.3163926960D+01  0.3623119853D+00
 SP   3 1.00       0.000000000000
      0.7868272350D+01 -0.1193324198D+00  0.6899906659D-01
      0.1881288540D+01 -0.1608541517D+00  0.3164239610D+00
      0.5442492580D+00  0.1143456438D+01  0.7443082909D+00
 SP   1 1.00       0.000000000000
      0.1687144782D+00  0.1000000000D+01  0.1000000000D+01
 D   1 1.00       0.000000000000
      0.8000000000D+00  0.1000000000D+01
 ****
     35 0
 S   3 1.00       0.000000000000
      0.1873113696D+02  0.3349460434D-01
      0.2825394365D+01  0.2347269535D+00
      0.6401216923D+00  0.8137573261D+00
 S   1 1.00       0.000000000000
      0.1612777588D+00  0.1000000000D+01
 ****
     36 0
 S   3 1.00       0.000000000000
      0.1873113696D+02  0.3349460434D-01
      0.2825394365D+01  0.2347269535D+00
      0.6401216923D+00  0.8137573261D+00
 S   1 1.00       0.000000000000
      0.1612777588D+00  0.1000000000D+01
 ****
     37 0
 S   3 1.00       0.000000000000
      0.1873113696D+02  0.3349460434D-01
      0.2825394365D+01  0.2347269535D+00
      0.6401216923D+00  0.8137573261D+00
 S   1 1.00       0.000000000000
      0.1612777588D+00  0.1000000000D+01
 ****
     38 0
 S   3 1.00       0.000000000000
      0.1873113696D+02  0.3349460434D-01
      0.2825394365D+01  0.2347269535D+00
      0.6401216923D+00  0.8137573261D+00
 S   1 1.00       0.000000000000
      0.1612777588D+00  0.1000000000D+01
 ****
     39 0
 S   3 1.00       0.000000000000
      0.1873113696D+02  0.3349460434D-01
      0.2825394365D+01  0.2347269535D+00
      0.6401216923D+00  0.8137573261D+00
 S   1 1.00       0.000000000000
      0.1612777588D+00  0.1000000000D+01
 ****
     40 0
 S   3 1.00       0.000000000000
      0.1873113696D+02  0.3349460434D-01
      0.2825394365D+01  0.2347269535D+00
      0.6401216923D+00  0.8137573261D+00
 S   1 1.00       0.000000000000
      0.1612777588D+00  0.1000000000D+01
 ****
     41 0
 S   3 1.00       0.000000000000
      0.1873113696D+02  0.3349460434D-01
      0.2825394365D+01  0.2347269535D+00
      0.6401216923D+00  0.8137573261D+00
 S   1 1.00       0.000000000000
      0.1612777588D+00  0.1000000000D+01
 ****
     42 0
 S   3 1.00       0.000000000000
      0.1873113696D+02  0.3349460434D-01
      0.2825394365D+01  0.2347269535D+00
      0.6401216923D+00  0.8137573261D+00
 S   1 1.00       0.000000000000
      0.1612777588D+00  0.1000000000D+01
 ****
     43 0
 S   3 1.00       0.000000000000
      0.1873113696D+02  0.3349460434D-01
      0.2825394365D+01  0.2347269535D+00
      0.6401216923D+00  0.8137573261D+00
 S   1 1.00       0.000000000000
      0.1612777588D+00  0.1000000000D+01
 ****
     44 0
 S   3 1.00       0.000000000000
      0.1873113696D+02  0.3349460434D-01
      0.2825394365D+01  0.2347269535D+00
      0.6401216923D+00  0.8137573261D+00
 S   1 1.00       0.000000000000
      0.1612777588D+00  0.1000000000D+01
 ****
     45 0
 S   3 1.00       0.000000000000
      0.1873113696D+02  0.3349460434D-01
      0.2825394365D+01  0.2347269535D+00
      0.6401216923D+00  0.8137573261D+00
 S   1 1.00       0.000000000000
      0.1612777588D+00  0.1000000000D+01
 ****
     46 0
 S   3 1.00       0.000000000000
      0.1873113696D+02  0.3349460434D-01
      0.2825394365D+01  0.2347269535D+00
      0.6401216923D+00  0.8137573261D+00
 S   1 1.00       0.000000000000
      0.1612777588D+00  0.1000000000D+01
 ****
     47 0
 S   3 1.00       0.000000000000
      0.1873113696D+02  0.3349460434D-01
      0.2825394365D+01  0.2347269535D+00
      0.6401216923D+00  0.8137573261D+00
 S   1 1.00       0.000000000000
      0.1612777588D+00  0.1000000000D+01
 ****
     48 0
 S   3 1.00       0.000000000000
      0.1873113696D+02  0.3349460434D-01
      0.2825394365D+01  0.2347269535D+00
      0.6401216923D+00  0.8137573261D+00
 S   1 1.00       0.000000000000
      0.1612777588D+00  0.1000000000D+01
 ****
     49 0
 S   3 1.00       0.000000000000
      0.1873113696D+02  0.3349460434D-01
      0.2825394365D+01  0.2347269535D+00
      0.6401216923D+00  0.8137573261D+00
 S   1 1.00       0.000000000000
      0.1612777588D+00  0.1000000000D+01
 ****
     50 0
 S   3 1.00       0.000000000000
      0.1873113696D+02  0.3349460434D-01
      0.2825394365D+01  0.2347269535D+00
      0.6401216923D+00  0.8137573261D+00
 S   1 1.00       0.000000000000
      0.1612777588D+00  0.1000000000D+01
 ****
     51 0
 S   3 1.00       0.000000000000
      0.1873113696D+02  0.3349460434D-01
      0.2825394365D+01  0.2347269535D+00
      0.6401216923D+00  0.8137573261D+00
 S   1 1.00       0.000000000000
      0.1612777588D+00  0.1000000000D+01
 ****
     52 0
 S   3 1.00       0.000000000000
      0.1873113696D+02  0.3349460434D-01
      0.2825394365D+01  0.2347269535D+00
      0.6401216923D+00  0.8137573261D+00
 S   1 1.00       0.000000000000
      0.1612777588D+00  0.1000000000D+01
 ****
     53 0
 S   3 1.00       0.000000000000
      0.1873113696D+02  0.3349460434D-01
      0.2825394365D+01  0.2347269535D+00
      0.6401216923D+00  0.8137573261D+00
 S   1 1.00       0.000000000000
      0.1612777588D+00  0.1000000000D+01
 ****
     54 0
 S   3 1.00       0.000000000000
      0.1873113696D+02  0.3349460434D-01
      0.2825394365D+01  0.2347269535D+00
      0.6401216923D+00  0.8137573261D+00
 S   1 1.00       0.000000000000
      0.1612777588D+00  0.1000000000D+01
 ****
     55 0
 S   3 1.00       0.000000000000
      0.1873113696D+02  0.3349460434D-01
      0.2825394365D+01  0.2347269535D+00
      0.6401216923D+00  0.8137573261D+00
 S   1 1.00       0.000000000000
      0.1612777588D+00  0.1000000000D+01
 ****
     56 0
 S   3 1.00       0.000000000000
      0.1873113696D+02  0.3349460434D-01
      0.2825394365D+01  0.2347269535D+00
      0.6401216923D+00  0.8137573261D+00
 S   1 1.00       0.000000000000
      0.1612777588D+00  0.1000000000D+01
 ****
     57 0
 S   3 1.00       0.000000000000
      0.1873113696D+02  0.3349460434D-01
      0.2825394365D+01  0.2347269535D+00
      0.6401216923D+00  0.8137573261D+00
 S   1 1.00       0.000000000000
      0.1612777588D+00  0.1000000000D+01
 ****

   556 basis functions,  1044 primitive gaussians,   556 cartesian basis functions
   117 alpha electrons      117 beta electrons
       nuclear repulsion energy      3198.1730720046 Hartrees.
 IExCor=  402 DFT=T Ex+Corr=B3LYP ExCW=0 ScaHFX=  0.200000
 ScaDFX=  0.800000  0.720000  1.000000  0.810000 ScalE2=  1.000000  1.000000
 IRadAn=      5 IRanWt=     -1 IRanGd=            0 ICorTp=0 IEmpDi=  4
 NAtoms=   57 NActive=   57 NUniq=   57 SFac= 1.00D+00 NAtFMM=   60 NAOKFM=F Big=F
 Integral buffers will be    131072 words long.
 Regular integral format.
 Two-electron integral symmetry is turned off.
 Leave Link  301 at Sat Nov  5 09:29:12 2022, MaxMem=   402653184 cpu:               9.9 elap:               0.8
 (Enter /home/wykgroup/appl/g16/l302.exe)
 NPDir=0 NMtPBC=     1 NCelOv=     1 NCel=       1 NClECP=     1 NCelD=      1
         NCelK=      1 NCelE2=     1 NClLst=     1 CellRange=     0.0.
 One-electron integrals computed using PRISM.
 NBasis=   556 RedAO= T EigKep=  4.01D-04  NBF=   556
 NBsUse=   556 1.00D-06 EigRej= -1.00D+00 NBFU=   556
 Precomputing XC quadrature grid using
 IXCGrd= 4 IRadAn=           5 IRanWt=          -1 IRanGd=           0 AccXCQ= 0.00D+00.
 Generated NRdTot=       0 NPtTot=           0 NUsed=           0 NTot=          32
 NSgBfM=   541   541   541   541   541 MxSgAt=    57 MxSgA2=    57.
 Leave Link  302 at Sat Nov  5 09:29:13 2022, MaxMem=   402653184 cpu:              12.8 elap:               1.0
 (Enter /home/wykgroup/appl/g16/l303.exe)
 DipDrv:  MaxL=1.
 Leave Link  303 at Sat Nov  5 09:29:14 2022, MaxMem=   402653184 cpu:               2.9 elap:               0.3
 (Enter /home/wykgroup/appl/g16/l308.exe)
 Leave Link  308 at Sat Nov  5 09:29:14 2022, MaxMem=   402653184 cpu:               2.8 elap:               0.4
 (Enter /home/wykgroup/appl/g16/l401.exe)
 ExpMin= 1.61D-01 ExpMax= 5.48D+03 ExpMxC= 8.25D+02 IAcc=3 IRadAn=         5 AccDes= 0.00D+00
 Harris functional with IExCor=  402 and IRadAn=       5 diagonalized for initial guess.
 HarFok:  IExCor=  402 AccDes= 0.00D+00 IRadAn=         5 IDoV= 1 UseB2=F ITyADJ=14
 ICtDFT=  3500011 ScaDFX=  1.000000  1.000000  1.000000  1.000000
 FoFCou: FMM=F IPFlag=           0 FMFlag=      100000 FMFlg1=           0
         NFxFlg=           0 DoJE=T BraDBF=F KetDBF=T FulRan=T
         wScrn=  0.000000 ICntrl=       500 IOpCl=  0 I1Cent=   200000004 NGrid=           0
         NMat0=    1 NMatS0=      1 NMatT0=    0 NMatD0=    1 NMtDS0=    0 NMtDT0=    0
 Symmetry not used in FoFCou.
 Harris En= -1433.63399478108    
 JPrj=0 DoOrth=F DoCkMO=F.
 Leave Link  401 at Sat Nov  5 09:29:20 2022, MaxMem=   402653184 cpu:              47.5 elap:               5.2
 (Enter /home/wykgroup/appl/g16/l502.exe)
 Two-electron integral symmetry not used.
 Closed shell SCF:
 Using DIIS extrapolation, IDIIS=  1040.
 NGot=   402653184 LenX=   402022415 LenY=   401712723
 Requested convergence on RMS density matrix=1.00D-08 within  32 cycles.
 Requested convergence on MAX density matrix=1.00D-06.
 Requested convergence on             energy=1.00D-06.
 No special actions if energy rises.
 Fock matrices will be formed incrementally for  20 cycles.
 Integral accuracy reduced to 1.0D-05 until final iterations.

 Cycle   1  Pass 0  IDiag  1:
 FoFJK:  IHMeth= 1 ICntrl=       0 DoSepK=F KAlg= 0 I1Cent=           0 FoldK=F
 IRaf= 610000000 NMat=       1 IRICut=       1 DoRegI=T DoRafI=F ISym2E= 0 IDoP0=0 IntGTp=1.
 FoFCou: FMM=F IPFlag=           0 FMFlag=      100000 FMFlg1=           0
         NFxFlg=           0 DoJE=F BraDBF=F KetDBF=F FulRan=T
         wScrn=  0.000000 ICntrl=         0 IOpCl=  0 I1Cent=           0 NGrid=           0
         NMat0=    1 NMatS0=      1 NMatT0=    0 NMatD0=    1 NMtDS0=    0 NMtDT0=    0
 Symmetry not used in FoFCou.
 E= -1432.92470345506    
 DIIS: error= 2.56D-02 at cycle   1 NSaved=   1.
 NSaved= 1 IEnMin= 1 EnMin= -1432.92470345506     IErMin= 1 ErrMin= 2.56D-02
 ErrMax= 2.56D-02  0.00D+00 EMaxC= 1.00D-01 BMatC= 7.11D-01 BMatP= 7.11D-01
 IDIUse=3 WtCom= 7.44D-01 WtEn= 2.56D-01
 Coeff-Com:  0.100D+01
 Coeff-En:   0.100D+01
 Coeff:      0.100D+01
 Gap=     0.145 Goal=   None    Shift=    0.000
 GapD=    0.145 DampG=1.000 DampE=0.500 DampFc=0.5000 IDamp=-1.
 Damping current iteration by 5.00D-01
 RMSDP=3.91D-03 MaxDP=2.44D-01              OVMax= 2.69D-01

 Cycle   2  Pass 0  IDiag  1:
 RMSU=  1.92D-03    CP:  9.74D-01
 E= -1433.19140816992     Delta-E=       -0.266704714863 Rises=F Damp=T
 DIIS: error= 9.38D-03 at cycle   2 NSaved=   2.
 NSaved= 2 IEnMin= 2 EnMin= -1433.19140816992     IErMin= 2 ErrMin= 9.38D-03
 ErrMax= 9.38D-03  0.00D+00 EMaxC= 1.00D-01 BMatC= 9.36D-02 BMatP= 7.11D-01
 IDIUse=3 WtCom= 9.06D-01 WtEn= 9.38D-02
 Coeff-Com:  0.138D+00 0.862D+00
 Coeff-En:   0.207D+00 0.793D+00
 Coeff:      0.145D+00 0.855D+00
 Gap=     0.238 Goal=   None    Shift=    0.000
 RMSDP=1.36D-03 MaxDP=1.15D-01 DE=-2.67D-01 OVMax= 1.74D-01

 Cycle   3  Pass 0  IDiag  1:
 RMSU=  1.27D-03    CP:  9.60D-01  7.77D-01
 E= -1433.49560019713     Delta-E=       -0.304192027214 Rises=F Damp=F
 DIIS: error= 1.34D-02 at cycle   3 NSaved=   3.
 NSaved= 3 IEnMin= 3 EnMin= -1433.49560019713     IErMin= 2 ErrMin= 9.38D-03
 ErrMax= 1.34D-02  0.00D+00 EMaxC= 1.00D-01 BMatC= 1.57D-01 BMatP= 9.36D-02
 IDIUse=2 WtCom= 0.00D+00 WtEn= 1.00D+00
 Coeff-En:   0.000D+00 0.000D+00 0.100D+01
 Coeff:      0.000D+00 0.000D+00 0.100D+01
 Gap=     0.155 Goal=   None    Shift=    0.000
 RMSDP=2.71D-03 MaxDP=2.51D-01 DE=-3.04D-01 OVMax= 3.93D-01

 Cycle   4  Pass 0  IDiag  1:
 RMSU=  1.45D-03    CP:  9.64D-01  1.41D+00 -5.32D-01
 E= -1432.54560678789     Delta-E=        0.949993409248 Rises=F Damp=F
 DIIS: error= 4.77D-02 at cycle   4 NSaved=   4.
 NSaved= 4 IEnMin= 3 EnMin= -1433.49560019713     IErMin= 2 ErrMin= 9.38D-03
 ErrMax= 4.77D-02  0.00D+00 EMaxC= 1.00D-01 BMatC= 1.23D+00 BMatP= 9.36D-02
 IDIUse=2 WtCom= 0.00D+00 WtEn= 1.00D+00
 Coeff-En:   0.000D+00 0.000D+00 0.830D+00 0.170D+00
 Coeff:      0.000D+00 0.000D+00 0.830D+00 0.170D+00
 Gap=     0.132 Goal=   None    Shift=    0.000
 RMSDP=1.58D-03 MaxDP=1.67D-01 DE= 9.50D-01 OVMax= 1.92D-01

 Cycle   5  Pass 0  IDiag  1:
 RMSU=  3.99D-04    CP:  9.64D-01  1.02D+00  2.64D-01  4.04D-01
 E= -1433.53469475140     Delta-E=       -0.989087963516 Rises=F Damp=F
 DIIS: error= 1.18D-02 at cycle   5 NSaved=   5.
 NSaved= 5 IEnMin= 5 EnMin= -1433.53469475140     IErMin= 2 ErrMin= 9.38D-03
 ErrMax= 1.18D-02  0.00D+00 EMaxC= 1.00D-01 BMatC= 1.15D-01 BMatP= 9.36D-02
 IDIUse=2 WtCom= 0.00D+00 WtEn= 1.00D+00
 Coeff-En:   0.000D+00 0.000D+00 0.441D+00 0.000D+00 0.559D+00
 Coeff:      0.000D+00 0.000D+00 0.441D+00 0.000D+00 0.559D+00
 Gap=     0.156 Goal=   None    Shift=    0.000
 RMSDP=6.94D-04 MaxDP=6.20D-02 DE=-9.89D-01 OVMax= 8.59D-02

 Cycle   6  Pass 0  IDiag  1:
 RMSU=  1.95D-04    CP:  9.63D-01  8.60D-01  6.25D-01  1.75D-01  5.86D-01
 E= -1433.62999254045     Delta-E=       -0.095297789043 Rises=F Damp=F
 DIIS: error= 3.78D-03 at cycle   6 NSaved=   6.
 NSaved= 6 IEnMin= 6 EnMin= -1433.62999254045     IErMin= 6 ErrMin= 3.78D-03
 ErrMax= 3.78D-03  0.00D+00 EMaxC= 1.00D-01 BMatC= 5.77D-03 BMatP= 9.36D-02
 IDIUse=3 WtCom= 9.62D-01 WtEn= 3.78D-02
 Coeff-Com: -0.127D-02 0.113D-01 0.227D+00-0.406D-01 0.434D+00 0.370D+00
 Coeff-En:   0.000D+00 0.000D+00 0.000D+00 0.000D+00 0.148D-01 0.985D+00
 Coeff:     -0.123D-02 0.108D-01 0.219D+00-0.390D-01 0.418D+00 0.393D+00
 Gap=     0.144 Goal=   None    Shift=    0.000
 RMSDP=1.63D-04 MaxDP=2.19D-02 DE=-9.53D-02 OVMax= 2.67D-02

 Cycle   7  Pass 0  IDiag  1:
 RMSU=  5.91D-05    CP:  9.62D-01  8.97D-01  5.86D-01  2.11D-01  6.78D-01
                    CP:  4.50D-01
 E= -1433.63467776252     Delta-E=       -0.004685222071 Rises=F Damp=F
 DIIS: error= 1.04D-03 at cycle   7 NSaved=   7.
 NSaved= 7 IEnMin= 7 EnMin= -1433.63467776252     IErMin= 7 ErrMin= 1.04D-03
 ErrMax= 1.04D-03  0.00D+00 EMaxC= 1.00D-01 BMatC= 4.35D-04 BMatP= 5.77D-03
 IDIUse=3 WtCom= 9.90D-01 WtEn= 1.04D-02
 Coeff-Com: -0.127D-02 0.488D-02 0.104D+00-0.229D-01 0.206D+00 0.248D+00
 Coeff-Com:  0.462D+00
 Coeff-En:   0.000D+00 0.000D+00 0.000D+00 0.000D+00 0.000D+00 0.704D-01
 Coeff-En:   0.930D+00
 Coeff:     -0.125D-02 0.483D-02 0.102D+00-0.227D-01 0.204D+00 0.246D+00
 Coeff:      0.467D+00
 Gap=     0.145 Goal=   None    Shift=    0.000
 RMSDP=4.64D-05 MaxDP=3.40D-03 DE=-4.69D-03 OVMax= 5.49D-03

 Cycle   8  Pass 0  IDiag  1:
 RMSU=  2.42D-05    CP:  9.62D-01  8.93D-01  5.94D-01  2.03D-01  6.80D-01
                    CP:  4.93D-01  4.15D-01
 E= -1433.63503727073     Delta-E=       -0.000359508211 Rises=F Damp=F
 DIIS: error= 2.16D-04 at cycle   8 NSaved=   8.
 NSaved= 8 IEnMin= 8 EnMin= -1433.63503727073     IErMin= 8 ErrMin= 2.16D-04
 ErrMax= 2.16D-04  0.00D+00 EMaxC= 1.00D-01 BMatC= 4.63D-05 BMatP= 4.35D-04
 IDIUse=3 WtCom= 9.98D-01 WtEn= 2.16D-03
 Coeff-Com:  0.287D-03-0.902D-03 0.193D-01-0.429D-02 0.291D-01 0.603D-01
 Coeff-Com:  0.286D+00 0.610D+00
 Coeff-En:   0.000D+00 0.000D+00 0.000D+00 0.000D+00 0.000D+00 0.000D+00
 Coeff-En:   0.385D-01 0.962D+00
 Coeff:      0.286D-03-0.900D-03 0.193D-01-0.428D-02 0.290D-01 0.601D-01
 Coeff:      0.286D+00 0.611D+00
 Gap=     0.145 Goal=   None    Shift=    0.000
 RMSDP=1.63D-05 MaxDP=1.00D-03 DE=-3.60D-04 OVMax= 2.14D-03

 Cycle   9  Pass 0  IDiag  1:
 RMSU=  8.92D-06    CP:  9.62D-01  8.91D-01  5.97D-01  2.03D-01  6.76D-01
                    CP:  4.87D-01  5.32D-01  5.83D-01
 E= -1433.63507924676     Delta-E=       -0.000041976033 Rises=F Damp=F
 DIIS: error= 5.92D-05 at cycle   9 NSaved=   9.
 NSaved= 9 IEnMin= 9 EnMin= -1433.63507924676     IErMin= 9 ErrMin= 5.92D-05
 ErrMax= 5.92D-05  0.00D+00 EMaxC= 1.00D-01 BMatC= 5.11D-06 BMatP= 4.63D-05
 IDIUse=1 WtCom= 1.00D+00 WtEn= 0.00D+00
 Coeff-Com:  0.338D-03-0.118D-02 0.365D-02-0.721D-03 0.857D-03 0.175D-01
 Coeff-Com:  0.136D+00 0.374D+00 0.470D+00
 Coeff:      0.338D-03-0.118D-02 0.365D-02-0.721D-03 0.857D-03 0.175D-01
 Coeff:      0.136D+00 0.374D+00 0.470D+00
 Gap=     0.145 Goal=   None    Shift=    0.000
 RMSDP=5.02D-06 MaxDP=2.34D-04 DE=-4.20D-05 OVMax= 6.17D-04

 Initial convergence to 1.0D-05 achieved.  Increase integral accuracy.
 Cycle  10  Pass 1  IDiag  1:
 E= -1433.63508993506     Delta-E=       -0.000010688296 Rises=F Damp=F
 DIIS: error= 1.41D-04 at cycle   1 NSaved=   1.
 NSaved= 1 IEnMin= 1 EnMin= -1433.63508993506     IErMin= 1 ErrMin= 1.41D-04
 ErrMax= 1.41D-04  0.00D+00 EMaxC= 1.00D-01 BMatC= 3.49D-06 BMatP= 3.49D-06
 IDIUse=3 WtCom= 9.99D-01 WtEn= 1.41D-03
 Coeff-Com:  0.100D+01
 Coeff-En:   0.100D+01
 Coeff:      0.100D+01
 Gap=     0.145 Goal=   None    Shift=    0.000
 RMSDP=5.02D-06 MaxDP=2.34D-04 DE=-1.07D-05 OVMax= 3.23D-04

 Cycle  11  Pass 1  IDiag  1:
 RMSU=  5.60D-05    CP:  1.00D+00
 E= -1433.63509218909     Delta-E=       -0.000002254039 Rises=F Damp=F
 DIIS: error= 3.62D-05 at cycle   2 NSaved=   2.
 NSaved= 2 IEnMin= 2 EnMin= -1433.63509218909     IErMin= 2 ErrMin= 3.62D-05
 ErrMax= 3.62D-05  0.00D+00 EMaxC= 1.00D-01 BMatC= 9.03D-07 BMatP= 3.49D-06
 IDIUse=1 WtCom= 1.00D+00 WtEn= 0.00D+00
 Coeff-Com:  0.253D+00 0.747D+00
 Coeff:      0.253D+00 0.747D+00
 Gap=     0.145 Goal=   None    Shift=    0.000
 RMSDP=4.43D-06 MaxDP=2.50D-04 DE=-2.25D-06 OVMax= 4.87D-04

 Cycle  12  Pass 1  IDiag  1:
 RMSU=  4.42D-06    CP:  1.00D+00  1.01D+00
 E= -1433.63509151530     Delta-E=        0.000000673792 Rises=F Damp=F
 DIIS: error= 4.96D-05 at cycle   3 NSaved=   3.
 NSaved= 3 IEnMin= 2 EnMin= -1433.63509218909     IErMin= 2 ErrMin= 3.62D-05
 ErrMax= 4.96D-05  0.00D+00 EMaxC= 1.00D-01 BMatC= 1.53D-06 BMatP= 9.03D-07
 IDIUse=1 WtCom= 1.00D+00 WtEn= 0.00D+00
 Coeff-Com:  0.517D-03 0.565D+00 0.434D+00
 Coeff:      0.517D-03 0.565D+00 0.434D+00
 Gap=     0.145 Goal=   None    Shift=    0.000
 RMSDP=2.58D-06 MaxDP=1.74D-04 DE= 6.74D-07 OVMax= 2.95D-04

 Cycle  13  Pass 1  IDiag  1:
 RMSU=  4.74D-07    CP:  1.00D+00  1.01D+00  4.30D-01
 E= -1433.63509313116     Delta-E=       -0.000001615856 Rises=F Damp=F
 DIIS: error= 4.92D-06 at cycle   4 NSaved=   4.
 NSaved= 4 IEnMin= 4 EnMin= -1433.63509313116     IErMin= 4 ErrMin= 4.92D-06
 ErrMax= 4.92D-06  0.00D+00 EMaxC= 1.00D-01 BMatC= 1.99D-08 BMatP= 9.03D-07
 IDIUse=1 WtCom= 1.00D+00 WtEn= 0.00D+00
 Coeff-Com: -0.315D-02 0.343D+00 0.270D+00 0.390D+00
 Coeff:     -0.315D-02 0.343D+00 0.270D+00 0.390D+00
 Gap=     0.145 Goal=   None    Shift=    0.000
 RMSDP=2.93D-07 MaxDP=2.80D-05 DE=-1.62D-06 OVMax= 3.50D-05

 Cycle  14  Pass 1  IDiag  1:
 RMSU=  1.39D-07    CP:  1.00D+00  1.01D+00  4.43D-01  4.70D-01
 E= -1433.63509314786     Delta-E=       -0.000000016701 Rises=F Damp=F
 DIIS: error= 1.60D-06 at cycle   5 NSaved=   5.
 NSaved= 5 IEnMin= 5 EnMin= -1433.63509314786     IErMin= 5 ErrMin= 1.60D-06
 ErrMax= 1.60D-06  0.00D+00 EMaxC= 1.00D-01 BMatC= 1.14D-09 BMatP= 1.99D-08
 IDIUse=1 WtCom= 1.00D+00 WtEn= 0.00D+00
 Coeff-Com: -0.207D-02 0.195D+00 0.154D+00 0.258D+00 0.395D+00
 Coeff:     -0.207D-02 0.195D+00 0.154D+00 0.258D+00 0.395D+00
 Gap=     0.145 Goal=   None    Shift=    0.000
 RMSDP=7.66D-08 MaxDP=6.37D-06 DE=-1.67D-08 OVMax= 1.02D-05

 Cycle  15  Pass 1  IDiag  1:
 RMSU=  5.20D-08    CP:  1.00D+00  1.01D+00  4.43D-01  4.93D-01  6.05D-01
 E= -1433.63509314877     Delta-E=       -0.000000000910 Rises=F Damp=F
 DIIS: error= 3.68D-07 at cycle   6 NSaved=   6.
 NSaved= 6 IEnMin= 6 EnMin= -1433.63509314877     IErMin= 6 ErrMin= 3.68D-07
 ErrMax= 3.68D-07  0.00D+00 EMaxC= 1.00D-01 BMatC= 1.17D-10 BMatP= 1.14D-09
 IDIUse=1 WtCom= 1.00D+00 WtEn= 0.00D+00
 Coeff-Com: -0.972D-03 0.853D-01 0.673D-01 0.123D+00 0.270D+00 0.455D+00
 Coeff:     -0.972D-03 0.853D-01 0.673D-01 0.123D+00 0.270D+00 0.455D+00
 Gap=     0.145 Goal=   None    Shift=    0.000
 RMSDP=2.50D-08 MaxDP=1.61D-06 DE=-9.10D-10 OVMax= 2.83D-06

 Cycle  16  Pass 1  IDiag  1:
 RMSU=  1.79D-08    CP:  1.00D+00  1.01D+00  4.42D-01  4.90D-01  6.38D-01
                    CP:  6.95D-01
 E= -1433.63509314885     Delta-E=       -0.000000000083 Rises=F Damp=F
 DIIS: error= 7.31D-08 at cycle   7 NSaved=   7.
 NSaved= 7 IEnMin= 7 EnMin= -1433.63509314885     IErMin= 7 ErrMin= 7.31D-08
 ErrMax= 7.31D-08  0.00D+00 EMaxC= 1.00D-01 BMatC= 5.48D-12 BMatP= 1.17D-10
 IDIUse=1 WtCom= 1.00D+00 WtEn= 0.00D+00
 Coeff-Com: -0.346D-03 0.290D-01 0.229D-01 0.445D-01 0.114D+00 0.244D+00
 Coeff-Com:  0.546D+00
 Coeff:     -0.346D-03 0.290D-01 0.229D-01 0.445D-01 0.114D+00 0.244D+00
 Coeff:      0.546D+00
 Gap=     0.145 Goal=   None    Shift=    0.000
 RMSDP=6.45D-09 MaxDP=4.84D-07 DE=-8.28D-11 OVMax= 6.12D-07

 SCF Done:  E(RB3LYP) =  -1433.63509315     A.U. after   16 cycles
            NFock= 16  Conv=0.64D-08     -V/T= 2.0096
 KE= 1.419978935738D+03 PE=-9.724496036940D+03 EE= 3.672708936049D+03
 Leave Link  502 at Sat Nov  5 09:30:45 2022, MaxMem=   402653184 cpu:             999.1 elap:              85.6
 (Enter /home/wykgroup/appl/g16/l508.exe)
 QCSCF skips out because SCF is already converged.
 Leave Link  508 at Sat Nov  5 09:30:46 2022, MaxMem=   402653184 cpu:               0.3 elap:               0.2
 (Enter /home/wykgroup/appl/g16/l801.exe)
 DoSCS=F DFT=T ScalE2(SS,OS)=  1.000000  1.000000
 ExpMin= 1.61D-01 ExpMax= 5.48D+03 ExpMxC= 8.25D+02 IAcc=3 IRadAn=         5 AccDes= 0.00D+00
 HarFok:  IExCor=  205 AccDes= 0.00D+00 IRadAn=         5 IDoV=-2 UseB2=F ITyADJ=14
 ICtDFT= 12500011 ScaDFX=  1.000000  1.000000  1.000000  1.000000
 GSVD:  LWork=       -1428 too small for GESVD, short by        6290 words or        6290 for optimal perf.
 Largest valence mixing into a core orbital is  5.77D-05
 Largest core mixing into a valence orbital is  1.24D-05
 Range of M.O.s used for correlation:    35   556
 NBasis=   556 NAE=   117 NBE=   117 NFC=    34 NFV=     0
 NROrb=    522 NOA=    83 NOB=    83 NVA=   439 NVB=   439
 Leave Link  801 at Sat Nov  5 09:30:48 2022, MaxMem=   402653184 cpu:              14.7 elap:               1.8
 (Enter /home/wykgroup/appl/g16/l914.exe)
 RHF ground state
 Two-electron integral symmetry not used.
 MDV=   402653184 DFT=T DoStab=F Mixed=T DoRPA=T DoScal=F NonHer=T
 Making orbital integer symmetry assigments:
    16 initial guesses have been made.
 Convergence on wavefunction:    0.001000000000000
 Davidson Disk Diagonalization:  ConvIn= 1.00D-03 SkipCon=T Conv= 1.00D-03.
 Max sub-space:  2000 roots to seek:    16 dimension of matrix:        72874
 Iteration     1 Dimension    16 NMult     0 NNew     16
 CISAX will form    16 AO SS matrices at one time.
 NMat=    16 NSing=     8 JSym2X= 0.
 FoFJK:  IHMeth= 1 ICntrl=       0 DoSepK=F KAlg= 0 I1Cent=           0 FoldK=F
 IRaf= 610000000 NMat=      32 IRICut=       1 DoRegI=T DoRafI=F ISym2E= 0 IDoP0=0 IntGTp=1.
 FoFCou: FMM=F IPFlag=           0 FMFlag=      100000 FMFlg1=           0
         NFxFlg=           0 DoJE=F BraDBF=F KetDBF=F FulRan=T
         wScrn=  0.000000 ICntrl=         0 IOpCl=  0 I1Cent=           0 NGrid=           0
         NMat0=   32 NMatS0=      8 NMatT0=    8 NMatD0=   32 NMtDS0=    0 NMtDT0=    0
 Symmetry not used in FoFCou.
 New state      1 was old state      2
 New state      2 was old state      4
 New state      3 was old state      6
 New state      4 was old state      5
 New state      5 was old state     16
 New state      6 was old state      1
 New state      7 was old state     12
 New state      8 was old state     10
 Excitation Energies [eV] at current iteration:
 Root      1 :     2.692688620030518
 Root      2 :     3.486619853784982
 Root      3 :     3.703172524595544
 Root      4 :     3.839992678243471
 Root      5 :     3.959059328005112
 Root      6 :     4.029526983454001
 Root      7 :     4.088266694015505
 Root      8 :     4.273534673371220
 Root      9 :     4.342377118804514
 Root     10 :     4.375700048161606
 Root     11 :     4.392645598098746
 Root     12 :     4.459107594468887
 Root     13 :     4.523687468650404
 Root     14 :     4.661120351019816
 Root     15 :     4.670066562246396
 Root     16 :     4.907679353414028
 Vector   3 SDiff=5.34D+00 TDiff=5.14D+00 assumed to be triplet.
 Vector   7 SDiff=5.43D+00 TDiff=4.88D+00 assumed to be triplet.
 Iteration     2 Dimension    24 NMult    16 NNew      8
 CISAX will form     8 AO SS matrices at one time.
 NMat=     8 NSing=     2 JSym2X= 0.
 Root      1 not converged, maximum delta is    0.094838841501842
 Root      2 not converged, maximum delta is    0.081557093763835
 New state      3 was old state      6
 Root      3 not converged, maximum delta is    0.216712206030034
 Root      4 not converged, maximum delta is    0.181480214994747
 Excitation Energies [eV] at current iteration:
 Root      1 :     2.366306251101351   Change is   -0.326382368929168
 Root      2 :     3.262193635672388   Change is   -0.224426218112594
 Root      3 :     3.758119196954180   Change is   -0.271407786499820
 Root      4 :     3.833576976914475   Change is   -0.006415701328996
 Iteration     3 Dimension    32 NMult    24 NNew      8
 CISAX will form     8 AO SS matrices at one time.
 NMat=     8 NSing=     4 JSym2X= 0.
 Root      1 not converged, maximum delta is    0.029527467475372
 Root      2 not converged, maximum delta is    0.070333123162521
 Root      3 not converged, maximum delta is    0.118603583427820
 Root      4 not converged, maximum delta is    0.096282539273917
 Excitation Energies [eV] at current iteration:
 Root      1 :     2.335276758375193   Change is   -0.031029492726158
 Root      2 :     3.192610774907634   Change is   -0.069582860764755
 Root      3 :     3.666217250501353   Change is   -0.091901946452827
 Root      4 :     3.760118567526736   Change is   -0.073458409387738
 Iteration     4 Dimension    40 NMult    32 NNew      8
 CISAX will form     8 AO SS matrices at one time.
 NMat=     8 NSing=     4 JSym2X= 0.
 Root      1 not converged, maximum delta is    0.003482949957873
 Root      2 not converged, maximum delta is    0.024280635994350
 Root      3 not converged, maximum delta is    0.078155332158686
 Root      4 not converged, maximum delta is    0.016803970726743
 Excitation Energies [eV] at current iteration:
 Root      1 :     2.333029185600645   Change is   -0.002247572774548
 Root      2 :     3.178258127673447   Change is   -0.014352647234187
 Root      3 :     3.643942905651892   Change is   -0.022274344849462
 Root      4 :     3.749169741850285   Change is   -0.010948825676451
 Iteration     5 Dimension    48 NMult    40 NNew      8
 CISAX will form     8 AO SS matrices at one time.
 NMat=     8 NSing=     4 JSym2X= 0.
 Root      1 not converged, maximum delta is    0.001569644329788
 Root      2 not converged, maximum delta is    0.011417336756014
 Root      3 not converged, maximum delta is    0.027516522330760
 Root      4 not converged, maximum delta is    0.011739512964595
 Excitation Energies [eV] at current iteration:
 Root      1 :     2.332857603164576   Change is   -0.000171582436069
 Root      2 :     3.174844181807301   Change is   -0.003413945866146
 Root      3 :     3.638538769264644   Change is   -0.005404136387248
 Root      4 :     3.746736758723333   Change is   -0.002432983126952
 Iteration     6 Dimension    56 NMult    48 NNew      8
 CISAX will form     8 AO SS matrices at one time.
 NMat=     8 NSing=     4 JSym2X= 0.
 Root      1 has converged.
 Root      2 not converged, maximum delta is    0.006252134196302
 Root      3 not converged, maximum delta is    0.006071492948785
 Root      4 not converged, maximum delta is    0.004017251703818
 Excitation Energies [eV] at current iteration:
 Root      1 :     2.332833471010567   Change is   -0.000024132154009
 Root      2 :     3.173982288609874   Change is   -0.000861893197427
 Root      3 :     3.637307852956035   Change is   -0.001230916308609
 Root      4 :     3.746291012062422   Change is   -0.000445746660912
 Iteration     7 Dimension    62 NMult    56 NNew      6
 CISAX will form     6 AO SS matrices at one time.
 NMat=     6 NSing=     4 JSym2X= 0.
 Root      1 has converged.
 Root      2 not converged, maximum delta is    0.002066588941906
 Root      3 not converged, maximum delta is    0.001903794197044
 Root      4 not converged, maximum delta is    0.001160909369140
 Excitation Energies [eV] at current iteration:
 Root      1 :     2.332833146317823   Change is   -0.000000324692745
 Root      2 :     3.173837895230829   Change is   -0.000144393379045
 Root      3 :     3.637060502472636   Change is   -0.000247350483399
 Root      4 :     3.746208188460832   Change is   -0.000082823601590
 Iteration     8 Dimension    68 NMult    62 NNew      6
 CISAX will form     6 AO SS matrices at one time.
 NMat=     6 NSing=     4 JSym2X= 0.
 Root      1 has converged.
 Root      2 has converged.
 Root      3 has converged.
 Root      4 has converged.
 Excitation Energies [eV] at current iteration:
 Root      1 :     2.332833056057204   Change is   -0.000000090260619
 Root      2 :     3.173819697650598   Change is   -0.000018197580231
 Root      3 :     3.637021303735853   Change is   -0.000039198736783
 Root      4 :     3.746192079100347   Change is   -0.000016109360485
 Convergence achieved on expansion vectors.
 ***********************************************************************
 Excited states from <AA,BB:AA,BB> singles matrix:
 ***********************************************************************
 
 1PDM for each excited state written to RWF  633
 Ground to excited state transition densities written to RWF  633
 Ground to excited state transition electric dipole moments (Au):
       state          X           Y           Z        Dip. S.      Osc.
         1         0.0000     -0.0000     -0.0000      0.0000      0.0000
         2        -0.0000     -0.0000      0.0000      0.0000      0.0000
         3         1.4071      1.6785      0.3227      4.9014      0.4367
         4        -0.3758     -0.2504     -0.0838      0.2109      0.0194
 Ground to excited state transition velocity dipole moments (Au):
       state          X           Y           Z        Dip. S.      Osc.
         1         0.0000      0.0000      0.0000      0.0000      0.0000
         2         0.0000      0.0000     -0.0000      0.0000      0.0000
         3        -0.1834     -0.2225     -0.0423      0.0849      0.4235
         4         0.0506      0.0313      0.0064      0.0036      0.0174
 Ground to excited state transition magnetic dipole moments (Au):
       state          X           Y           Z
         1        -0.0000      0.0000      0.0000
         2         0.0000      0.0000     -0.0000
         3        -0.2075      0.1509     -1.2134
         4         0.0027     -0.0163     -0.0011
 Ground to excited state transition velocity quadrupole moments (Au):
       state          XX          YY          ZZ          XY          XZ          YZ
         1         0.0000      0.0000      0.0000      0.0000     -0.0000      0.0000
         2        -0.0000      0.0000     -0.0000      0.0000     -0.0000     -0.0000
         3         1.1337     -0.2053      0.0351      0.8695      0.3571      0.0143
         4        -0.2955      0.0864     -0.0148     -0.2394     -0.1033      0.0067
 <0|del|b> * <b|rxdel|0> + <0|del|b> * <b|delr+rdel|0>
 Rotatory Strengths (R) in cgs (10**-40 erg-esu-cm/Gauss)
       state          XX          YY          ZZ    R(velocity)    E-M Angle
         1         0.0000     -0.0000     -0.0000      0.0000       90.00
         2         0.0000      0.0000      0.0000      0.0000       90.00
         3       159.8164    326.7076   -191.3368     98.3957       81.12
         4         3.0167      5.1550    -10.1118     -0.6467      112.43
 1/2[<0|r|b>*<b|rxdel|0> + (<0|rxdel|b>*<b|r|0>)*]
 Rotatory Strengths (R) in cgs (10**-40 erg-esu-cm/Gauss)
       state          XX          YY          ZZ     R(length)
         1         0.0000      0.0000      0.0000      0.0000
         2         0.0000      0.0000      0.0000      0.0000
         3       206.4800   -179.0945    276.8916    101.4257
         4         0.7252     -2.8807     -0.0662     -0.7406
  1/2[<0|del|b>*<b|r|0> + (<0|r|b>*<b|del|0>)*] (Au)
       state          X           Y           Z        Dip. S.   Osc.(frdel)
         1         0.0000     -0.0000     -0.0000      0.0000      0.0000
         2        -0.0000     -0.0000     -0.0000      0.0000      0.0000
         3        -0.2581     -0.3734     -0.0136      0.6451      0.4301
         4        -0.0190     -0.0078     -0.0005      0.0274      0.0183

 Excitation energies and oscillator strengths:
 
 Excited state symmetry could not be determined.
 Excited State   1:      Triplet-?Sym    2.3328 eV  531.47 nm  f=0.0000  <S**2>=2.000
     117 ->118         0.67415
 This state for optimization and/or second-order correction.
 Total Energy, E(TD-HF/TD-DFT) =  -1433.54936311    
 Copying the excited state density for this state as the 1-particle RhoCI density.
 
 Excited state symmetry could not be determined.
 Excited State   2:      Triplet-?Sym    3.1738 eV  390.65 nm  f=0.0000  <S**2>=2.000
     114 ->124         0.13141
     116 ->118         0.28233
     116 ->119         0.23161
     117 ->119         0.49487
     117 ->120         0.10780
 
 Excited state symmetry could not be determined.
 Excited State   3:      Singlet-?Sym    3.6370 eV  340.89 nm  f=0.4367  <S**2>=0.000
     117 ->118         0.64850
     117 ->119        -0.24254
 
 Excited state symmetry could not be determined.
 Excited State   4:      Singlet-?Sym    3.7462 eV  330.96 nm  f=0.0194  <S**2>=0.000
     113 ->118         0.16893
     116 ->118         0.57474
     117 ->119        -0.33222
 SavETr:  write IOETrn=   770 NScale= 10 NData=  16 NLR=1 NState=    4 LETran=      82.
 Leave Link  914 at Sat Nov  5 09:41:06 2022, MaxMem=   402653184 cpu:            7478.9 elap:             617.5
 (Enter /home/wykgroup/appl/g16/l601.exe)
 Copying SCF densities to generalized density rwf, IOpCl= 0 IROHF=0.

 **********************************************************************

            Population analysis using the SCF Density.

 **********************************************************************

 Alpha  occ. eigenvalues --  -19.19268 -19.12172 -14.37155 -14.33179 -14.32793
 Alpha  occ. eigenvalues --  -10.29751 -10.27068 -10.25053 -10.25020 -10.23469
 Alpha  occ. eigenvalues --  -10.23199 -10.23093 -10.22332 -10.21485 -10.21110
 Alpha  occ. eigenvalues --  -10.20740 -10.20401 -10.20346 -10.20263 -10.20100
 Alpha  occ. eigenvalues --  -10.20053 -10.20032 -10.19518 -10.19444 -10.19358
 Alpha  occ. eigenvalues --  -10.19304 -10.19190 -10.19121 -10.19036 -10.18938
 Alpha  occ. eigenvalues --  -10.18922 -10.18886 -10.18837 -10.18716  -1.07328
 Alpha  occ. eigenvalues --   -1.04020  -0.95771  -0.93086  -0.89829  -0.86792
 Alpha  occ. eigenvalues --   -0.85732  -0.85540  -0.83741  -0.81595  -0.78312
 Alpha  occ. eigenvalues --   -0.77231  -0.75787  -0.75168  -0.74709  -0.74425
 Alpha  occ. eigenvalues --   -0.73991  -0.72246  -0.69776  -0.67090  -0.64566
 Alpha  occ. eigenvalues --   -0.62502  -0.61681  -0.61074  -0.60479  -0.60418
 Alpha  occ. eigenvalues --   -0.58766  -0.58158  -0.57393  -0.55728  -0.55261
 Alpha  occ. eigenvalues --   -0.52821  -0.52357  -0.51700  -0.49893  -0.49386
 Alpha  occ. eigenvalues --   -0.47950  -0.46742  -0.46685  -0.46589  -0.45734
 Alpha  occ. eigenvalues --   -0.45581  -0.44963  -0.44828  -0.43673  -0.43511
 Alpha  occ. eigenvalues --   -0.43334  -0.43097  -0.42336  -0.41975  -0.41707
 Alpha  occ. eigenvalues --   -0.41142  -0.40608  -0.39932  -0.39731  -0.39422
 Alpha  occ. eigenvalues --   -0.38506  -0.38420  -0.37793  -0.37270  -0.36350
 Alpha  occ. eigenvalues --   -0.36316  -0.35897  -0.35496  -0.35391  -0.35063
 Alpha  occ. eigenvalues --   -0.34985  -0.34746  -0.34314  -0.34229  -0.32467
 Alpha  occ. eigenvalues --   -0.29816  -0.28457  -0.27818  -0.27009  -0.26554
 Alpha  occ. eigenvalues --   -0.25998  -0.25393  -0.25000  -0.24826  -0.24545
 Alpha  occ. eigenvalues --   -0.23664  -0.21334
 Alpha virt. eigenvalues --   -0.06858  -0.04799  -0.02050  -0.01296  -0.01105
 Alpha virt. eigenvalues --   -0.00446   0.00080   0.00782   0.02539   0.03958
 Alpha virt. eigenvalues --    0.04502   0.07811   0.07892   0.08684   0.09411
 Alpha virt. eigenvalues --    0.09932   0.10096   0.11822   0.12533   0.13389
 Alpha virt. eigenvalues --    0.13505   0.13939   0.14074   0.14563   0.14702
 Alpha virt. eigenvalues --    0.15181   0.15840   0.15866   0.16156   0.16489
 Alpha virt. eigenvalues --    0.16833   0.17080   0.17664   0.17777   0.18226
 Alpha virt. eigenvalues --    0.18912   0.18993   0.19137   0.19452   0.20717
 Alpha virt. eigenvalues --    0.22190   0.23409   0.24050   0.24395   0.24843
 Alpha virt. eigenvalues --    0.25712   0.27284   0.28559   0.29270   0.29483
 Alpha virt. eigenvalues --    0.29779   0.30361   0.30709   0.30865   0.31241
 Alpha virt. eigenvalues --    0.31943   0.32423   0.33506   0.34030   0.34463
 Alpha virt. eigenvalues --    0.34803   0.35491   0.36407   0.39179   0.40000
 Alpha virt. eigenvalues --    0.41303   0.42719   0.44892   0.45085   0.45612
 Alpha virt. eigenvalues --    0.46469   0.47426   0.49135   0.49668   0.50340
 Alpha virt. eigenvalues --    0.50889   0.51738   0.51892   0.52149   0.52884
 Alpha virt. eigenvalues --    0.53290   0.53865   0.53897   0.54233   0.54290
 Alpha virt. eigenvalues --    0.54828   0.55256   0.55309   0.55920   0.56109
 Alpha virt. eigenvalues --    0.56593   0.56867   0.57239   0.57491   0.57949
 Alpha virt. eigenvalues --    0.58461   0.58665   0.59080   0.59207   0.59605
 Alpha virt. eigenvalues --    0.59819   0.59953   0.60228   0.60439   0.60792
 Alpha virt. eigenvalues --    0.60863   0.61118   0.61301   0.61712   0.61958
 Alpha virt. eigenvalues --    0.62340   0.62728   0.63586   0.63824   0.64220
 Alpha virt. eigenvalues --    0.64341   0.64694   0.65769   0.65969   0.66517
 Alpha virt. eigenvalues --    0.67302   0.68080   0.68588   0.68761   0.69441
 Alpha virt. eigenvalues --    0.70017   0.70434   0.71018   0.72027   0.72861
 Alpha virt. eigenvalues --    0.73783   0.73942   0.75421   0.75762   0.76412
 Alpha virt. eigenvalues --    0.77479   0.77888   0.79024   0.80097   0.81048
 Alpha virt. eigenvalues --    0.82051   0.82280   0.82445   0.82739   0.83142
 Alpha virt. eigenvalues --    0.83369   0.83840   0.84012   0.84028   0.84689
 Alpha virt. eigenvalues --    0.84965   0.85324   0.85860   0.86662   0.86773
 Alpha virt. eigenvalues --    0.87400   0.87796   0.88038   0.89081   0.89293
 Alpha virt. eigenvalues --    0.89767   0.89882   0.90241   0.90681   0.91475
 Alpha virt. eigenvalues --    0.91834   0.92374   0.93067   0.93475   0.93720
 Alpha virt. eigenvalues --    0.94555   0.95231   0.95323   0.95633   0.96206
 Alpha virt. eigenvalues --    0.96987   0.97438   0.98125   0.98846   0.99230
 Alpha virt. eigenvalues --    0.99960   1.00836   1.01581   1.02847   1.03346
 Alpha virt. eigenvalues --    1.04015   1.05870   1.06828   1.08160   1.08558
 Alpha virt. eigenvalues --    1.09604   1.10663   1.11604   1.11823   1.12750
 Alpha virt. eigenvalues --    1.12925   1.14357   1.14537   1.15743   1.16630
 Alpha virt. eigenvalues --    1.17633   1.18053   1.18736   1.19415   1.20091
 Alpha virt. eigenvalues --    1.20791   1.21980   1.23792   1.24154   1.24881
 Alpha virt. eigenvalues --    1.25604   1.26289   1.27692   1.29902   1.30530
 Alpha virt. eigenvalues --    1.31192   1.32083   1.33066   1.33474   1.35611
 Alpha virt. eigenvalues --    1.36925   1.39819   1.40558   1.40839   1.41619
 Alpha virt. eigenvalues --    1.41883   1.42399   1.42663   1.43897   1.44081
 Alpha virt. eigenvalues --    1.44218   1.45319   1.46247   1.46522   1.47095
 Alpha virt. eigenvalues --    1.47538   1.47838   1.48159   1.48726   1.49129
 Alpha virt. eigenvalues --    1.49307   1.49590   1.50170   1.50217   1.50911
 Alpha virt. eigenvalues --    1.51263   1.51896   1.53127   1.54714   1.55656
 Alpha virt. eigenvalues --    1.57311   1.60001   1.61329   1.62608   1.65512
 Alpha virt. eigenvalues --    1.67487   1.68264   1.70348   1.71659   1.71782
 Alpha virt. eigenvalues --    1.73141   1.74500   1.75118   1.76578   1.78383
 Alpha virt. eigenvalues --    1.78565   1.79715   1.80299   1.80787   1.81127
 Alpha virt. eigenvalues --    1.82130   1.82295   1.83192   1.83836   1.83985
 Alpha virt. eigenvalues --    1.84894   1.85590   1.87179   1.88130   1.88412
 Alpha virt. eigenvalues --    1.89292   1.89585   1.90117   1.90407   1.91478
 Alpha virt. eigenvalues --    1.92206   1.92263   1.92540   1.94182   1.95232
 Alpha virt. eigenvalues --    1.95829   1.96621   1.97065   1.97365   1.97977
 Alpha virt. eigenvalues --    1.98753   1.99569   1.99835   2.03163   2.03983
 Alpha virt. eigenvalues --    2.04267   2.04896   2.05234   2.05625   2.05981
 Alpha virt. eigenvalues --    2.07435   2.08197   2.08806   2.09151   2.09255
 Alpha virt. eigenvalues --    2.12804   2.13688   2.13952   2.14169   2.14314
 Alpha virt. eigenvalues --    2.14940   2.15500   2.15642   2.16228   2.17777
 Alpha virt. eigenvalues --    2.20128   2.20731   2.21327   2.22123   2.24092
 Alpha virt. eigenvalues --    2.25533   2.25830   2.26496   2.28320   2.28582
 Alpha virt. eigenvalues --    2.29056   2.29949   2.30334   2.30736   2.31101
 Alpha virt. eigenvalues --    2.31342   2.31588   2.33121   2.34106   2.35651
 Alpha virt. eigenvalues --    2.36498   2.37498   2.38320   2.39078   2.40211
 Alpha virt. eigenvalues --    2.42263   2.43335   2.44937   2.45433   2.45943
 Alpha virt. eigenvalues --    2.47349   2.50409   2.53170   2.54557   2.56598
 Alpha virt. eigenvalues --    2.57367   2.57952   2.58328   2.59455   2.60042
 Alpha virt. eigenvalues --    2.60993   2.63080   2.63584   2.64150   2.65561
 Alpha virt. eigenvalues --    2.65844   2.68404   2.69157   2.70911   2.71437
 Alpha virt. eigenvalues --    2.72031   2.72625   2.73303   2.73498   2.73846
 Alpha virt. eigenvalues --    2.74233   2.74474   2.75086   2.75875   2.77257
 Alpha virt. eigenvalues --    2.78444   2.80047   2.81123   2.81996   2.83204
 Alpha virt. eigenvalues --    2.85012   2.86158   2.87319   2.88237   2.93596
 Alpha virt. eigenvalues --    2.94273   2.95822   3.01621   3.04960   3.05824
 Alpha virt. eigenvalues --    3.07548   3.09819   3.13361   3.18638   3.30116
 Alpha virt. eigenvalues --    3.35183   3.39668   3.40428   3.41277   3.53688
 Alpha virt. eigenvalues --    3.87788   3.99218   4.03675   4.08076   4.08672
 Alpha virt. eigenvalues --    4.08845   4.10031   4.10898   4.11072   4.12664
 Alpha virt. eigenvalues --    4.12875   4.14305   4.14936   4.17260   4.19426
 Alpha virt. eigenvalues --    4.24519   4.24976   4.29679   4.31679   4.32789
 Alpha virt. eigenvalues --    4.34050   4.34111   4.35096   4.38418   4.39659
 Alpha virt. eigenvalues --    4.41690   4.44126   4.50395   4.53858   4.63744
 Alpha virt. eigenvalues --    4.69364   4.70473   4.73334   4.86151
          Condensed to atoms (all electrons):
 Mulliken charges:
               1
     1  C   -0.549202
     2  C    0.181654
     3  C    0.055536
     4  C    0.215411
     5  N   -0.511835
     6  C    0.232226
     7  C    0.099811
     8  C   -0.142709
     9  C   -0.138963
    10  C   -0.121604
    11  C   -0.139742
    12  C   -0.162371
    13  N   -0.596648
    14  C    0.330388
    15  C   -0.264637
    16  C    0.301764
    17  O   -0.606310
    18  C    0.080089
    19  C   -0.194048
    20  C   -0.133131
    21  C   -0.121810
    22  C   -0.135667
    23  C   -0.118288
    24  C   -0.070111
    25  C    0.502077
    26  O   -0.511156
    27  N   -0.561988
    28  C   -0.236622
    29  C    0.164552
    30  C   -0.185842
    31  C   -0.130915
    32  C   -0.127545
    33  C   -0.126699
    34  C   -0.187200
    35  H    0.174846
    36  H    0.185767
    37  H    0.201299
    38  H    0.151942
    39  H    0.130199
    40  H    0.131130
    41  H    0.136246
    42  H    0.153464
    43  H    0.153613
    44  H    0.408778
    45  H    0.143948
    46  H    0.136892
    47  H    0.137791
    48  H    0.142191
    49  H    0.151668
    50  H    0.332779
    51  H    0.198674
    52  H    0.156009
    53  H    0.161002
    54  H    0.135498
    55  H    0.132848
    56  H    0.131923
    57  H    0.123023
 Sum of Mulliken charges =  -0.00000
 Mulliken charges with hydrogens summed into heavy atoms:
               1
     1  C    0.012710
     2  C    0.181654
     3  C    0.055536
     4  C    0.215411
     5  N   -0.511835
     6  C    0.232226
     7  C    0.099811
     8  C    0.009233
     9  C   -0.008764
    10  C    0.009526
    11  C   -0.003496
    12  C   -0.008906
    13  N   -0.596648
    14  C    0.330388
    15  C   -0.111024
    16  C    0.301764
    17  O   -0.197531
    18  C    0.080089
    19  C   -0.050099
    20  C    0.003761
    21  C    0.015981
    22  C    0.006524
    23  C    0.033380
    24  C   -0.070111
    25  C    0.502077
    26  O   -0.511156
    27  N   -0.229209
    28  C    0.118062
    29  C    0.164552
    30  C   -0.024840
    31  C    0.004583
    32  C    0.005304
    33  C    0.005225
    34  C   -0.064176
 Electronic spatial extent (au):  <R**2>=          18669.8267
 Charge=             -0.0000 electrons
 Dipole moment (field-independent basis, Debye):
    X=             -2.5956    Y=             -4.7142    Z=              1.8002  Tot=              5.6746
 Quadrupole moment (field-independent basis, Debye-Ang):
   XX=           -159.0238   YY=           -203.0543   ZZ=           -194.8589
   XY=              1.9362   XZ=              9.0188   YZ=            -10.7631
 Traceless Quadrupole moment (field-independent basis, Debye-Ang):
   XX=             26.6219   YY=            -17.4086   ZZ=             -9.2132
   XY=              1.9362   XZ=              9.0188   YZ=            -10.7631
 Octapole moment (field-independent basis, Debye-Ang**2):
  XXX=            -34.9578  YYY=           -206.2329  ZZZ=             45.0599  XYY=            -53.1477
  XXY=             -4.7397  XXZ=             64.7629  XZZ=              5.4780  YZZ=            -25.5798
  YYZ=             -9.6107  XYZ=            -16.8345
 Hexadecapole moment (field-independent basis, Debye-Ang**3):
 XXXX=         -16250.7792 YYYY=          -7075.1919 ZZZZ=          -1200.4250 XXXY=           1262.8293
 XXXZ=           -234.8757 YYYX=            923.4048 YYYZ=           -290.8660 ZZZX=           -340.6577
 ZZZY=           -209.6528 XXYY=          -3773.7952 XXZZ=          -3049.4313 YYZZ=          -1295.5056
 XXYZ=           -184.2905 YYXZ=           -128.9546 ZZXY=            328.3671
 N-N= 3.198173072005D+03 E-N=-9.724496021418D+03  KE= 1.419978935738D+03
 Leave Link  601 at Sat Nov  5 09:41:07 2022, MaxMem=   402653184 cpu:               1.0 elap:               0.2
 (Enter /home/wykgroup/appl/g16/l9999.exe)
 Electronic transition elements 
                 1             2             3             4 
      1  -0.143355D+04 -0.143352D+04 -0.143350D+04 -0.143350D+04
      2   0.000000D+00  0.000000D+00  0.140712D+01 -0.375772D+00
      3   0.000000D+00  0.000000D+00  0.167848D+01 -0.250393D+00
      4   0.000000D+00  0.000000D+00  0.322690D+00 -0.838070D-01
      5   0.000000D+00  0.000000D+00 -0.183395D+00  0.506389D-01
      6   0.000000D+00  0.000000D+00 -0.222470D+00  0.312692D-01
      7   0.000000D+00  0.000000D+00 -0.422812D-01  0.642960D-02
      8   0.000000D+00  0.000000D+00 -0.207504D+00  0.272916D-02
      9   0.000000D+00  0.000000D+00  0.150885D+00 -0.162686D-01
     10   0.000000D+00  0.000000D+00 -0.121340D+01 -0.111778D-02
     11   0.000000D+00  0.000000D+00  0.113371D+01 -0.295513D+00
     12   0.000000D+00  0.000000D+00 -0.205316D+00  0.863687D-01
     13   0.000000D+00  0.000000D+00  0.351379D-01 -0.148120D-01
     14   0.000000D+00  0.000000D+00  0.869516D+00 -0.239361D+00
     15   0.000000D+00  0.000000D+00  0.357082D+00 -0.103279D+00
     16   0.000000D+00  0.000000D+00  0.143100D-01  0.665770D-02
 1\1\GINC-NODE09\SP\RB3LYP TD-FC\6-31G(d)\C29H23N3O2\WYKGROUP\05-Nov-20
 22\0\\#p b3lyp/6-31g(d) 6D 10F nosymm GFInput td=(50-50,nstate=2) SCF=
 XQC\\Gaussian input prepared by ASE\\0,1\C,0,2.4949600212,2.0746460584
 ,-0.6431602942\C,0,1.1195234341,1.4841961258,-0.4490265034\C,0,0.00591
 00342,2.2958414503,-0.1333143874\C,0,0.2147516969,3.6917032214,0.09976
 43067\N,0,0.4327030399,4.8199692299,0.2911449894\C,0,-1.2760370425,1.6
 947946641,-0.0009429848\C,0,-2.5179600661,2.4591830946,0.3033526988\C,
 0,-3.4985313312,1.8572142367,1.1105687947\C,0,-4.6816718314,2.52722104
 26,1.4087558801\C,0,-4.916055085,3.8033769852,0.8906434095\C,0,-3.9596
 299823,4.4007184312,0.0693328224\C,0,-2.7684340664,3.7363379167,-0.222
 4425684\N,0,-1.4341427814,0.3774676258,-0.1233450885\C,0,-0.3909923233
 ,-0.4255598071,-0.4072089476\C,0,-0.6185212218,-1.8591568607,-0.525521
 5592\C,0,-1.7808927428,-2.5601106437,-0.5026268009\O,0,-1.6380459198,-
 3.9231494178,-0.4276294542\C,0,-3.1889716919,-2.1003325042,-0.54523065
 2\C,0,-4.124826363,-2.6864423303,0.3248443492\C,0,-5.4736409445,-2.335
 6510909,0.2571583282\C,0,-5.9061995586,-1.4122881407,-0.6946096301\C,0
 ,-4.9841919235,-0.8364109963,-1.5739273108\C,0,-3.6362456114,-1.174500
 6083,-1.5003707686\C,0,0.9131318607,0.1065995887,-0.5805055174\C,0,2.0
 906881604,-0.7582461234,-0.9774901488\O,0,2.5654976273,-0.7272034704,-
 2.1085906828\N,0,2.5849189485,-1.5496273366,0.0201835378\C,0,3.7644093
 526,-2.400095301,-0.155358864\C,0,5.0465502804,-1.7656199244,0.3502453
 41\C,0,5.6450982634,-0.7190827223,-0.3676158493\C,0,6.8112886944,-0.11
 7109608,0.1029090222\C,0,7.3972163206,-0.5544225348,1.294323631\C,0,6.
 811525023,-1.5977688621,2.0111505979\C,0,5.6417425935,-2.1985335285,1.
 5395078965\H,0,3.2449537615,1.5211259265,-0.0677911517\H,0,2.533385398
 9,3.1234602926,-0.3450944397\H,0,2.7844383388,1.997623508,-1.696724146
 6\H,0,-3.3174499983,0.8594614732,1.4947618499\H,0,-5.4234745826,2.0517
 766093,2.0449669783\H,0,-5.840262506,4.3263408218,1.1221675813\H,0,-4.
 1384976146,5.3865474485,-0.3508572979\H,0,-2.0453741952,4.2120837022,-
 0.8750292627\H,0,0.2688011255,-2.4790794972,-0.5923401344\H,0,-2.48879
 18244,-4.3322302226,-0.6557473949\H,0,-3.7876417012,-3.395824365,1.076
 6922335\H,0,-6.1828333437,-2.7838246819,0.9477006931\H,0,-6.9568180629
 ,-1.1414047071,-0.7534936588\H,0,-5.3182201911,-0.1212412081,-2.320191
 3962\H,0,-2.9225119258,-0.7292957276,-2.1841096851\H,0,2.2140134019,-1
 .4274041773,0.9531327859\H,0,3.8304531403,-2.6029194618,-1.2268892141\
 H,0,3.5807887427,-3.3490424249,0.3600520521\H,0,5.1900421988,-0.386891
 7055,-1.2970895077\H,0,7.2682363136,0.6900895011,-0.4635695892\H,0,8.3
 077351617,-0.0860451419,1.6583402527\H,0,7.2635876138,-1.9462198052,2.
 9360628965\H,0,5.1905148845,-3.0150470174,2.1000829626\\Version=ES64L-
 G16RevB.01\HF=-1433.6350931\RMSD=6.450e-09\PG=C01 [X(C29H23N3O2)]\\@


 ON A CLEAR DISK YOU CAN SEEK FOREVER.
 Job cpu time:       0 days  2 hours 23 minutes  6.6 seconds.
 Elapsed time:       0 days  0 hours 11 minutes 54.6 seconds.
 File lengths (MBytes):  RWF=   1769 Int=      0 D2E=      0 Chk=     65 Scr=      1
 Normal termination of Gaussian 16 at Sat Nov  5 09:41:07 2022.
