 Entering Gaussian System, Link 0=/home/wykgroup/appl/g16/g16
 Input=./calculation/no_transfer_pubchem_sampling_5_b3lyp/156878615.com
 Output=./calculation/no_transfer_pubchem_sampling_5_b3lyp/156878615.log
 Initial command:
 /home/wykgroup/appl/g16/l1.exe "/userdata/scratch/wykgroup/khs/./calculation/no_transfer_pubchem_sampling_5_b3lyp/156878615/Gau-20824.inp" -scrdir="/userdata/scratch/wykgroup/khs/./calculation/no_transfer_pubchem_sampling_5_b3lyp/156878615/"
 Entering Link 1 = /home/wykgroup/appl/g16/l1.exe PID=     20825.
  
 Copyright (c) 1988-2017, Gaussian, Inc.  All Rights Reserved.
  
 This is part of the Gaussian(R) 16 program.  It is based on
 the Gaussian(R) 09 system (copyright 2009, Gaussian, Inc.),
 the Gaussian(R) 03 system (copyright 2003, Gaussian, Inc.),
 the Gaussian(R) 98 system (copyright 1998, Gaussian, Inc.),
 the Gaussian(R) 94 system (copyright 1995, Gaussian, Inc.),
 the Gaussian 92(TM) system (copyright 1992, Gaussian, Inc.),
 the Gaussian 90(TM) system (copyright 1990, Gaussian, Inc.),
 the Gaussian 88(TM) system (copyright 1988, Gaussian, Inc.),
 the Gaussian 86(TM) system (copyright 1986, Carnegie Mellon
 University), and the Gaussian 82(TM) system (copyright 1983,
 Carnegie Mellon University). Gaussian is a federally registered
 trademark of Gaussian, Inc.
  
 This software contains proprietary and confidential information,
 including trade secrets, belonging to Gaussian, Inc.
  
 This software is provided under written license and may be
 used, copied, transmitted, or stored only in accord with that
 written license.
  
 The following legend is applicable only to US Government
 contracts under FAR:
  
                    RESTRICTED RIGHTS LEGEND
  
 Use, reproduction and disclosure by the US Government is
 subject to restrictions as set forth in subparagraphs (a)
 and (c) of the Commercial Computer Software - Restricted
 Rights clause in FAR 52.227-19.
  
 Gaussian, Inc.
 340 Quinnipiac St., Bldg. 40, Wallingford CT 06492
  
  
 ---------------------------------------------------------------
 Warning -- This program may not be used in any manner that
 competes with the business of Gaussian, Inc. or will provide
 assistance to any competitor of Gaussian, Inc.  The licensee
 of this program is prohibited from giving any competitor of
 Gaussian, Inc. access to this program.  By using this program,
 the user acknowledges that Gaussian, Inc. is engaged in the
 business of creating and licensing software in the field of
 computational chemistry and represents and warrants to the
 licensee that it is not a competitor of Gaussian, Inc. and that
 it will not use this program in any manner prohibited above.
 ---------------------------------------------------------------
  

 Cite this work as:
 Gaussian 16, Revision B.01,
 M. J. Frisch, G. W. Trucks, H. B. Schlegel, G. E. Scuseria, 
 M. A. Robb, J. R. Cheeseman, G. Scalmani, V. Barone, 
 G. A. Petersson, H. Nakatsuji, X. Li, M. Caricato, A. V. Marenich, 
 J. Bloino, B. G. Janesko, R. Gomperts, B. Mennucci, H. P. Hratchian, 
 J. V. Ortiz, A. F. Izmaylov, J. L. Sonnenberg, D. Williams-Young, 
 F. Ding, F. Lipparini, F. Egidi, J. Goings, B. Peng, A. Petrone, 
 T. Henderson, D. Ranasinghe, V. G. Zakrzewski, J. Gao, N. Rega, 
 G. Zheng, W. Liang, M. Hada, M. Ehara, K. Toyota, R. Fukuda, 
 J. Hasegawa, M. Ishida, T. Nakajima, Y. Honda, O. Kitao, H. Nakai, 
 T. Vreven, K. Throssell, J. A. Montgomery, Jr., J. E. Peralta, 
 F. Ogliaro, M. J. Bearpark, J. J. Heyd, E. N. Brothers, K. N. Kudin, 
 V. N. Staroverov, T. A. Keith, R. Kobayashi, J. Normand, 
 K. Raghavachari, A. P. Rendell, J. C. Burant, S. S. Iyengar, 
 J. Tomasi, M. Cossi, J. M. Millam, M. Klene, C. Adamo, R. Cammi, 
 J. W. Ochterski, R. L. Martin, K. Morokuma, O. Farkas, 
 J. B. Foresman, and D. J. Fox, Gaussian, Inc., Wallingford CT, 2016.
 
 ******************************************
 Gaussian 16:  ES64L-G16RevB.01 20-Dec-2017
                 4-Nov-2022 
 ******************************************
 %chk=./calculation/no_transfer_pubchem_sampling_5_b3lyp/156878615.chk
 %nprocshared=7
 Will use up to    7 processors via shared memory.
 %mem=6GB
 -----------------------------
 #p b3lyp/6-31g(d) opt SCF=XQC
 -----------------------------
 1/18=20,19=15,26=3,38=1/1,3;
 2/9=110,12=2,17=6,18=5,40=1/2;
 3/5=1,6=6,7=1,11=2,25=1,30=1,71=1,74=-5/1,2,3;
 4//1;
 5/5=2,8=3,13=1,38=5/2,8;
 6/7=2,8=2,9=2,10=2,28=1/1;
 7//1,2,3,16;
 1/18=20,19=15,26=3/3(2);
 2/9=110/2;
 99//99;
 2/9=110/2;
 3/5=1,6=6,7=1,11=2,25=1,30=1,71=1,74=-5/1,2,3;
 4/5=5,16=3,69=1/1;
 5/5=2,8=3,13=1,38=5/2,8;
 7//1,2,3,16;
 1/18=20,19=15,26=3/3(-5);
 2/9=110/2;
 6/7=2,8=2,9=2,10=2,19=2,28=1/1;
 99/9=1/99;
 Leave Link    1 at Fri Nov  4 21:15:11 2022, MaxMem=   805306368 cpu:               0.6 elap:               0.1
 (Enter /home/wykgroup/appl/g16/l101.exe)
 ------------------------------
 Gaussian input prepared by ASE
 ------------------------------
 Symbolic Z-matrix:
 Charge =  0 Multiplicity = 1
 C                     5.99729  -2.68767  -0.751 
 C                     5.98288  -1.39115  -0.48795 
 C                     7.11223  -0.48504  -0.88126 
 C                     4.87121  -0.70487   0.24704 
 C                     4.1812    0.48108  -0.46095 
 C                     2.8278   -0.04843   0.0286 
 C                     3.49637  -1.38149   0.38503 
 C                     2.08816   0.75559   1.10153 
 C                     0.99384   1.10886   0.07083 
 C                    -0.42535   0.96343   0.51666 
 C                    -1.48567   0.45748  -0.19696 
 C                    -1.5214    0.12208  -1.65924 
 C                    -1.74587  -1.36555  -1.94835 
 C                    -2.56066   0.97127  -2.39897 
 N                    -2.61575   0.44764   0.60055 
 C                    -3.90479  -0.05128   0.31913 
 C                    -4.1448   -1.42104   0.32375 
 C                    -5.41866  -1.90501   0.08796 
 C                    -6.44415  -1.00304  -0.13248 
 F                    -7.68687  -1.47026  -0.36236 
 C                    -6.23463   0.36486  -0.11237 
 C                    -4.95678   0.8379    0.11916 
 C                    -2.3005    0.97335   1.82332 
 C                    -3.12095   1.16169   2.92973 
 C                    -2.56904   1.75025   4.04458 
 C                    -1.23348   2.1551    4.05269 
 C                    -0.43262   1.94914   2.9542 
 F                     0.84181   2.39883   3.00903 
 C                    -0.92855   1.32399   1.8073 
 C                     1.58907   0.03716  -0.86827 
 H                     6.82074  -3.14899  -1.27007 
 H                     5.20041  -3.34631  -0.453 
 H                     7.52435   0.00357   0.00114 
 H                     7.9042   -1.04032  -1.3765 
 H                     6.75811   0.29514  -1.55349 
 H                     5.24452  -0.39016   1.22621 
 H                     4.27269   0.42255  -1.54512 
 H                     4.46017   1.47913  -0.1281 
 H                     3.25577  -1.79689   1.36189 
 H                     3.32158  -2.13392  -0.38173 
 H                     2.63151   1.59257   1.53165 
 H                     1.71166   0.1246    1.90488 
 H                     1.15324   2.11416  -0.33158 
 H                    -0.54066   0.39804  -2.05191 
 H                    -1.50899  -1.57616  -2.98888 
 H                    -2.78138  -1.64549  -1.77473 
 H                    -1.106    -1.98214  -1.32096 
 H                    -2.43594   2.02337  -2.15256 
 H                    -3.57316   0.66981  -2.14278 
 H                    -2.43302   0.85226  -3.47249 
 H                    -3.33266  -2.10272   0.52441 
 H                    -5.62477  -2.96351   0.08306 
 H                    -7.06183   1.0372   -0.27488 
 H                    -4.76335   1.89957   0.14357 
 H                    -4.15789   0.86279   2.90523 
 H                    -3.17381   1.91753   4.92213 
 H                    -0.81435   2.64188   4.919 
 H                     1.77412   0.33975  -1.89832 
 H                     1.02338  -0.89219  -0.85766 
 
 ITRead=  0  0  0  0  0  0  0  0  0  0  0  0  0  0  0  0  0  0  0  0
 ITRead=  0  0  0  0  0  0  0  0  0  0  0  0  0  0  0  0  0  0  0  0
 ITRead=  0  0  0  0  0  0  0  0  0  0  0  0  0  0  0  0  0  0  0
 MicOpt= -1 -1 -1 -1 -1 -1 -1 -1 -1 -1 -1 -1 -1 -1 -1 -1 -1 -1 -1 -1
 MicOpt= -1 -1 -1 -1 -1 -1 -1 -1 -1 -1 -1 -1 -1 -1 -1 -1 -1 -1 -1 -1
 MicOpt= -1 -1 -1 -1 -1 -1 -1 -1 -1 -1 -1 -1 -1 -1 -1 -1 -1 -1 -1
 NAtoms=     59 NQM=       59 NQMF=       0 NMMI=      0 NMMIF=      0
                NMic=       0 NMicF=      0.
                    Isotopes and Nuclear Properties:
 (Nuclear quadrupole moments (NQMom) in fm**2, nuclear magnetic moments (NMagM)
  in nuclear magnetons)

  Atom         1           2           3           4           5           6           7           8           9          10
 IAtWgt=          12          12          12          12          12          12          12          12          12          12
 AtmWgt=  12.0000000  12.0000000  12.0000000  12.0000000  12.0000000  12.0000000  12.0000000  12.0000000  12.0000000  12.0000000
 NucSpn=           0           0           0           0           0           0           0           0           0           0
 AtZEff=  -0.0000000  -0.0000000  -0.0000000  -0.0000000  -0.0000000  -0.0000000  -0.0000000  -0.0000000  -0.0000000  -0.0000000
 NQMom=    0.0000000   0.0000000   0.0000000   0.0000000   0.0000000   0.0000000   0.0000000   0.0000000   0.0000000   0.0000000
 NMagM=    0.0000000   0.0000000   0.0000000   0.0000000   0.0000000   0.0000000   0.0000000   0.0000000   0.0000000   0.0000000
 AtZNuc=   6.0000000   6.0000000   6.0000000   6.0000000   6.0000000   6.0000000   6.0000000   6.0000000   6.0000000   6.0000000

  Atom        11          12          13          14          15          16          17          18          19          20
 IAtWgt=          12          12          12          12          14          12          12          12          12          19
 AtmWgt=  12.0000000  12.0000000  12.0000000  12.0000000  14.0030740  12.0000000  12.0000000  12.0000000  12.0000000  18.9984032
 NucSpn=           0           0           0           0           2           0           0           0           0           1
 AtZEff=  -0.0000000  -0.0000000  -0.0000000  -0.0000000  -0.0000000  -0.0000000  -0.0000000  -0.0000000  -0.0000000  -0.0000000
 NQMom=    0.0000000   0.0000000   0.0000000   0.0000000   2.0440000   0.0000000   0.0000000   0.0000000   0.0000000   0.0000000
 NMagM=    0.0000000   0.0000000   0.0000000   0.0000000   0.4037610   0.0000000   0.0000000   0.0000000   0.0000000   2.6288670
 AtZNuc=   6.0000000   6.0000000   6.0000000   6.0000000   7.0000000   6.0000000   6.0000000   6.0000000   6.0000000   9.0000000

  Atom        21          22          23          24          25          26          27          28          29          30
 IAtWgt=          12          12          12          12          12          12          12          19          12          12
 AtmWgt=  12.0000000  12.0000000  12.0000000  12.0000000  12.0000000  12.0000000  12.0000000  18.9984032  12.0000000  12.0000000
 NucSpn=           0           0           0           0           0           0           0           1           0           0
 AtZEff=  -0.0000000  -0.0000000  -0.0000000  -0.0000000  -0.0000000  -0.0000000  -0.0000000  -0.0000000  -0.0000000  -0.0000000
 NQMom=    0.0000000   0.0000000   0.0000000   0.0000000   0.0000000   0.0000000   0.0000000   0.0000000   0.0000000   0.0000000
 NMagM=    0.0000000   0.0000000   0.0000000   0.0000000   0.0000000   0.0000000   0.0000000   2.6288670   0.0000000   0.0000000
 AtZNuc=   6.0000000   6.0000000   6.0000000   6.0000000   6.0000000   6.0000000   6.0000000   9.0000000   6.0000000   6.0000000

  Atom        31          32          33          34          35          36          37          38          39          40
 IAtWgt=           1           1           1           1           1           1           1           1           1           1
 AtmWgt=   1.0078250   1.0078250   1.0078250   1.0078250   1.0078250   1.0078250   1.0078250   1.0078250   1.0078250   1.0078250
 NucSpn=           1           1           1           1           1           1           1           1           1           1
 AtZEff=  -0.0000000  -0.0000000  -0.0000000  -0.0000000  -0.0000000  -0.0000000  -0.0000000  -0.0000000  -0.0000000  -0.0000000
 NQMom=    0.0000000   0.0000000   0.0000000   0.0000000   0.0000000   0.0000000   0.0000000   0.0000000   0.0000000   0.0000000
 NMagM=    2.7928460   2.7928460   2.7928460   2.7928460   2.7928460   2.7928460   2.7928460   2.7928460   2.7928460   2.7928460
 AtZNuc=   1.0000000   1.0000000   1.0000000   1.0000000   1.0000000   1.0000000   1.0000000   1.0000000   1.0000000   1.0000000

  Atom        41          42          43          44          45          46          47          48          49          50
 IAtWgt=           1           1           1           1           1           1           1           1           1           1
 AtmWgt=   1.0078250   1.0078250   1.0078250   1.0078250   1.0078250   1.0078250   1.0078250   1.0078250   1.0078250   1.0078250
 NucSpn=           1           1           1           1           1           1           1           1           1           1
 AtZEff=  -0.0000000  -0.0000000  -0.0000000  -0.0000000  -0.0000000  -0.0000000  -0.0000000  -0.0000000  -0.0000000  -0.0000000
 NQMom=    0.0000000   0.0000000   0.0000000   0.0000000   0.0000000   0.0000000   0.0000000   0.0000000   0.0000000   0.0000000
 NMagM=    2.7928460   2.7928460   2.7928460   2.7928460   2.7928460   2.7928460   2.7928460   2.7928460   2.7928460   2.7928460
 AtZNuc=   1.0000000   1.0000000   1.0000000   1.0000000   1.0000000   1.0000000   1.0000000   1.0000000   1.0000000   1.0000000

  Atom        51          52          53          54          55          56          57          58          59
 IAtWgt=           1           1           1           1           1           1           1           1           1
 AtmWgt=   1.0078250   1.0078250   1.0078250   1.0078250   1.0078250   1.0078250   1.0078250   1.0078250   1.0078250
 NucSpn=           1           1           1           1           1           1           1           1           1
 AtZEff=  -0.0000000  -0.0000000  -0.0000000  -0.0000000  -0.0000000  -0.0000000  -0.0000000  -0.0000000  -0.0000000
 NQMom=    0.0000000   0.0000000   0.0000000   0.0000000   0.0000000   0.0000000   0.0000000   0.0000000   0.0000000
 NMagM=    2.7928460   2.7928460   2.7928460   2.7928460   2.7928460   2.7928460   2.7928460   2.7928460   2.7928460
 AtZNuc=   1.0000000   1.0000000   1.0000000   1.0000000   1.0000000   1.0000000   1.0000000   1.0000000   1.0000000
 Leave Link  101 at Fri Nov  4 21:15:11 2022, MaxMem=   805306368 cpu:               1.8 elap:               0.3
 (Enter /home/wykgroup/appl/g16/l103.exe)

 GradGradGradGradGradGradGradGradGradGradGradGradGradGradGradGradGradGrad
 Berny optimization.
 Initialization pass.
                           ----------------------------
                           !    Initial Parameters    !
                           ! (Angstroms and Degrees)  !
 --------------------------                            --------------------------
 ! Name  Definition              Value          Derivative Info.                !
 --------------------------------------------------------------------------------
 ! R1    R(1,2)                  1.323          estimate D2E/DX2                !
 ! R2    R(1,31)                 1.0772         estimate D2E/DX2                !
 ! R3    R(1,32)                 1.0759         estimate D2E/DX2                !
 ! R4    R(2,3)                  1.5004         estimate D2E/DX2                !
 ! R5    R(2,4)                  1.499          estimate D2E/DX2                !
 ! R6    R(3,33)                 1.0896         estimate D2E/DX2                !
 ! R7    R(3,34)                 1.0866         estimate D2E/DX2                !
 ! R8    R(3,35)                 1.089          estimate D2E/DX2                !
 ! R9    R(4,5)                  1.544          estimate D2E/DX2                !
 ! R10   R(4,7)                  1.5385         estimate D2E/DX2                !
 ! R11   R(4,36)                 1.0942         estimate D2E/DX2                !
 ! R12   R(5,6)                  1.5335         estimate D2E/DX2                !
 ! R13   R(5,37)                 1.0896         estimate D2E/DX2                !
 ! R14   R(5,38)                 1.0884         estimate D2E/DX2                !
 ! R15   R(6,7)                  1.5333         estimate D2E/DX2                !
 ! R16   R(6,8)                  1.5312         estimate D2E/DX2                !
 ! R17   R(6,30)                 1.5317         estimate D2E/DX2                !
 ! R18   R(7,39)                 1.0884         estimate D2E/DX2                !
 ! R19   R(7,40)                 1.0884         estimate D2E/DX2                !
 ! R20   R(8,9)                  1.5442         estimate D2E/DX2                !
 ! R21   R(8,41)                 1.0866         estimate D2E/DX2                !
 ! R22   R(8,42)                 1.0887         estimate D2E/DX2                !
 ! R23   R(9,10)                 1.4947         estimate D2E/DX2                !
 ! R24   R(9,30)                 1.5443         estimate D2E/DX2                !
 ! R25   R(9,43)                 1.0945         estimate D2E/DX2                !
 ! R26   R(10,11)                1.3746         estimate D2E/DX2                !
 ! R27   R(10,29)                1.4314         estimate D2E/DX2                !
 ! R28   R(11,12)                1.5007         estimate D2E/DX2                !
 ! R29   R(11,15)                1.3832         estimate D2E/DX2                !
 ! R30   R(12,13)                1.532          estimate D2E/DX2                !
 ! R31   R(12,14)                1.5324         estimate D2E/DX2                !
 ! R32   R(12,44)                1.0919         estimate D2E/DX2                !
 ! R33   R(13,45)                1.0877         estimate D2E/DX2                !
 ! R34   R(13,46)                1.0866         estimate D2E/DX2                !
 ! R35   R(13,47)                1.0878         estimate D2E/DX2                !
 ! R36   R(14,48)                1.0877         estimate D2E/DX2                !
 ! R37   R(14,49)                1.087          estimate D2E/DX2                !
 ! R38   R(14,50)                1.0876         estimate D2E/DX2                !
 ! R39   R(15,16)                1.4106         estimate D2E/DX2                !
 ! R40   R(15,23)                1.3678         estimate D2E/DX2                !
 ! R41   R(16,17)                1.3906         estimate D2E/DX2                !
 ! R42   R(16,22)                1.3919         estimate D2E/DX2                !
 ! R43   R(17,18)                1.3829         estimate D2E/DX2                !
 ! R44   R(17,51)                1.0791         estimate D2E/DX2                !
 ! R45   R(18,19)                1.3834         estimate D2E/DX2                !
 ! R46   R(18,52)                1.0784         estimate D2E/DX2                !
 ! R47   R(19,20)                1.3474         estimate D2E/DX2                !
 ! R48   R(19,21)                1.384          estimate D2E/DX2                !
 ! R49   R(21,22)                1.3821         estimate D2E/DX2                !
 ! R50   R(21,53)                1.0783         estimate D2E/DX2                !
 ! R51   R(22,54)                1.0794         estimate D2E/DX2                !
 ! R52   R(23,24)                1.3902         estimate D2E/DX2                !
 ! R53   R(23,29)                1.4161         estimate D2E/DX2                !
 ! R54   R(24,25)                1.3762         estimate D2E/DX2                !
 ! R55   R(24,55)                1.0794         estimate D2E/DX2                !
 ! R56   R(25,26)                1.3956         estimate D2E/DX2                !
 ! R57   R(25,56)                1.0788         estimate D2E/DX2                !
 ! R58   R(26,27)                1.3749         estimate D2E/DX2                !
 ! R59   R(26,57)                1.0785         estimate D2E/DX2                !
 ! R60   R(27,28)                1.3526         estimate D2E/DX2                !
 ! R61   R(27,29)                1.3972         estimate D2E/DX2                !
 ! R62   R(30,58)                1.0894         estimate D2E/DX2                !
 ! R63   R(30,59)                1.088          estimate D2E/DX2                !
 ! A1    A(2,1,31)             121.589          estimate D2E/DX2                !
 ! A2    A(2,1,32)             122.4635         estimate D2E/DX2                !
 ! A3    A(31,1,32)            115.9436         estimate D2E/DX2                !
 ! A4    A(1,2,3)              122.1069         estimate D2E/DX2                !
 ! A5    A(1,2,4)              123.6574         estimate D2E/DX2                !
 ! A6    A(3,2,4)              114.221          estimate D2E/DX2                !
 ! A7    A(2,3,33)             110.0728         estimate D2E/DX2                !
 ! A8    A(2,3,34)             111.0668         estimate D2E/DX2                !
 ! A9    A(2,3,35)             110.4688         estimate D2E/DX2                !
 ! A10   A(33,3,34)            108.8189         estimate D2E/DX2                !
 ! A11   A(33,3,35)            107.555          estimate D2E/DX2                !
 ! A12   A(34,3,35)            108.7695         estimate D2E/DX2                !
 ! A13   A(2,4,5)              117.2747         estimate D2E/DX2                !
 ! A14   A(2,4,7)              120.3539         estimate D2E/DX2                !
 ! A15   A(2,4,36)             108.5089         estimate D2E/DX2                !
 ! A16   A(5,4,7)               88.8294         estimate D2E/DX2                !
 ! A17   A(5,4,36)             109.9936         estimate D2E/DX2                !
 ! A18   A(7,4,36)             110.5554         estimate D2E/DX2                !
 ! A19   A(4,5,6)               89.015          estimate D2E/DX2                !
 ! A20   A(4,5,37)             112.1777         estimate D2E/DX2                !
 ! A21   A(4,5,38)             116.7148         estimate D2E/DX2                !
 ! A22   A(6,5,37)             111.9131         estimate D2E/DX2                !
 ! A23   A(6,5,38)             116.4349         estimate D2E/DX2                !
 ! A24   A(37,5,38)            109.3912         estimate D2E/DX2                !
 ! A25   A(5,6,7)               89.4032         estimate D2E/DX2                !
 ! A26   A(5,6,8)              117.9483         estimate D2E/DX2                !
 ! A27   A(5,6,30)             120.4981         estimate D2E/DX2                !
 ! A28   A(7,6,8)              120.2807         estimate D2E/DX2                !
 ! A29   A(7,6,30)             122.5011         estimate D2E/DX2                !
 ! A30   A(8,6,30)              89.4442         estimate D2E/DX2                !
 ! A31   A(4,7,6)               89.2234         estimate D2E/DX2                !
 ! A32   A(4,7,39)             116.4789         estimate D2E/DX2                !
 ! A33   A(4,7,40)             112.6037         estimate D2E/DX2                !
 ! A34   A(6,7,39)             116.362          estimate D2E/DX2                !
 ! A35   A(6,7,40)             111.5456         estimate D2E/DX2                !
 ! A36   A(39,7,40)            109.4466         estimate D2E/DX2                !
 ! A37   A(6,8,9)               89.6987         estimate D2E/DX2                !
 ! A38   A(6,8,41)             116.1207         estimate D2E/DX2                !
 ! A39   A(6,8,42)             112.3186         estimate D2E/DX2                !
 ! A40   A(9,8,41)             116.2529         estimate D2E/DX2                !
 ! A41   A(9,8,42)             112.3355         estimate D2E/DX2                !
 ! A42   A(41,8,42)            109.1031         estimate D2E/DX2                !
 ! A43   A(8,9,10)             116.8411         estimate D2E/DX2                !
 ! A44   A(8,9,30)              88.5094         estimate D2E/DX2                !
 ! A45   A(8,9,43)             110.6286         estimate D2E/DX2                !
 ! A46   A(10,9,30)            118.6752         estimate D2E/DX2                !
 ! A47   A(10,9,43)            109.7136         estimate D2E/DX2                !
 ! A48   A(30,9,43)            110.9591         estimate D2E/DX2                !
 ! A49   A(9,10,11)            127.8344         estimate D2E/DX2                !
 ! A50   A(9,10,29)            125.3257         estimate D2E/DX2                !
 ! A51   A(11,10,29)           106.8361         estimate D2E/DX2                !
 ! A52   A(10,11,12)           127.3365         estimate D2E/DX2                !
 ! A53   A(10,11,15)           109.4818         estimate D2E/DX2                !
 ! A54   A(12,11,15)           122.7369         estimate D2E/DX2                !
 ! A55   A(11,12,13)           113.8538         estimate D2E/DX2                !
 ! A56   A(11,12,14)           111.2636         estimate D2E/DX2                !
 ! A57   A(11,12,44)           105.8162         estimate D2E/DX2                !
 ! A58   A(13,12,14)           110.3423         estimate D2E/DX2                !
 ! A59   A(13,12,44)           108.0086         estimate D2E/DX2                !
 ! A60   A(14,12,44)           107.1872         estimate D2E/DX2                !
 ! A61   A(12,13,45)           109.6719         estimate D2E/DX2                !
 ! A62   A(12,13,46)           111.0777         estimate D2E/DX2                !
 ! A63   A(12,13,47)           110.8171         estimate D2E/DX2                !
 ! A64   A(45,13,46)           108.0889         estimate D2E/DX2                !
 ! A65   A(45,13,47)           108.2932         estimate D2E/DX2                !
 ! A66   A(46,13,47)           108.8067         estimate D2E/DX2                !
 ! A67   A(12,14,48)           110.4183         estimate D2E/DX2                !
 ! A68   A(12,14,49)           111.3604         estimate D2E/DX2                !
 ! A69   A(12,14,50)           109.6475         estimate D2E/DX2                !
 ! A70   A(48,14,49)           108.7623         estimate D2E/DX2                !
 ! A71   A(48,14,50)           108.4193         estimate D2E/DX2                !
 ! A72   A(49,14,50)           108.155          estimate D2E/DX2                !
 ! A73   A(11,15,16)           129.3534         estimate D2E/DX2                !
 ! A74   A(11,15,23)           108.9292         estimate D2E/DX2                !
 ! A75   A(16,15,23)           121.662          estimate D2E/DX2                !
 ! A76   A(15,16,17)           120.3612         estimate D2E/DX2                !
 ! A77   A(15,16,22)           119.5635         estimate D2E/DX2                !
 ! A78   A(17,16,22)           119.9523         estimate D2E/DX2                !
 ! A79   A(16,17,18)           120.2065         estimate D2E/DX2                !
 ! A80   A(16,17,51)           119.5337         estimate D2E/DX2                !
 ! A81   A(18,17,51)           120.2557         estimate D2E/DX2                !
 ! A82   A(17,18,19)           118.8034         estimate D2E/DX2                !
 ! A83   A(17,18,52)           121.3544         estimate D2E/DX2                !
 ! A84   A(19,18,52)           119.8393         estimate D2E/DX2                !
 ! A85   A(18,19,20)           118.9987         estimate D2E/DX2                !
 ! A86   A(18,19,21)           121.9974         estimate D2E/DX2                !
 ! A87   A(20,19,21)           119.0014         estimate D2E/DX2                !
 ! A88   A(19,21,22)           118.7297         estimate D2E/DX2                !
 ! A89   A(19,21,53)           119.864          estimate D2E/DX2                !
 ! A90   A(22,21,53)           121.4063         estimate D2E/DX2                !
 ! A91   A(16,22,21)           120.2783         estimate D2E/DX2                !
 ! A92   A(16,22,54)           119.3173         estimate D2E/DX2                !
 ! A93   A(21,22,54)           120.4041         estimate D2E/DX2                !
 ! A94   A(15,23,24)           128.8661         estimate D2E/DX2                !
 ! A95   A(15,23,29)           107.9589         estimate D2E/DX2                !
 ! A96   A(24,23,29)           123.175          estimate D2E/DX2                !
 ! A97   A(23,24,25)           117.7735         estimate D2E/DX2                !
 ! A98   A(23,24,55)           120.7534         estimate D2E/DX2                !
 ! A99   A(25,24,55)           121.4705         estimate D2E/DX2                !
 ! A100  A(24,25,26)           120.8344         estimate D2E/DX2                !
 ! A101  A(24,25,56)           120.0311         estimate D2E/DX2                !
 ! A102  A(26,25,56)           119.1282         estimate D2E/DX2                !
 ! A103  A(25,26,27)           120.6182         estimate D2E/DX2                !
 ! A104  A(25,26,57)           120.498          estimate D2E/DX2                !
 ! A105  A(27,26,57)           118.8822         estimate D2E/DX2                !
 ! A106  A(26,27,28)           117.8161         estimate D2E/DX2                !
 ! A107  A(26,27,29)           121.0705         estimate D2E/DX2                !
 ! A108  A(28,27,29)           121.0965         estimate D2E/DX2                !
 ! A109  A(10,29,23)           106.7624         estimate D2E/DX2                !
 ! A110  A(10,29,27)           136.7237         estimate D2E/DX2                !
 ! A111  A(23,29,27)           116.4469         estimate D2E/DX2                !
 ! A112  A(6,30,9)              89.6802         estimate D2E/DX2                !
 ! A113  A(6,30,58)            115.5806         estimate D2E/DX2                !
 ! A114  A(6,30,59)            111.5326         estimate D2E/DX2                !
 ! A115  A(9,30,58)            116.5966         estimate D2E/DX2                !
 ! A116  A(9,30,59)            112.7337         estimate D2E/DX2                !
 ! A117  A(58,30,59)           109.559          estimate D2E/DX2                !
 ! D1    D(31,1,2,3)            -0.6012         estimate D2E/DX2                !
 ! D2    D(31,1,2,4)          -179.1281         estimate D2E/DX2                !
 ! D3    D(32,1,2,3)           178.6534         estimate D2E/DX2                !
 ! D4    D(32,1,2,4)             0.1264         estimate D2E/DX2                !
 ! D5    D(1,2,3,33)          -121.3512         estimate D2E/DX2                !
 ! D6    D(1,2,3,34)            -0.7677         estimate D2E/DX2                !
 ! D7    D(1,2,3,35)           120.0179         estimate D2E/DX2                !
 ! D8    D(4,2,3,33)            57.3043         estimate D2E/DX2                !
 ! D9    D(4,2,3,34)           177.8878         estimate D2E/DX2                !
 ! D10   D(4,2,3,35)           -61.3266         estimate D2E/DX2                !
 ! D11   D(1,2,4,5)           -123.8828         estimate D2E/DX2                !
 ! D12   D(1,2,4,7)            -17.9032         estimate D2E/DX2                !
 ! D13   D(1,2,4,36)           110.7885         estimate D2E/DX2                !
 ! D14   D(3,2,4,5)             57.4854         estimate D2E/DX2                !
 ! D15   D(3,2,4,7)            163.465          estimate D2E/DX2                !
 ! D16   D(3,2,4,36)           -67.8433         estimate D2E/DX2                !
 ! D17   D(2,4,5,6)            138.0379         estimate D2E/DX2                !
 ! D18   D(2,4,5,37)            24.7053         estimate D2E/DX2                !
 ! D19   D(2,4,5,38)          -102.6346         estimate D2E/DX2                !
 ! D20   D(7,4,5,6)             14.1109         estimate D2E/DX2                !
 ! D21   D(7,4,5,37)           -99.2216         estimate D2E/DX2                !
 ! D22   D(7,4,5,38)           133.4384         estimate D2E/DX2                !
 ! D23   D(36,4,5,6)           -97.3751         estimate D2E/DX2                !
 ! D24   D(36,4,5,37)          149.2923         estimate D2E/DX2                !
 ! D25   D(36,4,5,38)           21.9524         estimate D2E/DX2                !
 ! D26   D(2,4,7,6)           -135.3907         estimate D2E/DX2                !
 ! D27   D(2,4,7,39)           105.3098         estimate D2E/DX2                !
 ! D28   D(2,4,7,40)           -22.2998         estimate D2E/DX2                !
 ! D29   D(5,4,7,6)            -14.1122         estimate D2E/DX2                !
 ! D30   D(5,4,7,39)          -133.4117         estimate D2E/DX2                !
 ! D31   D(5,4,7,40)            98.9787         estimate D2E/DX2                !
 ! D32   D(36,4,7,6)            96.8393         estimate D2E/DX2                !
 ! D33   D(36,4,7,39)          -22.4602         estimate D2E/DX2                !
 ! D34   D(36,4,7,40)         -150.0698         estimate D2E/DX2                !
 ! D35   D(4,5,6,7)            -14.1576         estimate D2E/DX2                !
 ! D36   D(4,5,6,8)            110.2666         estimate D2E/DX2                !
 ! D37   D(4,5,6,30)          -142.2907         estimate D2E/DX2                !
 ! D38   D(37,5,6,7)            99.422          estimate D2E/DX2                !
 ! D39   D(37,5,6,8)          -136.1539         estimate D2E/DX2                !
 ! D40   D(37,5,6,30)          -28.7112         estimate D2E/DX2                !
 ! D41   D(38,5,6,7)          -133.733          estimate D2E/DX2                !
 ! D42   D(38,5,6,8)            -9.3089         estimate D2E/DX2                !
 ! D43   D(38,5,6,30)           98.1339         estimate D2E/DX2                !
 ! D44   D(5,6,7,4)             14.2079         estimate D2E/DX2                !
 ! D45   D(5,6,7,39)           133.6106         estimate D2E/DX2                !
 ! D46   D(5,6,7,40)           -99.866          estimate D2E/DX2                !
 ! D47   D(8,6,7,4)           -108.2492         estimate D2E/DX2                !
 ! D48   D(8,6,7,39)            11.1535         estimate D2E/DX2                !
 ! D49   D(8,6,7,40)           137.6769         estimate D2E/DX2                !
 ! D50   D(30,6,7,4)           140.7314         estimate D2E/DX2                !
 ! D51   D(30,6,7,39)          -99.8659         estimate D2E/DX2                !
 ! D52   D(30,6,7,40)           26.6575         estimate D2E/DX2                !
 ! D53   D(5,6,8,9)            112.343          estimate D2E/DX2                !
 ! D54   D(5,6,8,41)            -7.0027         estimate D2E/DX2                !
 ! D55   D(5,6,8,42)          -133.5369         estimate D2E/DX2                !
 ! D56   D(7,6,8,9)           -140.4313         estimate D2E/DX2                !
 ! D57   D(7,6,8,41)           100.223          estimate D2E/DX2                !
 ! D58   D(7,6,8,42)           -26.3112         estimate D2E/DX2                !
 ! D59   D(30,6,8,9)           -12.3651         estimate D2E/DX2                !
 ! D60   D(30,6,8,41)         -131.7108         estimate D2E/DX2                !
 ! D61   D(30,6,8,42)          101.755          estimate D2E/DX2                !
 ! D62   D(5,6,30,9)          -110.1991         estimate D2E/DX2                !
 ! D63   D(5,6,30,58)            9.3847         estimate D2E/DX2                !
 ! D64   D(5,6,30,59)          135.392          estimate D2E/DX2                !
 ! D65   D(7,6,30,9)           138.6444         estimate D2E/DX2                !
 ! D66   D(7,6,30,58)         -101.7718         estimate D2E/DX2                !
 ! D67   D(7,6,30,59)           24.2354         estimate D2E/DX2                !
 ! D68   D(8,6,30,9)            12.3649         estimate D2E/DX2                !
 ! D69   D(8,6,30,58)          131.9488         estimate D2E/DX2                !
 ! D70   D(8,6,30,59)         -102.044          estimate D2E/DX2                !
 ! D71   D(6,8,9,10)           133.9214         estimate D2E/DX2                !
 ! D72   D(6,8,9,30)            12.2667         estimate D2E/DX2                !
 ! D73   D(6,8,9,43)           -99.6057         estimate D2E/DX2                !
 ! D74   D(41,8,9,10)         -106.8489         estimate D2E/DX2                !
 ! D75   D(41,8,9,30)          131.4964         estimate D2E/DX2                !
 ! D76   D(41,8,9,43)           19.624          estimate D2E/DX2                !
 ! D77   D(42,8,9,10)           19.8167         estimate D2E/DX2                !
 ! D78   D(42,8,9,30)         -101.8379         estimate D2E/DX2                !
 ! D79   D(42,8,9,43)          146.2897         estimate D2E/DX2                !
 ! D80   D(8,9,10,11)         -139.017          estimate D2E/DX2                !
 ! D81   D(8,9,10,29)           40.1859         estimate D2E/DX2                !
 ! D82   D(30,9,10,11)         -34.9218         estimate D2E/DX2                !
 ! D83   D(30,9,10,29)         144.2812         estimate D2E/DX2                !
 ! D84   D(43,9,10,11)          94.059          estimate D2E/DX2                !
 ! D85   D(43,9,10,29)         -86.738          estimate D2E/DX2                !
 ! D86   D(8,9,30,6)           -12.2628         estimate D2E/DX2                !
 ! D87   D(8,9,30,58)         -130.9542         estimate D2E/DX2                !
 ! D88   D(8,9,30,59)          101.0414         estimate D2E/DX2                !
 ! D89   D(10,9,30,6)         -132.3011         estimate D2E/DX2                !
 ! D90   D(10,9,30,58)         109.0075         estimate D2E/DX2                !
 ! D91   D(10,9,30,59)         -18.9969         estimate D2E/DX2                !
 ! D92   D(43,9,30,6)           99.2945         estimate D2E/DX2                !
 ! D93   D(43,9,30,58)         -19.3969         estimate D2E/DX2                !
 ! D94   D(43,9,30,59)        -147.4013         estimate D2E/DX2                !
 ! D95   D(9,10,11,12)         -10.0542         estimate D2E/DX2                !
 ! D96   D(9,10,11,15)         177.5055         estimate D2E/DX2                !
 ! D97   D(29,10,11,12)        170.6252         estimate D2E/DX2                !
 ! D98   D(29,10,11,15)         -1.8151         estimate D2E/DX2                !
 ! D99   D(9,10,29,23)        -177.7022         estimate D2E/DX2                !
 ! D100  D(9,10,29,27)           5.5333         estimate D2E/DX2                !
 ! D101  D(11,10,29,23)          1.6401         estimate D2E/DX2                !
 ! D102  D(11,10,29,27)       -175.1244         estimate D2E/DX2                !
 ! D103  D(10,11,12,13)        116.383          estimate D2E/DX2                !
 ! D104  D(10,11,12,14)       -118.171          estimate D2E/DX2                !
 ! D105  D(10,11,12,44)         -2.0801         estimate D2E/DX2                !
 ! D106  D(15,11,12,13)        -72.096          estimate D2E/DX2                !
 ! D107  D(15,11,12,14)         53.3501         estimate D2E/DX2                !
 ! D108  D(15,11,12,44)        169.4409         estimate D2E/DX2                !
 ! D109  D(10,11,15,16)       -175.9787         estimate D2E/DX2                !
 ! D110  D(10,11,15,23)          1.3031         estimate D2E/DX2                !
 ! D111  D(12,11,15,16)         11.1647         estimate D2E/DX2                !
 ! D112  D(12,11,15,23)       -171.5535         estimate D2E/DX2                !
 ! D113  D(11,12,13,45)       -165.5817         estimate D2E/DX2                !
 ! D114  D(11,12,13,46)         75.0008         estimate D2E/DX2                !
 ! D115  D(11,12,13,47)        -46.0742         estimate D2E/DX2                !
 ! D116  D(14,12,13,45)         68.485          estimate D2E/DX2                !
 ! D117  D(14,12,13,46)        -50.9325         estimate D2E/DX2                !
 ! D118  D(14,12,13,47)       -172.0075         estimate D2E/DX2                !
 ! D119  D(44,12,13,45)        -48.3814         estimate D2E/DX2                !
 ! D120  D(44,12,13,46)       -167.7988         estimate D2E/DX2                !
 ! D121  D(44,12,13,47)         71.1261         estimate D2E/DX2                !
 ! D122  D(11,12,14,48)         49.5905         estimate D2E/DX2                !
 ! D123  D(11,12,14,49)        -71.3477         estimate D2E/DX2                !
 ! D124  D(11,12,14,50)        168.9902         estimate D2E/DX2                !
 ! D125  D(13,12,14,48)        176.9699         estimate D2E/DX2                !
 ! D126  D(13,12,14,49)         56.0317         estimate D2E/DX2                !
 ! D127  D(13,12,14,50)        -63.6304         estimate D2E/DX2                !
 ! D128  D(44,12,14,48)        -65.6551         estimate D2E/DX2                !
 ! D129  D(44,12,14,49)        173.4067         estimate D2E/DX2                !
 ! D130  D(44,12,14,50)         53.7446         estimate D2E/DX2                !
 ! D131  D(11,15,16,17)         75.1877         estimate D2E/DX2                !
 ! D132  D(11,15,16,22)       -108.846          estimate D2E/DX2                !
 ! D133  D(23,15,16,17)       -101.7912         estimate D2E/DX2                !
 ! D134  D(23,15,16,22)         74.1752         estimate D2E/DX2                !
 ! D135  D(11,15,23,24)        179.7759         estimate D2E/DX2                !
 ! D136  D(11,15,23,29)         -0.228          estimate D2E/DX2                !
 ! D137  D(16,15,23,24)         -2.6934         estimate D2E/DX2                !
 ! D138  D(16,15,23,29)        177.3028         estimate D2E/DX2                !
 ! D139  D(15,16,17,18)        178.0078         estimate D2E/DX2                !
 ! D140  D(15,16,17,51)         -1.2527         estimate D2E/DX2                !
 ! D141  D(22,16,17,18)          2.0572         estimate D2E/DX2                !
 ! D142  D(22,16,17,51)       -177.2033         estimate D2E/DX2                !
 ! D143  D(15,16,22,21)       -177.7946         estimate D2E/DX2                !
 ! D144  D(15,16,22,54)          2.4085         estimate D2E/DX2                !
 ! D145  D(17,16,22,21)         -1.8115         estimate D2E/DX2                !
 ! D146  D(17,16,22,54)        178.3916         estimate D2E/DX2                !
 ! D147  D(16,17,18,19)         -0.8757         estimate D2E/DX2                !
 ! D148  D(16,17,18,52)        179.735          estimate D2E/DX2                !
 ! D149  D(51,17,18,19)        178.3795         estimate D2E/DX2                !
 ! D150  D(51,17,18,52)         -1.0098         estimate D2E/DX2                !
 ! D151  D(17,18,19,20)       -179.988          estimate D2E/DX2                !
 ! D152  D(17,18,19,21)         -0.5688         estimate D2E/DX2                !
 ! D153  D(52,18,19,20)         -0.5892         estimate D2E/DX2                !
 ! D154  D(52,18,19,21)        178.83           estimate D2E/DX2                !
 ! D155  D(18,19,21,22)          0.8106         estimate D2E/DX2                !
 ! D156  D(18,19,21,53)       -179.1335         estimate D2E/DX2                !
 ! D157  D(20,19,21,22)       -179.7702         estimate D2E/DX2                !
 ! D158  D(20,19,21,53)          0.2857         estimate D2E/DX2                !
 ! D159  D(19,21,22,16)          0.391          estimate D2E/DX2                !
 ! D160  D(19,21,22,54)       -179.8143         estimate D2E/DX2                !
 ! D161  D(53,21,22,16)       -179.6658         estimate D2E/DX2                !
 ! D162  D(53,21,22,54)          0.1289         estimate D2E/DX2                !
 ! D163  D(15,23,24,25)       -178.2591         estimate D2E/DX2                !
 ! D164  D(15,23,24,55)          1.1579         estimate D2E/DX2                !
 ! D165  D(29,23,24,25)          1.7452         estimate D2E/DX2                !
 ! D166  D(29,23,24,55)       -178.8378         estimate D2E/DX2                !
 ! D167  D(15,23,29,10)         -0.8724         estimate D2E/DX2                !
 ! D168  D(15,23,29,27)        176.6509         estimate D2E/DX2                !
 ! D169  D(24,23,29,10)        179.1241         estimate D2E/DX2                !
 ! D170  D(24,23,29,27)         -3.3527         estimate D2E/DX2                !
 ! D171  D(23,24,25,26)          0.6633         estimate D2E/DX2                !
 ! D172  D(23,24,25,56)        179.7459         estimate D2E/DX2                !
 ! D173  D(55,24,25,26)       -178.7493         estimate D2E/DX2                !
 ! D174  D(55,24,25,56)          0.3333         estimate D2E/DX2                !
 ! D175  D(24,25,26,27)         -1.3318         estimate D2E/DX2                !
 ! D176  D(24,25,26,57)        178.2037         estimate D2E/DX2                !
 ! D177  D(56,25,26,27)        179.5774         estimate D2E/DX2                !
 ! D178  D(56,25,26,57)         -0.8871         estimate D2E/DX2                !
 ! D179  D(25,26,27,28)        178.1097         estimate D2E/DX2                !
 ! D180  D(25,26,27,29)         -0.4106         estimate D2E/DX2                !
 ! D181  D(57,26,27,28)         -1.4332         estimate D2E/DX2                !
 ! D182  D(57,26,27,29)       -179.9535         estimate D2E/DX2                !
 ! D183  D(26,27,29,10)        179.1588         estimate D2E/DX2                !
 ! D184  D(26,27,29,23)          2.6193         estimate D2E/DX2                !
 ! D185  D(28,27,29,10)          0.6871         estimate D2E/DX2                !
 ! D186  D(28,27,29,23)       -175.8524         estimate D2E/DX2                !
 --------------------------------------------------------------------------------
 Trust Radius=3.00D-01 FncErr=1.00D-07 GrdErr=1.00D-06 EigMax=2.50D+02 EigMin=1.00D-04
 Number of steps in this run=    354 maximum allowed number of steps=    354.
 GradGradGradGradGradGradGradGradGradGradGradGradGradGradGradGradGradGrad

 Leave Link  103 at Fri Nov  4 21:15:11 2022, MaxMem=   805306368 cpu:               0.2 elap:               0.1
 (Enter /home/wykgroup/appl/g16/l202.exe)
 Stoichiometry    C27H29F2N
 Framework group  C1[X(C27H29F2N)]
 Deg. of freedom   171
 Full point group                 C1      NOp   1
 Largest Abelian subgroup         C1      NOp   1
 Largest concise Abelian subgroup C1      NOp   1
                         Standard orientation:                         
 ---------------------------------------------------------------------
 Center     Atomic      Atomic             Coordinates (Angstroms)
 Number     Number       Type             X           Y           Z
 ---------------------------------------------------------------------
      1          6           0       -6.728213   -2.086586   -1.619229
      2          6           0       -6.644293   -1.134433   -0.704501
      3          6           0       -7.753879   -0.863165    0.268330
      4          6           0       -5.465915   -0.218583   -0.564327
      5          6           0       -4.765801   -0.171837    0.810989
      6          6           0       -3.411418   -0.165494    0.091718
      7          6           0       -4.115620   -0.585521   -1.203945
      8          6           0       -2.580696    1.120009    0.137211
      9          6           0       -1.530319    0.400629    1.011207
     10          6           0       -0.096357    0.585083    0.632079
     11          6           0        0.900885   -0.360902    0.619638
     12          6           0        0.842325   -1.752511    1.178214
     13          6           0        0.987154   -2.851268    0.120487
     14          6           0        1.874785   -1.947510    2.293732
     15          7           0        2.071423    0.208893    0.152336
     16          6           0        3.320754   -0.394720   -0.101758
     17          6           0        3.502161   -1.186782   -1.230291
     18          6           0        4.739477   -1.743443   -1.498081
     19          6           0        5.788830   -1.481900   -0.635392
     20          9           0        6.996124   -2.022049   -0.892677
     21          6           0        5.639114   -0.672755    0.477399
     22          6           0        4.397120   -0.125511    0.738652
     23          6           0        1.846142    1.531835   -0.112247
     24          6           0        2.733114    2.488931   -0.591828
     25          6           0        2.268519    3.775550   -0.742338
     26          6           0        0.953833    4.104891   -0.409418
     27          6           0        0.086087    3.142909    0.051094
     28          9           0       -1.163151    3.531817    0.393959
     29          6           0        0.491529    1.813075    0.190046
     30          6           0       -2.221048   -0.937470    0.668978
     31          1           0       -7.597692   -2.717443   -1.698897
     32          1           0       -5.944986   -2.272185   -2.333184
     33          1           0       -8.095974    0.166437    0.167807
     34          1           0       -8.594644   -1.530122    0.097775
     35          1           0       -7.404150   -0.994708    1.291256
     36          1           0       -5.771407    0.788700   -0.863035
     37          1           0       -4.918831   -1.087280    1.381743
     38          1           0       -4.983440    0.688011    1.441867
     39          1           0       -3.839877   -0.037940   -2.103294
     40          1           0       -4.015179   -1.654025   -1.385173
     41          1           0       -3.063620    1.986224    0.581313
     42          1           0       -2.188037    1.393343   -0.840728
     43          1           0       -1.668559    0.653783    2.067035
     44          1           0       -0.145786   -1.849474    1.632570
     45          1           0        0.684999   -3.807406    0.541989
     46          1           0        2.017749   -2.939865   -0.212384
     47          1           0        0.356881   -2.643632   -0.741413
     48          1           0        1.808596   -1.138424    3.017742
     49          1           0        2.886029   -1.979094    1.896180
     50          1           0        1.683701   -2.886131    2.808878
     51          1           0        2.673932   -1.353965   -1.901576
     52          1           0        4.899787   -2.363885   -2.365417
     53          1           0        6.484055   -0.480657    1.119181
     54          1           0        4.250665    0.511843    1.597412
     55          1           0        3.753511    2.227089   -0.827257
     56          1           0        2.926922    4.548037   -1.107847
     57          1           0        0.603784    5.120753   -0.502241
     58          1           0       -2.449084   -1.596661    1.505801
     59          1           0       -1.695682   -1.496603   -0.102496
 ---------------------------------------------------------------------
 Rotational constants (GHZ):           0.2801262           0.0755515           0.0645857
 Leave Link  202 at Fri Nov  4 21:15:12 2022, MaxMem=   805306368 cpu:               0.3 elap:               0.1
 (Enter /home/wykgroup/appl/g16/l301.exe)
 Standard basis: 6-31G(d) (6D, 7F)
 Ernie: Thresh=  0.10000D-02 Tol=  0.10000D-05 Strict=F.
 There are   508 symmetry adapted cartesian basis functions of A   symmetry.
 There are   508 symmetry adapted basis functions of A   symmetry.
   508 basis functions,   956 primitive gaussians,   508 cartesian basis functions
   108 alpha electrons      108 beta electrons
       nuclear repulsion energy      2866.7997661160 Hartrees.
 IExCor=  402 DFT=T Ex+Corr=B3LYP ExCW=0 ScaHFX=  0.200000
 ScaDFX=  0.800000  0.720000  1.000000  0.810000 ScalE2=  1.000000  1.000000
 IRadAn=      5 IRanWt=     -1 IRanGd=            0 ICorTp=0 IEmpDi=  4
 NAtoms=   59 NActive=   59 NUniq=   59 SFac= 1.00D+00 NAtFMM=   60 NAOKFM=F Big=F
 Integral buffers will be    131072 words long.
 Raffenetti 2 integral format.
 Two-electron integral symmetry is turned on.
 Leave Link  301 at Fri Nov  4 21:15:12 2022, MaxMem=   805306368 cpu:               0.6 elap:               0.1
 (Enter /home/wykgroup/appl/g16/l302.exe)
 NPDir=0 NMtPBC=     1 NCelOv=     1 NCel=       1 NClECP=     1 NCelD=      1
         NCelK=      1 NCelE2=     1 NClLst=     1 CellRange=     0.0.
 One-electron integrals computed using PRISM.
 One-electron integral symmetry used in STVInt
 NBasis=   508 RedAO= T EigKep=  2.99D-04  NBF=   508
 NBsUse=   508 1.00D-06 EigRej= -1.00D+00 NBFU=   508
 Precomputing XC quadrature grid using
 IXCGrd= 4 IRadAn=           5 IRanWt=          -1 IRanGd=           0 AccXCQ= 0.00D+00.
 Generated NRdTot=       0 NPtTot=           0 NUsed=           0 NTot=          32
 NSgBfM=   496   496   496   496   496 MxSgAt=    59 MxSgA2=    59.
 Leave Link  302 at Fri Nov  4 21:15:13 2022, MaxMem=   805306368 cpu:               7.4 elap:               1.1
 (Enter /home/wykgroup/appl/g16/l303.exe)
 DipDrv:  MaxL=1.
 Leave Link  303 at Fri Nov  4 21:15:13 2022, MaxMem=   805306368 cpu:               0.9 elap:               0.2
 (Enter /home/wykgroup/appl/g16/l401.exe)
 ExpMin= 1.61D-01 ExpMax= 7.00D+03 ExpMxC= 1.05D+03 IAcc=3 IRadAn=         5 AccDes= 0.00D+00
 Harris functional with IExCor=  402 and IRadAn=       5 diagonalized for initial guess.
 HarFok:  IExCor=  402 AccDes= 0.00D+00 IRadAn=         5 IDoV= 1 UseB2=F ITyADJ=14
 ICtDFT=  3500011 ScaDFX=  1.000000  1.000000  1.000000  1.000000
 FoFCou: FMM=F IPFlag=           0 FMFlag=      100000 FMFlg1=           0
         NFxFlg=           0 DoJE=T BraDBF=F KetDBF=T FulRan=T
         wScrn=  0.000000 ICntrl=       500 IOpCl=  0 I1Cent=   200000004 NGrid=           0
         NMat0=    1 NMatS0=      1 NMatT0=    0 NMatD0=    1 NMtDS0=    0 NMtDT0=    0
 Petite list used in FoFCou.
 Harris En= -1300.75821106088    
 JPrj=0 DoOrth=F DoCkMO=F.
 Leave Link  401 at Fri Nov  4 21:15:18 2022, MaxMem=   805306368 cpu:              32.2 elap:               4.9
 (Enter /home/wykgroup/appl/g16/l502.exe)
 Integral symmetry usage will be decided dynamically.
 Closed shell SCF:
 Using DIIS extrapolation, IDIIS=  1040.
 NGot=   805306368 LenX=   804780955 LenY=   804522383
 Requested convergence on RMS density matrix=1.00D-08 within  32 cycles.
 Requested convergence on MAX density matrix=1.00D-06.
 Requested convergence on             energy=1.00D-06.
 No special actions if energy rises.
 Fock matrices will be formed incrementally for  20 cycles.
 Integral accuracy reduced to 1.0D-05 until final iterations.

 Cycle   1  Pass 0  IDiag  1:
 FoFJK:  IHMeth= 1 ICntrl=       0 DoSepK=F KAlg= 0 I1Cent=           0 FoldK=F
 IRaf= 670000000 NMat=       1 IRICut=       1 DoRegI=T DoRafI=F ISym2E= 0 IDoP0=0 IntGTp=1.
 FoFCou: FMM=F IPFlag=           0 FMFlag=      100000 FMFlg1=           0
         NFxFlg=           0 DoJE=F BraDBF=F KetDBF=F FulRan=T
         wScrn=  0.000000 ICntrl=         0 IOpCl=  0 I1Cent=           0 NGrid=           0
         NMat0=    1 NMatS0=      1 NMatT0=    0 NMatD0=    1 NMtDS0=    0 NMtDT0=    0
 Symmetry not used in FoFCou.
 E= -1299.92715867423    
 DIIS: error= 2.63D-02 at cycle   1 NSaved=   1.
 NSaved= 1 IEnMin= 1 EnMin= -1299.92715867423     IErMin= 1 ErrMin= 2.63D-02
 ErrMax= 2.63D-02  0.00D+00 EMaxC= 1.00D-01 BMatC= 7.17D-01 BMatP= 7.17D-01
 IDIUse=3 WtCom= 7.37D-01 WtEn= 2.63D-01
 Coeff-Com:  0.100D+01
 Coeff-En:   0.100D+01
 Coeff:      0.100D+01
 Gap=     0.168 Goal=   None    Shift=    0.000
 GapD=    0.168 DampG=1.000 DampE=0.500 DampFc=0.5000 IDamp=-1.
 Damping current iteration by 5.00D-01
 RMSDP=4.06D-03 MaxDP=1.41D-01              OVMax= 2.03D-01

 Cycle   2  Pass 0  IDiag  1:
 RMSU=  1.99D-03    CP:  9.73D-01
 E= -1300.27422457167     Delta-E=       -0.347065897442 Rises=F Damp=T
 DIIS: error= 5.98D-03 at cycle   2 NSaved=   2.
 NSaved= 2 IEnMin= 2 EnMin= -1300.27422457167     IErMin= 2 ErrMin= 5.98D-03
 ErrMax= 5.98D-03  0.00D+00 EMaxC= 1.00D-01 BMatC= 4.52D-02 BMatP= 7.17D-01
 IDIUse=3 WtCom= 9.40D-01 WtEn= 5.98D-02
 Coeff-Com:  0.474D-01 0.953D+00
 Coeff-En:   0.824D-01 0.918D+00
 Coeff:      0.495D-01 0.951D+00
 Gap=     0.215 Goal=   None    Shift=    0.000
 RMSDP=1.16D-03 MaxDP=8.12D-02 DE=-3.47D-01 OVMax= 1.83D-01

 Cycle   3  Pass 0  IDiag  1:
 RMSU=  1.12D-03    CP:  9.63D-01  8.72D-01
 E= -1300.66109199829     Delta-E=       -0.386867426614 Rises=F Damp=F
 DIIS: error= 5.15D-03 at cycle   3 NSaved=   3.
 NSaved= 3 IEnMin= 3 EnMin= -1300.66109199829     IErMin= 3 ErrMin= 5.15D-03
 ErrMax= 5.15D-03  0.00D+00 EMaxC= 1.00D-01 BMatC= 3.42D-02 BMatP= 4.52D-02
 IDIUse=3 WtCom= 9.48D-01 WtEn= 5.15D-02
 Coeff-Com: -0.187D-01 0.463D+00 0.556D+00
 Coeff-En:   0.000D+00 0.000D+00 0.100D+01
 Coeff:     -0.178D-01 0.439D+00 0.579D+00
 Gap=     0.169 Goal=   None    Shift=    0.000
 RMSDP=6.55D-04 MaxDP=4.82D-02 DE=-3.87D-01 OVMax= 9.53D-02

 Cycle   4  Pass 0  IDiag  1:
 RMSU=  5.16D-04    CP:  9.62D-01  9.46D-01  6.63D-01
 E= -1300.68177834145     Delta-E=       -0.020686343159 Rises=F Damp=F
 DIIS: error= 3.65D-03 at cycle   4 NSaved=   4.
 NSaved= 4 IEnMin= 4 EnMin= -1300.68177834145     IErMin= 4 ErrMin= 3.65D-03
 ErrMax= 3.65D-03  0.00D+00 EMaxC= 1.00D-01 BMatC= 1.22D-02 BMatP= 3.42D-02
 IDIUse=3 WtCom= 9.64D-01 WtEn= 3.65D-02
 Coeff-Com: -0.159D-01 0.118D+00 0.383D+00 0.515D+00
 Coeff-En:   0.000D+00 0.000D+00 0.304D+00 0.696D+00
 Coeff:     -0.153D-01 0.113D+00 0.380D+00 0.522D+00
 Gap=     0.165 Goal=   None    Shift=    0.000
 RMSDP=3.23D-04 MaxDP=2.05D-02 DE=-2.07D-02 OVMax= 5.29D-02

 Cycle   5  Pass 0  IDiag  1:
 RMSU=  1.60D-04    CP:  9.62D-01  9.35D-01  7.44D-01  4.86D-01
 E= -1300.69274756880     Delta-E=       -0.010969227354 Rises=F Damp=F
 DIIS: error= 1.34D-03 at cycle   5 NSaved=   5.
 NSaved= 5 IEnMin= 5 EnMin= -1300.69274756880     IErMin= 5 ErrMin= 1.34D-03
 ErrMax= 1.34D-03  0.00D+00 EMaxC= 1.00D-01 BMatC= 1.36D-03 BMatP= 1.22D-02
 IDIUse=3 WtCom= 9.87D-01 WtEn= 1.34D-02
 Coeff-Com: -0.794D-02 0.334D-01 0.192D+00 0.335D+00 0.447D+00
 Coeff-En:   0.000D+00 0.000D+00 0.000D+00 0.770D-01 0.923D+00
 Coeff:     -0.783D-02 0.330D-01 0.189D+00 0.332D+00 0.454D+00
 Gap=     0.164 Goal=   None    Shift=    0.000
 RMSDP=1.08D-04 MaxDP=5.35D-03 DE=-1.10D-02 OVMax= 1.69D-02

 Cycle   6  Pass 0  IDiag  1:
 RMSU=  4.73D-05    CP:  9.62D-01  9.35D-01  7.53D-01  5.61D-01  4.47D-01
 E= -1300.69411294810     Delta-E=       -0.001365379297 Rises=F Damp=F
 DIIS: error= 4.13D-04 at cycle   6 NSaved=   6.
 NSaved= 6 IEnMin= 6 EnMin= -1300.69411294810     IErMin= 6 ErrMin= 4.13D-04
 ErrMax= 4.13D-04  0.00D+00 EMaxC= 1.00D-01 BMatC= 1.10D-04 BMatP= 1.36D-03
 IDIUse=3 WtCom= 9.96D-01 WtEn= 4.13D-03
 Coeff-Com: -0.259D-02 0.554D-02 0.669D-01 0.134D+00 0.271D+00 0.525D+00
 Coeff-En:   0.000D+00 0.000D+00 0.000D+00 0.000D+00 0.456D-01 0.954D+00
 Coeff:     -0.258D-02 0.551D-02 0.666D-01 0.133D+00 0.270D+00 0.527D+00
 Gap=     0.164 Goal=   None    Shift=    0.000
 RMSDP=2.98D-05 MaxDP=1.52D-03 DE=-1.37D-03 OVMax= 4.11D-03

 Cycle   7  Pass 0  IDiag  1:
 RMSU=  1.62D-05    CP:  9.62D-01  9.35D-01  7.55D-01  5.62D-01  5.27D-01
                    CP:  5.50D-01
 E= -1300.69422253927     Delta-E=       -0.000109591176 Rises=F Damp=F
 DIIS: error= 1.13D-04 at cycle   7 NSaved=   7.
 NSaved= 7 IEnMin= 7 EnMin= -1300.69422253927     IErMin= 7 ErrMin= 1.13D-04
 ErrMax= 1.13D-04  0.00D+00 EMaxC= 1.00D-01 BMatC= 1.15D-05 BMatP= 1.10D-04
 IDIUse=3 WtCom= 9.99D-01 WtEn= 1.13D-03
 Coeff-Com: -0.762D-03 0.362D-03 0.228D-01 0.493D-01 0.121D+00 0.318D+00
 Coeff-Com:  0.489D+00
 Coeff-En:   0.000D+00 0.000D+00 0.000D+00 0.000D+00 0.000D+00 0.525D-01
 Coeff-En:   0.947D+00
 Coeff:     -0.762D-03 0.361D-03 0.227D-01 0.493D-01 0.121D+00 0.318D+00
 Coeff:      0.490D+00
 Gap=     0.164 Goal=   None    Shift=    0.000
 RMSDP=9.16D-06 MaxDP=4.75D-04 DE=-1.10D-04 OVMax= 1.53D-03

 Initial convergence to 1.0D-05 achieved.  Increase integral accuracy.
 Cycle   8  Pass 1  IDiag  1:
 E= -1300.69420755818     Delta-E=        0.000014981089 Rises=F Damp=F
 DIIS: error= 9.73D-05 at cycle   1 NSaved=   1.
 NSaved= 1 IEnMin= 1 EnMin= -1300.69420755818     IErMin= 1 ErrMin= 9.73D-05
 ErrMax= 9.73D-05  0.00D+00 EMaxC= 1.00D-01 BMatC= 2.92D-06 BMatP= 2.92D-06
 IDIUse=1 WtCom= 1.00D+00 WtEn= 0.00D+00
 Coeff-Com:  0.100D+01
 Coeff:      0.100D+01
 Gap=     0.164 Goal=   None    Shift=    0.000
 RMSDP=9.16D-06 MaxDP=4.75D-04 DE= 1.50D-05 OVMax= 7.63D-04

 Cycle   9  Pass 1  IDiag  1:
 RMSU=  5.22D-05    CP:  1.00D+00
 E= -1300.69420812414     Delta-E=       -0.000000565957 Rises=F Damp=F
 DIIS: error= 4.73D-05 at cycle   2 NSaved=   2.
 NSaved= 2 IEnMin= 2 EnMin= -1300.69420812414     IErMin= 2 ErrMin= 4.73D-05
 ErrMax= 4.73D-05  0.00D+00 EMaxC= 1.00D-01 BMatC= 2.01D-06 BMatP= 2.92D-06
 IDIUse=1 WtCom= 1.00D+00 WtEn= 0.00D+00
 Coeff-Com:  0.436D+00 0.564D+00
 Coeff:      0.436D+00 0.564D+00
 Gap=     0.164 Goal=   None    Shift=    0.000
 RMSDP=5.82D-06 MaxDP=3.08D-04 DE=-5.66D-07 OVMax= 8.72D-04

 Cycle  10  Pass 1  IDiag  1:
 RMSU=  5.79D-06    CP:  1.00D+00  9.89D-01
 E= -1300.69420928983     Delta-E=       -0.000001165688 Rises=F Damp=F
 DIIS: error= 3.39D-05 at cycle   3 NSaved=   3.
 NSaved= 3 IEnMin= 3 EnMin= -1300.69420928983     IErMin= 3 ErrMin= 3.39D-05
 ErrMax= 3.39D-05  0.00D+00 EMaxC= 1.00D-01 BMatC= 9.03D-07 BMatP= 2.01D-06
 IDIUse=1 WtCom= 1.00D+00 WtEn= 0.00D+00
 Coeff-Com:  0.179D-01 0.398D+00 0.584D+00
 Coeff:      0.179D-01 0.398D+00 0.584D+00
 Gap=     0.164 Goal=   None    Shift=    0.000
 RMSDP=2.57D-06 MaxDP=1.42D-04 DE=-1.17D-06 OVMax= 3.89D-04

 Cycle  11  Pass 1  IDiag  1:
 RMSU=  8.96D-07    CP:  1.00D+00  1.00D+00  5.96D-01
 E= -1300.69421020162     Delta-E=       -0.000000911796 Rises=F Damp=F
 DIIS: error= 6.28D-06 at cycle   4 NSaved=   4.
 NSaved= 4 IEnMin= 4 EnMin= -1300.69421020162     IErMin= 4 ErrMin= 6.28D-06
 ErrMax= 6.28D-06  0.00D+00 EMaxC= 1.00D-01 BMatC= 5.40D-08 BMatP= 9.03D-07
 IDIUse=1 WtCom= 1.00D+00 WtEn= 0.00D+00
 Coeff-Com: -0.190D-02 0.238D+00 0.375D+00 0.389D+00
 Coeff:     -0.190D-02 0.238D+00 0.375D+00 0.389D+00
 Gap=     0.164 Goal=   None    Shift=    0.000
 RMSDP=6.00D-07 MaxDP=3.38D-05 DE=-9.12D-07 OVMax= 9.57D-05

 Cycle  12  Pass 1  IDiag  1:
 RMSU=  2.20D-07    CP:  1.00D+00  1.00D+00  6.09D-01  3.85D-01
 E= -1300.69421025662     Delta-E=       -0.000000054995 Rises=F Damp=F
 DIIS: error= 1.90D-06 at cycle   5 NSaved=   5.
 NSaved= 5 IEnMin= 5 EnMin= -1300.69421025662     IErMin= 5 ErrMin= 1.90D-06
 ErrMax= 1.90D-06  0.00D+00 EMaxC= 1.00D-01 BMatC= 2.06D-09 BMatP= 5.40D-08
 IDIUse=1 WtCom= 1.00D+00 WtEn= 0.00D+00
 Coeff-Com: -0.199D-02 0.136D+00 0.215D+00 0.246D+00 0.406D+00
 Coeff:     -0.199D-02 0.136D+00 0.215D+00 0.246D+00 0.406D+00
 Gap=     0.164 Goal=   None    Shift=    0.000
 RMSDP=1.29D-07 MaxDP=5.01D-06 DE=-5.50D-08 OVMax= 1.91D-05

 Cycle  13  Pass 1  IDiag  1:
 RMSU=  6.88D-08    CP:  1.00D+00  1.00D+00  6.11D-01  4.22D-01  5.26D-01
 E= -1300.69421025876     Delta-E=       -0.000000002138 Rises=F Damp=F
 DIIS: error= 3.03D-07 at cycle   6 NSaved=   6.
 NSaved= 6 IEnMin= 6 EnMin= -1300.69421025876     IErMin= 6 ErrMin= 3.03D-07
 ErrMax= 3.03D-07  0.00D+00 EMaxC= 1.00D-01 BMatC= 1.21D-10 BMatP= 2.06D-09
 IDIUse=1 WtCom= 1.00D+00 WtEn= 0.00D+00
 Coeff-Com: -0.105D-02 0.636D-01 0.101D+00 0.118D+00 0.246D+00 0.473D+00
 Coeff:     -0.105D-02 0.636D-01 0.101D+00 0.118D+00 0.246D+00 0.473D+00
 Gap=     0.164 Goal=   None    Shift=    0.000
 RMSDP=3.00D-08 MaxDP=2.00D-06 DE=-2.14D-09 OVMax= 3.82D-06

 Cycle  14  Pass 1  IDiag  1:
 RMSU=  2.20D-08    CP:  1.00D+00  1.00D+00  6.10D-01  4.17D-01  5.54D-01
                    CP:  7.35D-01
 E= -1300.69421025891     Delta-E=       -0.000000000151 Rises=F Damp=F
 DIIS: error= 5.66D-08 at cycle   7 NSaved=   7.
 NSaved= 7 IEnMin= 7 EnMin= -1300.69421025891     IErMin= 7 ErrMin= 5.66D-08
 ErrMax= 5.66D-08  0.00D+00 EMaxC= 1.00D-01 BMatC= 5.79D-12 BMatP= 1.21D-10
 IDIUse=1 WtCom= 1.00D+00 WtEn= 0.00D+00
 Coeff-Com: -0.305D-03 0.168D-01 0.264D-01 0.309D-01 0.776D-01 0.234D+00
 Coeff-Com:  0.615D+00
 Coeff:     -0.305D-03 0.168D-01 0.264D-01 0.309D-01 0.776D-01 0.234D+00
 Coeff:      0.615D+00
 Gap=     0.164 Goal=   None    Shift=    0.000
 RMSDP=6.84D-09 MaxDP=4.29D-07 DE=-1.51D-10 OVMax= 6.84D-07

 SCF Done:  E(RB3LYP) =  -1300.69421026     A.U. after   14 cycles
            NFock= 14  Conv=0.68D-08     -V/T= 2.0084
 KE= 1.289894952121D+03 PE=-8.759081605637D+03 EE= 3.301692677141D+03
 Leave Link  502 at Fri Nov  4 21:17:01 2022, MaxMem=   805306368 cpu:             717.4 elap:             102.9
 (Enter /home/wykgroup/appl/g16/l508.exe)
 QCSCF skips out because SCF is already converged.
 Leave Link  508 at Fri Nov  4 21:17:01 2022, MaxMem=   805306368 cpu:               0.2 elap:               0.1
 (Enter /home/wykgroup/appl/g16/l601.exe)
 Copying SCF densities to generalized density rwf, IOpCl= 0 IROHF=0.

 **********************************************************************

            Population analysis using the SCF Density.

 **********************************************************************

 Orbital symmetries:
       Occupied  (A) (A) (A) (A) (A) (A) (A) (A) (A) (A) (A) (A)
                 (A) (A) (A) (A) (A) (A) (A) (A) (A) (A) (A) (A)
                 (A) (A) (A) (A) (A) (A) (A) (A) (A) (A) (A) (A)
                 (A) (A) (A) (A) (A) (A) (A) (A) (A) (A) (A) (A)
                 (A) (A) (A) (A) (A) (A) (A) (A) (A) (A) (A) (A)
                 (A) (A) (A) (A) (A) (A) (A) (A) (A) (A) (A) (A)
                 (A) (A) (A) (A) (A) (A) (A) (A) (A) (A) (A) (A)
                 (A) (A) (A) (A) (A) (A) (A) (A) (A) (A) (A) (A)
                 (A) (A) (A) (A) (A) (A) (A) (A) (A) (A) (A) (A)
       Virtual   (A) (A) (A) (A) (A) (A) (A) (A) (A) (A) (A) (A)
                 (A) (A) (A) (A) (A) (A) (A) (A) (A) (A) (A) (A)
                 (A) (A) (A) (A) (A) (A) (A) (A) (A) (A) (A) (A)
                 (A) (A) (A) (A) (A) (A) (A) (A) (A) (A) (A) (A)
                 (A) (A) (A) (A) (A) (A) (A) (A) (A) (A) (A) (A)
                 (A) (A) (A) (A) (A) (A) (A) (A) (A) (A) (A) (A)
                 (A) (A) (A) (A) (A) (A) (A) (A) (A) (A) (A) (A)
                 (A) (A) (A) (A) (A) (A) (A) (A) (A) (A) (A) (A)
                 (A) (A) (A) (A) (A) (A) (A) (A) (A) (A) (A) (A)
                 (A) (A) (A) (A) (A) (A) (A) (A) (A) (A) (A) (A)
                 (A) (A) (A) (A) (A) (A) (A) (A) (A) (A) (A) (A)
                 (A) (A) (A) (A) (A) (A) (A) (A) (A) (A) (A) (A)
                 (A) (A) (A) (A) (A) (A) (A) (A) (A) (A) (A) (A)
                 (A) (A) (A) (A) (A) (A) (A) (A) (A) (A) (A) (A)
                 (A) (A) (A) (A) (A) (A) (A) (A) (A) (A) (A) (A)
                 (A) (A) (A) (A) (A) (A) (A) (A) (A) (A) (A) (A)
                 (A) (A) (A) (A) (A) (A) (A) (A) (A) (A) (A) (A)
                 (A) (A) (A) (A) (A) (A) (A) (A) (A) (A) (A) (A)
                 (A) (A) (A) (A) (A) (A) (A) (A) (A) (A) (A) (A)
                 (A) (A) (A) (A) (A) (A) (A) (A) (A) (A) (A) (A)
                 (A) (A) (A) (A) (A) (A) (A) (A) (A) (A) (A) (A)
                 (A) (A) (A) (A) (A) (A) (A) (A) (A) (A) (A) (A)
                 (A) (A) (A) (A) (A) (A) (A) (A) (A) (A) (A) (A)
                 (A) (A) (A) (A) (A) (A) (A) (A) (A) (A) (A) (A)
                 (A) (A) (A) (A) (A) (A) (A) (A) (A) (A) (A) (A)
                 (A) (A) (A) (A) (A) (A) (A) (A) (A) (A) (A) (A)
                 (A) (A) (A) (A) (A) (A) (A) (A) (A) (A) (A) (A)
                 (A) (A) (A) (A) (A) (A) (A) (A) (A) (A) (A) (A)
                 (A) (A) (A) (A) (A) (A) (A) (A) (A) (A) (A) (A)
                 (A) (A) (A) (A) (A) (A) (A) (A) (A) (A) (A) (A)
                 (A) (A) (A) (A) (A) (A) (A) (A) (A) (A) (A) (A)
                 (A) (A) (A) (A) (A) (A) (A) (A) (A) (A) (A) (A)
                 (A) (A) (A) (A) (A) (A) (A) (A) (A) (A) (A) (A)
                 (A) (A) (A) (A)
 The electronic state is 1-A.
 Alpha  occ. eigenvalues --  -24.71557 -24.69298 -14.37912 -10.28571 -10.25582
 Alpha  occ. eigenvalues --  -10.24130 -10.21284 -10.21283 -10.21258 -10.21202
 Alpha  occ. eigenvalues --  -10.20989 -10.20986 -10.19710 -10.18215 -10.18063
 Alpha  occ. eigenvalues --  -10.17993 -10.17933 -10.17923 -10.17773 -10.17587
 Alpha  occ. eigenvalues --  -10.17497 -10.17416 -10.17256 -10.17240 -10.17075
 Alpha  occ. eigenvalues --  -10.16922 -10.16863 -10.16522 -10.16282 -10.15832
 Alpha  occ. eigenvalues --   -1.22801  -1.20341  -1.00008  -0.88594  -0.86844
 Alpha  occ. eigenvalues --   -0.84491  -0.82695  -0.80879  -0.79458  -0.77818
 Alpha  occ. eigenvalues --   -0.77111  -0.74947  -0.72745  -0.71214  -0.68923
 Alpha  occ. eigenvalues --   -0.68205  -0.66045  -0.65546  -0.65192  -0.64557
 Alpha  occ. eigenvalues --   -0.63463  -0.62204  -0.60323  -0.59355  -0.57272
 Alpha  occ. eigenvalues --   -0.55701  -0.55186  -0.53356  -0.51331  -0.51241
 Alpha  occ. eigenvalues --   -0.51165  -0.48787  -0.48322  -0.48172  -0.47393
 Alpha  occ. eigenvalues --   -0.47106  -0.46911  -0.46518  -0.46288  -0.45355
 Alpha  occ. eigenvalues --   -0.45103  -0.44766  -0.44372  -0.43419  -0.42893
 Alpha  occ. eigenvalues --   -0.42315  -0.41836  -0.41440  -0.41259  -0.40814
 Alpha  occ. eigenvalues --   -0.39876  -0.39290  -0.38835  -0.38826  -0.38027
 Alpha  occ. eigenvalues --   -0.37829  -0.36859  -0.36602  -0.36148  -0.35860
 Alpha  occ. eigenvalues --   -0.35263  -0.35009  -0.34580  -0.34291  -0.33458
 Alpha  occ. eigenvalues --   -0.33216  -0.31760  -0.31112  -0.30705  -0.28602
 Alpha  occ. eigenvalues --   -0.28357  -0.27991  -0.27720  -0.26158  -0.25280
 Alpha  occ. eigenvalues --   -0.23390  -0.21718  -0.18884
 Alpha virt. eigenvalues --   -0.02494  -0.01817   0.00034   0.03056   0.03614
 Alpha virt. eigenvalues --    0.06637   0.07428   0.08726   0.09688   0.09820
 Alpha virt. eigenvalues --    0.10730   0.11023   0.11164   0.12409   0.12613
 Alpha virt. eigenvalues --    0.13633   0.13885   0.14117   0.14452   0.15272
 Alpha virt. eigenvalues --    0.15415   0.15737   0.16213   0.16320   0.16785
 Alpha virt. eigenvalues --    0.16977   0.17401   0.17491   0.18357   0.18457
 Alpha virt. eigenvalues --    0.18617   0.18969   0.19308   0.19544   0.19877
 Alpha virt. eigenvalues --    0.20160   0.20527   0.21091   0.21459   0.22047
 Alpha virt. eigenvalues --    0.22996   0.23224   0.23616   0.24126   0.25156
 Alpha virt. eigenvalues --    0.25632   0.26034   0.26958   0.27176   0.29472
 Alpha virt. eigenvalues --    0.29957   0.30598   0.30814   0.31452   0.31687
 Alpha virt. eigenvalues --    0.32543   0.33630   0.34515   0.35750   0.36446
 Alpha virt. eigenvalues --    0.37918   0.38200   0.39856   0.40299   0.42599
 Alpha virt. eigenvalues --    0.42939   0.46204   0.47434   0.48164   0.48685
 Alpha virt. eigenvalues --    0.49510   0.50113   0.50786   0.51468   0.51628
 Alpha virt. eigenvalues --    0.52118   0.52734   0.52891   0.53520   0.53998
 Alpha virt. eigenvalues --    0.54098   0.54606   0.54926   0.55076   0.55618
 Alpha virt. eigenvalues --    0.56266   0.57179   0.57456   0.58081   0.58254
 Alpha virt. eigenvalues --    0.58973   0.59347   0.59954   0.60220   0.60673
 Alpha virt. eigenvalues --    0.60744   0.61446   0.61776   0.61998   0.62553
 Alpha virt. eigenvalues --    0.63223   0.63779   0.64404   0.64878   0.65229
 Alpha virt. eigenvalues --    0.65674   0.66415   0.66771   0.67540   0.68493
 Alpha virt. eigenvalues --    0.68854   0.69328   0.69986   0.70218   0.71461
 Alpha virt. eigenvalues --    0.72465   0.73479   0.74002   0.74334   0.75630
 Alpha virt. eigenvalues --    0.76336   0.77118   0.77861   0.78580   0.79270
 Alpha virt. eigenvalues --    0.80237   0.81077   0.81335   0.82216   0.82538
 Alpha virt. eigenvalues --    0.83281   0.83677   0.84134   0.84482   0.85269
 Alpha virt. eigenvalues --    0.85400   0.85805   0.85966   0.86504   0.86656
 Alpha virt. eigenvalues --    0.86870   0.87412   0.87803   0.88475   0.88653
 Alpha virt. eigenvalues --    0.88926   0.89690   0.90150   0.90584   0.90821
 Alpha virt. eigenvalues --    0.90953   0.91540   0.91958   0.92328   0.93191
 Alpha virt. eigenvalues --    0.94380   0.94760   0.95453   0.95966   0.96184
 Alpha virt. eigenvalues --    0.96701   0.96975   0.97316   0.98354   0.99267
 Alpha virt. eigenvalues --    0.99657   1.00686   1.01156   1.02025   1.03016
 Alpha virt. eigenvalues --    1.04149   1.04617   1.05298   1.06068   1.06840
 Alpha virt. eigenvalues --    1.07321   1.08614   1.09925   1.11932   1.13599
 Alpha virt. eigenvalues --    1.14654   1.15302   1.15837   1.17530   1.18280
 Alpha virt. eigenvalues --    1.19543   1.19919   1.20305   1.21850   1.22727
 Alpha virt. eigenvalues --    1.22773   1.23239   1.24192   1.25561   1.26768
 Alpha virt. eigenvalues --    1.28325   1.30221   1.31644   1.33925   1.35696
 Alpha virt. eigenvalues --    1.36464   1.37290   1.38447   1.39512   1.39981
 Alpha virt. eigenvalues --    1.40661   1.42392   1.42984   1.43718   1.44450
 Alpha virt. eigenvalues --    1.45100   1.45865   1.46929   1.47855   1.48066
 Alpha virt. eigenvalues --    1.48110   1.48745   1.49395   1.50463   1.51703
 Alpha virt. eigenvalues --    1.53817   1.55240   1.56081   1.59134   1.59677
 Alpha virt. eigenvalues --    1.60705   1.63326   1.64893   1.67556   1.68768
 Alpha virt. eigenvalues --    1.69491   1.70364   1.71814   1.72682   1.73650
 Alpha virt. eigenvalues --    1.75022   1.75655   1.77068   1.77307   1.78446
 Alpha virt. eigenvalues --    1.79258   1.79952   1.81117   1.81491   1.81725
 Alpha virt. eigenvalues --    1.81998   1.83934   1.84504   1.84623   1.86184
 Alpha virt. eigenvalues --    1.87063   1.88031   1.89009   1.89248   1.90536
 Alpha virt. eigenvalues --    1.90747   1.92345   1.93127   1.93745   1.94092
 Alpha virt. eigenvalues --    1.94723   1.95282   1.95581   1.96281   1.96782
 Alpha virt. eigenvalues --    1.97076   1.98035   1.98595   1.99650   2.00982
 Alpha virt. eigenvalues --    2.01733   2.02440   2.02645   2.03740   2.04743
 Alpha virt. eigenvalues --    2.06248   2.06599   2.07521   2.08430   2.09966
 Alpha virt. eigenvalues --    2.11012   2.11278   2.13096   2.13779   2.14013
 Alpha virt. eigenvalues --    2.14335   2.15030   2.15566   2.16590   2.17439
 Alpha virt. eigenvalues --    2.19362   2.19599   2.20251   2.20686   2.21683
 Alpha virt. eigenvalues --    2.22674   2.23911   2.25022   2.25455   2.25613
 Alpha virt. eigenvalues --    2.27208   2.27926   2.28686   2.29796   2.30607
 Alpha virt. eigenvalues --    2.31128   2.31853   2.32267   2.32586   2.33799
 Alpha virt. eigenvalues --    2.34651   2.35254   2.36080   2.38336   2.39047
 Alpha virt. eigenvalues --    2.40324   2.42488   2.43452   2.44525   2.46549
 Alpha virt. eigenvalues --    2.46643   2.47365   2.48403   2.49572   2.49869
 Alpha virt. eigenvalues --    2.50190   2.50796   2.52848   2.53107   2.53934
 Alpha virt. eigenvalues --    2.55903   2.57722   2.60405   2.61880   2.62101
 Alpha virt. eigenvalues --    2.63411   2.64299   2.66489   2.66564   2.67277
 Alpha virt. eigenvalues --    2.68276   2.68729   2.69345   2.70367   2.71181
 Alpha virt. eigenvalues --    2.73272   2.74016   2.74828   2.78107   2.79166
 Alpha virt. eigenvalues --    2.80588   2.81677   2.84480   2.86282   2.89011
 Alpha virt. eigenvalues --    2.90748   2.93512   2.95213   2.96955   3.00478
 Alpha virt. eigenvalues --    3.03487   3.06228   3.09587   3.11170   3.15932
 Alpha virt. eigenvalues --    3.19689   3.28001   3.36150   3.44594   3.50881
 Alpha virt. eigenvalues --    4.07476   4.11118   4.12560   4.13146   4.13374
 Alpha virt. eigenvalues --    4.15379   4.16198   4.19423   4.20640   4.22580
 Alpha virt. eigenvalues --    4.25134   4.30609   4.32963   4.33742   4.35826
 Alpha virt. eigenvalues --    4.37863   4.39352   4.41750   4.43191   4.44872
 Alpha virt. eigenvalues --    4.47102   4.53745   4.59427   4.68281   4.73730
 Alpha virt. eigenvalues --    4.76469   4.83576   5.01805   5.34211   5.66363
          Condensed to atoms (all electrons):
 Mulliken charges:
               1
     1  C   -0.408134
     2  C    0.217119
     3  C   -0.508017
     4  C   -0.154136
     5  C   -0.303215
     6  C    0.107947
     7  C   -0.302834
     8  C   -0.294581
     9  C   -0.175826
    10  C    0.011128
    11  C    0.281853
    12  C   -0.153718
    13  C   -0.458368
    14  C   -0.454621
    15  N   -0.666700
    16  C    0.222753
    17  C   -0.129552
    18  C   -0.212538
    19  C    0.393093
    20  F   -0.293344
    21  C   -0.208516
    22  C   -0.133371
    23  C    0.282801
    24  C   -0.161823
    25  C   -0.149572
    26  C   -0.205338
    27  C    0.285587
    28  F   -0.296218
    29  C    0.012412
    30  C   -0.310035
    31  H    0.126028
    32  H    0.133143
    33  H    0.151708
    34  H    0.149863
    35  H    0.157782
    36  H    0.138690
    37  H    0.132895
    38  H    0.135849
    39  H    0.134732
    40  H    0.133980
    41  H    0.144289
    42  H    0.137567
    43  H    0.139867
    44  H    0.158267
    45  H    0.145540
    46  H    0.153966
    47  H    0.149992
    48  H    0.149902
    49  H    0.157077
    50  H    0.144464
    51  H    0.160744
    52  H    0.155911
    53  H    0.155992
    54  H    0.159957
    55  H    0.130867
    56  H    0.125776
    57  H    0.128966
    58  H    0.131029
    59  H    0.140924
 Sum of Mulliken charges =  -0.00000
 Mulliken charges with hydrogens summed into heavy atoms:
               1
     1  C   -0.148963
     2  C    0.217119
     3  C   -0.048664
     4  C   -0.015446
     5  C   -0.034471
     6  C    0.107947
     7  C   -0.034122
     8  C   -0.012725
     9  C   -0.035959
    10  C    0.011128
    11  C    0.281853
    12  C    0.004549
    13  C   -0.008871
    14  C   -0.003179
    15  N   -0.666700
    16  C    0.222753
    17  C    0.031192
    18  C   -0.056627
    19  C    0.393093
    20  F   -0.293344
    21  C   -0.052524
    22  C    0.026586
    23  C    0.282801
    24  C   -0.030956
    25  C   -0.023796
    26  C   -0.076372
    27  C    0.285587
    28  F   -0.296218
    29  C    0.012412
    30  C   -0.038082
 Electronic spatial extent (au):  <R**2>=          16205.9423
 Charge=             -0.0000 electrons
 Dipole moment (field-independent basis, Debye):
    X=              1.5125    Y=             -1.4907    Z=              0.5286  Tot=              2.1884
 Quadrupole moment (field-independent basis, Debye-Ang):
   XX=           -175.2538   YY=           -177.2886   ZZ=           -172.8500
   XY=              1.6233   XZ=             -1.4614   YZ=             -0.3585
 Traceless Quadrupole moment (field-independent basis, Debye-Ang):
   XX=             -0.1230   YY=             -2.1578   ZZ=              2.2808
   XY=              1.6233   XZ=             -1.4614   YZ=             -0.3585
 Octapole moment (field-independent basis, Debye-Ang**2):
  XXX=             22.1345  YYY=             16.5755  ZZZ=             -1.3608  XYY=             18.2481
  XXY=             44.2172  XXZ=             44.0508  XZZ=             29.4664  YZZ=             -9.1368
  YYZ=            -13.7058  XYZ=              5.4089
 Hexadecapole moment (field-independent basis, Debye-Ang**3):
 XXXX=         -16838.9641 YYYY=          -3787.1176 ZZZZ=          -1132.1317 XXXY=             63.2799
 XXXZ=              2.1128 YYYX=            -81.8129 YYYZ=            -26.3703 ZZZX=            -87.5922
 ZZZY=             54.5781 XXYY=          -3444.3506 XXZZ=          -2934.8018 YYZZ=           -827.5856
 XXYZ=              3.0917 YYXZ=            -47.4668 ZZXY=            -73.1534
 N-N= 2.866799766116D+03 E-N=-8.759081598052D+03  KE= 1.289894952121D+03
 No NMR shielding tensors so no spin-rotation constants.
 Leave Link  601 at Fri Nov  4 21:17:01 2022, MaxMem=   805306368 cpu:               1.7 elap:               0.3
 (Enter /home/wykgroup/appl/g16/l701.exe)
 ... and contract with generalized density number  0.
 Compute integral first derivatives.
 Leave Link  701 at Fri Nov  4 21:17:01 2022, MaxMem=   805306368 cpu:               1.9 elap:               0.3
 (Enter /home/wykgroup/appl/g16/l702.exe)
[...]
     41          1           0       -2.962927    1.776456   -0.279589
     42          1           0       -2.126448    0.690194   -1.417527
     43          1           0       -1.846589    0.673542    1.633301
     44          1           0       -0.129972   -2.083919    1.147201
     45          1           0        0.927611   -3.924115   -0.022147
     46          1           0        2.207519   -2.884908   -0.657036
     47          1           0        0.535296   -2.658391   -1.200498
     48          1           0        1.575266   -1.589744    2.889280
     49          1           0        2.841851   -2.238986    1.831353
     50          1           0        1.540157   -3.291816    2.394282
     51          1           0        3.089240   -0.912821   -2.083624
     52          1           0        5.414301   -1.781229   -2.459584
     53          1           0        6.486640   -0.645333    1.531860
     54          1           0        4.155988    0.206873    1.916550
     55          1           0        3.838121    2.419152   -0.495253
     56          1           0        2.903386    4.720999   -0.664268
     57          1           0        0.468913    5.127726   -0.257823
     58          1           0       -2.400516   -1.751662    1.411404
     59          1           0       -1.751720   -1.759548   -0.251568
 ---------------------------------------------------------------------
 Rotational constants (GHZ):           0.2990182           0.0708374           0.0609269
 Leave Link  202 at Fri Nov  4 21:56:08 2022, MaxMem=   805306368 cpu:               0.1 elap:               0.0
 (Enter /home/wykgroup/appl/g16/l601.exe)
 Copying SCF densities to generalized density rwf, IOpCl= 0 IROHF=0.

 **********************************************************************

            Population analysis using the SCF Density.

 **********************************************************************

 Orbital symmetries:
       Occupied  (A) (A) (A) (A) (A) (A) (A) (A) (A) (A) (A) (A)
                 (A) (A) (A) (A) (A) (A) (A) (A) (A) (A) (A) (A)
                 (A) (A) (A) (A) (A) (A) (A) (A) (A) (A) (A) (A)
                 (A) (A) (A) (A) (A) (A) (A) (A) (A) (A) (A) (A)
                 (A) (A) (A) (A) (A) (A) (A) (A) (A) (A) (A) (A)
                 (A) (A) (A) (A) (A) (A) (A) (A) (A) (A) (A) (A)
                 (A) (A) (A) (A) (A) (A) (A) (A) (A) (A) (A) (A)
                 (A) (A) (A) (A) (A) (A) (A) (A) (A) (A) (A) (A)
                 (A) (A) (A) (A) (A) (A) (A) (A) (A) (A) (A) (A)
       Virtual   (A) (A) (A) (A) (A) (A) (A) (A) (A) (A) (A) (A)
                 (A) (A) (A) (A) (A) (A) (A) (A) (A) (A) (A) (A)
                 (A) (A) (A) (A) (A) (A) (A) (A) (A) (A) (A) (A)
                 (A) (A) (A) (A) (A) (A) (A) (A) (A) (A) (A) (A)
                 (A) (A) (A) (A) (A) (A) (A) (A) (A) (A) (A) (A)
                 (A) (A) (A) (A) (A) (A) (A) (A) (A) (A) (A) (A)
                 (A) (A) (A) (A) (A) (A) (A) (A) (A) (A) (A) (A)
                 (A) (A) (A) (A) (A) (A) (A) (A) (A) (A) (A) (A)
                 (A) (A) (A) (A) (A) (A) (A) (A) (A) (A) (A) (A)
                 (A) (A) (A) (A) (A) (A) (A) (A) (A) (A) (A) (A)
                 (A) (A) (A) (A) (A) (A) (A) (A) (A) (A) (A) (A)
                 (A) (A) (A) (A) (A) (A) (A) (A) (A) (A) (A) (A)
                 (A) (A) (A) (A) (A) (A) (A) (A) (A) (A) (A) (A)
                 (A) (A) (A) (A) (A) (A) (A) (A) (A) (A) (A) (A)
                 (A) (A) (A) (A) (A) (A) (A) (A) (A) (A) (A) (A)
                 (A) (A) (A) (A) (A) (A) (A) (A) (A) (A) (A) (A)
                 (A) (A) (A) (A) (A) (A) (A) (A) (A) (A) (A) (A)
                 (A) (A) (A) (A) (A) (A) (A) (A) (A) (A) (A) (A)
                 (A) (A) (A) (A) (A) (A) (A) (A) (A) (A) (A) (A)
                 (A) (A) (A) (A) (A) (A) (A) (A) (A) (A) (A) (A)
                 (A) (A) (A) (A) (A) (A) (A) (A) (A) (A) (A) (A)
                 (A) (A) (A) (A) (A) (A) (A) (A) (A) (A) (A) (A)
                 (A) (A) (A) (A) (A) (A) (A) (A) (A) (A) (A) (A)
                 (A) (A) (A) (A) (A) (A) (A) (A) (A) (A) (A) (A)
                 (A) (A) (A) (A) (A) (A) (A) (A) (A) (A) (A) (A)
                 (A) (A) (A) (A) (A) (A) (A) (A) (A) (A) (A) (A)
                 (A) (A) (A) (A) (A) (A) (A) (A) (A) (A) (A) (A)
                 (A) (A) (A) (A) (A) (A) (A) (A) (A) (A) (A) (A)
                 (A) (A) (A) (A) (A) (A) (A) (A) (A) (A) (A) (A)
                 (A) (A) (A) (A) (A) (A) (A) (A) (A) (A) (A) (A)
                 (A) (A) (A) (A) (A) (A) (A) (A) (A) (A) (A) (A)
                 (A) (A) (A) (A) (A) (A) (A) (A) (A) (A) (A) (A)
                 (A) (A) (A) (A) (A) (A) (A) (A) (A) (A) (A) (A)
                 (A) (A) (A) (A)
 The electronic state is 1-A.
 Alpha  occ. eigenvalues --  -24.71633 -24.69376 -14.37986 -10.28773 -10.25882
 Alpha  occ. eigenvalues --  -10.24436 -10.21891 -10.21719 -10.21588 -10.21567
 Alpha  occ. eigenvalues --  -10.21257 -10.21254 -10.20017 -10.18846 -10.18581
 Alpha  occ. eigenvalues --  -10.18545 -10.18480 -10.18462 -10.18255 -10.18210
 Alpha  occ. eigenvalues --  -10.17943 -10.17832 -10.17757 -10.17755 -10.17596
 Alpha  occ. eigenvalues --  -10.17522 -10.17511 -10.17181 -10.16924 -10.16362
 Alpha  occ. eigenvalues --   -1.22850  -1.20253  -0.98609  -0.88014  -0.86325
 Alpha  occ. eigenvalues --   -0.84069  -0.82097  -0.80375  -0.78912  -0.77408
 Alpha  occ. eigenvalues --   -0.76758  -0.74758  -0.72482  -0.71013  -0.68609
 Alpha  occ. eigenvalues --   -0.67844  -0.65754  -0.65146  -0.64808  -0.64290
 Alpha  occ. eigenvalues --   -0.63157  -0.62036  -0.60075  -0.59314  -0.57183
 Alpha  occ. eigenvalues --   -0.55503  -0.54903  -0.53143  -0.51458  -0.51210
 Alpha  occ. eigenvalues --   -0.50908  -0.48588  -0.48135  -0.47815  -0.47140
 Alpha  occ. eigenvalues --   -0.46910  -0.46689  -0.46317  -0.45870  -0.45113
 Alpha  occ. eigenvalues --   -0.44886  -0.44684  -0.44125  -0.43068  -0.42664
 Alpha  occ. eigenvalues --   -0.42072  -0.41501  -0.41117  -0.41069  -0.40714
 Alpha  occ. eigenvalues --   -0.39365  -0.39000  -0.38666  -0.38513  -0.37790
 Alpha  occ. eigenvalues --   -0.37652  -0.36719  -0.36438  -0.36052  -0.35677
 Alpha  occ. eigenvalues --   -0.35231  -0.35119  -0.34571  -0.34195  -0.33429
 Alpha  occ. eigenvalues --   -0.33123  -0.31642  -0.31369  -0.30846  -0.28873
 Alpha  occ. eigenvalues --   -0.28536  -0.28020  -0.27590  -0.25975  -0.25390
 Alpha  occ. eigenvalues --   -0.23421  -0.21791  -0.19127
 Alpha virt. eigenvalues --   -0.02681  -0.01899  -0.00266   0.02675   0.03224
 Alpha virt. eigenvalues --    0.06430   0.07336   0.08608   0.09506   0.10123
 Alpha virt. eigenvalues --    0.10598   0.10861   0.11359   0.12121   0.12558
 Alpha virt. eigenvalues --    0.13374   0.13641   0.14148   0.14422   0.14929
 Alpha virt. eigenvalues --    0.15227   0.15470   0.15766   0.16028   0.16338
 Alpha virt. eigenvalues --    0.16487   0.16989   0.17365   0.17794   0.18216
 Alpha virt. eigenvalues --    0.18503   0.18678   0.18823   0.19062   0.19428
 Alpha virt. eigenvalues --    0.19625   0.19776   0.20361   0.20906   0.21511
 Alpha virt. eigenvalues --    0.22105   0.22154   0.22720   0.23494   0.23787
 Alpha virt. eigenvalues --    0.24856   0.25480   0.26044   0.26420   0.28224
 Alpha virt. eigenvalues --    0.28826   0.29111   0.29926   0.30298   0.31205
 Alpha virt. eigenvalues --    0.31755   0.33043   0.33650   0.34185   0.35165
 Alpha virt. eigenvalues --    0.36808   0.38016   0.39253   0.40410   0.42303
 Alpha virt. eigenvalues --    0.42549   0.45352   0.46691   0.48049   0.48249
 Alpha virt. eigenvalues --    0.49118   0.49644   0.50331   0.51110   0.51414
 Alpha virt. eigenvalues --    0.51493   0.52119   0.52395   0.52806   0.53129
 Alpha virt. eigenvalues --    0.53524   0.53874   0.54243   0.54326   0.55281
 Alpha virt. eigenvalues --    0.55851   0.56289   0.56918   0.57449   0.57701
 Alpha virt. eigenvalues --    0.58478   0.58768   0.59378   0.60018   0.60081
 Alpha virt. eigenvalues --    0.60446   0.61331   0.61574   0.62090   0.62334
 Alpha virt. eigenvalues --    0.62756   0.63511   0.63874   0.64348   0.64906
 Alpha virt. eigenvalues --    0.65354   0.65565   0.65983   0.66963   0.67104
 Alpha virt. eigenvalues --    0.67686   0.68141   0.69678   0.69746   0.71418
 Alpha virt. eigenvalues --    0.72396   0.73085   0.73600   0.74897   0.75708
 Alpha virt. eigenvalues --    0.76154   0.76903   0.77635   0.77975   0.79091
 Alpha virt. eigenvalues --    0.80290   0.81039   0.81290   0.81823   0.81868
 Alpha virt. eigenvalues --    0.82084   0.83149   0.83672   0.84285   0.84643
 Alpha virt. eigenvalues --    0.84903   0.85229   0.85474   0.86091   0.86453
 Alpha virt. eigenvalues --    0.86771   0.87295   0.87368   0.87557   0.87854
 Alpha virt. eigenvalues --    0.88562   0.89541   0.89780   0.89844   0.90263
 Alpha virt. eigenvalues --    0.90658   0.90950   0.92347   0.92388   0.92966
 Alpha virt. eigenvalues --    0.93293   0.93835   0.95337   0.95388   0.95549
 Alpha virt. eigenvalues --    0.96051   0.96503   0.96933   0.97214   0.98397
 Alpha virt. eigenvalues --    0.98996   0.99815   1.00107   1.01000   1.01653
 Alpha virt. eigenvalues --    1.02247   1.03690   1.03870   1.04432   1.05897
 Alpha virt. eigenvalues --    1.06868   1.07937   1.08286   1.10979   1.12322
 Alpha virt. eigenvalues --    1.14438   1.14759   1.16538   1.17554   1.18395
 Alpha virt. eigenvalues --    1.18656   1.19594   1.20117   1.20872   1.21375
 Alpha virt. eigenvalues --    1.22385   1.22906   1.23051   1.25621   1.26691
 Alpha virt. eigenvalues --    1.27372   1.29549   1.30445   1.33863   1.35341
 Alpha virt. eigenvalues --    1.36815   1.36954   1.38605   1.39415   1.40210
 Alpha virt. eigenvalues --    1.40435   1.41068   1.42168   1.43192   1.43919
 Alpha virt. eigenvalues --    1.44784   1.45205   1.45781   1.46347   1.47158
 Alpha virt. eigenvalues --    1.47783   1.48588   1.48635   1.49410   1.51164
 Alpha virt. eigenvalues --    1.52747   1.53244   1.55245   1.57719   1.58045
 Alpha virt. eigenvalues --    1.59609   1.62183   1.63659   1.64545   1.66508
 Alpha virt. eigenvalues --    1.68358   1.69489   1.70735   1.71862   1.72615
 Alpha virt. eigenvalues --    1.73033   1.74378   1.75396   1.76468   1.77542
 Alpha virt. eigenvalues --    1.78104   1.78909   1.79756   1.80391   1.81010
 Alpha virt. eigenvalues --    1.81846   1.82511   1.83291   1.83935   1.85492
 Alpha virt. eigenvalues --    1.85948   1.86590   1.87817   1.88440   1.89381
 Alpha virt. eigenvalues --    1.90285   1.91065   1.91605   1.91948   1.92582
 Alpha virt. eigenvalues --    1.92895   1.94082   1.94704   1.94994   1.95408
 Alpha virt. eigenvalues --    1.95725   1.96167   1.97012   1.98103   1.99025
 Alpha virt. eigenvalues --    2.00266   2.01431   2.01882   2.02742   2.04423
 Alpha virt. eigenvalues --    2.04843   2.05130   2.05684   2.06094   2.07708
 Alpha virt. eigenvalues --    2.08704   2.09432   2.11797   2.12282   2.12559
 Alpha virt. eigenvalues --    2.12879   2.13428   2.13530   2.15087   2.16848
 Alpha virt. eigenvalues --    2.16878   2.18783   2.18981   2.19122   2.20323
 Alpha virt. eigenvalues --    2.21509   2.21770   2.23589   2.24492   2.25050
 Alpha virt. eigenvalues --    2.25939   2.26645   2.27637   2.28366   2.28643
 Alpha virt. eigenvalues --    2.28958   2.30034   2.30691   2.30791   2.32351
 Alpha virt. eigenvalues --    2.32918   2.33843   2.34423   2.35776   2.37171
 Alpha virt. eigenvalues --    2.38433   2.40200   2.40908   2.41690   2.42952
 Alpha virt. eigenvalues --    2.45130   2.45408   2.46105   2.47452   2.48241
 Alpha virt. eigenvalues --    2.48497   2.49747   2.50175   2.52088   2.52374
 Alpha virt. eigenvalues --    2.54033   2.54904   2.58654   2.59950   2.60384
 Alpha virt. eigenvalues --    2.61365   2.63234   2.64596   2.65253   2.65545
 Alpha virt. eigenvalues --    2.66323   2.66814   2.68083   2.68384   2.70294
 Alpha virt. eigenvalues --    2.71404   2.72020   2.73289   2.75454   2.76615
 Alpha virt. eigenvalues --    2.78655   2.79829   2.82790   2.84083   2.87218
 Alpha virt. eigenvalues --    2.88600   2.90814   2.93630   2.94887   2.98299
 Alpha virt. eigenvalues --    3.00754   3.04628   3.08612   3.09261   3.14778
 Alpha virt. eigenvalues --    3.16453   3.23880   3.32992   3.41108   3.47730
 Alpha virt. eigenvalues --    4.06724   4.09635   4.10081   4.11454   4.11918
 Alpha virt. eigenvalues --    4.13986   4.14878   4.17786   4.18320   4.21576
 Alpha virt. eigenvalues --    4.23586   4.29620   4.31903   4.33153   4.34335
 Alpha virt. eigenvalues --    4.35591   4.38049   4.39152   4.40916   4.43286
 Alpha virt. eigenvalues --    4.45525   4.52145   4.57659   4.67333   4.70186
 Alpha virt. eigenvalues --    4.74041   4.79993   4.96553   5.31593   5.55583
          Condensed to atoms (all electrons):
 Mulliken charges:
               1
     1  C   -0.407901
     2  C    0.222978
     3  C   -0.511766
     4  C   -0.156662
     5  C   -0.301069
     6  C    0.112051
     7  C   -0.306419
     8  C   -0.294938
     9  C   -0.176477
    10  C    0.019258
    11  C    0.278916
    12  C   -0.157400
    13  C   -0.455064
    14  C   -0.453452
    15  N   -0.684937
    16  C    0.227127
    17  C   -0.129406
    18  C   -0.212242
    19  C    0.392149
    20  F   -0.292227
    21  C   -0.209931
    22  C   -0.135247
    23  C    0.289136
    24  C   -0.160980
    25  C   -0.153959
    26  C   -0.203313
    27  C    0.289015
    28  F   -0.300670
    29  C    0.009647
    30  C   -0.317431
    31  H    0.127322
    32  H    0.133792
    33  H    0.151445
    34  H    0.150754
    35  H    0.156975
    36  H    0.136752
    37  H    0.134318
    38  H    0.137533
    39  H    0.134057
    40  H    0.134974
    41  H    0.149514
    42  H    0.132606
    43  H    0.143541
    44  H    0.164532
    45  H    0.143998
    46  H    0.152136
    47  H    0.148346
    48  H    0.149134
    49  H    0.153965
    50  H    0.143571
    51  H    0.160413
    52  H    0.157232
    53  H    0.157174
    54  H    0.160208
    55  H    0.133123
    56  H    0.128090
    57  H    0.132635
    58  H    0.132170
    59  H    0.140902
 Sum of Mulliken charges =  -0.00000
 Mulliken charges with hydrogens summed into heavy atoms:
               1
     1  C   -0.146787
     2  C    0.222978
     3  C   -0.052592
     4  C   -0.019910
     5  C   -0.029218
     6  C    0.112051
     7  C   -0.037387
     8  C   -0.012817
     9  C   -0.032936
    10  C    0.019258
    11  C    0.278916
    12  C    0.007132
    13  C   -0.010584
    14  C   -0.006782
    15  N   -0.684937
    16  C    0.227127
    17  C    0.031007
    18  C   -0.055011
    19  C    0.392149
    20  F   -0.292227
    21  C   -0.052757
    22  C    0.024961
    23  C    0.289136
    24  C   -0.027857
    25  C   -0.025869
    26  C   -0.070677
    27  C    0.289015
    28  F   -0.300670
    29  C    0.009647
    30  C   -0.044360
 Electronic spatial extent (au):  <R**2>=          16984.5917
 Charge=             -0.0000 electrons
 Dipole moment (field-independent basis, Debye):
    X=              1.6103    Y=             -1.3299    Z=              0.3173  Tot=              2.1125
 Quadrupole moment (field-independent basis, Debye-Ang):
   XX=           -176.3657   YY=           -176.3723   ZZ=           -172.3926
   XY=              0.4468   XZ=             -1.0846   YZ=             -0.0881
 Traceless Quadrupole moment (field-independent basis, Debye-Ang):
   XX=             -1.3222   YY=             -1.3288   ZZ=              2.6510
   XY=              0.4468   XZ=             -1.0846   YZ=             -0.0881
 Octapole moment (field-independent basis, Debye-Ang**2):
  XXX=             20.6465  YYY=             24.0811  ZZZ=             -2.8716  XYY=             17.8075
  XXY=             44.1086  XXZ=             39.2106  XZZ=             39.0152  YZZ=             -9.1323
  YYZ=             -9.6792  XYZ=              3.3755
 Hexadecapole moment (field-independent basis, Debye-Ang**3):
 XXXX=         -18289.1881 YYYY=          -3681.5167 ZZZZ=           -933.5205 XXXY=            -27.0974
 XXXZ=            -26.6259 YYYX=            -59.6676 YYYZ=            -21.0965 ZZZX=            -78.9851
 ZZZY=             41.7653 XXYY=          -3662.4938 XXZZ=          -3072.8571 YYZZ=           -813.6787
 XXYZ=              9.5543 YYXZ=            -25.7780 ZZXY=            -86.0019
 N-N= 2.828412988085D+03 E-N=-8.681338235916D+03  KE= 1.288688148618D+03
 No NMR shielding tensors so no spin-rotation constants.
 Leave Link  601 at Fri Nov  4 21:56:09 2022, MaxMem=   805306368 cpu:               2.8 elap:               0.5
 (Enter /home/wykgroup/appl/g16/l9999.exe)
 1\1\GINC-NODE75\FOpt\RB3LYP\6-31G(d)\C27H29F2N1\WYKGROUP\04-Nov-2022\0
 \\#p b3lyp/6-31g(d) opt SCF=XQC\\Gaussian input prepared by ASE\\0,1\C
 ,6.5403964162,-2.2028442334,-1.1562086178\C,6.2904170784,-1.0564748753
 ,-0.5150452779\C,7.3371197894,0.0244386028,-0.3804855129\C,4.965609357
 2,-0.7460493872,0.1310861181\C,4.1259768225,0.4559055911,-0.4118444458
 \C,2.8438737255,-0.3695507035,-0.1159398668\C,3.7176282303,-1.64440638
 92,-0.0794563367\C,2.0214448713,0.07086329,1.1207403981\C,0.9924970947
 ,0.7400476044,0.1516955151\C,-0.4646300075,0.7499121904,0.5364306465\C
 ,-1.5704877921,0.3143688279,-0.1727001268\C,-1.6239689957,-0.170094755
 7,-1.6065425051\C,-1.9741751191,-1.6642853038,-1.7688405235\C,-2.50387
 87825,0.7108739867,-2.5193885426\N,-2.7236217098,0.4909220821,0.621255
 5672\C,-4.0731986501,0.0966659483,0.3581404567\C,-4.4856429206,-1.2183
 820089,0.6032288116\C,-5.8128210845,-1.5932318695,0.3970282803\C,-6.71
 84682282,-0.6311364315,-0.0366932479\F,-8.0029534696,-0.98661219,-0.23
 51865252\C,-6.3416893253,0.6878637,-0.2655063901\C,-5.0102156909,1.048
 3208486,-0.0618174032\C,-2.3567262677,1.0614317401,1.8305637408\C,-3.1
 575515454,1.4152289433,2.9243931242\C,-2.5306082968,2.0089659703,4.012
 4122176\C,-1.1437920718,2.2516841466,4.0125101854\C,-0.384914356,1.880
 0522296,2.9182311474\F,0.9446919575,2.1510397049,2.9312514487\C,-0.953
 3662332,1.2526495343,1.8006465064\C,1.5703672243,-0.1827924984,-0.9661
 888615\H,7.5092624439,-2.3999786463,-1.6088214095\H,5.7965348989,-2.98
 89443479,-1.2482499838\H,7.5468767204,0.2406232457,0.6763822913\H,8.27
 78951525,-0.2589526492,-0.8624671196\H,6.9946946784,0.9669769771,-0.82
 84894073\H,5.1266763593,-0.593998237,1.2085043512\H,4.2802130017,0.587
 7102158,-1.4899994584\H,4.2360840689,1.4261165233,0.0856065259\H,3.489
 510476,-2.3919717308,0.6888034818\H,3.7364234158,-2.1381300326,-1.0583
 063305\H,2.5041953412,0.7085733176,1.8642218245\H,1.5712486396,-0.7909
 520825,1.6284300208\H,1.329040414,1.7687045409,-0.0375961816\H,-0.6037
 511786,-0.0482821338,-1.9739673043\H,-1.8164191763,-1.9728345098,-2.80
 92576432\H,-3.0190240769,-1.8704469975,-1.5191180967\H,-1.3411267326,-
 2.2909495617,-1.1307526041\H,-2.2432803592,1.769724831,-2.4140557797\H
 ,-3.5698330713,0.5979835692,-2.3034209243\H,-2.3474737888,0.4267831736
 ,-3.5668587673\H,-3.7616672743,-1.9440414303,0.9597478069\H,-6.1519937
 837,-2.6079652291,0.5764265312\H,-7.0823869619,1.4087288808,-0.5950374
 727\H,-4.6876448333,2.0708426525,-0.2303498235\H,-4.2279875981,1.23952
 71911,2.9176093189\H,-3.1184072551,2.3016204126,4.8776060461\H,-0.6547
 11954,2.733879095,4.8522734985\H,1.6889347515,0.2330746107,-1.97408881
 03\H,1.0208026613,-1.1287989439,-1.0331455598\\Version=ES64L-G16RevB.0
 1\State=1-A\HF=-1300.7038649\RMSD=7.434e-09\RMSF=2.025e-06\Dipole=-0.6
 709027,-0.1466953,-0.4681159\Quadrupole=-1.0143955,0.9732284,0.0411671
 ,0.519348,-0.7336195,-1.3716554\PG=C01 [X(C27H29F2N1)]\\@


 HE THAT RISETH LATE MUST TROT ALL DAY.

                  -- BENJAMIN FRANKLIN
 Job cpu time:       0 days  4 hours 43 minutes  1.4 seconds.
 Elapsed time:       0 days  0 hours 40 minutes 55.0 seconds.
 File lengths (MBytes):  RWF=    166 Int=      0 D2E=      0 Chk=     23 Scr=      1
 Normal termination of Gaussian 16 at Fri Nov  4 21:56:09 2022.
