 Entering Gaussian System, Link 0=/home/wykgroup/appl/g16/g16
 Input=calculation/no_transfer_pubchem_sampling_5_b3lyp/160913493_rwf.com
 Output=calculation/no_transfer_pubchem_sampling_5_b3lyp/160913493_rwf.log
 Initial command:
 /home/wykgroup/appl/g16/l1.exe "/userdata/scratch/wykgroup/khs/calculation/no_transfer_pubchem_sampling_5_b3lyp/160913493_rwf/Gau-13322.inp" -scrdir="/userdata/scratch/wykgroup/khs/calculation/no_transfer_pubchem_sampling_5_b3lyp/160913493_rwf/"
 Entering Link 1 = /home/wykgroup/appl/g16/l1.exe PID=     13327.
  
 Copyright (c) 1988-2017, Gaussian, Inc.  All Rights Reserved.
  
 This is part of the Gaussian(R) 16 program.  It is based on
 the Gaussian(R) 09 system (copyright 2009, Gaussian, Inc.),
 the Gaussian(R) 03 system (copyright 2003, Gaussian, Inc.),
 the Gaussian(R) 98 system (copyright 1998, Gaussian, Inc.),
 the Gaussian(R) 94 system (copyright 1995, Gaussian, Inc.),
 the Gaussian 92(TM) system (copyright 1992, Gaussian, Inc.),
 the Gaussian 90(TM) system (copyright 1990, Gaussian, Inc.),
 the Gaussian 88(TM) system (copyright 1988, Gaussian, Inc.),
 the Gaussian 86(TM) system (copyright 1986, Carnegie Mellon
 University), and the Gaussian 82(TM) system (copyright 1983,
 Carnegie Mellon University). Gaussian is a federally registered
 trademark of Gaussian, Inc.
  
 This software contains proprietary and confidential information,
 including trade secrets, belonging to Gaussian, Inc.
  
 This software is provided under written license and may be
 used, copied, transmitted, or stored only in accord with that
 written license.
  
 The following legend is applicable only to US Government
 contracts under FAR:
  
                    RESTRICTED RIGHTS LEGEND
  
 Use, reproduction and disclosure by the US Government is
 subject to restrictions as set forth in subparagraphs (a)
 and (c) of the Commercial Computer Software - Restricted
 Rights clause in FAR 52.227-19.
  
 Gaussian, Inc.
 340 Quinnipiac St., Bldg. 40, Wallingford CT 06492
  
  
 ---------------------------------------------------------------
 Warning -- This program may not be used in any manner that
 competes with the business of Gaussian, Inc. or will provide
 assistance to any competitor of Gaussian, Inc.  The licensee
 of this program is prohibited from giving any competitor of
 Gaussian, Inc. access to this program.  By using this program,
 the user acknowledges that Gaussian, Inc. is engaged in the
 business of creating and licensing software in the field of
 computational chemistry and represents and warrants to the
 licensee that it is not a competitor of Gaussian, Inc. and that
 it will not use this program in any manner prohibited above.
 ---------------------------------------------------------------
  

 Cite this work as:
 Gaussian 16, Revision B.01,
 M. J. Frisch, G. W. Trucks, H. B. Schlegel, G. E. Scuseria, 
 M. A. Robb, J. R. Cheeseman, G. Scalmani, V. Barone, 
 G. A. Petersson, H. Nakatsuji, X. Li, M. Caricato, A. V. Marenich, 
 J. Bloino, B. G. Janesko, R. Gomperts, B. Mennucci, H. P. Hratchian, 
 J. V. Ortiz, A. F. Izmaylov, J. L. Sonnenberg, D. Williams-Young, 
 F. Ding, F. Lipparini, F. Egidi, J. Goings, B. Peng, A. Petrone, 
 T. Henderson, D. Ranasinghe, V. G. Zakrzewski, J. Gao, N. Rega, 
 G. Zheng, W. Liang, M. Hada, M. Ehara, K. Toyota, R. Fukuda, 
 J. Hasegawa, M. Ishida, T. Nakajima, Y. Honda, O. Kitao, H. Nakai, 
 T. Vreven, K. Throssell, J. A. Montgomery, Jr., J. E. Peralta, 
 F. Ogliaro, M. J. Bearpark, J. J. Heyd, E. N. Brothers, K. N. Kudin, 
 V. N. Staroverov, T. A. Keith, R. Kobayashi, J. Normand, 
 K. Raghavachari, A. P. Rendell, J. C. Burant, S. S. Iyengar, 
 J. Tomasi, M. Cossi, J. M. Millam, M. Klene, C. Adamo, R. Cammi, 
 J. W. Ochterski, R. L. Martin, K. Morokuma, O. Farkas, 
 J. B. Foresman, and D. J. Fox, Gaussian, Inc., Wallingford CT, 2016.
 
 ******************************************
 Gaussian 16:  ES64L-G16RevB.01 20-Dec-2017
                 5-Nov-2022 
 ******************************************
 %chk=calculation/no_transfer_pubchem_sampling_5_b3lyp/160913493_rwf.chk
 %rwf=calculation/no_transfer_pubchem_sampling_5_b3lyp/160913493_rwf.rwf
 %nprocshared=14
 Will use up to   14 processors via shared memory.
 %mem=3GB
 -------------------------------------------------------------------
 #p b3lyp/6-31g(d) 6D 10F nosymm GFInput td=(50-50,nstate=2) SCF=XQC
 -------------------------------------------------------------------
 1/38=1,172=1/1;
 2/12=2,15=1,17=6,18=5,40=1/2;
 3/5=1,6=6,7=1,8=22,11=9,24=10,25=1,30=1,74=-5/1,2,3,8;
 4//1;
 5/5=2,8=3,13=1,38=5/2,8;
 8/6=1,10=2,108=2/1;
 9/41=2,42=1,48=2,70=2/14;
 6/7=2,8=2,9=2,10=2/1;
 99/5=1,9=1/99;
 Leave Link    1 at Sat Nov  5 09:26:01 2022, MaxMem=   402653184 cpu:               5.3 elap:               0.7
 (Enter /home/wykgroup/appl/g16/l101.exe)
 ------------------------------
 Gaussian input prepared by ASE
 ------------------------------
 Symbolic Z-matrix:
 Charge =  0 Multiplicity = 1
 C                     1.71453  -2.38036  -1.33811 
 C                     0.27631  -1.85148  -1.52047 
 C                    -0.66263  -2.96865  -0.99851 
 C                     0.0816   -1.59781  -3.0621 
 C                     0.19688  -2.81136  -3.87671 
 N                     0.28108  -3.77907  -4.5128 
 C                     0.05284  -0.51922  -0.79694 
 C                     0.96418   0.30698  -0.14985 
 C                     2.42213   0.16857   0.11466 
 C                     2.88678  -0.47083   1.274 
 C                     4.24856  -0.52783   1.56392 
 C                     5.18386   0.06401   0.70378 
 C                     6.66352   0.02532   0.94356 
 O                     7.48159   0.18085   0.06842 
 O                     7.07289  -0.19847   2.22289 
 C                     4.72754   0.7036   -0.45638 
 C                     3.36644   0.76766  -0.73674 
 C                     0.25925   1.47883   0.29891 
 C                     0.67555   2.63249   0.994 
 C                    -0.28353   3.58893   1.26701 
 C                    -1.63414   3.41293   0.87029 
 C                    -2.07404   2.28435   0.18812 
 C                    -1.09311   1.32473  -0.0949 
 N                    -1.20868   0.11442  -0.76092 
 C                    -2.50683  -0.31184  -1.2699 
 C                    -3.4912   -0.81674  -0.2196 
 C                    -3.10232  -1.14191   1.08256 
 C                    -4.03875  -1.62464   2.00006 
 C                    -5.37181  -1.78909   1.62526 
 C                    -5.76783  -1.46476   0.32541 
 C                    -4.83359  -0.97946  -0.58808 
 C                    -2.33494   4.61239   1.33865 
 N                    -1.59216   5.46875   1.95069 
 C                    -0.22379   4.92386   1.97381 
 H                     1.93593  -2.57474  -0.28625 
 H                     2.46757  -1.68881  -1.72172 
 H                     1.81627  -3.32467  -1.88226 
 H                    -0.47357  -3.13565   0.06679 
 H                    -1.72674  -2.7587   -1.11101 
 H                    -0.45226  -3.90323  -1.52829 
 H                     0.84205  -0.88197  -3.39576 
 H                    -0.88681  -1.14093  -3.28396 
 H                     2.17134  -0.93367   1.9477 
 H                     4.57046  -1.07208   2.44948 
 H                     6.3176   -0.14228   2.83011 
 H                     5.45817   1.14765  -1.12448 
 H                     3.02246   1.28239  -1.6296 
 H                     1.71315   2.75166   1.2946 
 H                    -3.11552   2.15297  -0.08769 
 H                    -2.36309  -1.07993  -2.02872 
 H                    -2.94833   0.54426  -1.79572 
 H                    -2.06771  -1.00962   1.38351 
 H                    -3.72269  -1.86939   3.01054 
 H                    -6.09911  -2.16349   2.34025 
 H                    -6.80489  -1.5854    0.02421 
 H                    -5.15036  -0.72438  -1.59785 
 H                    -3.39944   4.79822   1.19749 
 H                     0.45097   5.64084   1.48666 
 H                     0.10837   4.8458    3.01795 
 
 ITRead=  0  0  0  0  0  0  0  0  0  0  0  0  0  0  0  0  0  0  0  0
 ITRead=  0  0  0  0  0  0  0  0  0  0  0  0  0  0  0  0  0  0  0  0
 ITRead=  0  0  0  0  0  0  0  0  0  0  0  0  0  0  0  0  0  0  0
 MicOpt= -1 -1 -1 -1 -1 -1 -1 -1 -1 -1 -1 -1 -1 -1 -1 -1 -1 -1 -1 -1
 MicOpt= -1 -1 -1 -1 -1 -1 -1 -1 -1 -1 -1 -1 -1 -1 -1 -1 -1 -1 -1 -1
 MicOpt= -1 -1 -1 -1 -1 -1 -1 -1 -1 -1 -1 -1 -1 -1 -1 -1 -1 -1 -1
 NAtoms=     59 NQM=       59 NQMF=       0 NMMI=      0 NMMIF=      0
                NMic=       0 NMicF=      0.
                    Isotopes and Nuclear Properties:
 (Nuclear quadrupole moments (NQMom) in fm**2, nuclear magnetic moments (NMagM)
  in nuclear magnetons)

  Atom         1           2           3           4           5           6           7           8           9          10
 IAtWgt=          12          12          12          12          12          14          12          12          12          12
 AtmWgt=  12.0000000  12.0000000  12.0000000  12.0000000  12.0000000  14.0030740  12.0000000  12.0000000  12.0000000  12.0000000
 NucSpn=           0           0           0           0           0           2           0           0           0           0
 AtZEff=  -0.0000000  -0.0000000  -0.0000000  -0.0000000  -0.0000000  -0.0000000  -0.0000000  -0.0000000  -0.0000000  -0.0000000
 NQMom=    0.0000000   0.0000000   0.0000000   0.0000000   0.0000000   2.0440000   0.0000000   0.0000000   0.0000000   0.0000000
 NMagM=    0.0000000   0.0000000   0.0000000   0.0000000   0.0000000   0.4037610   0.0000000   0.0000000   0.0000000   0.0000000
 AtZNuc=   6.0000000   6.0000000   6.0000000   6.0000000   6.0000000   7.0000000   6.0000000   6.0000000   6.0000000   6.0000000

  Atom        11          12          13          14          15          16          17          18          19          20
 IAtWgt=          12          12          12          16          16          12          12          12          12          12
 AtmWgt=  12.0000000  12.0000000  12.0000000  15.9949146  15.9949146  12.0000000  12.0000000  12.0000000  12.0000000  12.0000000
 NucSpn=           0           0           0           0           0           0           0           0           0           0
 AtZEff=  -0.0000000  -0.0000000  -0.0000000  -0.0000000  -0.0000000  -0.0000000  -0.0000000  -0.0000000  -0.0000000  -0.0000000
 NQMom=    0.0000000   0.0000000   0.0000000   0.0000000   0.0000000   0.0000000   0.0000000   0.0000000   0.0000000   0.0000000
 NMagM=    0.0000000   0.0000000   0.0000000   0.0000000   0.0000000   0.0000000   0.0000000   0.0000000   0.0000000   0.0000000
 AtZNuc=   6.0000000   6.0000000   6.0000000   8.0000000   8.0000000   6.0000000   6.0000000   6.0000000   6.0000000   6.0000000

  Atom        21          22          23          24          25          26          27          28          29          30
 IAtWgt=          12          12          12          14          12          12          12          12          12          12
 AtmWgt=  12.0000000  12.0000000  12.0000000  14.0030740  12.0000000  12.0000000  12.0000000  12.0000000  12.0000000  12.0000000
 NucSpn=           0           0           0           2           0           0           0           0           0           0
 AtZEff=  -0.0000000  -0.0000000  -0.0000000  -0.0000000  -0.0000000  -0.0000000  -0.0000000  -0.0000000  -0.0000000  -0.0000000
 NQMom=    0.0000000   0.0000000   0.0000000   2.0440000   0.0000000   0.0000000   0.0000000   0.0000000   0.0000000   0.0000000
 NMagM=    0.0000000   0.0000000   0.0000000   0.4037610   0.0000000   0.0000000   0.0000000   0.0000000   0.0000000   0.0000000
 AtZNuc=   6.0000000   6.0000000   6.0000000   7.0000000   6.0000000   6.0000000   6.0000000   6.0000000   6.0000000   6.0000000

  Atom        31          32          33          34          35          36          37          38          39          40
 IAtWgt=          12          12          14          12           1           1           1           1           1           1
 AtmWgt=  12.0000000  12.0000000  14.0030740  12.0000000   1.0078250   1.0078250   1.0078250   1.0078250   1.0078250   1.0078250
 NucSpn=           0           0           2           0           1           1           1           1           1           1
 AtZEff=  -0.0000000  -0.0000000  -0.0000000  -0.0000000  -0.0000000  -0.0000000  -0.0000000  -0.0000000  -0.0000000  -0.0000000
 NQMom=    0.0000000   0.0000000   2.0440000   0.0000000   0.0000000   0.0000000   0.0000000   0.0000000   0.0000000   0.0000000
 NMagM=    0.0000000   0.0000000   0.4037610   0.0000000   2.7928460   2.7928460   2.7928460   2.7928460   2.7928460   2.7928460
 AtZNuc=   6.0000000   6.0000000   7.0000000   6.0000000   1.0000000   1.0000000   1.0000000   1.0000000   1.0000000   1.0000000

  Atom        41          42          43          44          45          46          47          48          49          50
 IAtWgt=           1           1           1           1           1           1           1           1           1           1
 AtmWgt=   1.0078250   1.0078250   1.0078250   1.0078250   1.0078250   1.0078250   1.0078250   1.0078250   1.0078250   1.0078250
 NucSpn=           1           1           1           1           1           1           1           1           1           1
 AtZEff=  -0.0000000  -0.0000000  -0.0000000  -0.0000000  -0.0000000  -0.0000000  -0.0000000  -0.0000000  -0.0000000  -0.0000000
 NQMom=    0.0000000   0.0000000   0.0000000   0.0000000   0.0000000   0.0000000   0.0000000   0.0000000   0.0000000   0.0000000
 NMagM=    2.7928460   2.7928460   2.7928460   2.7928460   2.7928460   2.7928460   2.7928460   2.7928460   2.7928460   2.7928460
 AtZNuc=   1.0000000   1.0000000   1.0000000   1.0000000   1.0000000   1.0000000   1.0000000   1.0000000   1.0000000   1.0000000

  Atom        51          52          53          54          55          56          57          58          59
 IAtWgt=           1           1           1           1           1           1           1           1           1
 AtmWgt=   1.0078250   1.0078250   1.0078250   1.0078250   1.0078250   1.0078250   1.0078250   1.0078250   1.0078250
 NucSpn=           1           1           1           1           1           1           1           1           1
 AtZEff=  -0.0000000  -0.0000000  -0.0000000  -0.0000000  -0.0000000  -0.0000000  -0.0000000  -0.0000000  -0.0000000
 NQMom=    0.0000000   0.0000000   0.0000000   0.0000000   0.0000000   0.0000000   0.0000000   0.0000000   0.0000000
 NMagM=    2.7928460   2.7928460   2.7928460   2.7928460   2.7928460   2.7928460   2.7928460   2.7928460   2.7928460
 AtZNuc=   1.0000000   1.0000000   1.0000000   1.0000000   1.0000000   1.0000000   1.0000000   1.0000000   1.0000000
 Leave Link  101 at Sat Nov  5 09:26:02 2022, MaxMem=   402653184 cpu:               1.6 elap:               0.2
 (Enter /home/wykgroup/appl/g16/l202.exe)
 Symmetry turned off by external request.
 Stoichiometry    C29H25N3O2
 Framework group  C1[X(C29H25N3O2)]
 Deg. of freedom   171
 Full point group                 C1      NOp   1
                          Input orientation:                          
 ---------------------------------------------------------------------
 Center     Atomic      Atomic             Coordinates (Angstroms)
 Number     Number       Type             X           Y           Z
 ---------------------------------------------------------------------
      1          6           0        1.714531   -2.380358   -1.338110
      2          6           0        0.276311   -1.851485   -1.520473
      3          6           0       -0.662626   -2.968648   -0.998512
      4          6           0        0.081605   -1.597805   -3.062101
      5          6           0        0.196880   -2.811356   -3.876708
      6          7           0        0.281076   -3.779066   -4.512805
      7          6           0        0.052844   -0.519218   -0.796935
      8          6           0        0.964176    0.306982   -0.149853
      9          6           0        2.422134    0.168574    0.114662
     10          6           0        2.886782   -0.470833    1.274004
     11          6           0        4.248560   -0.527833    1.563923
     12          6           0        5.183857    0.064014    0.703776
     13          6           0        6.663524    0.025317    0.943563
     14          8           0        7.481590    0.180854    0.068421
     15          8           0        7.072885   -0.198467    2.222894
     16          6           0        4.727545    0.703596   -0.456382
     17          6           0        3.366440    0.767664   -0.736739
     18          6           0        0.259250    1.478835    0.298912
     19          6           0        0.675547    2.632493    0.994003
     20          6           0       -0.283532    3.588930    1.267012
     21          6           0       -1.634141    3.412929    0.870289
     22          6           0       -2.074036    2.284347    0.188124
     23          6           0       -1.093110    1.324725   -0.094899
     24          7           0       -1.208679    0.114416   -0.760916
     25          6           0       -2.506830   -0.311836   -1.269895
     26          6           0       -3.491203   -0.816740   -0.219597
     27          6           0       -3.102320   -1.141906    1.082556
     28          6           0       -4.038747   -1.624640    2.000064
     29          6           0       -5.371814   -1.789090    1.625260
     30          6           0       -5.767834   -1.464757    0.325413
     31          6           0       -4.833586   -0.979462   -0.588081
     32          6           0       -2.334938    4.612385    1.338652
     33          7           0       -1.592160    5.468749    1.950685
     34          6           0       -0.223794    4.923855    1.973815
     35          1           0        1.935934   -2.574740   -0.286249
     36          1           0        2.467573   -1.688812   -1.721717
     37          1           0        1.816266   -3.324667   -1.882261
     38          1           0       -0.473575   -3.135649    0.066794
     39          1           0       -1.726745   -2.758701   -1.111008
     40          1           0       -0.452262   -3.903232   -1.528293
     41          1           0        0.842046   -0.881975   -3.395756
     42          1           0       -0.886812   -1.140928   -3.283962
     43          1           0        2.171338   -0.933673    1.947702
     44          1           0        4.570458   -1.072082    2.449477
     45          1           0        6.317603   -0.142278    2.830114
     46          1           0        5.458166    1.147650   -1.124483
     47          1           0        3.022459    1.282386   -1.629597
     48          1           0        1.713154    2.751660    1.294596
     49          1           0       -3.115521    2.152974   -0.087692
     50          1           0       -2.363088   -1.079932   -2.028723
     51          1           0       -2.948328    0.544255   -1.795718
     52          1           0       -2.067707   -1.009618    1.383510
     53          1           0       -3.722687   -1.869389    3.010535
     54          1           0       -6.099107   -2.163494    2.340250
     55          1           0       -6.804893   -1.585401    0.024210
     56          1           0       -5.150362   -0.724377   -1.597852
     57          1           0       -3.399444    4.798216    1.197488
     58          1           0        0.450966    5.640844    1.486665
     59          1           0        0.108375    4.845803    3.017950
 ---------------------------------------------------------------------
 Rotational constants (GHZ):           0.1450345           0.0830365           0.0611729
 Leave Link  202 at Sat Nov  5 09:26:02 2022, MaxMem=   402653184 cpu:               1.2 elap:               0.2
 (Enter /home/wykgroup/appl/g16/l301.exe)
 Standard basis: 6-31G(d) (6D, 10F)
 Ernie: Thresh=  0.10000D-02 Tol=  0.10000D-05 Strict=F.
 AO basis set in the form of general basis input (Overlap normalization):
      1 0
 S   6 1.00       0.000000000000
      0.3047524880D+04  0.1834737132D-02
      0.4573695180D+03  0.1403732281D-01
      0.1039486850D+03  0.6884262226D-01
      0.2921015530D+02  0.2321844432D+00
      0.9286662960D+01  0.4679413484D+00
      0.3163926960D+01  0.3623119853D+00
 SP   3 1.00       0.000000000000
      0.7868272350D+01 -0.1193324198D+00  0.6899906659D-01
      0.1881288540D+01 -0.1608541517D+00  0.3164239610D+00
      0.5442492580D+00  0.1143456438D+01  0.7443082909D+00
 SP   1 1.00       0.000000000000
      0.1687144782D+00  0.1000000000D+01  0.1000000000D+01
 D   1 1.00       0.000000000000
      0.8000000000D+00  0.1000000000D+01
 ****
      2 0
 S   6 1.00       0.000000000000
      0.3047524880D+04  0.1834737132D-02
      0.4573695180D+03  0.1403732281D-01
      0.1039486850D+03  0.6884262226D-01
      0.2921015530D+02  0.2321844432D+00
      0.9286662960D+01  0.4679413484D+00
      0.3163926960D+01  0.3623119853D+00
 SP   3 1.00       0.000000000000
      0.7868272350D+01 -0.1193324198D+00  0.6899906659D-01
      0.1881288540D+01 -0.1608541517D+00  0.3164239610D+00
      0.5442492580D+00  0.1143456438D+01  0.7443082909D+00
 SP   1 1.00       0.000000000000
      0.1687144782D+00  0.1000000000D+01  0.1000000000D+01
 D   1 1.00       0.000000000000
      0.8000000000D+00  0.1000000000D+01
 ****
      3 0
 S   6 1.00       0.000000000000
      0.3047524880D+04  0.1834737132D-02
      0.4573695180D+03  0.1403732281D-01
      0.1039486850D+03  0.6884262226D-01
      0.2921015530D+02  0.2321844432D+00
      0.9286662960D+01  0.4679413484D+00
      0.3163926960D+01  0.3623119853D+00
 SP   3 1.00       0.000000000000
      0.7868272350D+01 -0.1193324198D+00  0.6899906659D-01
      0.1881288540D+01 -0.1608541517D+00  0.3164239610D+00
      0.5442492580D+00  0.1143456438D+01  0.7443082909D+00
 SP   1 1.00       0.000000000000
      0.1687144782D+00  0.1000000000D+01  0.1000000000D+01
 D   1 1.00       0.000000000000
      0.8000000000D+00  0.1000000000D+01
 ****
      4 0
 S   6 1.00       0.000000000000
      0.3047524880D+04  0.1834737132D-02
      0.4573695180D+03  0.1403732281D-01
      0.1039486850D+03  0.6884262226D-01
      0.2921015530D+02  0.2321844432D+00
      0.9286662960D+01  0.4679413484D+00
      0.3163926960D+01  0.3623119853D+00
 SP   3 1.00       0.000000000000
      0.7868272350D+01 -0.1193324198D+00  0.6899906659D-01
      0.1881288540D+01 -0.1608541517D+00  0.3164239610D+00
      0.5442492580D+00  0.1143456438D+01  0.7443082909D+00
 SP   1 1.00       0.000000000000
      0.1687144782D+00  0.1000000000D+01  0.1000000000D+01
 D   1 1.00       0.000000000000
      0.8000000000D+00  0.1000000000D+01
 ****
      5 0
 S   6 1.00       0.000000000000
      0.3047524880D+04  0.1834737132D-02
      0.4573695180D+03  0.1403732281D-01
      0.1039486850D+03  0.6884262226D-01
      0.2921015530D+02  0.2321844432D+00
      0.9286662960D+01  0.4679413484D+00
      0.3163926960D+01  0.3623119853D+00
 SP   3 1.00       0.000000000000
      0.7868272350D+01 -0.1193324198D+00  0.6899906659D-01
      0.1881288540D+01 -0.1608541517D+00  0.3164239610D+00
      0.5442492580D+00  0.1143456438D+01  0.7443082909D+00
 SP   1 1.00       0.000000000000
      0.1687144782D+00  0.1000000000D+01  0.1000000000D+01
 D   1 1.00       0.000000000000
      0.8000000000D+00  0.1000000000D+01
 ****
      6 0
 S   6 1.00       0.000000000000
      0.4173511460D+04  0.1834772160D-02
      0.6274579110D+03  0.1399462700D-01
      0.1429020930D+03  0.6858655181D-01
      0.4023432930D+02  0.2322408730D+00
      0.1282021290D+02  0.4690699481D+00
      0.4390437010D+01  0.3604551991D+00
 SP   3 1.00       0.000000000000
      0.1162636186D+02 -0.1149611817D+00  0.6757974388D-01
      0.2716279807D+01 -0.1691174786D+00  0.3239072959D+00
      0.7722183966D+00  0.1145851947D+01  0.7408951398D+00
 SP   1 1.00       0.000000000000
      0.2120314975D+00  0.1000000000D+01  0.1000000000D+01
 D   1 1.00       0.000000000000
      0.8000000000D+00  0.1000000000D+01
 ****
      7 0
 S   6 1.00       0.000000000000
      0.3047524880D+04  0.1834737132D-02
      0.4573695180D+03  0.1403732281D-01
      0.1039486850D+03  0.6884262226D-01
      0.2921015530D+02  0.2321844432D+00
      0.9286662960D+01  0.4679413484D+00
      0.3163926960D+01  0.3623119853D+00
 SP   3 1.00       0.000000000000
      0.7868272350D+01 -0.1193324198D+00  0.6899906659D-01
      0.1881288540D+01 -0.1608541517D+00  0.3164239610D+00
      0.5442492580D+00  0.1143456438D+01  0.7443082909D+00
 SP   1 1.00       0.000000000000
      0.1687144782D+00  0.1000000000D+01  0.1000000000D+01
 D   1 1.00       0.000000000000
      0.8000000000D+00  0.1000000000D+01
 ****
      8 0
 S   6 1.00       0.000000000000
      0.3047524880D+04  0.1834737132D-02
      0.4573695180D+03  0.1403732281D-01
      0.1039486850D+03  0.6884262226D-01
      0.2921015530D+02  0.2321844432D+00
      0.9286662960D+01  0.4679413484D+00
      0.3163926960D+01  0.3623119853D+00
 SP   3 1.00       0.000000000000
      0.7868272350D+01 -0.1193324198D+00  0.6899906659D-01
      0.1881288540D+01 -0.1608541517D+00  0.3164239610D+00
      0.5442492580D+00  0.1143456438D+01  0.7443082909D+00
 SP   1 1.00       0.000000000000
      0.1687144782D+00  0.1000000000D+01  0.1000000000D+01
 D   1 1.00       0.000000000000
      0.8000000000D+00  0.1000000000D+01
 ****
      9 0
 S   6 1.00       0.000000000000
      0.3047524880D+04  0.1834737132D-02
      0.4573695180D+03  0.1403732281D-01
      0.1039486850D+03  0.6884262226D-01
      0.2921015530D+02  0.2321844432D+00
      0.9286662960D+01  0.4679413484D+00
      0.3163926960D+01  0.3623119853D+00
 SP   3 1.00       0.000000000000
      0.7868272350D+01 -0.1193324198D+00  0.6899906659D-01
      0.1881288540D+01 -0.1608541517D+00  0.3164239610D+00
      0.5442492580D+00  0.1143456438D+01  0.7443082909D+00
 SP   1 1.00       0.000000000000
      0.1687144782D+00  0.1000000000D+01  0.1000000000D+01
 D   1 1.00       0.000000000000
      0.8000000000D+00  0.1000000000D+01
 ****
     10 0
 S   6 1.00       0.000000000000
      0.3047524880D+04  0.1834737132D-02
      0.4573695180D+03  0.1403732281D-01
      0.1039486850D+03  0.6884262226D-01
      0.2921015530D+02  0.2321844432D+00
      0.9286662960D+01  0.4679413484D+00
      0.3163926960D+01  0.3623119853D+00
 SP   3 1.00       0.000000000000
      0.7868272350D+01 -0.1193324198D+00  0.6899906659D-01
      0.1881288540D+01 -0.1608541517D+00  0.3164239610D+00
      0.5442492580D+00  0.1143456438D+01  0.7443082909D+00
 SP   1 1.00       0.000000000000
      0.1687144782D+00  0.1000000000D+01  0.1000000000D+01
 D   1 1.00       0.000000000000
      0.8000000000D+00  0.1000000000D+01
 ****
     11 0
 S   6 1.00       0.000000000000
      0.3047524880D+04  0.1834737132D-02
      0.4573695180D+03  0.1403732281D-01
      0.1039486850D+03  0.6884262226D-01
      0.2921015530D+02  0.2321844432D+00
      0.9286662960D+01  0.4679413484D+00
      0.3163926960D+01  0.3623119853D+00
 SP   3 1.00       0.000000000000
      0.7868272350D+01 -0.1193324198D+00  0.6899906659D-01
      0.1881288540D+01 -0.1608541517D+00  0.3164239610D+00
      0.5442492580D+00  0.1143456438D+01  0.7443082909D+00
 SP   1 1.00       0.000000000000
      0.1687144782D+00  0.1000000000D+01  0.1000000000D+01
 D   1 1.00       0.000000000000
      0.8000000000D+00  0.1000000000D+01
 ****
     12 0
 S   6 1.00       0.000000000000
      0.3047524880D+04  0.1834737132D-02
      0.4573695180D+03  0.1403732281D-01
      0.1039486850D+03  0.6884262226D-01
      0.2921015530D+02  0.2321844432D+00
      0.9286662960D+01  0.4679413484D+00
      0.3163926960D+01  0.3623119853D+00
 SP   3 1.00       0.000000000000
      0.7868272350D+01 -0.1193324198D+00  0.6899906659D-01
      0.1881288540D+01 -0.1608541517D+00  0.3164239610D+00
      0.5442492580D+00  0.1143456438D+01  0.7443082909D+00
 SP   1 1.00       0.000000000000
      0.1687144782D+00  0.1000000000D+01  0.1000000000D+01
 D   1 1.00       0.000000000000
      0.8000000000D+00  0.1000000000D+01
 ****
     13 0
 S   6 1.00       0.000000000000
      0.3047524880D+04  0.1834737132D-02
      0.4573695180D+03  0.1403732281D-01
      0.1039486850D+03  0.6884262226D-01
      0.2921015530D+02  0.2321844432D+00
      0.9286662960D+01  0.4679413484D+00
      0.3163926960D+01  0.3623119853D+00
 SP   3 1.00       0.000000000000
      0.7868272350D+01 -0.1193324198D+00  0.6899906659D-01
      0.1881288540D+01 -0.1608541517D+00  0.3164239610D+00
      0.5442492580D+00  0.1143456438D+01  0.7443082909D+00
 SP   1 1.00       0.000000000000
      0.1687144782D+00  0.1000000000D+01  0.1000000000D+01
 D   1 1.00       0.000000000000
      0.8000000000D+00  0.1000000000D+01
 ****
     14 0
 S   6 1.00       0.000000000000
      0.5484671660D+04  0.1831074430D-02
      0.8252349460D+03  0.1395017220D-01
      0.1880469580D+03  0.6844507810D-01
      0.5296450000D+02  0.2327143360D+00
      0.1689757040D+02  0.4701928980D+00
      0.5799635340D+01  0.3585208530D+00
 SP   3 1.00       0.000000000000
      0.1553961625D+02 -0.1107775495D+00  0.7087426823D-01
      0.3599933586D+01 -0.1480262627D+00  0.3397528391D+00
      0.1013761750D+01  0.1130767015D+01  0.7271585773D+00
 SP   1 1.00       0.000000000000
      0.2700058226D+00  0.1000000000D+01  0.1000000000D+01
 D   1 1.00       0.000000000000
      0.8000000000D+00  0.1000000000D+01
 ****
     15 0
 S   6 1.00       0.000000000000
      0.5484671660D+04  0.1831074430D-02
      0.8252349460D+03  0.1395017220D-01
      0.1880469580D+03  0.6844507810D-01
      0.5296450000D+02  0.2327143360D+00
      0.1689757040D+02  0.4701928980D+00
      0.5799635340D+01  0.3585208530D+00
 SP   3 1.00       0.000000000000
      0.1553961625D+02 -0.1107775495D+00  0.7087426823D-01
      0.3599933586D+01 -0.1480262627D+00  0.3397528391D+00
      0.1013761750D+01  0.1130767015D+01  0.7271585773D+00
 SP   1 1.00       0.000000000000
      0.2700058226D+00  0.1000000000D+01  0.1000000000D+01
 D   1 1.00       0.000000000000
      0.8000000000D+00  0.1000000000D+01
 ****
     16 0
 S   6 1.00       0.000000000000
      0.3047524880D+04  0.1834737132D-02
      0.4573695180D+03  0.1403732281D-01
      0.1039486850D+03  0.6884262226D-01
      0.2921015530D+02  0.2321844432D+00
      0.9286662960D+01  0.4679413484D+00
      0.3163926960D+01  0.3623119853D+00
 SP   3 1.00       0.000000000000
      0.7868272350D+01 -0.1193324198D+00  0.6899906659D-01
      0.1881288540D+01 -0.1608541517D+00  0.3164239610D+00
      0.5442492580D+00  0.1143456438D+01  0.7443082909D+00
 SP   1 1.00       0.000000000000
      0.1687144782D+00  0.1000000000D+01  0.1000000000D+01
 D   1 1.00       0.000000000000
      0.8000000000D+00  0.1000000000D+01
 ****
     17 0
 S   6 1.00       0.000000000000
      0.3047524880D+04  0.1834737132D-02
      0.4573695180D+03  0.1403732281D-01
      0.1039486850D+03  0.6884262226D-01
      0.2921015530D+02  0.2321844432D+00
      0.9286662960D+01  0.4679413484D+00
      0.3163926960D+01  0.3623119853D+00
 SP   3 1.00       0.000000000000
      0.7868272350D+01 -0.1193324198D+00  0.6899906659D-01
      0.1881288540D+01 -0.1608541517D+00  0.3164239610D+00
      0.5442492580D+00  0.1143456438D+01  0.7443082909D+00
 SP   1 1.00       0.000000000000
      0.1687144782D+00  0.1000000000D+01  0.1000000000D+01
 D   1 1.00       0.000000000000
      0.8000000000D+00  0.1000000000D+01
 ****
     18 0
 S   6 1.00       0.000000000000
      0.3047524880D+04  0.1834737132D-02
      0.4573695180D+03  0.1403732281D-01
      0.1039486850D+03  0.6884262226D-01
      0.2921015530D+02  0.2321844432D+00
      0.9286662960D+01  0.4679413484D+00
      0.3163926960D+01  0.3623119853D+00
 SP   3 1.00       0.000000000000
      0.7868272350D+01 -0.1193324198D+00  0.6899906659D-01
      0.1881288540D+01 -0.1608541517D+00  0.3164239610D+00
      0.5442492580D+00  0.1143456438D+01  0.7443082909D+00
 SP   1 1.00       0.000000000000
      0.1687144782D+00  0.1000000000D+01  0.1000000000D+01
 D   1 1.00       0.000000000000
      0.8000000000D+00  0.1000000000D+01
 ****
     19 0
 S   6 1.00       0.000000000000
      0.3047524880D+04  0.1834737132D-02
      0.4573695180D+03  0.1403732281D-01
      0.1039486850D+03  0.6884262226D-01
      0.2921015530D+02  0.2321844432D+00
      0.9286662960D+01  0.4679413484D+00
      0.3163926960D+01  0.3623119853D+00
 SP   3 1.00       0.000000000000
      0.7868272350D+01 -0.1193324198D+00  0.6899906659D-01
      0.1881288540D+01 -0.1608541517D+00  0.3164239610D+00
      0.5442492580D+00  0.1143456438D+01  0.7443082909D+00
 SP   1 1.00       0.000000000000
      0.1687144782D+00  0.1000000000D+01  0.1000000000D+01
 D   1 1.00       0.000000000000
      0.8000000000D+00  0.1000000000D+01
 ****
     20 0
 S   6 1.00       0.000000000000
      0.3047524880D+04  0.1834737132D-02
      0.4573695180D+03  0.1403732281D-01
      0.1039486850D+03  0.6884262226D-01
      0.2921015530D+02  0.2321844432D+00
      0.9286662960D+01  0.4679413484D+00
      0.3163926960D+01  0.3623119853D+00
 SP   3 1.00       0.000000000000
      0.7868272350D+01 -0.1193324198D+00  0.6899906659D-01
      0.1881288540D+01 -0.1608541517D+00  0.3164239610D+00
      0.5442492580D+00  0.1143456438D+01  0.7443082909D+00
 SP   1 1.00       0.000000000000
      0.1687144782D+00  0.1000000000D+01  0.1000000000D+01
 D   1 1.00       0.000000000000
      0.8000000000D+00  0.1000000000D+01
 ****
     21 0
 S   6 1.00       0.000000000000
      0.3047524880D+04  0.1834737132D-02
      0.4573695180D+03  0.1403732281D-01
      0.1039486850D+03  0.6884262226D-01
      0.2921015530D+02  0.2321844432D+00
      0.9286662960D+01  0.4679413484D+00
      0.3163926960D+01  0.3623119853D+00
 SP   3 1.00       0.000000000000
      0.7868272350D+01 -0.1193324198D+00  0.6899906659D-01
      0.1881288540D+01 -0.1608541517D+00  0.3164239610D+00
      0.5442492580D+00  0.1143456438D+01  0.7443082909D+00
 SP   1 1.00       0.000000000000
      0.1687144782D+00  0.1000000000D+01  0.1000000000D+01
 D   1 1.00       0.000000000000
      0.8000000000D+00  0.1000000000D+01
 ****
     22 0
 S   6 1.00       0.000000000000
      0.3047524880D+04  0.1834737132D-02
      0.4573695180D+03  0.1403732281D-01
      0.1039486850D+03  0.6884262226D-01
      0.2921015530D+02  0.2321844432D+00
      0.9286662960D+01  0.4679413484D+00
      0.3163926960D+01  0.3623119853D+00
 SP   3 1.00       0.000000000000
      0.7868272350D+01 -0.1193324198D+00  0.6899906659D-01
      0.1881288540D+01 -0.1608541517D+00  0.3164239610D+00
      0.5442492580D+00  0.1143456438D+01  0.7443082909D+00
 SP   1 1.00       0.000000000000
      0.1687144782D+00  0.1000000000D+01  0.1000000000D+01
 D   1 1.00       0.000000000000
      0.8000000000D+00  0.1000000000D+01
 ****
     23 0
 S   6 1.00       0.000000000000
      0.3047524880D+04  0.1834737132D-02
      0.4573695180D+03  0.1403732281D-01
      0.1039486850D+03  0.6884262226D-01
      0.2921015530D+02  0.2321844432D+00
      0.9286662960D+01  0.4679413484D+00
      0.3163926960D+01  0.3623119853D+00
 SP   3 1.00       0.000000000000
      0.7868272350D+01 -0.1193324198D+00  0.6899906659D-01
      0.1881288540D+01 -0.1608541517D+00  0.3164239610D+00
      0.5442492580D+00  0.1143456438D+01  0.7443082909D+00
 SP   1 1.00       0.000000000000
      0.1687144782D+00  0.1000000000D+01  0.1000000000D+01
 D   1 1.00       0.000000000000
      0.8000000000D+00  0.1000000000D+01
 ****
     24 0
 S   6 1.00       0.000000000000
      0.4173511460D+04  0.1834772160D-02
      0.6274579110D+03  0.1399462700D-01
      0.1429020930D+03  0.6858655181D-01
      0.4023432930D+02  0.2322408730D+00
      0.1282021290D+02  0.4690699481D+00
      0.4390437010D+01  0.3604551991D+00
 SP   3 1.00       0.000000000000
      0.1162636186D+02 -0.1149611817D+00  0.6757974388D-01
      0.2716279807D+01 -0.1691174786D+00  0.3239072959D+00
      0.7722183966D+00  0.1145851947D+01  0.7408951398D+00
 SP   1 1.00       0.000000000000
      0.2120314975D+00  0.1000000000D+01  0.1000000000D+01
 D   1 1.00       0.000000000000
      0.8000000000D+00  0.1000000000D+01
 ****
     25 0
 S   6 1.00       0.000000000000
      0.3047524880D+04  0.1834737132D-02
      0.4573695180D+03  0.1403732281D-01
      0.1039486850D+03  0.6884262226D-01
      0.2921015530D+02  0.2321844432D+00
      0.9286662960D+01  0.4679413484D+00
      0.3163926960D+01  0.3623119853D+00
 SP   3 1.00       0.000000000000
      0.7868272350D+01 -0.1193324198D+00  0.6899906659D-01
      0.1881288540D+01 -0.1608541517D+00  0.3164239610D+00
      0.5442492580D+00  0.1143456438D+01  0.7443082909D+00
 SP   1 1.00       0.000000000000
      0.1687144782D+00  0.1000000000D+01  0.1000000000D+01
 D   1 1.00       0.000000000000
      0.8000000000D+00  0.1000000000D+01
 ****
     26 0
 S   6 1.00       0.000000000000
      0.3047524880D+04  0.1834737132D-02
      0.4573695180D+03  0.1403732281D-01
      0.1039486850D+03  0.6884262226D-01
      0.2921015530D+02  0.2321844432D+00
      0.9286662960D+01  0.4679413484D+00
      0.3163926960D+01  0.3623119853D+00
 SP   3 1.00       0.000000000000
      0.7868272350D+01 -0.1193324198D+00  0.6899906659D-01
      0.1881288540D+01 -0.1608541517D+00  0.3164239610D+00
      0.5442492580D+00  0.1143456438D+01  0.7443082909D+00
 SP   1 1.00       0.000000000000
      0.1687144782D+00  0.1000000000D+01  0.1000000000D+01
 D   1 1.00       0.000000000000
      0.8000000000D+00  0.1000000000D+01
 ****
     27 0
 S   6 1.00       0.000000000000
      0.3047524880D+04  0.1834737132D-02
      0.4573695180D+03  0.1403732281D-01
      0.1039486850D+03  0.6884262226D-01
      0.2921015530D+02  0.2321844432D+00
      0.9286662960D+01  0.4679413484D+00
      0.3163926960D+01  0.3623119853D+00
 SP   3 1.00       0.000000000000
      0.7868272350D+01 -0.1193324198D+00  0.6899906659D-01
      0.1881288540D+01 -0.1608541517D+00  0.3164239610D+00
      0.5442492580D+00  0.1143456438D+01  0.7443082909D+00
 SP   1 1.00       0.000000000000
      0.1687144782D+00  0.1000000000D+01  0.1000000000D+01
 D   1 1.00       0.000000000000
      0.8000000000D+00  0.1000000000D+01
 ****
     28 0
 S   6 1.00       0.000000000000
      0.3047524880D+04  0.1834737132D-02
      0.4573695180D+03  0.1403732281D-01
      0.1039486850D+03  0.6884262226D-01
      0.2921015530D+02  0.2321844432D+00
      0.9286662960D+01  0.4679413484D+00
      0.3163926960D+01  0.3623119853D+00
 SP   3 1.00       0.000000000000
      0.7868272350D+01 -0.1193324198D+00  0.6899906659D-01
      0.1881288540D+01 -0.1608541517D+00  0.3164239610D+00
      0.5442492580D+00  0.1143456438D+01  0.7443082909D+00
 SP   1 1.00       0.000000000000
      0.1687144782D+00  0.1000000000D+01  0.1000000000D+01
 D   1 1.00       0.000000000000
      0.8000000000D+00  0.1000000000D+01
 ****
     29 0
 S   6 1.00       0.000000000000
      0.3047524880D+04  0.1834737132D-02
      0.4573695180D+03  0.1403732281D-01
      0.1039486850D+03  0.6884262226D-01
      0.2921015530D+02  0.2321844432D+00
      0.9286662960D+01  0.4679413484D+00
      0.3163926960D+01  0.3623119853D+00
 SP   3 1.00       0.000000000000
      0.7868272350D+01 -0.1193324198D+00  0.6899906659D-01
      0.1881288540D+01 -0.1608541517D+00  0.3164239610D+00
      0.5442492580D+00  0.1143456438D+01  0.7443082909D+00
 SP   1 1.00       0.000000000000
      0.1687144782D+00  0.1000000000D+01  0.1000000000D+01
 D   1 1.00       0.000000000000
      0.8000000000D+00  0.1000000000D+01
 ****
     30 0
 S   6 1.00       0.000000000000
      0.3047524880D+04  0.1834737132D-02
      0.4573695180D+03  0.1403732281D-01
      0.1039486850D+03  0.6884262226D-01
      0.2921015530D+02  0.2321844432D+00
      0.9286662960D+01  0.4679413484D+00
      0.3163926960D+01  0.3623119853D+00
 SP   3 1.00       0.000000000000
      0.7868272350D+01 -0.1193324198D+00  0.6899906659D-01
      0.1881288540D+01 -0.1608541517D+00  0.3164239610D+00
      0.5442492580D+00  0.1143456438D+01  0.7443082909D+00
 SP   1 1.00       0.000000000000
      0.1687144782D+00  0.1000000000D+01  0.1000000000D+01
 D   1 1.00       0.000000000000
      0.8000000000D+00  0.1000000000D+01
 ****
     31 0
 S   6 1.00       0.000000000000
      0.3047524880D+04  0.1834737132D-02
      0.4573695180D+03  0.1403732281D-01
      0.1039486850D+03  0.6884262226D-01
      0.2921015530D+02  0.2321844432D+00
      0.9286662960D+01  0.4679413484D+00
      0.3163926960D+01  0.3623119853D+00
 SP   3 1.00       0.000000000000
      0.7868272350D+01 -0.1193324198D+00  0.6899906659D-01
      0.1881288540D+01 -0.1608541517D+00  0.3164239610D+00
      0.5442492580D+00  0.1143456438D+01  0.7443082909D+00
 SP   1 1.00       0.000000000000
      0.1687144782D+00  0.1000000000D+01  0.1000000000D+01
 D   1 1.00       0.000000000000
      0.8000000000D+00  0.1000000000D+01
 ****
     32 0
 S   6 1.00       0.000000000000
      0.3047524880D+04  0.1834737132D-02
      0.4573695180D+03  0.1403732281D-01
      0.1039486850D+03  0.6884262226D-01
      0.2921015530D+02  0.2321844432D+00
      0.9286662960D+01  0.4679413484D+00
      0.3163926960D+01  0.3623119853D+00
 SP   3 1.00       0.000000000000
      0.7868272350D+01 -0.1193324198D+00  0.6899906659D-01
      0.1881288540D+01 -0.1608541517D+00  0.3164239610D+00
      0.5442492580D+00  0.1143456438D+01  0.7443082909D+00
 SP   1 1.00       0.000000000000
      0.1687144782D+00  0.1000000000D+01  0.1000000000D+01
 D   1 1.00       0.000000000000
      0.8000000000D+00  0.1000000000D+01
 ****
     33 0
 S   6 1.00       0.000000000000
      0.4173511460D+04  0.1834772160D-02
      0.6274579110D+03  0.1399462700D-01
      0.1429020930D+03  0.6858655181D-01
      0.4023432930D+02  0.2322408730D+00
      0.1282021290D+02  0.4690699481D+00
      0.4390437010D+01  0.3604551991D+00
 SP   3 1.00       0.000000000000
      0.1162636186D+02 -0.1149611817D+00  0.6757974388D-01
      0.2716279807D+01 -0.1691174786D+00  0.3239072959D+00
      0.7722183966D+00  0.1145851947D+01  0.7408951398D+00
 SP   1 1.00       0.000000000000
      0.2120314975D+00  0.1000000000D+01  0.1000000000D+01
 D   1 1.00       0.000000000000
      0.8000000000D+00  0.1000000000D+01
 ****
     34 0
 S   6 1.00       0.000000000000
      0.3047524880D+04  0.1834737132D-02
      0.4573695180D+03  0.1403732281D-01
      0.1039486850D+03  0.6884262226D-01
      0.2921015530D+02  0.2321844432D+00
      0.9286662960D+01  0.4679413484D+00
      0.3163926960D+01  0.3623119853D+00
 SP   3 1.00       0.000000000000
      0.7868272350D+01 -0.1193324198D+00  0.6899906659D-01
      0.1881288540D+01 -0.1608541517D+00  0.3164239610D+00
      0.5442492580D+00  0.1143456438D+01  0.7443082909D+00
 SP   1 1.00       0.000000000000
      0.1687144782D+00  0.1000000000D+01  0.1000000000D+01
 D   1 1.00       0.000000000000
      0.8000000000D+00  0.1000000000D+01
 ****
     35 0
 S   3 1.00       0.000000000000
      0.1873113696D+02  0.3349460434D-01
      0.2825394365D+01  0.2347269535D+00
      0.6401216923D+00  0.8137573261D+00
 S   1 1.00       0.000000000000
      0.1612777588D+00  0.1000000000D+01
 ****
     36 0
 S   3 1.00       0.000000000000
      0.1873113696D+02  0.3349460434D-01
      0.2825394365D+01  0.2347269535D+00
      0.6401216923D+00  0.8137573261D+00
 S   1 1.00       0.000000000000
      0.1612777588D+00  0.1000000000D+01
 ****
     37 0
 S   3 1.00       0.000000000000
      0.1873113696D+02  0.3349460434D-01
      0.2825394365D+01  0.2347269535D+00
      0.6401216923D+00  0.8137573261D+00
 S   1 1.00       0.000000000000
      0.1612777588D+00  0.1000000000D+01
 ****
     38 0
 S   3 1.00       0.000000000000
      0.1873113696D+02  0.3349460434D-01
      0.2825394365D+01  0.2347269535D+00
      0.6401216923D+00  0.8137573261D+00
 S   1 1.00       0.000000000000
      0.1612777588D+00  0.1000000000D+01
 ****
     39 0
 S   3 1.00       0.000000000000
      0.1873113696D+02  0.3349460434D-01
      0.2825394365D+01  0.2347269535D+00
      0.6401216923D+00  0.8137573261D+00
 S   1 1.00       0.000000000000
      0.1612777588D+00  0.1000000000D+01
 ****
     40 0
 S   3 1.00       0.000000000000
      0.1873113696D+02  0.3349460434D-01
      0.2825394365D+01  0.2347269535D+00
      0.6401216923D+00  0.8137573261D+00
 S   1 1.00       0.000000000000
      0.1612777588D+00  0.1000000000D+01
 ****
     41 0
 S   3 1.00       0.000000000000
      0.1873113696D+02  0.3349460434D-01
      0.2825394365D+01  0.2347269535D+00
      0.6401216923D+00  0.8137573261D+00
 S   1 1.00       0.000000000000
      0.1612777588D+00  0.1000000000D+01
 ****
     42 0
 S   3 1.00       0.000000000000
      0.1873113696D+02  0.3349460434D-01
      0.2825394365D+01  0.2347269535D+00
      0.6401216923D+00  0.8137573261D+00
 S   1 1.00       0.000000000000
      0.1612777588D+00  0.1000000000D+01
 ****
     43 0
 S   3 1.00       0.000000000000
      0.1873113696D+02  0.3349460434D-01
      0.2825394365D+01  0.2347269535D+00
      0.6401216923D+00  0.8137573261D+00
 S   1 1.00       0.000000000000
      0.1612777588D+00  0.1000000000D+01
 ****
     44 0
 S   3 1.00       0.000000000000
      0.1873113696D+02  0.3349460434D-01
      0.2825394365D+01  0.2347269535D+00
      0.6401216923D+00  0.8137573261D+00
 S   1 1.00       0.000000000000
      0.1612777588D+00  0.1000000000D+01
 ****
     45 0
 S   3 1.00       0.000000000000
      0.1873113696D+02  0.3349460434D-01
      0.2825394365D+01  0.2347269535D+00
      0.6401216923D+00  0.8137573261D+00
 S   1 1.00       0.000000000000
      0.1612777588D+00  0.1000000000D+01
 ****
     46 0
 S   3 1.00       0.000000000000
      0.1873113696D+02  0.3349460434D-01
      0.2825394365D+01  0.2347269535D+00
      0.6401216923D+00  0.8137573261D+00
 S   1 1.00       0.000000000000
      0.1612777588D+00  0.1000000000D+01
 ****
     47 0
 S   3 1.00       0.000000000000
      0.1873113696D+02  0.3349460434D-01
      0.2825394365D+01  0.2347269535D+00
      0.6401216923D+00  0.8137573261D+00
 S   1 1.00       0.000000000000
      0.1612777588D+00  0.1000000000D+01
 ****
     48 0
 S   3 1.00       0.000000000000
      0.1873113696D+02  0.3349460434D-01
      0.2825394365D+01  0.2347269535D+00
      0.6401216923D+00  0.8137573261D+00
 S   1 1.00       0.000000000000
      0.1612777588D+00  0.1000000000D+01
 ****
     49 0
 S   3 1.00       0.000000000000
      0.1873113696D+02  0.3349460434D-01
      0.2825394365D+01  0.2347269535D+00
      0.6401216923D+00  0.8137573261D+00
 S   1 1.00       0.000000000000
      0.1612777588D+00  0.1000000000D+01
 ****
     50 0
 S   3 1.00       0.000000000000
      0.1873113696D+02  0.3349460434D-01
      0.2825394365D+01  0.2347269535D+00
      0.6401216923D+00  0.8137573261D+00
 S   1 1.00       0.000000000000
      0.1612777588D+00  0.1000000000D+01
 ****
     51 0
 S   3 1.00       0.000000000000
      0.1873113696D+02  0.3349460434D-01
      0.2825394365D+01  0.2347269535D+00
      0.6401216923D+00  0.8137573261D+00
 S   1 1.00       0.000000000000
      0.1612777588D+00  0.1000000000D+01
 ****
     52 0
 S   3 1.00       0.000000000000
      0.1873113696D+02  0.3349460434D-01
      0.2825394365D+01  0.2347269535D+00
      0.6401216923D+00  0.8137573261D+00
 S   1 1.00       0.000000000000
      0.1612777588D+00  0.1000000000D+01
 ****
     53 0
 S   3 1.00       0.000000000000
      0.1873113696D+02  0.3349460434D-01
      0.2825394365D+01  0.2347269535D+00
      0.6401216923D+00  0.8137573261D+00
 S   1 1.00       0.000000000000
      0.1612777588D+00  0.1000000000D+01
 ****
     54 0
 S   3 1.00       0.000000000000
      0.1873113696D+02  0.3349460434D-01
      0.2825394365D+01  0.2347269535D+00
      0.6401216923D+00  0.8137573261D+00
 S   1 1.00       0.000000000000
      0.1612777588D+00  0.1000000000D+01
 ****
     55 0
 S   3 1.00       0.000000000000
      0.1873113696D+02  0.3349460434D-01
      0.2825394365D+01  0.2347269535D+00
      0.6401216923D+00  0.8137573261D+00
 S   1 1.00       0.000000000000
      0.1612777588D+00  0.1000000000D+01
 ****
     56 0
 S   3 1.00       0.000000000000
      0.1873113696D+02  0.3349460434D-01
      0.2825394365D+01  0.2347269535D+00
      0.6401216923D+00  0.8137573261D+00
 S   1 1.00       0.000000000000
      0.1612777588D+00  0.1000000000D+01
 ****
     57 0
 S   3 1.00       0.000000000000
      0.1873113696D+02  0.3349460434D-01
      0.2825394365D+01  0.2347269535D+00
      0.6401216923D+00  0.8137573261D+00
 S   1 1.00       0.000000000000
      0.1612777588D+00  0.1000000000D+01
 ****
     58 0
 S   3 1.00       0.000000000000
      0.1873113696D+02  0.3349460434D-01
      0.2825394365D+01  0.2347269535D+00
      0.6401216923D+00  0.8137573261D+00
 S   1 1.00       0.000000000000
      0.1612777588D+00  0.1000000000D+01
 ****
     59 0
 S   3 1.00       0.000000000000
      0.1873113696D+02  0.3349460434D-01
      0.2825394365D+01  0.2347269535D+00
      0.6401216923D+00  0.8137573261D+00
 S   1 1.00       0.000000000000
      0.1612777588D+00  0.1000000000D+01
 ****

   560 basis functions,  1052 primitive gaussians,   560 cartesian basis functions
   118 alpha electrons      118 beta electrons
       nuclear repulsion energy      3301.7591857623 Hartrees.
 IExCor=  402 DFT=T Ex+Corr=B3LYP ExCW=0 ScaHFX=  0.200000
 ScaDFX=  0.800000  0.720000  1.000000  0.810000 ScalE2=  1.000000  1.000000
 IRadAn=      5 IRanWt=     -1 IRanGd=            0 ICorTp=0 IEmpDi=  4
 NAtoms=   59 NActive=   59 NUniq=   59 SFac= 1.00D+00 NAtFMM=   60 NAOKFM=F Big=F
 Integral buffers will be    131072 words long.
 Regular integral format.
 Two-electron integral symmetry is turned off.
 Leave Link  301 at Sat Nov  5 09:26:02 2022, MaxMem=   402653184 cpu:               1.0 elap:               0.2
 (Enter /home/wykgroup/appl/g16/l302.exe)
 NPDir=0 NMtPBC=     1 NCelOv=     1 NCel=       1 NClECP=     1 NCelD=      1
         NCelK=      1 NCelE2=     1 NClLst=     1 CellRange=     0.0.
 One-electron integrals computed using PRISM.
 NBasis=   560 RedAO= T EigKep=  2.96D-04  NBF=   560
 NBsUse=   560 1.00D-06 EigRej= -1.00D+00 NBFU=   560
 Precomputing XC quadrature grid using
 IXCGrd= 4 IRadAn=           5 IRanWt=          -1 IRanGd=           0 AccXCQ= 0.00D+00.
 Generated NRdTot=       0 NPtTot=           0 NUsed=           0 NTot=          32
 NSgBfM=   549   549   549   549   549 MxSgAt=    59 MxSgA2=    59.
 Leave Link  302 at Sat Nov  5 09:26:05 2022, MaxMem=   402653184 cpu:              24.1 elap:               3.5
 (Enter /home/wykgroup/appl/g16/l303.exe)
 DipDrv:  MaxL=1.
 Leave Link  303 at Sat Nov  5 09:26:06 2022, MaxMem=   402653184 cpu:               2.1 elap:               0.4
 (Enter /home/wykgroup/appl/g16/l308.exe)
 Leave Link  308 at Sat Nov  5 09:26:06 2022, MaxMem=   402653184 cpu:               2.2 elap:               0.3
 (Enter /home/wykgroup/appl/g16/l401.exe)
 ExpMin= 1.61D-01 ExpMax= 5.48D+03 ExpMxC= 8.25D+02 IAcc=3 IRadAn=         5 AccDes= 0.00D+00
 Harris functional with IExCor=  402 and IRadAn=       5 diagonalized for initial guess.
 HarFok:  IExCor=  402 AccDes= 0.00D+00 IRadAn=         5 IDoV= 1 UseB2=F ITyADJ=14
 ICtDFT=  3500011 ScaDFX=  1.000000  1.000000  1.000000  1.000000
 FoFCou: FMM=F IPFlag=           0 FMFlag=      100000 FMFlg1=           0
         NFxFlg=           0 DoJE=T BraDBF=F KetDBF=T FulRan=T
         wScrn=  0.000000 ICntrl=       500 IOpCl=  0 I1Cent=   200000004 NGrid=           0
         NMat0=    1 NMatS0=      1 NMatT0=    0 NMatD0=    1 NMtDS0=    0 NMtDT0=    0
 Symmetry not used in FoFCou.
 Harris En= -1434.81818739752    
 JPrj=0 DoOrth=F DoCkMO=F.
 Leave Link  401 at Sat Nov  5 09:26:15 2022, MaxMem=   402653184 cpu:              61.3 elap:               8.5
 (Enter /home/wykgroup/appl/g16/l502.exe)
 Two-electron integral symmetry not used.
 Closed shell SCF:
 Using DIIS extrapolation, IDIIS=  1040.
 NGot=   402653184 LenX=   402013349 LenY=   401699189
 Requested convergence on RMS density matrix=1.00D-08 within  32 cycles.
 Requested convergence on MAX density matrix=1.00D-06.
 Requested convergence on             energy=1.00D-06.
 No special actions if energy rises.
 Fock matrices will be formed incrementally for  20 cycles.
 Integral accuracy reduced to 1.0D-05 until final iterations.

 Cycle   1  Pass 0  IDiag  1:
 FoFJK:  IHMeth= 1 ICntrl=       0 DoSepK=F KAlg= 0 I1Cent=           0 FoldK=F
 IRaf= 660000000 NMat=       1 IRICut=       1 DoRegI=T DoRafI=F ISym2E= 0 IDoP0=0 IntGTp=1.
 FoFCou: FMM=F IPFlag=           0 FMFlag=      100000 FMFlg1=           0
         NFxFlg=           0 DoJE=F BraDBF=F KetDBF=F FulRan=T
         wScrn=  0.000000 ICntrl=         0 IOpCl=  0 I1Cent=           0 NGrid=           0
         NMat0=    1 NMatS0=      1 NMatT0=    0 NMatD0=    1 NMtDS0=    0 NMtDT0=    0
 Symmetry not used in FoFCou.
 E= -1434.10338448188    
 DIIS: error= 2.87D-02 at cycle   1 NSaved=   1.
 NSaved= 1 IEnMin= 1 EnMin= -1434.10338448188     IErMin= 1 ErrMin= 2.87D-02
 ErrMax= 2.87D-02  0.00D+00 EMaxC= 1.00D-01 BMatC= 7.30D-01 BMatP= 7.30D-01
 IDIUse=3 WtCom= 7.13D-01 WtEn= 2.87D-01
 Coeff-Com:  0.100D+01
 Coeff-En:   0.100D+01
 Coeff:      0.100D+01
 Gap=     0.167 Goal=   None    Shift=    0.000
 GapD=    0.167 DampG=1.000 DampE=0.500 DampFc=0.5000 IDamp=-1.
 Damping current iteration by 5.00D-01
 RMSDP=3.88D-03 MaxDP=2.14D-01              OVMax= 2.42D-01

 Cycle   2  Pass 0  IDiag  1:
 RMSU=  1.90D-03    CP:  9.74D-01
 E= -1434.37317075279     Delta-E=       -0.269786270908 Rises=F Damp=T
 DIIS: error= 1.11D-02 at cycle   2 NSaved=   2.
 NSaved= 2 IEnMin= 2 EnMin= -1434.37317075279     IErMin= 2 ErrMin= 1.11D-02
 ErrMax= 1.11D-02  0.00D+00 EMaxC= 1.00D-01 BMatC= 9.74D-02 BMatP= 7.30D-01
 IDIUse=3 WtCom= 8.89D-01 WtEn= 1.11D-01
 Coeff-Com:  0.146D+00 0.854D+00
 Coeff-En:   0.222D+00 0.778D+00
 Coeff:      0.155D+00 0.845D+00
 Gap=     0.234 Goal=   None    Shift=    0.000
 RMSDP=1.43D-03 MaxDP=7.74D-02 DE=-2.70D-01 OVMax= 2.93D-01

 Cycle   3  Pass 0  IDiag  1:
 RMSU=  1.35D-03    CP:  9.57D-01  7.89D-01
 E= -1434.69946456469     Delta-E=       -0.326293811901 Rises=F Damp=F
 DIIS: error= 1.64D-02 at cycle   3 NSaved=   3.
 NSaved= 3 IEnMin= 3 EnMin= -1434.69946456469     IErMin= 2 ErrMin= 1.11D-02
 ErrMax= 1.64D-02  0.00D+00 EMaxC= 1.00D-01 BMatC= 1.45D-01 BMatP= 9.74D-02
 IDIUse=2 WtCom= 0.00D+00 WtEn= 1.00D+00
 Coeff-En:   0.000D+00 0.000D+00 0.100D+01
 Coeff:      0.000D+00 0.000D+00 0.100D+01
 Gap=     0.178 Goal=   None    Shift=    0.000
 RMSDP=2.32D-03 MaxDP=1.78D-01 DE=-3.26D-01 OVMax= 2.59D-01

 Cycle   4  Pass 0  IDiag  1:
 RMSU=  1.26D-03    CP:  9.62D-01  1.31D+00 -2.47D-01
 E= -1434.01446957684     Delta-E=        0.684994987856 Rises=F Damp=F
 DIIS: error= 4.14D-02 at cycle   4 NSaved=   4.
 NSaved= 4 IEnMin= 3 EnMin= -1434.69946456469     IErMin= 2 ErrMin= 1.11D-02
 ErrMax= 4.14D-02  0.00D+00 EMaxC= 1.00D-01 BMatC= 9.01D-01 BMatP= 9.74D-02
 IDIUse=2 WtCom= 0.00D+00 WtEn= 1.00D+00
 Coeff-En:   0.000D+00 0.000D+00 0.801D+00 0.199D+00
 Coeff:      0.000D+00 0.000D+00 0.801D+00 0.199D+00
 Gap=     0.198 Goal=   None    Shift=    0.000
 RMSDP=1.24D-03 MaxDP=8.92D-02 DE= 6.85D-01 OVMax= 1.60D-01

 Cycle   5  Pass 0  IDiag  1:
 RMSU=  2.20D-04    CP:  9.61D-01  9.85D-01  3.82D-01  5.05D-01
 E= -1434.76812340301     Delta-E=       -0.753653826177 Rises=F Damp=F
 DIIS: error= 1.12D-02 at cycle   5 NSaved=   5.
 NSaved= 5 IEnMin= 5 EnMin= -1434.76812340301     IErMin= 2 ErrMin= 1.11D-02
 ErrMax= 1.12D-02  0.00D+00 EMaxC= 1.00D-01 BMatC= 7.20D-02 BMatP= 9.74D-02
 IDIUse=3 WtCom= 8.88D-01 WtEn= 1.12D-01
 Coeff-Com:  0.155D-02 0.194D-01 0.330D+00-0.795D-01 0.728D+00
 Coeff-En:   0.000D+00 0.000D+00 0.372D+00 0.000D+00 0.628D+00
 Coeff:      0.137D-02 0.172D-01 0.335D+00-0.706D-01 0.717D+00
 Gap=     0.158 Goal=   None    Shift=    0.000
 RMSDP=5.00D-04 MaxDP=3.20D-02 DE=-7.54D-01 OVMax= 8.19D-02

 Cycle   6  Pass 0  IDiag  1:
 RMSU=  8.41D-05    CP:  9.59D-01  8.87D-01  6.46D-01  2.86D-01  6.86D-01
 E= -1434.83337149341     Delta-E=       -0.065248090392 Rises=F Damp=F
 DIIS: error= 1.26D-03 at cycle   6 NSaved=   6.
 NSaved= 6 IEnMin= 6 EnMin= -1434.83337149341     IErMin= 6 ErrMin= 1.26D-03
 ErrMax= 1.26D-03  0.00D+00 EMaxC= 1.00D-01 BMatC= 6.43D-04 BMatP= 7.20D-02
 IDIUse=3 WtCom= 9.87D-01 WtEn= 1.26D-02
 Coeff-Com: -0.136D-02 0.102D-01 0.186D+00-0.666D-01 0.491D+00 0.381D+00
 Coeff-En:   0.000D+00 0.000D+00 0.000D+00 0.000D+00 0.000D+00 0.100D+01
 Coeff:     -0.134D-02 0.101D-01 0.184D+00-0.658D-01 0.484D+00 0.389D+00
 Gap=     0.158 Goal=   None    Shift=    0.000
 RMSDP=6.21D-05 MaxDP=4.32D-03 DE=-6.52D-02 OVMax= 1.22D-02

 Cycle   7  Pass 0  IDiag  1:
 RMSU=  2.39D-05    CP:  9.59D-01  8.95D-01  6.31D-01  2.96D-01  7.86D-01
                    CP:  4.69D-01
 E= -1434.83395863864     Delta-E=       -0.000587145236 Rises=F Damp=F
 DIIS: error= 2.52D-04 at cycle   7 NSaved=   7.
 NSaved= 7 IEnMin= 7 EnMin= -1434.83395863864     IErMin= 7 ErrMin= 2.52D-04
 ErrMax= 2.52D-04  0.00D+00 EMaxC= 1.00D-01 BMatC= 4.92D-05 BMatP= 6.43D-04
 IDIUse=3 WtCom= 9.97D-01 WtEn= 2.52D-03
 Coeff-Com: -0.629D-03 0.339D-02 0.647D-01-0.295D-01 0.185D+00 0.213D+00
 Coeff-Com:  0.564D+00
 Coeff-En:   0.000D+00 0.000D+00 0.000D+00 0.000D+00 0.000D+00 0.329D-01
 Coeff-En:   0.967D+00
 Coeff:     -0.627D-03 0.338D-02 0.645D-01-0.295D-01 0.185D+00 0.212D+00
 Coeff:      0.565D+00
 Gap=     0.158 Goal=   None    Shift=    0.000
 RMSDP=1.60D-05 MaxDP=1.04D-03 DE=-5.87D-04 OVMax= 3.05D-03

 Cycle   8  Pass 0  IDiag  1:
 RMSU=  8.99D-06    CP:  9.59D-01  8.93D-01  6.36D-01  2.94D-01  7.81D-01
                    CP:  5.19D-01  5.84D-01
 E= -1434.83400274222     Delta-E=       -0.000044103575 Rises=F Damp=F
 DIIS: error= 1.50D-04 at cycle   8 NSaved=   8.
 NSaved= 8 IEnMin= 8 EnMin= -1434.83400274222     IErMin= 8 ErrMin= 1.50D-04
 ErrMax= 1.50D-04  0.00D+00 EMaxC= 1.00D-01 BMatC= 8.58D-06 BMatP= 4.92D-05
 IDIUse=3 WtCom= 9.99D-01 WtEn= 1.50D-03
 Coeff-Com:  0.253D-03-0.742D-03 0.166D-01-0.724D-02 0.429D-01 0.731D-01
 Coeff-Com:  0.357D+00 0.518D+00
 Coeff-En:   0.000D+00 0.000D+00 0.000D+00 0.000D+00 0.000D+00 0.000D+00
 Coeff-En:   0.416D-01 0.958D+00
 Coeff:      0.253D-03-0.741D-03 0.166D-01-0.723D-02 0.428D-01 0.730D-01
 Coeff:      0.357D+00 0.519D+00
 Gap=     0.158 Goal=   None    Shift=    0.000
 RMSDP=6.04D-06 MaxDP=4.94D-04 DE=-4.41D-05 OVMax= 7.43D-04

 Initial convergence to 1.0D-05 achieved.  Increase integral accuracy.
 Cycle   9  Pass 1  IDiag  1:
 E= -1434.83396920992     Delta-E=        0.000033532292 Rises=F Damp=F
 DIIS: error= 1.06D-04 at cycle   1 NSaved=   1.
 NSaved= 1 IEnMin= 1 EnMin= -1434.83396920992     IErMin= 1 ErrMin= 1.06D-04
 ErrMax= 1.06D-04  0.00D+00 EMaxC= 1.00D-01 BMatC= 5.27D-06 BMatP= 5.27D-06
 IDIUse=3 WtCom= 9.99D-01 WtEn= 1.06D-03
 Coeff-Com:  0.100D+01
 Coeff-En:   0.100D+01
 Coeff:      0.100D+01
 Gap=     0.158 Goal=   None    Shift=    0.000
 RMSDP=6.04D-06 MaxDP=4.94D-04 DE= 3.35D-05 OVMax= 6.98D-04

 Cycle  10  Pass 1  IDiag  1:
 RMSU=  7.42D-05    CP:  1.00D+00
 E= -1434.83397079738     Delta-E=       -0.000001587457 Rises=F Damp=F
 DIIS: error= 1.18D-04 at cycle   2 NSaved=   2.
 NSaved= 2 IEnMin= 2 EnMin= -1434.83397079738     IErMin= 1 ErrMin= 1.06D-04
 ErrMax= 1.18D-04  0.00D+00 EMaxC= 1.00D-01 BMatC= 3.63D-06 BMatP= 5.27D-06
 IDIUse=3 WtCom= 9.99D-01 WtEn= 1.18D-03
 Coeff-Com:  0.431D+00 0.569D+00
 Coeff-En:   0.332D+00 0.668D+00
 Coeff:      0.431D+00 0.569D+00
 Gap=     0.158 Goal=   None    Shift=    0.000
 RMSDP=6.24D-06 MaxDP=6.33D-04 DE=-1.59D-06 OVMax= 9.81D-04

 Cycle  11  Pass 1  IDiag  1:
 RMSU=  6.24D-06    CP:  1.00D+00  1.00D+00
 E= -1434.83397102944     Delta-E=       -0.000000232058 Rises=F Damp=F
 DIIS: error= 1.26D-04 at cycle   3 NSaved=   3.
 NSaved= 3 IEnMin= 3 EnMin= -1434.83397102944     IErMin= 1 ErrMin= 1.06D-04
 ErrMax= 1.26D-04  0.00D+00 EMaxC= 1.00D-01 BMatC= 3.43D-06 BMatP= 3.63D-06
 IDIUse=3 WtCom= 9.99D-01 WtEn= 1.26D-03
 Coeff-Com:  0.173D-01 0.488D+00 0.495D+00
 Coeff-En:   0.000D+00 0.487D+00 0.513D+00
 Coeff:      0.173D-01 0.488D+00 0.495D+00
 Gap=     0.158 Goal=   None    Shift=    0.000
 RMSDP=3.17D-06 MaxDP=3.49D-04 DE=-2.32D-07 OVMax= 5.63D-04

 Cycle  12  Pass 1  IDiag  1:
 RMSU=  1.07D-06    CP:  1.00D+00  1.01D+00  5.29D-01
 E= -1434.83397399983     Delta-E=       -0.000002970391 Rises=F Damp=F
 DIIS: error= 1.60D-05 at cycle   4 NSaved=   4.
 NSaved= 4 IEnMin= 4 EnMin= -1434.83397399983     IErMin= 4 ErrMin= 1.60D-05
 ErrMax= 1.60D-05  0.00D+00 EMaxC= 1.00D-01 BMatC= 1.36D-07 BMatP= 3.43D-06
 IDIUse=1 WtCom= 1.00D+00 WtEn= 0.00D+00
 Coeff-Com: -0.284D-02 0.302D+00 0.325D+00 0.376D+00
 Coeff:     -0.284D-02 0.302D+00 0.325D+00 0.376D+00
 Gap=     0.158 Goal=   None    Shift=    0.000
 RMSDP=7.09D-07 MaxDP=3.89D-05 DE=-2.97D-06 OVMax= 1.08D-04

 Cycle  13  Pass 1  IDiag  1:
 RMSU=  2.57D-07    CP:  1.00D+00  1.01D+00  5.24D-01  3.83D-01
 E= -1434.83397412344     Delta-E=       -0.000000123608 Rises=F Damp=F
 DIIS: error= 1.63D-06 at cycle   5 NSaved=   5.
 NSaved= 5 IEnMin= 5 EnMin= -1434.83397412344     IErMin= 5 ErrMin= 1.63D-06
 ErrMax= 1.63D-06  0.00D+00 EMaxC= 1.00D-01 BMatC= 3.59D-09 BMatP= 1.36D-07
 IDIUse=1 WtCom= 1.00D+00 WtEn= 0.00D+00
 Coeff-Com: -0.233D-02 0.176D+00 0.191D+00 0.238D+00 0.398D+00
 Coeff:     -0.233D-02 0.176D+00 0.191D+00 0.238D+00 0.398D+00
 Gap=     0.158 Goal=   None    Shift=    0.000
 RMSDP=1.49D-07 MaxDP=6.23D-06 DE=-1.24D-07 OVMax= 2.23D-05

 Cycle  14  Pass 1  IDiag  1:
 RMSU=  7.51D-08    CP:  1.00D+00  1.01D+00  5.27D-01  4.07D-01  5.18D-01
 E= -1434.83397412713     Delta-E=       -0.000000003693 Rises=F Damp=F
 DIIS: error= 3.94D-07 at cycle   6 NSaved=   6.
 NSaved= 6 IEnMin= 6 EnMin= -1434.83397412713     IErMin= 6 ErrMin= 3.94D-07
 ErrMax= 3.94D-07  0.00D+00 EMaxC= 1.00D-01 BMatC= 1.32D-10 BMatP= 3.59D-09
 IDIUse=1 WtCom= 1.00D+00 WtEn= 0.00D+00
 Coeff-Com: -0.122D-02 0.875D-01 0.949D-01 0.119D+00 0.234D+00 0.466D+00
 Coeff:     -0.122D-02 0.875D-01 0.949D-01 0.119D+00 0.234D+00 0.466D+00
 Gap=     0.158 Goal=   None    Shift=    0.000
 RMSDP=2.91D-08 MaxDP=1.47D-06 DE=-3.69D-09 OVMax= 3.29D-06

 Cycle  15  Pass 1  IDiag  1:
 RMSU=  2.35D-08    CP:  1.00D+00  1.01D+00  5.26D-01  4.04D-01  5.50D-01
                    CP:  8.28D-01
 E= -1434.83397412729     Delta-E=       -0.000000000156 Rises=F Damp=F
 DIIS: error= 1.26D-07 at cycle   7 NSaved=   7.
 NSaved= 7 IEnMin= 7 EnMin= -1434.83397412729     IErMin= 7 ErrMin= 1.26D-07
 ErrMax= 1.26D-07  0.00D+00 EMaxC= 1.00D-01 BMatC= 1.16D-11 BMatP= 1.32D-10
 IDIUse=1 WtCom= 1.00D+00 WtEn= 0.00D+00
 Coeff-Com: -0.358D-03 0.244D-01 0.266D-01 0.334D-01 0.748D-01 0.262D+00
 Coeff-Com:  0.579D+00
 Coeff:     -0.358D-03 0.244D-01 0.266D-01 0.334D-01 0.748D-01 0.262D+00
 Coeff:      0.579D+00
 Gap=     0.158 Goal=   None    Shift=    0.000
 RMSDP=9.25D-09 MaxDP=5.76D-07 DE=-1.56D-10 OVMax= 1.19D-06

 SCF Done:  E(RB3LYP) =  -1434.83397413     A.U. after   15 cycles
            NFock= 15  Conv=0.92D-08     -V/T= 2.0096
 KE= 1.421245788900D+03 PE=-9.931610513204D+03 EE= 3.773771564415D+03
 Leave Link  502 at Sat Nov  5 09:28:54 2022, MaxMem=   402653184 cpu:            1131.0 elap:             159.3
 (Enter /home/wykgroup/appl/g16/l508.exe)
 QCSCF skips out because SCF is already converged.
 Leave Link  508 at Sat Nov  5 09:28:55 2022, MaxMem=   402653184 cpu:               0.4 elap:               0.1
 (Enter /home/wykgroup/appl/g16/l801.exe)
 DoSCS=F DFT=T ScalE2(SS,OS)=  1.000000  1.000000
 ExpMin= 1.61D-01 ExpMax= 5.48D+03 ExpMxC= 8.25D+02 IAcc=3 IRadAn=         5 AccDes= 0.00D+00
 HarFok:  IExCor=  205 AccDes= 0.00D+00 IRadAn=         5 IDoV=-2 UseB2=F ITyADJ=14
 ICtDFT= 12500011 ScaDFX=  1.000000  1.000000  1.000000  1.000000
 GSVD:  LWork=       -1428 too small for GESVD, short by        6290 words or        6290 for optimal perf.
 Largest valence mixing into a core orbital is  5.88D-05
 Largest core mixing into a valence orbital is  1.33D-05
 Range of M.O.s used for correlation:    35   560
 NBasis=   560 NAE=   118 NBE=   118 NFC=    34 NFV=     0
 NROrb=    526 NOA=    84 NOB=    84 NVA=   442 NVB=   442
 Leave Link  801 at Sat Nov  5 09:28:59 2022, MaxMem=   402653184 cpu:              24.4 elap:               3.8
 (Enter /home/wykgroup/appl/g16/l914.exe)
 RHF ground state
 Two-electron integral symmetry not used.
 MDV=   402653184 DFT=T DoStab=F Mixed=T DoRPA=T DoScal=F NonHer=T
 Making orbital integer symmetry assigments:
    16 initial guesses have been made.
 Convergence on wavefunction:    0.001000000000000
 Davidson Disk Diagonalization:  ConvIn= 1.00D-03 SkipCon=T Conv= 1.00D-03.
 Max sub-space:  2000 roots to seek:    16 dimension of matrix:        74256
 Iteration     1 Dimension    16 NMult     0 NNew     16
 CISAX will form    16 AO SS matrices at one time.
 NMat=    16 NSing=     8 JSym2X= 0.
 FoFJK:  IHMeth= 1 ICntrl=       0 DoSepK=F KAlg= 0 I1Cent=           0 FoldK=F
 IRaf= 660000000 NMat=      32 IRICut=       1 DoRegI=T DoRafI=F ISym2E= 0 IDoP0=0 IntGTp=1.
 FoFCou: FMM=F IPFlag=           0 FMFlag=      100000 FMFlg1=           0
         NFxFlg=           0 DoJE=F BraDBF=F KetDBF=F FulRan=T
         wScrn=  0.000000 ICntrl=         0 IOpCl=  0 I1Cent=           0 NGrid=           0
         NMat0=   32 NMatS0=      8 NMatT0=    8 NMatD0=   32 NMtDS0=    0 NMtDT0=    0
 Symmetry not used in FoFCou.
 New state      1 was old state      4
 New state      3 was old state      1
 New state      4 was old state      8
 New state      5 was old state      6
 New state      6 was old state      5
 New state      7 was old state     10
 New state      8 was old state      9
 Excitation Energies [eV] at current iteration:
 Root      1 :     3.216449674380192
 Root      2 :     3.682105098421742
 Root      3 :     3.700991359337751
 Root      4 :     3.701080939639809
 Root      5 :     4.182322748668367
 Root      6 :     4.196115845657538
 Root      7 :     4.403809781226392
 Root      8 :     4.425531755379648
 Root      9 :     4.703903821753722
 Root     10 :     4.713500481568255
 Root     11 :     4.842272928481289
 Root     12 :     4.858532673323283
 Root     13 :     5.109131454208097
 Root     14 :     5.137461276533487
 Root     15 :     5.159566911358419
 Root     16 :     5.376698861918213
 Vector   4 SDiff=2.27D-01 TDiff=5.81D+00 assumed to be singlet.
 Vector   8 SDiff=2.41D-01 TDiff=5.11D+00 assumed to be singlet.
 Iteration     2 Dimension    24 NMult    16 NNew      8
 CISAX will form     8 AO SS matrices at one time.
 NMat=     8 NSing=     4 JSym2X= 0.
 Root      1 not converged, maximum delta is    0.115262205883836
 Root      2 not converged, maximum delta is    0.157511660015691
 Root      3 not converged, maximum delta is    0.043129445116074
 New state      4 was old state      6
 Root      4 not converged, maximum delta is    0.009226283812729
 Excitation Energies [eV] at current iteration:
 Root      1 :     2.828734551486170   Change is   -0.387715122894022
 Root      2 :     3.639977896569341   Change is   -0.042127201852401
 Root      3 :     3.669548283355509   Change is   -0.031443075982243
 Root      4 :     4.189849510292603   Change is   -0.006266335364935
 Iteration     3 Dimension    32 NMult    24 NNew      8
 CISAX will form     8 AO SS matrices at one time.
 NMat=     8 NSing=     4 JSym2X= 0.
 Root      1 not converged, maximum delta is    0.031829004044522
 Root      2 not converged, maximum delta is    0.524379364096286
 Root      3 not converged, maximum delta is    0.003725867792728
 Root      4 not converged, maximum delta is    0.025026545399905
 Excitation Energies [eV] at current iteration:
 Root      1 :     2.783830517484395   Change is   -0.044904034001775
 Root      2 :     3.571436206090213   Change is   -0.068541690479129
 Root      3 :     3.667655413393531   Change is   -0.001892869961977
 Root      4 :     4.181914452451456   Change is   -0.007935057841147
 Iteration     4 Dimension    40 NMult    32 NNew      8
 CISAX will form     8 AO SS matrices at one time.
 NMat=     8 NSing=     4 JSym2X= 0.
 Root      1 not converged, maximum delta is    0.011944413555057
 Root      2 not converged, maximum delta is    0.070922384809590
 Root      3 not converged, maximum delta is    0.001628664216563
 Root      4 not converged, maximum delta is    0.041227444102962
 Excitation Energies [eV] at current iteration:
 Root      1 :     2.779192154541060   Change is   -0.004638362943335
 Root      2 :     3.541478105049114   Change is   -0.029958101041099
 Root      3 :     3.667306552288874   Change is   -0.000348861104657
 Root      4 :     4.180626087974068   Change is   -0.001288364477387
 Iteration     5 Dimension    48 NMult    40 NNew      8
 CISAX will form     8 AO SS matrices at one time.
 NMat=     8 NSing=     4 JSym2X= 0.
 Root      1 not converged, maximum delta is    0.003975212755392
 Root      2 not converged, maximum delta is    0.024473901011226
 Root      3 has converged.
 Root      4 not converged, maximum delta is    0.401220746700698
 Excitation Energies [eV] at current iteration:
 Root      1 :     2.778683656268935   Change is   -0.000508498272125
 Root      2 :     3.533024784565700   Change is   -0.008453320483414
 Root      3 :     3.667253101535344   Change is   -0.000053450753530
 Root      4 :     4.161891498707831   Change is   -0.018734589266238
 Iteration     6 Dimension    54 NMult    48 NNew      6
 CISAX will form     6 AO SS matrices at one time.
 NMat=     6 NSing=     2 JSym2X= 0.
 Root      1 not converged, maximum delta is    0.001556974220970
 Root      2 not converged, maximum delta is    0.012151630439909
 Root      3 has converged.
 Root      4 not converged, maximum delta is    0.197195839945831
 Excitation Energies [eV] at current iteration:
 Root      1 :     2.778605764066292   Change is   -0.000077892202643
 Root      2 :     3.531441638436422   Change is   -0.001583146129277
 Root      3 :     3.667252736163560   Change is   -0.000000365371784
 Root      4 :     4.133578199903241   Change is   -0.028313298804590
 Iteration     7 Dimension    60 NMult    54 NNew      6
 CISAX will form     6 AO SS matrices at one time.
 NMat=     6 NSing=     2 JSym2X= 0.
 Root      1 not converged, maximum delta is    0.001194024598531
 Root      2 not converged, maximum delta is    0.164783310858015
 Root      3 has converged.
 Root      4 not converged, maximum delta is    0.025558801796647
 Excitation Energies [eV] at current iteration:
 Root      1 :     2.778594160134325   Change is   -0.000011603931967
 Root      2 :     3.527416021353641   Change is   -0.004025617082781
 Root      3 :     3.667252649796426   Change is   -0.000000086367133
 Root      4 :     4.125418532801469   Change is   -0.008159667101772
 Iteration     8 Dimension    66 NMult    60 NNew      6
 CISAX will form     6 AO SS matrices at one time.
 NMat=     6 NSing=     2 JSym2X= 0.
 Root      1 has converged.
 Root      2 not converged, maximum delta is    0.609868364835292
 Root      3 has converged.
 Root      4 not converged, maximum delta is    0.006880953902700
 Excitation Energies [eV] at current iteration:
 Root      1 :     2.778591883700511   Change is   -0.000002276433813
 Root      2 :     3.466647721228164   Change is   -0.060768300125477
 Root      3 :     3.667252638265526   Change is   -0.000000011530900
 Root      4 :     4.123668673115012   Change is   -0.001749859686458
 Iteration     9 Dimension    70 NMult    66 NNew      4
 CISAX will form     4 AO SS matrices at one time.
 NMat=     4 NSing=     2 JSym2X= 0.
 Root      1 has converged.
 Root      2 not converged, maximum delta is    0.021528043687562
 Root      3 has converged.
 Root      4 not converged, maximum delta is    0.005394240257506
 Excitation Energies [eV] at current iteration:
 Root      1 :     2.778591731580833   Change is   -0.000000152119678
 Root      2 :     3.454099932407315   Change is   -0.012547788820849
 Root      3 :     3.667252331043162   Change is   -0.000000307222364
 Root      4 :     4.123162273633056   Change is   -0.000506399481956
 Iteration    10 Dimension    74 NMult    70 NNew      4
 CISAX will form     4 AO SS matrices at one time.
 NMat=     4 NSing=     2 JSym2X= 0.
 Root      1 has converged.
 Root      2 not converged, maximum delta is    0.006266947831330
 Root      3 has converged.
 Root      4 not converged, maximum delta is    0.002459308287994
 Excitation Energies [eV] at current iteration:
 Root      1 :     2.778591638847809   Change is   -0.000000092733024
 Root      2 :     3.452381528514110   Change is   -0.001718403893205
 Root      3 :     3.667252012804556   Change is   -0.000000318238606
 Root      4 :     4.123038879549279   Change is   -0.000123394083776
 Iteration    11 Dimension    78 NMult    74 NNew      4
 CISAX will form     4 AO SS matrices at one time.
 NMat=     4 NSing=     2 JSym2X= 0.
 Root      1 has converged.
 Root      2 not converged, maximum delta is    0.001586346610264
 Root      3 has converged.
 Root      4 not converged, maximum delta is    0.001098279325103
 Excitation Energies [eV] at current iteration:
 Root      1 :     2.778591630050342   Change is   -0.000000008797467
 Root      2 :     3.452173737175187   Change is   -0.000207791338922
 Root      3 :     3.667251606028586   Change is   -0.000000406775970
 Root      4 :     4.123014785427147   Change is   -0.000024094122132
 Iteration    12 Dimension    82 NMult    78 NNew      4
 CISAX will form     4 AO SS matrices at one time.
 NMat=     4 NSing=     2 JSym2X= 0.
 Root      1 has converged.
 Root      2 not converged, maximum delta is    0.001411221183984
 Root      3 has converged.
 Root      4 has converged.
 Excitation Energies [eV] at current iteration:
 Root      1 :     2.778591625752497   Change is   -0.000000004297845
 Root      2 :     3.452133647441627   Change is   -0.000040089733560
 Root      3 :     3.667250710358677   Change is   -0.000000895669909
 Root      4 :     4.123008787076297   Change is   -0.000005998350849
 Iteration    13 Dimension    84 NMult    82 NNew      2
 CISAX will form     2 AO SS matrices at one time.
 NMat=     2 NSing=     0 JSym2X= 0.
 Root      1 has converged.
 Root      2 not converged, maximum delta is    0.001620331907613
 Root      3 has converged.
 Root      4 has converged.
 Excitation Energies [eV] at current iteration:
 Root      1 :     2.778591625568323   Change is   -0.000000000184173
 Root      2 :     3.452115928853637   Change is   -0.000017718587990
 Root      3 :     3.667250710358588   Change is   -0.000000000000089
 Root      4 :     4.123008787076218   Change is   -0.000000000000079
 Iteration    14 Dimension    86 NMult    84 NNew      2
 CISAX will form     2 AO SS matrices at one time.
 NMat=     2 NSing=     0 JSym2X= 0.
 Root      1 has converged.
 Root      2 not converged, maximum delta is    0.001516806162227
 Root      3 has converged.
 Root      4 has converged.
 Excitation Energies [eV] at current iteration:
 Root      1 :     2.778591622906675   Change is   -0.000000002661649
 Root      2 :     3.452104946226322   Change is   -0.000010982627315
 Root      3 :     3.667250710358700   Change is    0.000000000000112
 Root      4 :     4.123008787076138   Change is   -0.000000000000080
 Iteration    15 Dimension    88 NMult    86 NNew      2
 CISAX will form     2 AO SS matrices at one time.
 NMat=     2 NSing=     0 JSym2X= 0.
 Root      1 has converged.
 Root      2 has converged.
 Root      3 has converged.
 Root      4 has converged.
 Excitation Energies [eV] at current iteration:
 Root      1 :     2.778591619873840   Change is   -0.000000003032835
 Root      2 :     3.452099960637249   Change is   -0.000004985589073
 Root      3 :     3.667250710358565   Change is   -0.000000000000134
 Root      4 :     4.123008787076178   Change is    0.000000000000040
 Convergence achieved on expansion vectors.
 ***********************************************************************
 Excited states from <AA,BB:AA,BB> singles matrix:
 ***********************************************************************
 
 1PDM for each excited state written to RWF  633
 Ground to excited state transition densities written to RWF  633
 Ground to excited state transition electric dipole moments (Au):
       state          X           Y           Z        Dip. S.      Osc.
         1        -0.0000     -0.0000      0.0000      0.0000      0.0000
         2        -0.0000     -0.0000      0.0000      0.0000      0.0000
         3        -0.1623     -0.0030     -0.0159      0.0266      0.0024
         4         0.4266      0.9776      0.5115      1.3992      0.1413
 Ground to excited state transition velocity dipole moments (Au):
       state          X           Y           Z        Dip. S.      Osc.
         1        -0.0000     -0.0000     -0.0000      0.0000      0.0000
         2         0.0000      0.0000     -0.0000      0.0000      0.0000
         3         0.0227      0.0011     -0.0007      0.0005      0.0025
         4        -0.0702     -0.1411     -0.0756      0.0306      0.1344
 Ground to excited state transition magnetic dipole moments (Au):
       state          X           Y           Z
         1        -0.0000      0.0000      0.0000
         2         0.0000      0.0000      0.0000
         3         0.1155      0.0303      0.0621
         4        -0.2650     -0.1161      0.4937
 Ground to excited state transition velocity quadrupole moments (Au):
       state          XX          YY          ZZ          XY          XZ          YZ
         1         0.0000     -0.0000     -0.0000     -0.0000     -0.0000     -0.0000
         2         0.0000     -0.0000     -0.0000      0.0000     -0.0000     -0.0000
         3         0.1818     -0.0535     -0.0154      0.0141      0.0048     -0.0218
         4         0.3502     -0.9427      0.0102      0.0919      0.0040     -0.3856
 <0|del|b> * <b|rxdel|0> + <0|del|b> * <b|delr+rdel|0>
 Rotatory Strengths (R) in cgs (10**-40 erg-esu-cm/Gauss)
       state          XX          YY          ZZ    R(velocity)    E-M Angle
         1        -0.0000     -0.0000     -0.0000     -0.0000       90.00
         2         0.0000     -0.0000      0.0000      0.0000       90.00
         3        -0.0691      5.4757      8.2627      4.5564       31.45
         4       -63.7795     35.6404     17.1657     -3.6578       91.35
 1/2[<0|r|b>*<b|rxdel|0> + (<0|rxdel|b>*<b|r|0>)*]
 Rotatory Strengths (R) in cgs (10**-40 erg-esu-cm/Gauss)
       state          XX          YY          ZZ     R(length)
         1        -0.0000      0.0000     -0.0000     -0.0000
         2         0.0000      0.0000     -0.0000      0.0000
         3        13.2554      0.0646      0.6991      4.6730
         4        79.9412     80.2803   -178.5596     -6.1127
  1/2[<0|del|b>*<b|r|0> + (<0|r|b>*<b|del|0>)*] (Au)
       state          X           Y           Z        Dip. S.   Osc.(frdel)
         1         0.0000      0.0000     -0.0000     -0.0000     -0.0000
         2        -0.0000     -0.0000     -0.0000      0.0000      0.0000
         3        -0.0037     -0.0000      0.0000      0.0037      0.0024
         4        -0.0299     -0.1379     -0.0387      0.2066      0.1377

 Excitation energies and oscillator strengths:
 
 Excited state symmetry could not be determined.
 Excited State   1:      Triplet-?Sym    2.7786 eV  446.21 nm  f=0.0000  <S**2>=2.000
     117 ->120         0.12966
     117 ->124         0.12139
     118 ->120         0.64568
 This state for optimization and/or second-order correction.
 Total Energy, E(TD-HF/TD-DFT) =  -1434.73186276    
 Copying the excited state density for this state as the 1-particle RhoCI density.
 
 Excited state symmetry could not be determined.
 Excited State   2:      Triplet-?Sym    3.4521 eV  359.16 nm  f=0.0000  <S**2>=2.000
     111 ->119        -0.11518
     112 ->119         0.15543
     112 ->121         0.28029
     113 ->119         0.51566
     114 ->119         0.11853
     115 ->119         0.18508
     118 ->119        -0.15042
 
 Excited state symmetry could not be determined.
 Excited State   3:      Singlet-?Sym    3.6673 eV  338.08 nm  f=0.0024  <S**2>=0.000
     118 ->119         0.70168
 
 Excited state symmetry could not be determined.
 Excited State   4:      Singlet-?Sym    4.1230 eV  300.71 nm  f=0.1413  <S**2>=0.000
     117 ->120        -0.29951
     117 ->124         0.11096
     118 ->120         0.59490
     118 ->124         0.10589
 SavETr:  write IOETrn=   770 NScale= 10 NData=  16 NLR=1 NState=    4 LETran=      82.
 Leave Link  914 at Sat Nov  5 10:05:49 2022, MaxMem=   402653184 cpu:           15795.1 elap:            2210.4
 (Enter /home/wykgroup/appl/g16/l601.exe)
 Copying SCF densities to generalized density rwf, IOpCl= 0 IROHF=0.

 **********************************************************************

            Population analysis using the SCF Density.

 **********************************************************************

 Alpha  occ. eigenvalues --  -19.19869 -19.13631 -14.40012 -14.34040 -14.32423
 Alpha  occ. eigenvalues --  -10.32443 -10.25751 -10.24992 -10.24799 -10.24780
 Alpha  occ. eigenvalues --  -10.23547 -10.23230 -10.22726 -10.22517 -10.22402
 Alpha  occ. eigenvalues --  -10.22330 -10.21782 -10.21582 -10.21524 -10.21371
 Alpha  occ. eigenvalues --  -10.21230 -10.20713 -10.20692 -10.20598 -10.20519
 Alpha  occ. eigenvalues --  -10.20458 -10.20444 -10.20367 -10.20168 -10.20083
 Alpha  occ. eigenvalues --  -10.19937 -10.19769 -10.19692 -10.19221  -1.10172
 Alpha  occ. eigenvalues --   -1.01994  -1.00298  -0.94130  -0.91124  -0.88567
 Alpha  occ. eigenvalues --   -0.87410  -0.85841  -0.85052  -0.82183  -0.79355
 Alpha  occ. eigenvalues --   -0.77200  -0.77072  -0.76021  -0.75668  -0.75430
 Alpha  occ. eigenvalues --   -0.73215  -0.71477  -0.70590  -0.69293  -0.66068
 Alpha  occ. eigenvalues --   -0.65046  -0.63207  -0.62295  -0.61659  -0.60587
 Alpha  occ. eigenvalues --   -0.59578  -0.58440  -0.57941  -0.56619  -0.55635
 Alpha  occ. eigenvalues --   -0.53489  -0.52310  -0.51931  -0.50576  -0.49776
 Alpha  occ. eigenvalues --   -0.48982  -0.48546  -0.48000  -0.47890  -0.47049
 Alpha  occ. eigenvalues --   -0.46588  -0.46222  -0.45677  -0.45416  -0.45039
 Alpha  occ. eigenvalues --   -0.44834  -0.44492  -0.44355  -0.43741  -0.43593
 Alpha  occ. eigenvalues --   -0.43342  -0.42259  -0.41192  -0.40728  -0.39998
 Alpha  occ. eigenvalues --   -0.39727  -0.39581  -0.38787  -0.37884  -0.37729
 Alpha  occ. eigenvalues --   -0.37498  -0.37186  -0.36896  -0.36734  -0.36490
 Alpha  occ. eigenvalues --   -0.35963  -0.35781  -0.35489  -0.34525  -0.34370
 Alpha  occ. eigenvalues --   -0.32971  -0.32776  -0.31908  -0.31175  -0.28253
 Alpha  occ. eigenvalues --   -0.27908  -0.27670  -0.26615  -0.26519  -0.26139
 Alpha  occ. eigenvalues --   -0.25932  -0.23087  -0.21562
 Alpha virt. eigenvalues --   -0.05732  -0.04838  -0.02884  -0.02082  -0.01557
 Alpha virt. eigenvalues --   -0.00663   0.01539   0.02845   0.03486   0.03975
 Alpha virt. eigenvalues --    0.05470   0.06568   0.06822   0.08083   0.09116
 Alpha virt. eigenvalues --    0.09565   0.10658   0.11329   0.11893   0.12169
 Alpha virt. eigenvalues --    0.12496   0.12667   0.12787   0.13288   0.13356
 Alpha virt. eigenvalues --    0.13621   0.14328   0.14994   0.15087   0.15454
 Alpha virt. eigenvalues --    0.15912   0.16039   0.16472   0.17274   0.17634
 Alpha virt. eigenvalues --    0.17986   0.18349   0.18756   0.18812   0.19496
 Alpha virt. eigenvalues --    0.20105   0.20303   0.21024   0.21667   0.21996
 Alpha virt. eigenvalues --    0.22829   0.23475   0.24100   0.24433   0.24673
 Alpha virt. eigenvalues --    0.26205   0.26616   0.26872   0.27455   0.28704
 Alpha virt. eigenvalues --    0.28976   0.29667   0.30433   0.31401   0.31758
 Alpha virt. eigenvalues --    0.33196   0.33918   0.34432   0.35174   0.36160
 Alpha virt. eigenvalues --    0.36982   0.39098   0.39729   0.41741   0.41954
 Alpha virt. eigenvalues --    0.44026   0.45413   0.46550   0.46934   0.47921
 Alpha virt. eigenvalues --    0.48101   0.48897   0.49463   0.49938   0.50363
 Alpha virt. eigenvalues --    0.51562   0.51777   0.52081   0.52206   0.52344
 Alpha virt. eigenvalues --    0.52861   0.53481   0.53706   0.54272   0.54363
 Alpha virt. eigenvalues --    0.54860   0.55326   0.55809   0.56096   0.56252
 Alpha virt. eigenvalues --    0.56764   0.57162   0.57980   0.58011   0.58290
 Alpha virt. eigenvalues --    0.58713   0.59042   0.59405   0.59714   0.59805
 Alpha virt. eigenvalues --    0.59906   0.60339   0.60494   0.60621   0.61749
 Alpha virt. eigenvalues --    0.62690   0.62886   0.63225   0.64278   0.64996
 Alpha virt. eigenvalues --    0.65573   0.66027   0.66399   0.66862   0.67293
 Alpha virt. eigenvalues --    0.67758   0.68213   0.68418   0.68858   0.69229
 Alpha virt. eigenvalues --    0.69819   0.71303   0.72128   0.72663   0.73659
 Alpha virt. eigenvalues --    0.74423   0.74626   0.75235   0.76494   0.76677
 Alpha virt. eigenvalues --    0.76988   0.77600   0.78457   0.79299   0.79731
 Alpha virt. eigenvalues --    0.80188   0.80648   0.80958   0.81506   0.81606
 Alpha virt. eigenvalues --    0.81854   0.81981   0.82138   0.82505   0.82962
 Alpha virt. eigenvalues --    0.83107   0.83594   0.83700   0.84186   0.84877
 Alpha virt. eigenvalues --    0.86058   0.86379   0.86711   0.87616   0.88128
 Alpha virt. eigenvalues --    0.88504   0.88776   0.89317   0.89545   0.89753
 Alpha virt. eigenvalues --    0.90498   0.91165   0.92272   0.92661   0.93250
 Alpha virt. eigenvalues --    0.93413   0.93989   0.94398   0.95146   0.95410
 Alpha virt. eigenvalues --    0.95609   0.96669   0.96952   0.98042   0.98409
 Alpha virt. eigenvalues --    0.98954   1.00270   1.00578   1.00952   1.01822
 Alpha virt. eigenvalues --    1.02368   1.03042   1.03198   1.03959   1.04823
 Alpha virt. eigenvalues --    1.05936   1.07426   1.07689   1.08592   1.09774
 Alpha virt. eigenvalues --    1.10942   1.11396   1.12319   1.12611   1.14389
 Alpha virt. eigenvalues --    1.15098   1.15887   1.17081   1.17959   1.18053
 Alpha virt. eigenvalues --    1.18747   1.19570   1.19900   1.20970   1.21761
 Alpha virt. eigenvalues --    1.23940   1.24258   1.24711   1.25858   1.26885
 Alpha virt. eigenvalues --    1.29352   1.31120   1.31844   1.32899   1.33538
 Alpha virt. eigenvalues --    1.34296   1.35825   1.36536   1.37387   1.39877
 Alpha virt. eigenvalues --    1.40066   1.40278   1.40734   1.41537   1.42009
 Alpha virt. eigenvalues --    1.42688   1.43924   1.44434   1.45120   1.45913
 Alpha virt. eigenvalues --    1.45984   1.46517   1.46964   1.47857   1.48810
 Alpha virt. eigenvalues --    1.49648   1.49738   1.50320   1.50865   1.51350
 Alpha virt. eigenvalues --    1.51724   1.52983   1.53784   1.55079   1.55583
 Alpha virt. eigenvalues --    1.56314   1.58782   1.60269   1.62613   1.63316
 Alpha virt. eigenvalues --    1.65992   1.67098   1.68452   1.70348   1.71377
 Alpha virt. eigenvalues --    1.72570   1.72974   1.75369   1.75662   1.77258
 Alpha virt. eigenvalues --    1.77447   1.77656   1.78389   1.78894   1.79513
 Alpha virt. eigenvalues --    1.79838   1.80760   1.81735   1.82190   1.83082
 Alpha virt. eigenvalues --    1.83384   1.84077   1.84150   1.84819   1.85548
 Alpha virt. eigenvalues --    1.85688   1.86428   1.87772   1.88580   1.89414
 Alpha virt. eigenvalues --    1.89995   1.90412   1.91216   1.92227   1.92469
 Alpha virt. eigenvalues --    1.92674   1.93347   1.94629   1.95338   1.96144
 Alpha virt. eigenvalues --    1.96375   1.97764   1.98555   1.99047   1.99761
 Alpha virt. eigenvalues --    2.00734   2.02513   2.02824   2.03246   2.03710
 Alpha virt. eigenvalues --    2.04222   2.04690   2.05706   2.06702   2.07072
 Alpha virt. eigenvalues --    2.08159   2.09625   2.11568   2.12289   2.12553
 Alpha virt. eigenvalues --    2.12838   2.13775   2.14391   2.14999   2.16082
 Alpha virt. eigenvalues --    2.16717   2.17787   2.18403   2.19373   2.20094
 Alpha virt. eigenvalues --    2.20667   2.22499   2.23012   2.23845   2.24776
 Alpha virt. eigenvalues --    2.25647   2.25862   2.26081   2.26416   2.27245
 Alpha virt. eigenvalues --    2.27980   2.28300   2.29010   2.29968   2.30412
 Alpha virt. eigenvalues --    2.31122   2.32085   2.33178   2.35050   2.36688
 Alpha virt. eigenvalues --    2.38231   2.38969   2.39863   2.41571   2.41785
 Alpha virt. eigenvalues --    2.43107   2.43768   2.45102   2.46908   2.47299
 Alpha virt. eigenvalues --    2.48487   2.51120   2.51608   2.53394   2.54643
 Alpha virt. eigenvalues --    2.55797   2.57056   2.57843   2.58706   2.59250
 Alpha virt. eigenvalues --    2.60802   2.62341   2.62684   2.64219   2.64900
 Alpha virt. eigenvalues --    2.67286   2.67467   2.68848   2.70173   2.71191
 Alpha virt. eigenvalues --    2.72406   2.73014   2.73431   2.74313   2.75377
 Alpha virt. eigenvalues --    2.76595   2.77812   2.78491   2.78770   2.80903
 Alpha virt. eigenvalues --    2.82304   2.82749   2.83875   2.85693   2.86773
 Alpha virt. eigenvalues --    2.88669   2.90841   2.91771   2.93078   2.95845
 Alpha virt. eigenvalues --    2.98807   2.99631   3.05492   3.06727   3.09152
 Alpha virt. eigenvalues --    3.15281   3.15687   3.19694   3.26017   3.28074
 Alpha virt. eigenvalues --    3.39480   3.41156   3.46966   3.85023   3.96751
 Alpha virt. eigenvalues --    4.05249   4.07115   4.07873   4.08211   4.09508
 Alpha virt. eigenvalues --    4.10083   4.10598   4.11156   4.12925   4.15774
 Alpha virt. eigenvalues --    4.16988   4.17825   4.22170   4.24981   4.25789
 Alpha virt. eigenvalues --    4.28469   4.30502   4.31381   4.32372   4.32773
 Alpha virt. eigenvalues --    4.36737   4.39308   4.42600   4.49439   4.50761
 Alpha virt. eigenvalues --    4.53565   4.58278   4.64397   4.69776   4.75053
 Alpha virt. eigenvalues --    4.80811   4.84455
          Condensed to atoms (all electrons):
 Mulliken charges:
               1
     1  C   -0.471668
     2  C    0.002543
     3  C   -0.468806
     4  C   -0.349090
     5  C    0.365360
     6  N   -0.482034
     7  C    0.317746
     8  C   -0.140737
     9  C    0.062606
    10  C   -0.155681
    11  C   -0.203704
    12  C    0.060919
    13  C    0.548626
    14  O   -0.443201
    15  O   -0.573609
    16  C   -0.156544
    17  C   -0.162787
    18  C    0.122309
    19  C   -0.275665
    20  C    0.091781
    21  C    0.090337
    22  C   -0.244373
    23  C    0.294788
    24  N   -0.601199
    25  C   -0.245387
    26  C    0.141226
    27  C   -0.163667
    28  C   -0.131771
    29  C   -0.125967
    30  C   -0.129520
    31  C   -0.177059
    32  C    0.025101
    33  N   -0.383882
    34  C   -0.230882
    35  H    0.159675
    36  H    0.163240
    37  H    0.171959
    38  H    0.158061
    39  H    0.162047
    40  H    0.174306
    41  H    0.200097
    42  H    0.192980
    43  H    0.141411
    44  H    0.135676
    45  H    0.411047
    46  H    0.172755
    47  H    0.144414
    48  H    0.134906
    49  H    0.144208
    50  H    0.174945
    51  H    0.176006
    52  H    0.144458
    53  H    0.136837
    54  H    0.136850
    55  H    0.137717
    56  H    0.127370
    57  H    0.141941
    58  H    0.176130
    59  H    0.174854
 Sum of Mulliken charges =  -0.00000
 Mulliken charges with hydrogens summed into heavy atoms:
               1
     1  C    0.023206
     2  C    0.002543
     3  C    0.025608
     4  C    0.043988
     5  C    0.365360
     6  N   -0.482034
     7  C    0.317746
     8  C   -0.140737
     9  C    0.062606
    10  C   -0.014270
    11  C   -0.068028
    12  C    0.060919
    13  C    0.548626
    14  O   -0.443201
    15  O   -0.162563
    16  C    0.016211
    17  C   -0.018373
    18  C    0.122309
    19  C   -0.140759
    20  C    0.091781
    21  C    0.090337
    22  C   -0.100165
    23  C    0.294788
    24  N   -0.601199
    25  C    0.105564
    26  C    0.141226
    27  C   -0.019209
    28  C    0.005066
    29  C    0.010883
    30  C    0.008197
    31  C   -0.049688
    32  C    0.167042
    33  N   -0.383882
    34  C    0.120101
 Electronic spatial extent (au):  <R**2>=          17489.3267
 Charge=             -0.0000 electrons
 Dipole moment (field-independent basis, Debye):
    X=             -5.6007    Y=             -0.4701    Z=              2.4108  Tot=              6.1156
 Quadrupole moment (field-independent basis, Debye-Ang):
   XX=           -228.8845   YY=           -227.0667   ZZ=           -200.2738
   XY=             10.8291   XZ=             13.6895   YZ=            -27.3810
 Traceless Quadrupole moment (field-independent basis, Debye-Ang):
   XX=            -10.1428   YY=             -8.3250   ZZ=             18.4678
   XY=             10.8291   XZ=             13.6895   YZ=            -27.3810
 Octapole moment (field-independent basis, Debye-Ang**2):
  XXX=           -707.9654  YYY=           -145.9788  ZZZ=            112.7414  XYY=             13.3351
  XXY=            -44.2808  XXZ=             13.0087  XZZ=            -19.7473  YZZ=             35.8164
  YYZ=             42.8280  XYZ=             18.9235
 Hexadecapole moment (field-independent basis, Debye-Ang**3):
 XXXX=         -17469.1974 YYYY=          -7576.8177 ZZZZ=          -3676.8567 XXXY=             40.8958
 XXXZ=           -136.2572 YYYX=            250.5108 YYYZ=          -1910.4622 ZZZX=             48.1588
 ZZZY=          -1761.4226 XXYY=          -3327.4777 XXZZ=          -2626.1191 YYZZ=          -2135.3771
 XXYZ=           -502.9820 YYXZ=            117.7000 ZZXY=            103.0778
 N-N= 3.301759185762D+03 E-N=-9.931610481951D+03  KE= 1.421245788900D+03
 Leave Link  601 at Sat Nov  5 10:05:50 2022, MaxMem=   402653184 cpu:               2.0 elap:               0.4
 (Enter /home/wykgroup/appl/g16/l9999.exe)
 Electronic transition elements 
                 1             2             3             4 
      1  -0.143473D+04 -0.143471D+04 -0.143470D+04 -0.143468D+04
      2   0.000000D+00  0.000000D+00 -0.162324D+00  0.426605D+00
      3   0.000000D+00  0.000000D+00 -0.301294D-02  0.977562D+00
      4   0.000000D+00  0.000000D+00 -0.159207D-01  0.511495D+00
      5   0.000000D+00  0.000000D+00  0.226519D-01 -0.701742D-01
      6   0.000000D+00  0.000000D+00  0.113316D-02 -0.141106D+00
      7   0.000000D+00  0.000000D+00 -0.725132D-03 -0.756262D-01
      8   0.000000D+00  0.000000D+00  0.115475D+00 -0.264986D+00
      9   0.000000D+00  0.000000D+00  0.303110D-01 -0.116130D+00
     10   0.000000D+00  0.000000D+00  0.620908D-01  0.493652D+00
     11   0.000000D+00  0.000000D+00  0.181839D+00  0.350165D+00
     12   0.000000D+00  0.000000D+00 -0.534990D-01 -0.942723D+00
     13   0.000000D+00  0.000000D+00 -0.153982D-01  0.102406D-01
     14   0.000000D+00  0.000000D+00  0.140547D-01  0.918809D-01
     15   0.000000D+00  0.000000D+00  0.481527D-02  0.399755D-02
     16   0.000000D+00  0.000000D+00 -0.217998D-01 -0.385639D+00
 1\1\GINC-NODE57\SP\RB3LYP TD-FC\6-31G(d)\C29H25N3O2\WYKGROUP\05-Nov-20
 22\0\\#p b3lyp/6-31g(d) 6D 10F nosymm GFInput td=(50-50,nstate=2) SCF=
 XQC\\Gaussian input prepared by ASE\\0,1\C,0,1.7145308371,-2.380358193
 5,-1.3381101771\C,0,0.2763106683,-1.8514846684,-1.5204734772\C,0,-0.66
 26259084,-2.9686478152,-0.9985119229\C,0,0.0816045408,-1.597805203,-3.
 0621005534\C,0,0.1968802261,-2.8113564638,-3.876708353\N,0,0.281076157
 ,-3.779066193,-4.5128045599\C,0,0.0528440057,-0.519217559,-0.796935135
 5\C,0,0.964176463,0.3069818807,-0.1498527249\C,0,2.4221338777,0.168573
 9679,0.1146620838\C,0,2.886781837,-0.4708330984,1.2740042989\C,0,4.248
 5600323,-0.5278332858,1.563922889\C,0,5.1838568889,0.0640137677,0.7037
 759686\C,0,6.6635244275,0.0253173739,0.9435632257\O,0,7.48159032,0.180
 8542268,0.0684211278\O,0,7.0728851255,-0.1984670878,2.2228943281\C,0,4
 .7275447025,0.7035959739,-0.4563824401\C,0,3.3664397955,0.767663709,-0
 .7367390692\C,0,0.2592501091,1.4788349106,0.2989121909\C,0,0.675546547
 3,2.6324926845,0.9940033163\C,0,-0.2835315754,3.5889295623,1.267012155
 7\C,0,-1.6341412141,3.4129291026,0.8702886103\C,0,-2.0740362747,2.2843
 467183,0.1881243854\C,0,-1.0931097205,1.3247252566,-0.0948988066\N,0,-
 1.2086786565,0.1144160377,-0.7609160207\C,0,-2.5068297647,-0.311835566
 6,-1.2698954398\C,0,-3.491203137,-0.8167404874,-0.2195974475\C,0,-3.10
 23204358,-1.1419064743,1.0825559447\C,0,-4.0387466375,-1.6246403894,2.
 0000636119\C,0,-5.3718143833,-1.7890904479,1.6252596\C,0,-5.7678336167
 ,-1.4647566684,0.3254129572\C,0,-4.8335857351,-0.97946243,-0.588080971
 2\C,0,-2.334937618,4.6123851501,1.338651619\N,0,-1.5921596891,5.468749
 0866,1.9506850848\C,0,-0.2237941736,4.9238554095,1.9738149636\H,0,1.93
 59339243,-2.5747404656,-0.2862492199\H,0,2.4675725899,-1.6888118208,-1
 .7217166067\H,0,1.8162657825,-3.3246674805,-1.8822610029\H,0,-0.473574
 8122,-3.1356492335,0.0667938095\H,0,-1.7267449872,-2.7587009676,-1.111
 0081043\H,0,-0.4522618644,-3.9032320445,-1.5282926966\H,0,0.8420461113
 ,-0.8819746251,-3.3957557504\H,0,-0.8868119689,-1.1409277355,-3.283962
 2485\H,0,2.1713380794,-0.9336727438,1.9477022378\H,0,4.5704576207,-1.0
 72081605,2.4494772814\H,0,6.3176033479,-0.1422781573,2.8301136896\H,0,
 5.4581661103,1.1476497635,-1.124482602\H,0,3.0224590393,1.2823855,-1.6
 295966253\H,0,1.7131538832,2.7516603201,1.2945963569\H,0,-3.1155208311
 ,2.1529740458,-0.0876922299\H,0,-2.3630879454,-1.0799320893,-2.0287234
 37\H,0,-2.9483275352,0.5442551301,-1.7957177963\H,0,-2.067707048,-1.00
 96177187,1.3835096413\H,0,-3.7226868668,-1.8693891727,3.0105354195\H,0
 ,-6.0991068968,-2.1634943031,2.3402496751\H,0,-6.8048932195,-1.5854010
 474,0.024209981\H,0,-5.1503618181,-0.7243770528,-1.597851918\H,0,-3.39
 94444092,4.7982155504,1.197487957\H,0,0.4509657586,5.6408438047,1.4866
 649063\H,0,0.1083749343,4.8458033614,3.0179500199\\Version=ES64L-G16Re
 vB.01\HF=-1434.8339741\RMSD=9.247e-09\PG=C01 [X(C29H25N3O2)]\\@


 ASKING DUMB QUESTIONS IS EASIER THAN CORECTING DUMB MISTAKES.
 Job cpu time:       0 days  4 hours 44 minutes 14.0 seconds.
 Elapsed time:       0 days  0 hours 39 minutes 48.5 seconds.
 File lengths (MBytes):  RWF=   1799 Int=      0 D2E=      0 Chk=     65 Scr=      1
 Normal termination of Gaussian 16 at Sat Nov  5 10:05:51 2022.
