 Entering Gaussian System, Link 0=/home/wykgroup/appl/g16/g16
 Input=calculation/no_transfer_pubchem_sampling_5_b3lyp/53173244_rwf.com
 Output=calculation/no_transfer_pubchem_sampling_5_b3lyp/53173244_rwf.log
 Initial command:
 /home/wykgroup/appl/g16/l1.exe "/userdata/scratch/wykgroup/khs/calculation/no_transfer_pubchem_sampling_5_b3lyp/53173244_rwf/Gau-23205.inp" -scrdir="/userdata/scratch/wykgroup/khs/calculation/no_transfer_pubchem_sampling_5_b3lyp/53173244_rwf/"
 Entering Link 1 = /home/wykgroup/appl/g16/l1.exe PID=     23206.
  
 Copyright (c) 1988-2017, Gaussian, Inc.  All Rights Reserved.
  
 This is part of the Gaussian(R) 16 program.  It is based on
 the Gaussian(R) 09 system (copyright 2009, Gaussian, Inc.),
 the Gaussian(R) 03 system (copyright 2003, Gaussian, Inc.),
 the Gaussian(R) 98 system (copyright 1998, Gaussian, Inc.),
 the Gaussian(R) 94 system (copyright 1995, Gaussian, Inc.),
 the Gaussian 92(TM) system (copyright 1992, Gaussian, Inc.),
 the Gaussian 90(TM) system (copyright 1990, Gaussian, Inc.),
 the Gaussian 88(TM) system (copyright 1988, Gaussian, Inc.),
 the Gaussian 86(TM) system (copyright 1986, Carnegie Mellon
 University), and the Gaussian 82(TM) system (copyright 1983,
 Carnegie Mellon University). Gaussian is a federally registered
 trademark of Gaussian, Inc.
  
 This software contains proprietary and confidential information,
 including trade secrets, belonging to Gaussian, Inc.
  
 This software is provided under written license and may be
 used, copied, transmitted, or stored only in accord with that
 written license.
  
 The following legend is applicable only to US Government
 contracts under FAR:
  
                    RESTRICTED RIGHTS LEGEND
  
 Use, reproduction and disclosure by the US Government is
 subject to restrictions as set forth in subparagraphs (a)
 and (c) of the Commercial Computer Software - Restricted
 Rights clause in FAR 52.227-19.
  
 Gaussian, Inc.
 340 Quinnipiac St., Bldg. 40, Wallingford CT 06492
  
  
 ---------------------------------------------------------------
 Warning -- This program may not be used in any manner that
 competes with the business of Gaussian, Inc. or will provide
 assistance to any competitor of Gaussian, Inc.  The licensee
 of this program is prohibited from giving any competitor of
 Gaussian, Inc. access to this program.  By using this program,
 the user acknowledges that Gaussian, Inc. is engaged in the
 business of creating and licensing software in the field of
 computational chemistry and represents and warrants to the
 licensee that it is not a competitor of Gaussian, Inc. and that
 it will not use this program in any manner prohibited above.
 ---------------------------------------------------------------
  

 Cite this work as:
 Gaussian 16, Revision B.01,
 M. J. Frisch, G. W. Trucks, H. B. Schlegel, G. E. Scuseria, 
 M. A. Robb, J. R. Cheeseman, G. Scalmani, V. Barone, 
 G. A. Petersson, H. Nakatsuji, X. Li, M. Caricato, A. V. Marenich, 
 J. Bloino, B. G. Janesko, R. Gomperts, B. Mennucci, H. P. Hratchian, 
 J. V. Ortiz, A. F. Izmaylov, J. L. Sonnenberg, D. Williams-Young, 
 F. Ding, F. Lipparini, F. Egidi, J. Goings, B. Peng, A. Petrone, 
 T. Henderson, D. Ranasinghe, V. G. Zakrzewski, J. Gao, N. Rega, 
 G. Zheng, W. Liang, M. Hada, M. Ehara, K. Toyota, R. Fukuda, 
 J. Hasegawa, M. Ishida, T. Nakajima, Y. Honda, O. Kitao, H. Nakai, 
 T. Vreven, K. Throssell, J. A. Montgomery, Jr., J. E. Peralta, 
 F. Ogliaro, M. J. Bearpark, J. J. Heyd, E. N. Brothers, K. N. Kudin, 
 V. N. Staroverov, T. A. Keith, R. Kobayashi, J. Normand, 
 K. Raghavachari, A. P. Rendell, J. C. Burant, S. S. Iyengar, 
 J. Tomasi, M. Cossi, J. M. Millam, M. Klene, C. Adamo, R. Cammi, 
 J. W. Ochterski, R. L. Martin, K. Morokuma, O. Farkas, 
 J. B. Foresman, and D. J. Fox, Gaussian, Inc., Wallingford CT, 2016.
 
 ******************************************
 Gaussian 16:  ES64L-G16RevB.01 20-Dec-2017
                 5-Nov-2022 
 ******************************************
 %chk=calculation/no_transfer_pubchem_sampling_5_b3lyp/53173244_rwf.chk
 %rwf=calculation/no_transfer_pubchem_sampling_5_b3lyp/53173244_rwf.rwf
 %nprocshared=14
 Will use up to   14 processors via shared memory.
 %mem=3GB
 -------------------------------------------------------------------
 #p b3lyp/6-31g(d) 6D 10F nosymm GFInput td=(50-50,nstate=2) SCF=XQC
 -------------------------------------------------------------------
 1/38=1,172=1/1;
 2/12=2,15=1,17=6,18=5,40=1/2;
 3/5=1,6=6,7=1,8=22,11=9,24=10,25=1,30=1,74=-5/1,2,3,8;
 4//1;
 5/5=2,8=3,13=1,38=5/2,8;
 8/6=1,10=2,108=2/1;
 9/41=2,42=1,48=2,70=2/14;
 6/7=2,8=2,9=2,10=2/1;
 99/5=1,9=1/99;
 Leave Link    1 at Sat Nov  5 09:25:00 2022, MaxMem=   402653184 cpu:               6.5 elap:               0.9
 (Enter /home/wykgroup/appl/g16/l101.exe)
 ------------------------------
 Gaussian input prepared by ASE
 ------------------------------
 Symbolic Z-matrix:
 Charge =  0 Multiplicity = 1
 C                     6.43265   0.70691   1.08603 
 C                     4.97256   0.5436    0.74299 
 C                     3.98696   0.89159   1.67578 
 C                     2.63299   0.75382   1.39241 
 C                     2.23978   0.25493   0.14411 
 C                     0.82043   0.11016  -0.15383 
 N                    -0.20189   0.3916    0.61167 
 C                    -1.274     0.05843  -0.1821 
 C                    -2.66518   0.20682   0.26351 
 C                    -2.94671   0.7182    1.57679 
 C                    -4.23528   0.86366   2.00988 
 C                    -5.30262   0.50322   1.14658 
 N                    -6.61677   0.53769   1.29891 
 N                    -7.16863   0.06921   0.13569 
 C                    -6.20983  -0.246    -0.71251 
 C                    -6.38937  -0.79024  -2.08656 
 N                    -4.98555   0.00796  -0.1275 
 C                    -3.69632  -0.141    -0.56952 
 N                    -0.95189  -0.40359  -1.37194 
 O                     0.44927  -0.3713   -1.35893 
 C                     3.21829  -0.09697  -0.79826 
 C                     4.57766   0.03987  -0.51752 
 C                     5.60588  -0.34792  -1.55353 
 H                     6.93729   1.38832   0.38907 
 H                     6.5597    1.10686   2.09602 
 H                     6.96903  -0.24926   1.03354 
 H                     4.29098   1.2789    2.64495 
 H                     1.87767   1.02623   2.12179 
 H                    -2.10873   0.98383   2.21047 
 H                    -4.47648   1.2466    2.99479 
 H                    -5.92632  -1.7788   -2.20029 
 H                    -7.45977  -0.8867   -2.27892 
 H                    -5.9583   -0.12933  -2.84943 
 H                    -3.55171  -0.53155  -1.56901 
 H                     2.90972  -0.48338  -1.76492 
 H                     6.27446  -1.13632  -1.18494 
 H                     6.2427    0.50214  -1.82976 
 H                     5.12735  -0.71609  -2.46548 
 
 ITRead=  0  0  0  0  0  0  0  0  0  0  0  0  0  0  0  0  0  0  0  0
 ITRead=  0  0  0  0  0  0  0  0  0  0  0  0  0  0  0  0  0  0
 MicOpt= -1 -1 -1 -1 -1 -1 -1 -1 -1 -1 -1 -1 -1 -1 -1 -1 -1 -1 -1 -1
 MicOpt= -1 -1 -1 -1 -1 -1 -1 -1 -1 -1 -1 -1 -1 -1 -1 -1 -1 -1
 NAtoms=     38 NQM=       38 NQMF=       0 NMMI=      0 NMMIF=      0
                NMic=       0 NMicF=      0.
                    Isotopes and Nuclear Properties:
 (Nuclear quadrupole moments (NQMom) in fm**2, nuclear magnetic moments (NMagM)
  in nuclear magnetons)

  Atom         1           2           3           4           5           6           7           8           9          10
 IAtWgt=          12          12          12          12          12          12          14          12          12          12
 AtmWgt=  12.0000000  12.0000000  12.0000000  12.0000000  12.0000000  12.0000000  14.0030740  12.0000000  12.0000000  12.0000000
 NucSpn=           0           0           0           0           0           0           2           0           0           0
 AtZEff=  -0.0000000  -0.0000000  -0.0000000  -0.0000000  -0.0000000  -0.0000000  -0.0000000  -0.0000000  -0.0000000  -0.0000000
 NQMom=    0.0000000   0.0000000   0.0000000   0.0000000   0.0000000   0.0000000   2.0440000   0.0000000   0.0000000   0.0000000
 NMagM=    0.0000000   0.0000000   0.0000000   0.0000000   0.0000000   0.0000000   0.4037610   0.0000000   0.0000000   0.0000000
 AtZNuc=   6.0000000   6.0000000   6.0000000   6.0000000   6.0000000   6.0000000   7.0000000   6.0000000   6.0000000   6.0000000

  Atom        11          12          13          14          15          16          17          18          19          20
 IAtWgt=          12          12          14          14          12          12          14          12          14          16
 AtmWgt=  12.0000000  12.0000000  14.0030740  14.0030740  12.0000000  12.0000000  14.0030740  12.0000000  14.0030740  15.9949146
 NucSpn=           0           0           2           2           0           0           2           0           2           0
 AtZEff=  -0.0000000  -0.0000000  -0.0000000  -0.0000000  -0.0000000  -0.0000000  -0.0000000  -0.0000000  -0.0000000  -0.0000000
 NQMom=    0.0000000   0.0000000   2.0440000   2.0440000   0.0000000   0.0000000   2.0440000   0.0000000   2.0440000   0.0000000
 NMagM=    0.0000000   0.0000000   0.4037610   0.4037610   0.0000000   0.0000000   0.4037610   0.0000000   0.4037610   0.0000000
 AtZNuc=   6.0000000   6.0000000   7.0000000   7.0000000   6.0000000   6.0000000   7.0000000   6.0000000   7.0000000   8.0000000

  Atom        21          22          23          24          25          26          27          28          29          30
 IAtWgt=          12          12          12           1           1           1           1           1           1           1
 AtmWgt=  12.0000000  12.0000000  12.0000000   1.0078250   1.0078250   1.0078250   1.0078250   1.0078250   1.0078250   1.0078250
 NucSpn=           0           0           0           1           1           1           1           1           1           1
 AtZEff=  -0.0000000  -0.0000000  -0.0000000  -0.0000000  -0.0000000  -0.0000000  -0.0000000  -0.0000000  -0.0000000  -0.0000000
 NQMom=    0.0000000   0.0000000   0.0000000   0.0000000   0.0000000   0.0000000   0.0000000   0.0000000   0.0000000   0.0000000
 NMagM=    0.0000000   0.0000000   0.0000000   2.7928460   2.7928460   2.7928460   2.7928460   2.7928460   2.7928460   2.7928460
 AtZNuc=   6.0000000   6.0000000   6.0000000   1.0000000   1.0000000   1.0000000   1.0000000   1.0000000   1.0000000   1.0000000

  Atom        31          32          33          34          35          36          37          38
 IAtWgt=           1           1           1           1           1           1           1           1
 AtmWgt=   1.0078250   1.0078250   1.0078250   1.0078250   1.0078250   1.0078250   1.0078250   1.0078250
 NucSpn=           1           1           1           1           1           1           1           1
 AtZEff=  -0.0000000  -0.0000000  -0.0000000  -0.0000000  -0.0000000  -0.0000000  -0.0000000  -0.0000000
 NQMom=    0.0000000   0.0000000   0.0000000   0.0000000   0.0000000   0.0000000   0.0000000   0.0000000
 NMagM=    2.7928460   2.7928460   2.7928460   2.7928460   2.7928460   2.7928460   2.7928460   2.7928460
 AtZNuc=   1.0000000   1.0000000   1.0000000   1.0000000   1.0000000   1.0000000   1.0000000   1.0000000
 Leave Link  101 at Sat Nov  5 09:25:01 2022, MaxMem=   402653184 cpu:               2.3 elap:               0.2
 (Enter /home/wykgroup/appl/g16/l202.exe)
                          Input orientation:                          
 ---------------------------------------------------------------------
 Center     Atomic      Atomic             Coordinates (Angstroms)
 Number     Number       Type             X           Y           Z
 ---------------------------------------------------------------------
      1          6           0        6.432645    0.706910    1.086029
      2          6           0        4.972557    0.543599    0.742986
      3          6           0        3.986961    0.891593    1.675780
      4          6           0        2.632986    0.753823    1.392411
      5          6           0        2.239783    0.254930    0.144108
      6          6           0        0.820427    0.110157   -0.153834
      7          7           0       -0.201885    0.391602    0.611673
      8          6           0       -1.274004    0.058426   -0.182099
      9          6           0       -2.665179    0.206822    0.263505
     10          6           0       -2.946710    0.718202    1.576786
     11          6           0       -4.235284    0.863664    2.009881
     12          6           0       -5.302616    0.503221    1.146577
     13          7           0       -6.616775    0.537694    1.298911
     14          7           0       -7.168632    0.069211    0.135686
     15          6           0       -6.209834   -0.246004   -0.712506
     16          6           0       -6.389369   -0.790241   -2.086564
     17          7           0       -4.985549    0.007957   -0.127502
     18          6           0       -3.696319   -0.141002   -0.569516
     19          7           0       -0.951886   -0.403588   -1.371945
     20          8           0        0.449274   -0.371304   -1.358929
     21          6           0        3.218291   -0.096970   -0.798262
     22          6           0        4.577662    0.039869   -0.517522
     23          6           0        5.605876   -0.347918   -1.553530
     24          1           0        6.937287    1.388317    0.389070
     25          1           0        6.559699    1.106857    2.096022
     26          1           0        6.969035   -0.249260    1.033540
     27          1           0        4.290977    1.278902    2.644945
     28          1           0        1.877669    1.026226    2.121787
     29          1           0       -2.108730    0.983832    2.210468
     30          1           0       -4.476483    1.246597    2.994794
     31          1           0       -5.926317   -1.778797   -2.200290
     32          1           0       -7.459773   -0.886698   -2.278918
     33          1           0       -5.958303   -0.129327   -2.849432
     34          1           0       -3.551706   -0.531546   -1.569011
     35          1           0        2.909721   -0.483381   -1.764921
     36          1           0        6.274460   -1.136321   -1.184941
     37          1           0        6.242695    0.502141   -1.829759
     38          1           0        5.127350   -0.716093   -2.465481
 ---------------------------------------------------------------------
                    Distance matrix (angstroms):
                    1          2          3          4          5
     1  C    0.000000
     2  C    1.508711   0.000000
     3  C    2.522555   1.400929   0.000000
     4  C    3.812281   2.437117   1.390154   0.000000
     5  C    4.321064   2.812478   2.409147   1.400629   0.000000
     6  C    5.778440   4.269934   3.739662   2.467904   1.457498
     7  N    6.658936   5.178339   4.350718   2.962642   2.489787
     8  C    7.837162   6.333300   5.641244   4.269335   3.534363
     9  C    9.148609   7.660178   6.834794   5.444648   4.906651
    10  C    9.392193   7.964954   6.936546   5.582855   5.400639
    11  C   10.709005   9.300097   8.229078   6.896845   6.765956
    12  C   11.737185  10.283175   9.312741   7.943363   7.612777
    13  N   13.052253  11.602659  10.616331   9.252757   8.936002
    14  N   13.649343  12.165620  11.291389   9.905542   9.410252
    15  C   12.805274  11.304326  10.534356   9.144713   8.507688
    16  C   13.293264  11.784687  11.164768   9.792359   8.973882
    17  N   11.503754  10.010421   9.194486   7.804391   7.234652
    18  C   10.298335   8.794359   8.070961   6.686551   5.991939
    19  N    7.861688   6.361534   5.946287   4.672533   3.594275
    20  O    6.552946   5.071014   4.829037   3.688412   2.420168
    21  C    3.811672   2.421409   2.772903   2.421875   1.403343
    22  C    2.541118   1.413706   2.425889   2.817684   2.439198
    23  C    2.960317   2.543595   3.819124   4.327872   3.817850
    24  H    1.097602   2.167711   3.256805   4.465007   4.838504
    25  H    1.093703   2.160322   2.615707   4.004845   4.816371
    26  H    1.097602   2.167711   3.256805   4.465007   4.838504
    27  H    2.710007   2.150040   1.087067   2.143242   3.392654
    28  H    4.682154   3.422331   2.160131   1.084756   2.153424
    29  H    8.619521   7.245131   6.119791   4.817259   4.869364
    30  H   11.087999   9.739055   8.572964   7.304451   7.363290
    31  H   13.027761  11.525703  10.973968   9.622022   8.735985
    32  H   14.382689  12.874023  12.240494  10.864334  10.062592
    33  H   13.027768  11.525710  10.973974   9.622028   8.735992
    34  H   10.405300   8.897433   8.329796   6.976575   6.090539
    35  H    4.685691   3.405815   3.858682   3.402353   2.153675
    36  H    2.929134   2.869492   4.186742   4.845176   4.469963
    37  H    2.929134   2.869492   4.186742   4.845176   4.469963
    38  H    4.042518   3.450368   4.586413   4.823467   4.011344
                    6          7          8          9         10
     6  C    0.000000
     7  N    1.307798   0.000000
     8  C    2.095260   1.374961   0.000000
     9  C    3.511832   2.494630   1.468317   0.000000
    10  C    4.189999   2.927828   2.515339   1.437177   0.000000
    11  C    5.550644   4.294896   3.771255   2.438544   1.367170
    12  C    6.271939   5.129916   4.265319   2.797095   2.404494
    13  N    7.589810   6.453251   5.564916   4.098372   3.684993
    14  N    7.994408   6.990426   5.903198   4.507367   4.508057
    15  C    7.061411   6.185098   4.973573   3.704352   4.101040
    16  C    7.518465   6.852897   5.523965   4.515147   5.248565
    17  N    5.806935   4.855616   3.712290   2.361472   2.750620
    18  C    4.542782   3.726922   2.461194   1.370458   2.430383
    19  N    2.211067   2.264855   1.316416   2.445950   3.732660
    20  O    1.349745   2.211178   2.130559   3.558980   4.619324
    21  C    2.491574   3.731518   4.537016   5.986223   6.656771
    22  C    3.775451   4.923705   5.861301   7.286743   7.839799
    23  C    5.006946   6.242202   7.026997   8.486442   9.169636
    24  H    6.272513   7.211850   8.337874   9.675694   9.977632
    25  H    6.244559   6.959447   8.225323   9.448098   9.528509
    26  H    6.272513   7.211849   8.337873   9.675693   9.977630
    27  H    4.609105   5.010719   6.360090   7.430257   7.337538
    28  H    2.671216   2.647213   4.022134   4.976153   4.864826
    29  H    3.864349   2.557917   2.697688   2.168881   1.083662
    30  H    6.265988   4.968145   4.664790   3.438298   2.151778
    31  H    7.298950   6.736979   5.393746   4.544005   5.420273
    32  H    8.606475   7.916218   6.599520   5.536049   6.148975
    33  H    7.298958   6.736985   5.393754   4.544012   5.420278
    34  H    4.640049   4.102302   2.731212   2.165464   3.438594
    35  H    2.704263   4.011969   4.505822   5.972471   6.848986
    36  H    5.688881   6.892418   7.707945   9.155281   9.802876
    37  H    5.688881   6.892418   7.707946   9.155282   9.802878
    38  H    4.957417   6.252728   6.840397   8.307987   9.142624
                   11         12         13         14         15
    11  C    0.000000
    12  C    1.419299   0.000000
    13  N    2.506637   1.323407   0.000000
    14  N    3.570474   2.166167   1.370079   0.000000
    15  C    3.541411   2.200130   2.196721   1.318364   0.000000
    16  C    4.914910   3.647914   3.643702   2.506851   1.488779
    17  N    2.421474   1.403245   2.230734   2.199744   1.380434
    18  C    2.820128   2.437250   3.532805   3.549430   2.519767
    19  N    4.880919   5.108239   6.333281   6.414392   5.301482
    20  O    5.900772   6.334555   7.603909   7.775630   6.691583
    21  C    8.022734   8.760621  10.076182  10.430151   9.429693
    22  C    9.205131  10.030146  11.351770  11.764479  10.793045
    23  C   10.536330  11.269881  12.582286  12.892459  11.846042
    24  H   11.301710  12.295221  13.611171  14.169728  13.294031
    25  H   10.798066  11.915551  13.212827  13.906355  13.144544
    26  H   11.301708  12.295219  13.611170  14.169728  13.294031
    27  H    8.559957   9.740832  11.015455  11.793319  11.129458
    28  H    6.116138   7.265057   8.548178   9.311070   8.663687
    29  H    2.139372   3.400553   4.620871   5.544715   5.184142
    30  H    1.083914   2.156620   2.821242   4.099805   4.356195
    31  H    5.250497   4.098552   4.252913   3.227269   2.154840
    32  H    5.644013   4.280096   3.942132   2.613205   2.103921
    33  H    5.250500   4.098553   4.252912   3.227266   2.154840
    34  H    3.901583   3.392764   4.331616   4.043396   2.807272
    35  H    8.192360   8.768848  10.059015  10.270875   9.183148
    36  H   11.165194  11.922784  13.234643  13.561493  12.524913
    37  H   11.165195  11.922785  13.234644  13.561493  12.524914
    38  H   10.496828  11.104858  12.396253  12.592614  11.481535
                   16         17         18         19         20
    16  C    0.000000
    17  N    2.538849   0.000000
    18  C    3.158396   1.371014   0.000000
    19  N    5.497855   4.241279   2.871369   0.000000
    20  O    6.889993   5.585477   4.226364   1.401592   0.000000
    21  C    9.718410   8.231884   6.918533   4.220604   2.838497
    22  C   11.109759   9.571214   8.276121   5.612717   4.233275
    23  C   12.015227  10.692917   9.356385   6.560512   5.160326
    24  H   13.728607  12.013587  10.785699   8.279562   6.945940
    25  H   13.739410  11.808658  10.669966   8.410241   7.173489
    26  H   13.728608  12.013586  10.785698   8.279563   6.945940
    27  H   11.863318   9.765024   8.726155   6.815701   5.789030
    28  H    9.452708   7.293828   6.298799   4.717722   4.013575
    29  H    6.319469   3.833344   3.393229   4.012095   4.595690
    30  H    5.798968   3.397368   3.903638   5.849299   6.770198
    31  H    1.097540   2.893783   3.211648   5.227075   6.583090
    32  H    1.091819   3.398644   4.200203   6.588520   7.979037
    33  H    1.097540   2.893787   3.211654   5.227084   6.583099
    34  H    2.896052   2.103549   1.082787   2.610416   4.009695
    35  H    9.309710   8.078233   6.722052   3.882371   2.496236
    36  H   12.700601  11.367293  10.039216   7.265806   5.877782
    37  H   12.700601  11.367294  10.039216   7.265806   5.877782
    38  H   11.523190  10.404860   9.043370   6.184706   4.819516
                   21         22         23         24         25
    21  C    0.000000
    22  C    1.394787   0.000000
    23  C    2.516737   1.510269   0.000000
    24  H    4.176933   2.864970   2.925895   0.000000
    25  H    4.581603   3.449282   4.042941   1.770728   0.000000
    26  H    4.176933   2.864970   2.925896   1.760116   1.770728
    27  H    3.859968   3.408606   4.690703   3.479066   2.340517
    28  H    3.403751   3.902412   5.412555   5.360332   4.682796
    29  H    6.212708   7.282914   8.686563   9.236424   8.670057
    30  H    8.683432   9.786220  11.175137  11.708289  11.073601
    31  H    9.403088  10.792257  11.638607  13.498433  13.516134
    32  H   10.809120  12.200856  13.096857  14.817868  14.820930
    33  H    9.403097  10.792266  11.638616  13.382354  13.516141
    34  H    6.827574   8.216981   9.159436  10.841538  10.879217
    35  H    1.085799   2.147515   2.707820   4.936013   5.545997
    36  H    3.251145   2.169791   1.097471   3.048057   3.984712
    37  H    3.251145   2.169792   1.097471   2.488166   3.984712
    38  H    2.609107   2.160597   1.093707   3.981567   5.116843
                   26         27         28         29         30
    26  H    0.000000
    27  H    3.479066   0.000000
    28  H    5.360331   2.482256   0.000000
    29  H    9.236421   6.421221   3.987610   0.000000
    30  H   11.708287   8.774497   6.417628   2.508080   0.000000
    31  H   13.382348  11.714048   9.351507   6.454523   6.184167
    32  H   14.817868  12.923404  10.498252   7.230985   6.423629
    33  H   13.498442  11.714053   9.351512   6.454528   6.184168
    34  H   10.841538   9.085308   6.747351   4.320071   4.984508
    35  H    4.936013   4.945749   4.295410   6.568203   8.955653
    36  H    2.488166   4.943232   5.911246   9.289872  11.778423
    37  H    3.048058   4.943232   5.911246   9.289874  11.778425
    38  H    3.981568   5.549412   5.885501   8.781520  11.220533
                   31         32         33         34         35
    31  H    0.000000
    32  H    1.775813   0.000000
    33  H    1.772896   1.775813   0.000000
    34  H    2.755526   3.987868   2.755534   0.000000
    35  H    8.941097  10.390056   8.941106   6.464576   0.000000
    36  H   12.259798  13.779995  12.386487   9.852249   3.476230
    37  H   12.386477  13.779995  12.259806   9.852248   3.476230
    38  H   11.107799  12.589661  11.107809   8.727183   2.337266
                   36         37         38
    36  H    0.000000
    37  H    1.761067   0.000000
    38  H    1.769812   1.769812   0.000000
 Symmetry turned off by external request.
 Stoichiometry    C17H15N5O
 Framework group  C1[X(C17H15N5O)]
 Deg. of freedom   108
 Full point group                 C1      NOp   1
 Rotational constants (GHZ):           1.0221598           0.0881167           0.0812462
 Leave Link  202 at Sat Nov  5 09:25:01 2022, MaxMem=   402653184 cpu:               2.4 elap:               0.3
 (Enter /home/wykgroup/appl/g16/l301.exe)
 Standard basis: 6-31G(d) (6D, 10F)
 Ernie: Thresh=  0.10000D-02 Tol=  0.10000D-05 Strict=F.
 AO basis set in the form of general basis input (Overlap normalization):
      1 0
 S   6 1.00       0.000000000000
      0.3047524880D+04  0.1834737132D-02
      0.4573695180D+03  0.1403732281D-01
      0.1039486850D+03  0.6884262226D-01
      0.2921015530D+02  0.2321844432D+00
      0.9286662960D+01  0.4679413484D+00
      0.3163926960D+01  0.3623119853D+00
 SP   3 1.00       0.000000000000
      0.7868272350D+01 -0.1193324198D+00  0.6899906659D-01
      0.1881288540D+01 -0.1608541517D+00  0.3164239610D+00
      0.5442492580D+00  0.1143456438D+01  0.7443082909D+00
 SP   1 1.00       0.000000000000
      0.1687144782D+00  0.1000000000D+01  0.1000000000D+01
 D   1 1.00       0.000000000000
      0.8000000000D+00  0.1000000000D+01
 ****
      2 0
 S   6 1.00       0.000000000000
      0.3047524880D+04  0.1834737132D-02
      0.4573695180D+03  0.1403732281D-01
      0.1039486850D+03  0.6884262226D-01
      0.2921015530D+02  0.2321844432D+00
      0.9286662960D+01  0.4679413484D+00
      0.3163926960D+01  0.3623119853D+00
 SP   3 1.00       0.000000000000
      0.7868272350D+01 -0.1193324198D+00  0.6899906659D-01
      0.1881288540D+01 -0.1608541517D+00  0.3164239610D+00
      0.5442492580D+00  0.1143456438D+01  0.7443082909D+00
 SP   1 1.00       0.000000000000
      0.1687144782D+00  0.1000000000D+01  0.1000000000D+01
 D   1 1.00       0.000000000000
      0.8000000000D+00  0.1000000000D+01
 ****
      3 0
 S   6 1.00       0.000000000000
      0.3047524880D+04  0.1834737132D-02
      0.4573695180D+03  0.1403732281D-01
      0.1039486850D+03  0.6884262226D-01
      0.2921015530D+02  0.2321844432D+00
      0.9286662960D+01  0.4679413484D+00
      0.3163926960D+01  0.3623119853D+00
 SP   3 1.00       0.000000000000
      0.7868272350D+01 -0.1193324198D+00  0.6899906659D-01
      0.1881288540D+01 -0.1608541517D+00  0.3164239610D+00
      0.5442492580D+00  0.1143456438D+01  0.7443082909D+00
 SP   1 1.00       0.000000000000
      0.1687144782D+00  0.1000000000D+01  0.1000000000D+01
 D   1 1.00       0.000000000000
      0.8000000000D+00  0.1000000000D+01
 ****
      4 0
 S   6 1.00       0.000000000000
      0.3047524880D+04  0.1834737132D-02
      0.4573695180D+03  0.1403732281D-01
      0.1039486850D+03  0.6884262226D-01
      0.2921015530D+02  0.2321844432D+00
      0.9286662960D+01  0.4679413484D+00
      0.3163926960D+01  0.3623119853D+00
 SP   3 1.00       0.000000000000
      0.7868272350D+01 -0.1193324198D+00  0.6899906659D-01
      0.1881288540D+01 -0.1608541517D+00  0.3164239610D+00
      0.5442492580D+00  0.1143456438D+01  0.7443082909D+00
 SP   1 1.00       0.000000000000
      0.1687144782D+00  0.1000000000D+01  0.1000000000D+01
 D   1 1.00       0.000000000000
      0.8000000000D+00  0.1000000000D+01
 ****
      5 0
 S   6 1.00       0.000000000000
      0.3047524880D+04  0.1834737132D-02
      0.4573695180D+03  0.1403732281D-01
      0.1039486850D+03  0.6884262226D-01
      0.2921015530D+02  0.2321844432D+00
      0.9286662960D+01  0.4679413484D+00
      0.3163926960D+01  0.3623119853D+00
 SP   3 1.00       0.000000000000
      0.7868272350D+01 -0.1193324198D+00  0.6899906659D-01
      0.1881288540D+01 -0.1608541517D+00  0.3164239610D+00
      0.5442492580D+00  0.1143456438D+01  0.7443082909D+00
 SP   1 1.00       0.000000000000
      0.1687144782D+00  0.1000000000D+01  0.1000000000D+01
 D   1 1.00       0.000000000000
      0.8000000000D+00  0.1000000000D+01
 ****
      6 0
 S   6 1.00       0.000000000000
      0.3047524880D+04  0.1834737132D-02
      0.4573695180D+03  0.1403732281D-01
      0.1039486850D+03  0.6884262226D-01
      0.2921015530D+02  0.2321844432D+00
      0.9286662960D+01  0.4679413484D+00
      0.3163926960D+01  0.3623119853D+00
 SP   3 1.00       0.000000000000
      0.7868272350D+01 -0.1193324198D+00  0.6899906659D-01
      0.1881288540D+01 -0.1608541517D+00  0.3164239610D+00
      0.5442492580D+00  0.1143456438D+01  0.7443082909D+00
 SP   1 1.00       0.000000000000
      0.1687144782D+00  0.1000000000D+01  0.1000000000D+01
 D   1 1.00       0.000000000000
      0.8000000000D+00  0.1000000000D+01
 ****
      7 0
 S   6 1.00       0.000000000000
      0.4173511460D+04  0.1834772160D-02
      0.6274579110D+03  0.1399462700D-01
      0.1429020930D+03  0.6858655181D-01
      0.4023432930D+02  0.2322408730D+00
      0.1282021290D+02  0.4690699481D+00
      0.4390437010D+01  0.3604551991D+00
 SP   3 1.00       0.000000000000
      0.1162636186D+02 -0.1149611817D+00  0.6757974388D-01
      0.2716279807D+01 -0.1691174786D+00  0.3239072959D+00
      0.7722183966D+00  0.1145851947D+01  0.7408951398D+00
 SP   1 1.00       0.000000000000
      0.2120314975D+00  0.1000000000D+01  0.1000000000D+01
 D   1 1.00       0.000000000000
      0.8000000000D+00  0.1000000000D+01
 ****
      8 0
 S   6 1.00       0.000000000000
      0.3047524880D+04  0.1834737132D-02
      0.4573695180D+03  0.1403732281D-01
      0.1039486850D+03  0.6884262226D-01
      0.2921015530D+02  0.2321844432D+00
      0.9286662960D+01  0.4679413484D+00
      0.3163926960D+01  0.3623119853D+00
 SP   3 1.00       0.000000000000
      0.7868272350D+01 -0.1193324198D+00  0.6899906659D-01
      0.1881288540D+01 -0.1608541517D+00  0.3164239610D+00
      0.5442492580D+00  0.1143456438D+01  0.7443082909D+00
 SP   1 1.00       0.000000000000
      0.1687144782D+00  0.1000000000D+01  0.1000000000D+01
 D   1 1.00       0.000000000000
      0.8000000000D+00  0.1000000000D+01
 ****
      9 0
 S   6 1.00       0.000000000000
      0.3047524880D+04  0.1834737132D-02
      0.4573695180D+03  0.1403732281D-01
      0.1039486850D+03  0.6884262226D-01
      0.2921015530D+02  0.2321844432D+00
      0.9286662960D+01  0.4679413484D+00
      0.3163926960D+01  0.3623119853D+00
 SP   3 1.00       0.000000000000
      0.7868272350D+01 -0.1193324198D+00  0.6899906659D-01
      0.1881288540D+01 -0.1608541517D+00  0.3164239610D+00
      0.5442492580D+00  0.1143456438D+01  0.7443082909D+00
 SP   1 1.00       0.000000000000
      0.1687144782D+00  0.1000000000D+01  0.1000000000D+01
 D   1 1.00       0.000000000000
      0.8000000000D+00  0.1000000000D+01
 ****
     10 0
 S   6 1.00       0.000000000000
      0.3047524880D+04  0.1834737132D-02
      0.4573695180D+03  0.1403732281D-01
      0.1039486850D+03  0.6884262226D-01
      0.2921015530D+02  0.2321844432D+00
      0.9286662960D+01  0.4679413484D+00
      0.3163926960D+01  0.3623119853D+00
 SP   3 1.00       0.000000000000
      0.7868272350D+01 -0.1193324198D+00  0.6899906659D-01
      0.1881288540D+01 -0.1608541517D+00  0.3164239610D+00
      0.5442492580D+00  0.1143456438D+01  0.7443082909D+00
 SP   1 1.00       0.000000000000
      0.1687144782D+00  0.1000000000D+01  0.1000000000D+01
 D   1 1.00       0.000000000000
      0.8000000000D+00  0.1000000000D+01
 ****
     11 0
 S   6 1.00       0.000000000000
      0.3047524880D+04  0.1834737132D-02
      0.4573695180D+03  0.1403732281D-01
      0.1039486850D+03  0.6884262226D-01
      0.2921015530D+02  0.2321844432D+00
      0.9286662960D+01  0.4679413484D+00
      0.3163926960D+01  0.3623119853D+00
 SP   3 1.00       0.000000000000
      0.7868272350D+01 -0.1193324198D+00  0.6899906659D-01
      0.1881288540D+01 -0.1608541517D+00  0.3164239610D+00
      0.5442492580D+00  0.1143456438D+01  0.7443082909D+00
 SP   1 1.00       0.000000000000
      0.1687144782D+00  0.1000000000D+01  0.1000000000D+01
 D   1 1.00       0.000000000000
      0.8000000000D+00  0.1000000000D+01
 ****
     12 0
 S   6 1.00       0.000000000000
      0.3047524880D+04  0.1834737132D-02
      0.4573695180D+03  0.1403732281D-01
      0.1039486850D+03  0.6884262226D-01
      0.2921015530D+02  0.2321844432D+00
      0.9286662960D+01  0.4679413484D+00
      0.3163926960D+01  0.3623119853D+00
 SP   3 1.00       0.000000000000
      0.7868272350D+01 -0.1193324198D+00  0.6899906659D-01
      0.1881288540D+01 -0.1608541517D+00  0.3164239610D+00
      0.5442492580D+00  0.1143456438D+01  0.7443082909D+00
 SP   1 1.00       0.000000000000
      0.1687144782D+00  0.1000000000D+01  0.1000000000D+01
 D   1 1.00       0.000000000000
      0.8000000000D+00  0.1000000000D+01
 ****
     13 0
 S   6 1.00       0.000000000000
      0.4173511460D+04  0.1834772160D-02
      0.6274579110D+03  0.1399462700D-01
      0.1429020930D+03  0.6858655181D-01
      0.4023432930D+02  0.2322408730D+00
      0.1282021290D+02  0.4690699481D+00
      0.4390437010D+01  0.3604551991D+00
 SP   3 1.00       0.000000000000
      0.1162636186D+02 -0.1149611817D+00  0.6757974388D-01
      0.2716279807D+01 -0.1691174786D+00  0.3239072959D+00
      0.7722183966D+00  0.1145851947D+01  0.7408951398D+00
 SP   1 1.00       0.000000000000
      0.2120314975D+00  0.1000000000D+01  0.1000000000D+01
 D   1 1.00       0.000000000000
      0.8000000000D+00  0.1000000000D+01
 ****
     14 0
 S   6 1.00       0.000000000000
      0.4173511460D+04  0.1834772160D-02
      0.6274579110D+03  0.1399462700D-01
      0.1429020930D+03  0.6858655181D-01
      0.4023432930D+02  0.2322408730D+00
      0.1282021290D+02  0.4690699481D+00
      0.4390437010D+01  0.3604551991D+00
 SP   3 1.00       0.000000000000
      0.1162636186D+02 -0.1149611817D+00  0.6757974388D-01
      0.2716279807D+01 -0.1691174786D+00  0.3239072959D+00
      0.7722183966D+00  0.1145851947D+01  0.7408951398D+00
 SP   1 1.00       0.000000000000
      0.2120314975D+00  0.1000000000D+01  0.1000000000D+01
 D   1 1.00       0.000000000000
      0.8000000000D+00  0.1000000000D+01
 ****
     15 0
 S   6 1.00       0.000000000000
      0.3047524880D+04  0.1834737132D-02
      0.4573695180D+03  0.1403732281D-01
      0.1039486850D+03  0.6884262226D-01
      0.2921015530D+02  0.2321844432D+00
      0.9286662960D+01  0.4679413484D+00
      0.3163926960D+01  0.3623119853D+00
 SP   3 1.00       0.000000000000
      0.7868272350D+01 -0.1193324198D+00  0.6899906659D-01
      0.1881288540D+01 -0.1608541517D+00  0.3164239610D+00
      0.5442492580D+00  0.1143456438D+01  0.7443082909D+00
 SP   1 1.00       0.000000000000
      0.1687144782D+00  0.1000000000D+01  0.1000000000D+01
 D   1 1.00       0.000000000000
      0.8000000000D+00  0.1000000000D+01
 ****
     16 0
 S   6 1.00       0.000000000000
      0.3047524880D+04  0.1834737132D-02
      0.4573695180D+03  0.1403732281D-01
      0.1039486850D+03  0.6884262226D-01
      0.2921015530D+02  0.2321844432D+00
      0.9286662960D+01  0.4679413484D+00
      0.3163926960D+01  0.3623119853D+00
 SP   3 1.00       0.000000000000
      0.7868272350D+01 -0.1193324198D+00  0.6899906659D-01
      0.1881288540D+01 -0.1608541517D+00  0.3164239610D+00
      0.5442492580D+00  0.1143456438D+01  0.7443082909D+00
 SP   1 1.00       0.000000000000
      0.1687144782D+00  0.1000000000D+01  0.1000000000D+01
 D   1 1.00       0.000000000000
      0.8000000000D+00  0.1000000000D+01
 ****
     17 0
 S   6 1.00       0.000000000000
      0.4173511460D+04  0.1834772160D-02
      0.6274579110D+03  0.1399462700D-01
      0.1429020930D+03  0.6858655181D-01
      0.4023432930D+02  0.2322408730D+00
      0.1282021290D+02  0.4690699481D+00
      0.4390437010D+01  0.3604551991D+00
 SP   3 1.00       0.000000000000
      0.1162636186D+02 -0.1149611817D+00  0.6757974388D-01
      0.2716279807D+01 -0.1691174786D+00  0.3239072959D+00
      0.7722183966D+00  0.1145851947D+01  0.7408951398D+00
 SP   1 1.00       0.000000000000
      0.2120314975D+00  0.1000000000D+01  0.1000000000D+01
 D   1 1.00       0.000000000000
      0.8000000000D+00  0.1000000000D+01
 ****
     18 0
 S   6 1.00       0.000000000000
      0.3047524880D+04  0.1834737132D-02
      0.4573695180D+03  0.1403732281D-01
      0.1039486850D+03  0.6884262226D-01
      0.2921015530D+02  0.2321844432D+00
      0.9286662960D+01  0.4679413484D+00
      0.3163926960D+01  0.3623119853D+00
 SP   3 1.00       0.000000000000
      0.7868272350D+01 -0.1193324198D+00  0.6899906659D-01
      0.1881288540D+01 -0.1608541517D+00  0.3164239610D+00
      0.5442492580D+00  0.1143456438D+01  0.7443082909D+00
 SP   1 1.00       0.000000000000
      0.1687144782D+00  0.1000000000D+01  0.1000000000D+01
 D   1 1.00       0.000000000000
      0.8000000000D+00  0.1000000000D+01
 ****
     19 0
 S   6 1.00       0.000000000000
      0.4173511460D+04  0.1834772160D-02
      0.6274579110D+03  0.1399462700D-01
      0.1429020930D+03  0.6858655181D-01
      0.4023432930D+02  0.2322408730D+00
      0.1282021290D+02  0.4690699481D+00
      0.4390437010D+01  0.3604551991D+00
 SP   3 1.00       0.000000000000
      0.1162636186D+02 -0.1149611817D+00  0.6757974388D-01
      0.2716279807D+01 -0.1691174786D+00  0.3239072959D+00
      0.7722183966D+00  0.1145851947D+01  0.7408951398D+00
 SP   1 1.00       0.000000000000
      0.2120314975D+00  0.1000000000D+01  0.1000000000D+01
 D   1 1.00       0.000000000000
      0.8000000000D+00  0.1000000000D+01
 ****
     20 0
 S   6 1.00       0.000000000000
      0.5484671660D+04  0.1831074430D-02
      0.8252349460D+03  0.1395017220D-01
      0.1880469580D+03  0.6844507810D-01
      0.5296450000D+02  0.2327143360D+00
      0.1689757040D+02  0.4701928980D+00
      0.5799635340D+01  0.3585208530D+00
 SP   3 1.00       0.000000000000
      0.1553961625D+02 -0.1107775495D+00  0.7087426823D-01
      0.3599933586D+01 -0.1480262627D+00  0.3397528391D+00
      0.1013761750D+01  0.1130767015D+01  0.7271585773D+00
 SP   1 1.00       0.000000000000
      0.2700058226D+00  0.1000000000D+01  0.1000000000D+01
 D   1 1.00       0.000000000000
      0.8000000000D+00  0.1000000000D+01
 ****
     21 0
 S   6 1.00       0.000000000000
      0.3047524880D+04  0.1834737132D-02
      0.4573695180D+03  0.1403732281D-01
      0.1039486850D+03  0.6884262226D-01
      0.2921015530D+02  0.2321844432D+00
      0.9286662960D+01  0.4679413484D+00
      0.3163926960D+01  0.3623119853D+00
 SP   3 1.00       0.000000000000
      0.7868272350D+01 -0.1193324198D+00  0.6899906659D-01
      0.1881288540D+01 -0.1608541517D+00  0.3164239610D+00
      0.5442492580D+00  0.1143456438D+01  0.7443082909D+00
 SP   1 1.00       0.000000000000
      0.1687144782D+00  0.1000000000D+01  0.1000000000D+01
 D   1 1.00       0.000000000000
      0.8000000000D+00  0.1000000000D+01
 ****
     22 0
 S   6 1.00       0.000000000000
      0.3047524880D+04  0.1834737132D-02
      0.4573695180D+03  0.1403732281D-01
      0.1039486850D+03  0.6884262226D-01
      0.2921015530D+02  0.2321844432D+00
      0.9286662960D+01  0.4679413484D+00
      0.3163926960D+01  0.3623119853D+00
 SP   3 1.00       0.000000000000
      0.7868272350D+01 -0.1193324198D+00  0.6899906659D-01
      0.1881288540D+01 -0.1608541517D+00  0.3164239610D+00
      0.5442492580D+00  0.1143456438D+01  0.7443082909D+00
 SP   1 1.00       0.000000000000
      0.1687144782D+00  0.1000000000D+01  0.1000000000D+01
 D   1 1.00       0.000000000000
      0.8000000000D+00  0.1000000000D+01
 ****
     23 0
 S   6 1.00       0.000000000000
      0.3047524880D+04  0.1834737132D-02
      0.4573695180D+03  0.1403732281D-01
      0.1039486850D+03  0.6884262226D-01
      0.2921015530D+02  0.2321844432D+00
      0.9286662960D+01  0.4679413484D+00
      0.3163926960D+01  0.3623119853D+00
 SP   3 1.00       0.000000000000
      0.7868272350D+01 -0.1193324198D+00  0.6899906659D-01
      0.1881288540D+01 -0.1608541517D+00  0.3164239610D+00
      0.5442492580D+00  0.1143456438D+01  0.7443082909D+00
 SP   1 1.00       0.000000000000
      0.1687144782D+00  0.1000000000D+01  0.1000000000D+01
 D   1 1.00       0.000000000000
      0.8000000000D+00  0.1000000000D+01
 ****
     24 0
 S   3 1.00       0.000000000000
      0.1873113696D+02  0.3349460434D-01
      0.2825394365D+01  0.2347269535D+00
      0.6401216923D+00  0.8137573261D+00
 S   1 1.00       0.000000000000
      0.1612777588D+00  0.1000000000D+01
 ****
     25 0
 S   3 1.00       0.000000000000
      0.1873113696D+02  0.3349460434D-01
      0.2825394365D+01  0.2347269535D+00
      0.6401216923D+00  0.8137573261D+00
 S   1 1.00       0.000000000000
      0.1612777588D+00  0.1000000000D+01
 ****
     26 0
 S   3 1.00       0.000000000000
      0.1873113696D+02  0.3349460434D-01
      0.2825394365D+01  0.2347269535D+00
      0.6401216923D+00  0.8137573261D+00
 S   1 1.00       0.000000000000
      0.1612777588D+00  0.1000000000D+01
 ****
     27 0
 S   3 1.00       0.000000000000
      0.1873113696D+02  0.3349460434D-01
      0.2825394365D+01  0.2347269535D+00
      0.6401216923D+00  0.8137573261D+00
 S   1 1.00       0.000000000000
      0.1612777588D+00  0.1000000000D+01
 ****
     28 0
 S   3 1.00       0.000000000000
      0.1873113696D+02  0.3349460434D-01
      0.2825394365D+01  0.2347269535D+00
      0.6401216923D+00  0.8137573261D+00
 S   1 1.00       0.000000000000
      0.1612777588D+00  0.1000000000D+01
 ****
     29 0
 S   3 1.00       0.000000000000
      0.1873113696D+02  0.3349460434D-01
      0.2825394365D+01  0.2347269535D+00
      0.6401216923D+00  0.8137573261D+00
 S   1 1.00       0.000000000000
      0.1612777588D+00  0.1000000000D+01
 ****
     30 0
 S   3 1.00       0.000000000000
      0.1873113696D+02  0.3349460434D-01
      0.2825394365D+01  0.2347269535D+00
      0.6401216923D+00  0.8137573261D+00
 S   1 1.00       0.000000000000
      0.1612777588D+00  0.1000000000D+01
 ****
     31 0
 S   3 1.00       0.000000000000
      0.1873113696D+02  0.3349460434D-01
      0.2825394365D+01  0.2347269535D+00
      0.6401216923D+00  0.8137573261D+00
 S   1 1.00       0.000000000000
      0.1612777588D+00  0.1000000000D+01
 ****
     32 0
 S   3 1.00       0.000000000000
      0.1873113696D+02  0.3349460434D-01
      0.2825394365D+01  0.2347269535D+00
      0.6401216923D+00  0.8137573261D+00
 S   1 1.00       0.000000000000
      0.1612777588D+00  0.1000000000D+01
 ****
     33 0
 S   3 1.00       0.000000000000
      0.1873113696D+02  0.3349460434D-01
      0.2825394365D+01  0.2347269535D+00
      0.6401216923D+00  0.8137573261D+00
 S   1 1.00       0.000000000000
      0.1612777588D+00  0.1000000000D+01
 ****
     34 0
 S   3 1.00       0.000000000000
      0.1873113696D+02  0.3349460434D-01
      0.2825394365D+01  0.2347269535D+00
      0.6401216923D+00  0.8137573261D+00
 S   1 1.00       0.000000000000
      0.1612777588D+00  0.1000000000D+01
 ****
     35 0
 S   3 1.00       0.000000000000
      0.1873113696D+02  0.3349460434D-01
      0.2825394365D+01  0.2347269535D+00
      0.6401216923D+00  0.8137573261D+00
 S   1 1.00       0.000000000000
      0.1612777588D+00  0.1000000000D+01
 ****
     36 0
 S   3 1.00       0.000000000000
      0.1873113696D+02  0.3349460434D-01
      0.2825394365D+01  0.2347269535D+00
      0.6401216923D+00  0.8137573261D+00
 S   1 1.00       0.000000000000
      0.1612777588D+00  0.1000000000D+01
 ****
     37 0
 S   3 1.00       0.000000000000
      0.1873113696D+02  0.3349460434D-01
      0.2825394365D+01  0.2347269535D+00
      0.6401216923D+00  0.8137573261D+00
 S   1 1.00       0.000000000000
      0.1612777588D+00  0.1000000000D+01
 ****
     38 0
 S   3 1.00       0.000000000000
      0.1873113696D+02  0.3349460434D-01
      0.2825394365D+01  0.2347269535D+00
      0.6401216923D+00  0.8137573261D+00
 S   1 1.00       0.000000000000
      0.1612777588D+00  0.1000000000D+01
 ****

   375 basis functions,   704 primitive gaussians,   375 cartesian basis functions
    80 alpha electrons       80 beta electrons
       nuclear repulsion energy      1697.4478273326 Hartrees.
 IExCor=  402 DFT=T Ex+Corr=B3LYP ExCW=0 ScaHFX=  0.200000
 ScaDFX=  0.800000  0.720000  1.000000  0.810000 ScalE2=  1.000000  1.000000
 IRadAn=      5 IRanWt=     -1 IRanGd=            0 ICorTp=0 IEmpDi=  4
 NAtoms=   38 NActive=   38 NUniq=   38 SFac= 1.00D+00 NAtFMM=   60 NAOKFM=F Big=F
 Integral buffers will be    131072 words long.
 Regular integral format.
 Two-electron integral symmetry is turned off.
 Leave Link  301 at Sat Nov  5 09:25:02 2022, MaxMem=   402653184 cpu:               2.9 elap:               0.5
 (Enter /home/wykgroup/appl/g16/l302.exe)
 NPDir=0 NMtPBC=     1 NCelOv=     1 NCel=       1 NClECP=     1 NCelD=      1
         NCelK=      1 NCelE2=     1 NClLst=     1 CellRange=     0.0.
 One-electron integrals computed using PRISM.
 NBasis=   375 RedAO= T EigKep=  3.73D-04  NBF=   375
 NBsUse=   375 1.00D-06 EigRej= -1.00D+00 NBFU=   375
 Precomputing XC quadrature grid using
 IXCGrd= 4 IRadAn=           5 IRanWt=          -1 IRanGd=           0 AccXCQ= 0.00D+00.
 Generated NRdTot=       0 NPtTot=           0 NUsed=           0 NTot=          32
 NSgBfM=   367   367   367   367   367 MxSgAt=    38 MxSgA2=    38.
 Leave Link  302 at Sat Nov  5 09:25:04 2022, MaxMem=   402653184 cpu:              20.8 elap:               2.4
 (Enter /home/wykgroup/appl/g16/l303.exe)
 DipDrv:  MaxL=1.
 Leave Link  303 at Sat Nov  5 09:25:05 2022, MaxMem=   402653184 cpu:               2.7 elap:               0.4
 (Enter /home/wykgroup/appl/g16/l308.exe)
 Leave Link  308 at Sat Nov  5 09:25:05 2022, MaxMem=   402653184 cpu:               1.4 elap:               0.2
 (Enter /home/wykgroup/appl/g16/l401.exe)
 ExpMin= 1.61D-01 ExpMax= 5.48D+03 ExpMxC= 8.25D+02 IAcc=3 IRadAn=         5 AccDes= 0.00D+00
 Harris functional with IExCor=  402 and IRadAn=       5 diagonalized for initial guess.
 HarFok:  IExCor=  402 AccDes= 0.00D+00 IRadAn=         5 IDoV= 1 UseB2=F ITyADJ=14
 ICtDFT=  3500011 ScaDFX=  1.000000  1.000000  1.000000  1.000000
 FoFCou: FMM=F IPFlag=           0 FMFlag=      100000 FMFlg1=           0
         NFxFlg=           0 DoJE=T BraDBF=F KetDBF=T FulRan=T
         wScrn=  0.000000 ICntrl=       500 IOpCl=  0 I1Cent=   200000004 NGrid=           0
         NMat0=    1 NMatS0=      1 NMatT0=    0 NMatD0=    1 NMtDS0=    0 NMtDT0=    0
 Symmetry not used in FoFCou.
 Harris En= -1005.73080609653    
 JPrj=0 DoOrth=F DoCkMO=F.
 Leave Link  401 at Sat Nov  5 09:25:08 2022, MaxMem=   402653184 cpu:              23.2 elap:               2.3
 (Enter /home/wykgroup/appl/g16/l502.exe)
 Two-electron integral symmetry not used.
 Closed shell SCF:
 Using DIIS extrapolation, IDIIS=  1040.
 NGot=   402653184 LenX=   402363465 LenY=   402222399
 Requested convergence on RMS density matrix=1.00D-08 within  32 cycles.
 Requested convergence on MAX density matrix=1.00D-06.
 Requested convergence on             energy=1.00D-06.
 No special actions if energy rises.
 Fock matrices will be formed incrementally for  20 cycles.
 Integral accuracy reduced to 1.0D-05 until final iterations.

 Cycle   1  Pass 0  IDiag  1:
 FoFJK:  IHMeth= 1 ICntrl=       0 DoSepK=F KAlg= 0 I1Cent=           0 FoldK=F
 IRaf= 630000000 NMat=       1 IRICut=       1 DoRegI=T DoRafI=F ISym2E= 0 IDoP0=0 IntGTp=1.
 FoFCou: FMM=F IPFlag=           0 FMFlag=      100000 FMFlg1=           0
         NFxFlg=           0 DoJE=F BraDBF=F KetDBF=F FulRan=T
         wScrn=  0.000000 ICntrl=         0 IOpCl=  0 I1Cent=           0 NGrid=           0
         NMat0=    1 NMatS0=      1 NMatT0=    0 NMatD0=    1 NMtDS0=    0 NMtDT0=    0
 Symmetry not used in FoFCou.
 E= -1005.35900380517    
 DIIS: error= 4.83D-02 at cycle   1 NSaved=   1.
 NSaved= 1 IEnMin= 1 EnMin= -1005.35900380517     IErMin= 1 ErrMin= 4.83D-02
 ErrMax= 4.83D-02  0.00D+00 EMaxC= 1.00D-01 BMatC= 4.34D-01 BMatP= 4.34D-01
 IDIUse=3 WtCom= 5.17D-01 WtEn= 4.83D-01
 Coeff-Com:  0.100D+01
 Coeff-En:   0.100D+01
 Coeff:      0.100D+01
 Gap=     0.187 Goal=   None    Shift=    0.000
 GapD=    0.187 DampG=1.000 DampE=0.500 DampFc=0.5000 IDamp=-1.
 Damping current iteration by 5.00D-01
 RMSDP=4.22D-03 MaxDP=1.31D-01              OVMax= 2.20D-01

 Cycle   2  Pass 0  IDiag  1:
 RMSU=  2.06D-03    CP:  9.76D-01
 E= -1005.53104654269     Delta-E=       -0.172042737518 Rises=F Damp=T
 DIIS: error= 6.53D-03 at cycle   2 NSaved=   2.
 NSaved= 2 IEnMin= 2 EnMin= -1005.53104654269     IErMin= 2 ErrMin= 6.53D-03
 ErrMax= 6.53D-03  0.00D+00 EMaxC= 1.00D-01 BMatC= 4.96D-02 BMatP= 4.34D-01
 IDIUse=3 WtCom= 9.35D-01 WtEn= 6.53D-02
 Coeff-Com:  0.105D+00 0.895D+00
 Coeff-En:   0.188D+00 0.812D+00
 Coeff:      0.111D+00 0.889D+00
 Gap=     0.211 Goal=   None    Shift=    0.000
 RMSDP=1.57D-03 MaxDP=5.71D-02 DE=-1.72D-01 OVMax= 2.23D-01

 Cycle   3  Pass 0  IDiag  1:
 RMSU=  1.49D-03    CP:  9.60D-01  8.05D-01
 E= -1005.72713867545     Delta-E=       -0.196092132764 Rises=F Damp=F
 DIIS: error= 9.54D-03 at cycle   3 NSaved=   3.
 NSaved= 3 IEnMin= 3 EnMin= -1005.72713867545     IErMin= 2 ErrMin= 6.53D-03
 ErrMax= 9.54D-03  0.00D+00 EMaxC= 1.00D-01 BMatC= 7.37D-02 BMatP= 4.96D-02
 IDIUse=3 WtCom= 9.29D-02 WtEn= 9.07D-01
 Coeff-Com: -0.131D-01 0.562D+00 0.451D+00
 Coeff-En:   0.000D+00 0.000D+00 0.100D+01
 Coeff:     -0.121D-02 0.522D-01 0.949D+00
 Gap=     0.151 Goal=   None    Shift=    0.000
 RMSDP=2.24D-03 MaxDP=9.38D-02 DE=-1.96D-01 OVMax= 2.02D-01

 Cycle   4  Pass 0  IDiag  1:
 RMSU=  1.25D-03    CP:  9.65D-01  1.30D+00 -4.67D-02
 E= -1005.47657519093     Delta-E=        0.250563484516 Rises=F Damp=F
 DIIS: error= 2.07D-02 at cycle   4 NSaved=   4.
 NSaved= 4 IEnMin= 3 EnMin= -1005.72713867545     IErMin= 2 ErrMin= 6.53D-03
 ErrMax= 2.07D-02  0.00D+00 EMaxC= 1.00D-01 BMatC= 3.42D-01 BMatP= 4.96D-02
 IDIUse=2 WtCom= 0.00D+00 WtEn= 1.00D+00
 Coeff-En:   0.000D+00 0.000D+00 0.761D+00 0.239D+00
 Coeff:      0.000D+00 0.000D+00 0.761D+00 0.239D+00
 Gap=     0.143 Goal=   None    Shift=    0.000
 RMSDP=1.15D-03 MaxDP=4.74D-02 DE= 2.51D-01 OVMax= 1.07D-01

 Cycle   5  Pass 0  IDiag  1:
 RMSU=  2.08D-04    CP:  9.64D-01  1.02D+00  4.48D-01  4.83D-01
 E= -1005.77626599706     Delta-E=       -0.299690806123 Rises=F Damp=F
 DIIS: error= 5.04D-03 at cycle   5 NSaved=   5.
 NSaved= 5 IEnMin= 5 EnMin= -1005.77626599706     IErMin= 5 ErrMin= 5.04D-03
 ErrMax= 5.04D-03  0.00D+00 EMaxC= 1.00D-01 BMatC= 2.24D-02 BMatP= 4.96D-02
 IDIUse=3 WtCom= 9.50D-01 WtEn= 5.04D-02
 Coeff-Com:  0.321D-02 0.475D-02 0.299D+00-0.528D-01 0.745D+00
 Coeff-En:   0.000D+00 0.000D+00 0.288D+00 0.000D+00 0.712D+00
 Coeff:      0.304D-02 0.451D-02 0.299D+00-0.501D-01 0.744D+00
 Gap=     0.150 Goal=   None    Shift=    0.000
 RMSDP=4.17D-04 MaxDP=1.86D-02 DE=-3.00D-01 OVMax= 4.09D-02

 Cycle   6  Pass 0  IDiag  1:
 RMSU=  6.83D-05    CP:  9.63D-01  9.36D-01  6.48D-01  3.15D-01  6.80D-01
 E= -1005.79726607640     Delta-E=       -0.021000079343 Rises=F Damp=F
 DIIS: error= 3.84D-04 at cycle   6 NSaved=   6.
 NSaved= 6 IEnMin= 6 EnMin= -1005.79726607640     IErMin= 6 ErrMin= 3.84D-04
 ErrMax= 3.84D-04  0.00D+00 EMaxC= 1.00D-01 BMatC= 1.65D-04 BMatP= 2.24D-02
 IDIUse=3 WtCom= 9.96D-01 WtEn= 3.84D-03
 Coeff-Com:  0.106D-03-0.225D-03 0.130D+00-0.546D-01 0.452D+00 0.473D+00
 Coeff-En:   0.000D+00 0.000D+00 0.000D+00 0.000D+00 0.000D+00 0.100D+01
 Coeff:      0.106D-03-0.224D-03 0.129D+00-0.544D-01 0.451D+00 0.475D+00
 Gap=     0.149 Goal=   None    Shift=    0.000
 RMSDP=4.44D-05 MaxDP=2.40D-03 DE=-2.10D-02 OVMax= 6.38D-03

 Cycle   7  Pass 0  IDiag  1:
 RMSU=  2.11D-05    CP:  9.63D-01  9.40D-01  6.40D-01  3.11D-01  7.83D-01
                    CP:  5.76D-01
 E= -1005.79743094044     Delta-E=       -0.000164864035 Rises=F Damp=F
 DIIS: error= 1.62D-04 at cycle   7 NSaved=   7.
 NSaved= 7 IEnMin= 7 EnMin= -1005.79743094044     IErMin= 7 ErrMin= 1.62D-04
 ErrMax= 1.62D-04  0.00D+00 EMaxC= 1.00D-01 BMatC= 1.04D-05 BMatP= 1.65D-04
 IDIUse=3 WtCom= 9.98D-01 WtEn= 1.62D-03
 Coeff-Com: -0.270D-03 0.366D-03 0.560D-01-0.304D-01 0.219D+00 0.274D+00
 Coeff-Com:  0.482D+00
 Coeff-En:   0.000D+00 0.000D+00 0.000D+00 0.000D+00 0.000D+00 0.000D+00
 Coeff-En:   0.100D+01
 Coeff:     -0.269D-03 0.365D-03 0.559D-01-0.304D-01 0.219D+00 0.273D+00
 Coeff:      0.482D+00
 Gap=     0.149 Goal=   None    Shift=    0.000
 RMSDP=1.15D-05 MaxDP=4.72D-04 DE=-1.65D-04 OVMax= 1.15D-03

 Cycle   8  Pass 0  IDiag  1:
 RMSU=  6.18D-06    CP:  9.63D-01  9.40D-01  6.42D-01  3.12D-01  7.85D-01
                    CP:  6.04D-01  5.73D-01
 E= -1005.79744094383     Delta-E=       -0.000010003394 Rises=F Damp=F
 DIIS: error= 4.54D-05 at cycle   8 NSaved=   8.
 NSaved= 8 IEnMin= 8 EnMin= -1005.79744094383     IErMin= 8 ErrMin= 4.54D-05
 ErrMax= 4.54D-05  0.00D+00 EMaxC= 1.00D-01 BMatC= 8.81D-07 BMatP= 1.04D-05
 IDIUse=1 WtCom= 1.00D+00 WtEn= 0.00D+00
 Coeff-Com: -0.125D-03 0.188D-03 0.144D-01-0.965D-02 0.614D-01 0.857D-01
 Coeff-Com:  0.257D+00 0.591D+00
 Coeff:     -0.125D-03 0.188D-03 0.144D-01-0.965D-02 0.614D-01 0.857D-01
 Coeff:      0.257D+00 0.591D+00
 Gap=     0.149 Goal=   None    Shift=    0.000
 RMSDP=3.55D-06 MaxDP=1.23D-04 DE=-1.00D-05 OVMax= 3.23D-04

 Initial convergence to 1.0D-05 achieved.  Increase integral accuracy.
 Cycle   9  Pass 1  IDiag  1:
 E= -1005.79743558642     Delta-E=        0.000005357407 Rises=F Damp=F
 DIIS: error= 5.93D-05 at cycle   1 NSaved=   1.
 NSaved= 1 IEnMin= 1 EnMin= -1005.79743558642     IErMin= 1 ErrMin= 5.93D-05
 ErrMax= 5.93D-05  0.00D+00 EMaxC= 1.00D-01 BMatC= 6.97D-07 BMatP= 6.97D-07
 IDIUse=1 WtCom= 1.00D+00 WtEn= 0.00D+00
 Coeff-Com:  0.100D+01
 Coeff:      0.100D+01
 Gap=     0.149 Goal=   None    Shift=    0.000
 RMSDP=3.55D-06 MaxDP=1.23D-04 DE= 5.36D-06 OVMax= 3.36D-04

 Cycle  10  Pass 1  IDiag  1:
 RMSU=  3.04D-05    CP:  1.00D+00
 E= -1005.79743571675     Delta-E=       -0.000000130326 Rises=F Damp=F
 DIIS: error= 3.43D-05 at cycle   2 NSaved=   2.
 NSaved= 2 IEnMin= 2 EnMin= -1005.79743571675     IErMin= 2 ErrMin= 3.43D-05
 ErrMax= 3.43D-05  0.00D+00 EMaxC= 1.00D-01 BMatC= 5.10D-07 BMatP= 6.97D-07
 IDIUse=1 WtCom= 1.00D+00 WtEn= 0.00D+00
 Coeff-Com:  0.445D+00 0.555D+00
 Coeff:      0.445D+00 0.555D+00
 Gap=     0.149 Goal=   None    Shift=    0.000
 RMSDP=3.34D-06 MaxDP=2.01D-04 DE=-1.30D-07 OVMax= 3.63D-04

 Cycle  11  Pass 1  IDiag  1:
 RMSU=  3.34D-06    CP:  1.00D+00  9.95D-01
 E= -1005.79743594478     Delta-E=       -0.000000228028 Rises=F Damp=F
 DIIS: error= 2.65D-05 at cycle   3 NSaved=   3.
 NSaved= 3 IEnMin= 3 EnMin= -1005.79743594478     IErMin= 3 ErrMin= 2.65D-05
 ErrMax= 2.65D-05  0.00D+00 EMaxC= 1.00D-01 BMatC= 2.77D-07 BMatP= 5.10D-07
 IDIUse=1 WtCom= 1.00D+00 WtEn= 0.00D+00
 Coeff-Com:  0.210D-01 0.420D+00 0.559D+00
 Coeff:      0.210D-01 0.420D+00 0.559D+00
 Gap=     0.149 Goal=   None    Shift=    0.000
 RMSDP=1.59D-06 MaxDP=8.06D-05 DE=-2.28D-07 OVMax= 1.66D-04

 Cycle  12  Pass 1  IDiag  1:
 RMSU=  4.84D-07    CP:  1.00D+00  1.01D+00  5.57D-01
 E= -1005.79743621158     Delta-E=       -0.000000266803 Rises=F Damp=F
 DIIS: error= 4.45D-06 at cycle   4 NSaved=   4.
 NSaved= 4 IEnMin= 4 EnMin= -1005.79743621158     IErMin= 4 ErrMin= 4.45D-06
 ErrMax= 4.45D-06  0.00D+00 EMaxC= 1.00D-01 BMatC= 1.19D-08 BMatP= 2.77D-07
 IDIUse=1 WtCom= 1.00D+00 WtEn= 0.00D+00
 Coeff-Com: -0.245D-02 0.237D+00 0.340D+00 0.426D+00
 Coeff:     -0.245D-02 0.237D+00 0.340D+00 0.426D+00
 Gap=     0.149 Goal=   None    Shift=    0.000
 RMSDP=2.92D-07 MaxDP=1.74D-05 DE=-2.67D-07 OVMax= 2.50D-05

 Cycle  13  Pass 1  IDiag  1:
 RMSU=  1.29D-07    CP:  1.00D+00  1.01D+00  5.82D-01  4.90D-01
 E= -1005.79743622164     Delta-E=       -0.000000010057 Rises=F Damp=F
 DIIS: error= 7.50D-07 at cycle   5 NSaved=   5.
 NSaved= 5 IEnMin= 5 EnMin= -1005.79743622164     IErMin= 5 ErrMin= 7.50D-07
 ErrMax= 7.50D-07  0.00D+00 EMaxC= 1.00D-01 BMatC= 4.08D-10 BMatP= 1.19D-08
 IDIUse=1 WtCom= 1.00D+00 WtEn= 0.00D+00
 Coeff-Com: -0.224D-02 0.125D+00 0.181D+00 0.254D+00 0.443D+00
 Coeff:     -0.224D-02 0.125D+00 0.181D+00 0.254D+00 0.443D+00
 Gap=     0.149 Goal=   None    Shift=    0.000
 RMSDP=6.48D-08 MaxDP=3.91D-06 DE=-1.01D-08 OVMax= 5.34D-06

 Cycle  14  Pass 1  IDiag  1:
 RMSU=  4.00D-08    CP:  1.00D+00  1.01D+00  5.81D-01  4.92D-01  6.06D-01
 E= -1005.79743622198     Delta-E=       -0.000000000342 Rises=F Damp=F
 DIIS: error= 1.79D-07 at cycle   6 NSaved=   6.
 NSaved= 6 IEnMin= 6 EnMin= -1005.79743622198     IErMin= 6 ErrMin= 1.79D-07
 ErrMax= 1.79D-07  0.00D+00 EMaxC= 1.00D-01 BMatC= 1.53D-11 BMatP= 4.08D-10
 IDIUse=1 WtCom= 1.00D+00 WtEn= 0.00D+00
 Coeff-Com: -0.115D-02 0.595D-01 0.862D-01 0.124D+00 0.251D+00 0.480D+00
 Coeff:     -0.115D-02 0.595D-01 0.862D-01 0.124D+00 0.251D+00 0.480D+00
 Gap=     0.149 Goal=   None    Shift=    0.000
 RMSDP=1.47D-08 MaxDP=7.26D-07 DE=-3.42D-10 OVMax= 1.65D-06

 Cycle  15  Pass 1  IDiag  1:
 RMSU=  1.34D-08    CP:  1.00D+00  1.01D+00  5.81D-01  4.85D-01  6.33D-01
                    CP:  9.12D-01
 E= -1005.79743622200     Delta-E=       -0.000000000024 Rises=F Damp=F
 DIIS: error= 6.73D-08 at cycle   7 NSaved=   7.
 NSaved= 7 IEnMin= 7 EnMin= -1005.79743622200     IErMin= 7 ErrMin= 6.73D-08
 ErrMax= 6.73D-08  0.00D+00 EMaxC= 1.00D-01 BMatC= 2.58D-12 BMatP= 1.53D-11
 IDIUse=1 WtCom= 1.00D+00 WtEn= 0.00D+00
 Coeff-Com: -0.708D-04 0.112D-02 0.178D-02 0.503D-02 0.308D-01 0.289D+00
 Coeff-Com:  0.672D+00
 Coeff:     -0.708D-04 0.112D-02 0.178D-02 0.503D-02 0.308D-01 0.289D+00
 Coeff:      0.672D+00
 Gap=     0.149 Goal=   None    Shift=    0.000
 RMSDP=6.98D-09 MaxDP=3.70D-07 DE=-2.41D-11 OVMax= 8.32D-07

 SCF Done:  E(RB3LYP) =  -1005.79743622     A.U. after   15 cycles
            NFock= 15  Conv=0.70D-08     -V/T= 2.0094
 KE= 9.964288217213D+02 PE=-5.729659255398D+03 EE= 2.029985170122D+03
 Leave Link  502 at Sat Nov  5 09:25:54 2022, MaxMem=   402653184 cpu:             426.4 elap:              46.2
 (Enter /home/wykgroup/appl/g16/l508.exe)
 QCSCF skips out because SCF is already converged.
 Leave Link  508 at Sat Nov  5 09:25:55 2022, MaxMem=   402653184 cpu:               0.3 elap:               0.1
 (Enter /home/wykgroup/appl/g16/l801.exe)
 DoSCS=F DFT=T ScalE2(SS,OS)=  1.000000  1.000000
 ExpMin= 1.61D-01 ExpMax= 5.48D+03 ExpMxC= 8.25D+02 IAcc=3 IRadAn=         5 AccDes= 0.00D+00
 HarFok:  IExCor=  205 AccDes= 0.00D+00 IRadAn=         5 IDoV=-2 UseB2=F ITyADJ=14
 ICtDFT= 12500011 ScaDFX=  1.000000  1.000000  1.000000  1.000000
 GSVD:  LWork=        -713 too small for GESVD, short by        2990 words or        2990 for optimal perf.
 Largest valence mixing into a core orbital is  5.57D-05
 Largest core mixing into a valence orbital is  1.56D-05
 Range of M.O.s used for correlation:    24   375
 NBasis=   375 NAE=    80 NBE=    80 NFC=    23 NFV=     0
 NROrb=    352 NOA=    57 NOB=    57 NVA=   295 NVB=   295

 **** Warning!!: The largest alpha MO coefficient is  0.10451316D+02

 Leave Link  801 at Sat Nov  5 09:25:55 2022, MaxMem=   402653184 cpu:               2.8 elap:               0.4
 (Enter /home/wykgroup/appl/g16/l914.exe)
 RHF ground state
 Two-electron integral symmetry not used.
 MDV=   402653184 DFT=T DoStab=F Mixed=T DoRPA=T DoScal=F NonHer=T
 Making orbital integer symmetry assigments:
    16 initial guesses have been made.
 Convergence on wavefunction:    0.001000000000000
 Davidson Disk Diagonalization:  ConvIn= 1.00D-03 SkipCon=T Conv= 1.00D-03.
 Max sub-space:  2000 roots to seek:    16 dimension of matrix:        33630
 Iteration     1 Dimension    16 NMult     0 NNew     16
 CISAX will form    16 AO SS matrices at one time.
 NMat=    16 NSing=     8 JSym2X= 0.
 FoFJK:  IHMeth= 1 ICntrl=       0 DoSepK=F KAlg= 0 I1Cent=           0 FoldK=F
 IRaf= 630000000 NMat=      32 IRICut=       1 DoRegI=T DoRafI=F ISym2E= 0 IDoP0=0 IntGTp=1.
 FoFCou: FMM=F IPFlag=           0 FMFlag=      100000 FMFlg1=           0
         NFxFlg=           0 DoJE=F BraDBF=F KetDBF=F FulRan=T
         wScrn=  0.000000 ICntrl=         0 IOpCl=  0 I1Cent=           0 NGrid=           0
         NMat0=   32 NMatS0=      8 NMatT0=    8 NMatD0=   32 NMtDS0=    0 NMtDT0=    0
 Symmetry not used in FoFCou.
 New state      1 was old state      2
 New state      2 was old state      6
 New state      3 was old state      1
 New state      4 was old state     12
 New state      5 was old state      4
 New state      6 was old state     10
 New state      7 was old state      8
 New state      8 was old state      7
 Excitation Energies [eV] at current iteration:
 Root      1 :     2.835305251778542
 Root      2 :     3.446410523394134
 Root      3 :     3.751185366358089
 Root      4 :     3.762842292840536
 Root      5 :     4.013958287260331
 Root      6 :     4.132773445554870
 Root      7 :     4.271837048177135
 Root      8 :     4.323869866817494
 Root      9 :     4.379009585935471
 Root     10 :     4.462240572389751
 Root     11 :     4.655499401659902
 Root     12 :     4.690244742523109
 Root     13 :     5.093360029421099
 Root     14 :     5.187173326081551
 Root     15 :     5.467961036674629
 Root     16 :     6.030167040165167
 Vector   4 SDiff=6.12D+00 TDiff=3.88D-05 assumed to be triplet.
 Vector   8 SDiff=5.94D+00 TDiff=1.61D-05 assumed to be triplet.
 Iteration     2 Dimension    24 NMult    16 NNew      8
 CISAX will form     8 AO SS matrices at one time.
 NMat=     8 NSing=     2 JSym2X= 0.
 Root      1 not converged, maximum delta is    0.111692097976313
 Root      2 not converged, maximum delta is    0.106899905302882
 Root      3 not converged, maximum delta is    0.233541679365906
 New state      4 was old state     10
 Root      4 not converged, maximum delta is    0.164716021637912
 Excitation Energies [eV] at current iteration:
 Root      1 :     2.505945280544460   Change is   -0.329359971234082
 Root      2 :     3.075451258808434   Change is   -0.370959264585699
 Root      3 :     3.578535053086688   Change is   -0.172650313271402
 Root      4 :     4.197954082021219   Change is   -0.264286490368531
 Iteration     3 Dimension    32 NMult    24 NNew      8
 CISAX will form     8 AO SS matrices at one time.
 NMat=     8 NSing=     4 JSym2X= 0.
 Root      1 not converged, maximum delta is    0.017056647826374
 Root      2 not converged, maximum delta is    0.046642671383135
 Root      3 not converged, maximum delta is    0.052198264770327
 Root      4 not converged, maximum delta is    0.066712711922159
 Excitation Energies [eV] at current iteration:
 Root      1 :     2.478189301782203   Change is   -0.027755978762257
 Root      2 :     3.034018909898421   Change is   -0.041432348910013
 Root      3 :     3.551013561338919   Change is   -0.027521491747768
 Root      4 :     4.093691587416141   Change is   -0.104262494605079
 Iteration     4 Dimension    40 NMult    32 NNew      8
 CISAX will form     8 AO SS matrices at one time.
 NMat=     8 NSing=     4 JSym2X= 0.
 Root      1 not converged, maximum delta is    0.007137694005779
 Root      2 not converged, maximum delta is    0.015182221029989
 Root      3 not converged, maximum delta is    0.009046619423210
 Root      4 not converged, maximum delta is    0.034659143202155
 Excitation Energies [eV] at current iteration:
 Root      1 :     2.476257212335632   Change is   -0.001932089446572
 Root      2 :     3.029825361208775   Change is   -0.004193548689647
 Root      3 :     3.547457038038415   Change is   -0.003556523300504
 Root      4 :     4.075105444834979   Change is   -0.018586142581162
 Iteration     5 Dimension    48 NMult    40 NNew      8
 CISAX will form     8 AO SS matrices at one time.
 NMat=     8 NSing=     4 JSym2X= 0.
 Root      1 has converged.
 Root      2 not converged, maximum delta is    0.006539585890055
 Root      3 not converged, maximum delta is    0.003295808117512
 Root      4 not converged, maximum delta is    0.018322460444806
 Excitation Energies [eV] at current iteration:
 Root      1 :     2.476117495062840   Change is   -0.000139717272792
 Root      2 :     3.029197404583704   Change is   -0.000627956625070
 Root      3 :     3.546768073183825   Change is   -0.000688964854590
 Root      4 :     4.070417855876832   Change is   -0.004687588958147
 Iteration     6 Dimension    54 NMult    48 NNew      6
 CISAX will form     6 AO SS matrices at one time.
 NMat=     6 NSing=     4 JSym2X= 0.
 Root      1 has converged.
 Root      2 not converged, maximum delta is    0.002356137638491
 Root      3 has converged.
 Root      4 not converged, maximum delta is    0.005602591767366
 Excitation Energies [eV] at current iteration:
 Root      1 :     2.476117187143450   Change is   -0.000000307919389
 Root      2 :     3.029082224418858   Change is   -0.000115180164847
 Root      3 :     3.546678585997447   Change is   -0.000089487186378
 Root      4 :     4.069731568735313   Change is   -0.000686287141520
 Iteration     7 Dimension    58 NMult    54 NNew      4
 CISAX will form     4 AO SS matrices at one time.
 NMat=     4 NSing=     2 JSym2X= 0.
 Root      1 has converged.
 Root      2 has converged.
 Root      3 has converged.
 Root      4 has converged.
 Excitation Energies [eV] at current iteration:
 Root      1 :     2.476117075766102   Change is   -0.000000111377349
 Root      2 :     3.029071119081469   Change is   -0.000011105337389
 Root      3 :     3.546675468529902   Change is   -0.000003117467546
 Root      4 :     4.069625016575288   Change is   -0.000106552160025
 Convergence achieved on expansion vectors.
 ***********************************************************************
 Excited states from <AA,BB:AA,BB> singles matrix:
 ***********************************************************************
 
 1PDM for each excited state written to RWF  633
 Ground to excited state transition densities written to RWF  633
 Ground to excited state transition electric dipole moments (Au):
       state          X           Y           Z        Dip. S.      Osc.
         1        -0.0000      0.0000      0.0000      0.0000      0.0000
         2         0.0000     -0.0000     -0.0000      0.0000      0.0000
         3        -0.0190      0.0963      0.2457      0.0700      0.0061
         4         0.2952      0.1409      0.3435      0.2250      0.0224
 Ground to excited state transition velocity dipole moments (Au):
       state          X           Y           Z        Dip. S.      Osc.
         1         0.0000      0.0000      0.0000      0.0000      0.0000
         2        -0.0000      0.0000      0.0000      0.0000      0.0000
         3        -0.0007     -0.0140     -0.0354      0.0014      0.0074
         4        -0.0413     -0.0225     -0.0551      0.0053      0.0234
 Ground to excited state transition magnetic dipole moments (Au):
       state          X           Y           Z
         1         0.0000     -0.0000      0.0000
         2         0.0000     -0.0000      0.0000
         3        -0.0067     -0.1877      0.0741
         4        -0.0163      0.0069      0.0094
 Ground to excited state transition velocity quadrupole moments (Au):
       state          XX          YY          ZZ          XY          XZ          YZ
         1         0.0000      0.0000      0.0000      0.0000      0.0000      0.0000
         2         0.0000     -0.0000     -0.0000      0.0000      0.0000     -0.0000
         3         0.1255     -0.0044     -0.0923      0.1803      0.4532     -0.0431
         4        -0.4703     -0.0171     -0.0602      0.1533      0.4433     -0.0306
 <0|del|b> * <b|rxdel|0> + <0|del|b> * <b|delr+rdel|0>
 Rotatory Strengths (R) in cgs (10**-40 erg-esu-cm/Gauss)
       state          XX          YY          ZZ    R(velocity)    E-M Angle
         1         0.0000      0.0000     -0.0000     -0.0000       90.00
         2         0.0000      0.0000     -0.0000     -0.0000       90.00
         3        -0.1841     10.3047    -10.1203      0.0001       90.00
         4         2.0112     23.3356    -25.3461      0.0002       90.00
 1/2[<0|r|b>*<b|rxdel|0> + (<0|rxdel|b>*<b|r|0>)*]
 Rotatory Strengths (R) in cgs (10**-40 erg-esu-cm/Gauss)
       state          XX          YY          ZZ     R(length)
         1         0.0000      0.0000     -0.0000      0.0000
         2        -0.0000     -0.0000      0.0000     -0.0000
         3        -0.0902     12.7840    -12.8699     -0.0587
         4         3.3944     -0.6909     -2.2722      0.1437
  1/2[<0|del|b>*<b|r|0> + (<0|r|b>*<b|del|0>)*] (Au)
       state          X           Y           Z        Dip. S.   Osc.(frdel)
         1        -0.0000      0.0000      0.0000     -0.0000     -0.0000
         2        -0.0000     -0.0000     -0.0000      0.0000      0.0000
         3         0.0000     -0.0013     -0.0087      0.0100      0.0067
         4        -0.0122     -0.0032     -0.0189      0.0343      0.0229

 Excitation energies and oscillator strengths:
 
 Excited state symmetry could not be determined.
 Excited State   1:      Triplet-?Sym    2.4761 eV  500.72 nm  f=0.0000  <S**2>=2.000
      79 -> 81         0.14250
      80 -> 81         0.52390
      80 -> 82         0.38218
      80 -> 83        -0.10869
 This state for optimization and/or second-order correction.
 Total Energy, E(TD-HF/TD-DFT) =  -1005.70644059    
 Copying the excited state density for this state as the 1-particle RhoCI density.
 
 Excited state symmetry could not be determined.
 Excited State   2:      Triplet-?Sym    3.0291 eV  409.31 nm  f=0.0000  <S**2>=2.000
      77 -> 84         0.13216
      79 -> 81         0.52659
      79 -> 82        -0.24257
      80 -> 82        -0.25844
      80 -> 83         0.16650
 
 Excited state symmetry could not be determined.
 Excited State   3:      Singlet-?Sym    3.5467 eV  349.58 nm  f=0.0061  <S**2>=0.000
      80 -> 81         0.68779
 
 Excited state symmetry could not be determined.
 Excited State   4:      Singlet-?Sym    4.0696 eV  304.66 nm  f=0.0224  <S**2>=0.000
      80 -> 81        -0.11302
      80 -> 82         0.68159
 SavETr:  write IOETrn=   770 NScale= 10 NData=  16 NLR=1 NState=    4 LETran=      82.
 Leave Link  914 at Sat Nov  5 09:29:25 2022, MaxMem=   402653184 cpu:            2250.6 elap:             209.6
 (Enter /home/wykgroup/appl/g16/l601.exe)
 Copying SCF densities to generalized density rwf, IOpCl= 0 IROHF=0.

 **********************************************************************

            Population analysis using the SCF Density.

 **********************************************************************

 Alpha  occ. eigenvalues --  -19.25452 -14.42436 -14.39449 -14.34908 -14.34406
 Alpha  occ. eigenvalues --  -14.33390 -10.30509 -10.27217 -10.26042 -10.25462
 Alpha  occ. eigenvalues --  -10.25293 -10.23045 -10.22210 -10.21714 -10.21553
 Alpha  occ. eigenvalues --  -10.21483 -10.21404 -10.20864 -10.20822 -10.20475
 Alpha  occ. eigenvalues --  -10.20420 -10.19932 -10.19788  -1.17133  -1.06707
 Alpha  occ. eigenvalues --   -0.95442  -0.94618  -0.89748  -0.87112  -0.85189
 Alpha  occ. eigenvalues --   -0.81129  -0.79856  -0.78101  -0.77481  -0.72477
 Alpha  occ. eigenvalues --   -0.72044  -0.70175  -0.69177  -0.65444  -0.63603
 Alpha  occ. eigenvalues --   -0.62904  -0.61125  -0.59655  -0.58422  -0.54145
 Alpha  occ. eigenvalues --   -0.53140  -0.51502  -0.50135  -0.49452  -0.48451
 Alpha  occ. eigenvalues --   -0.48330  -0.47737  -0.46583  -0.46191  -0.44869
 Alpha  occ. eigenvalues --   -0.43700  -0.42857  -0.42504  -0.42169  -0.41677
 Alpha  occ. eigenvalues --   -0.41416  -0.40592  -0.40151  -0.40036  -0.38372
 Alpha  occ. eigenvalues --   -0.38164  -0.37333  -0.36321  -0.35547  -0.34245
 Alpha  occ. eigenvalues --   -0.34077  -0.32572  -0.31369  -0.30896  -0.30398
 Alpha  occ. eigenvalues --   -0.26651  -0.26076  -0.24885  -0.24567  -0.21932
 Alpha virt. eigenvalues --   -0.07024  -0.05086  -0.02676  -0.01409   0.03088
 Alpha virt. eigenvalues --    0.04930   0.07374   0.07482   0.08116   0.08932
 Alpha virt. eigenvalues --    0.10292   0.11415   0.11723   0.12387   0.13518
 Alpha virt. eigenvalues --    0.13950   0.14839   0.15150   0.15562   0.15776
 Alpha virt. eigenvalues --    0.16495   0.16645   0.17530   0.18055   0.19820
 Alpha virt. eigenvalues --    0.19825   0.21183   0.22002   0.22635   0.23519
 Alpha virt. eigenvalues --    0.23599   0.24339   0.26412   0.27515   0.28777
 Alpha virt. eigenvalues --    0.29637   0.30639   0.31329   0.32531   0.32825
 Alpha virt. eigenvalues --    0.35008   0.36956   0.40167   0.40691   0.42511
 Alpha virt. eigenvalues --    0.44558   0.44635   0.46523   0.47428   0.48001
 Alpha virt. eigenvalues --    0.49142   0.49156   0.50068   0.51615   0.51680
 Alpha virt. eigenvalues --    0.52367   0.53285   0.53515   0.53692   0.54533
 Alpha virt. eigenvalues --    0.54812   0.55039   0.56601   0.57177   0.57575
 Alpha virt. eigenvalues --    0.57913   0.58161   0.58645   0.59781   0.60142
 Alpha virt. eigenvalues --    0.61779   0.62222   0.62703   0.63519   0.64672
 Alpha virt. eigenvalues --    0.64708   0.65503   0.65645   0.66398   0.67050
 Alpha virt. eigenvalues --    0.68304   0.69698   0.71482   0.71852   0.71974
 Alpha virt. eigenvalues --    0.72471   0.75343   0.75410   0.75552   0.76359
 Alpha virt. eigenvalues --    0.76882   0.77652   0.78030   0.79107   0.80096
 Alpha virt. eigenvalues --    0.80141   0.80728   0.80756   0.81792   0.82858
 Alpha virt. eigenvalues --    0.83391   0.84040   0.84985   0.86130   0.86386
 Alpha virt. eigenvalues --    0.87459   0.87703   0.88554   0.89210   0.89793
 Alpha virt. eigenvalues --    0.90135   0.90631   0.91301   0.91830   0.93230
 Alpha virt. eigenvalues --    0.93810   0.93980   0.95172   0.97467   0.98186
 Alpha virt. eigenvalues --    0.98652   0.98784   1.00157   1.01440   1.03215
 Alpha virt. eigenvalues --    1.04132   1.06168   1.08434   1.11045   1.12086
 Alpha virt. eigenvalues --    1.14395   1.16686   1.17236   1.19811   1.19960
 Alpha virt. eigenvalues --    1.20749   1.22578   1.22699   1.23234   1.24962
 Alpha virt. eigenvalues --    1.25672   1.28966   1.30437   1.31338   1.31828
 Alpha virt. eigenvalues --    1.32391   1.33513   1.35153   1.35692   1.36137
 Alpha virt. eigenvalues --    1.36568   1.38399   1.39492   1.39813   1.40888
 Alpha virt. eigenvalues --    1.42086   1.43895   1.44087   1.45700   1.46038
 Alpha virt. eigenvalues --    1.46054   1.47113   1.47455   1.50294   1.52608
 Alpha virt. eigenvalues --    1.53096   1.55796   1.57546   1.59392   1.64594
 Alpha virt. eigenvalues --    1.64995   1.66662   1.71885   1.74849   1.76138
 Alpha virt. eigenvalues --    1.76150   1.76932   1.80874   1.81099   1.81760
 Alpha virt. eigenvalues --    1.82753   1.83259   1.83455   1.84267   1.84915
 Alpha virt. eigenvalues --    1.85570   1.87307   1.89075   1.90569   1.91650
 Alpha virt. eigenvalues --    1.92099   1.92774   1.95110   1.95260   1.96444
 Alpha virt. eigenvalues --    1.98773   1.99309   2.00002   2.01167   2.02573
 Alpha virt. eigenvalues --    2.03671   2.05713   2.10118   2.10476   2.12015
 Alpha virt. eigenvalues --    2.12618   2.13341   2.13905   2.15996   2.16286
 Alpha virt. eigenvalues --    2.18235   2.18296   2.19180   2.20992   2.21359
 Alpha virt. eigenvalues --    2.21885   2.23077   2.24005   2.26504   2.27069
 Alpha virt. eigenvalues --    2.27240   2.27371   2.30249   2.30902   2.31722
 Alpha virt. eigenvalues --    2.32659   2.33472   2.34259   2.35033   2.36698
 Alpha virt. eigenvalues --    2.40100   2.40692   2.43063   2.44298   2.44996
 Alpha virt. eigenvalues --    2.47034   2.50440   2.52548   2.53018   2.55460
 Alpha virt. eigenvalues --    2.55682   2.58647   2.62046   2.63496   2.64692
 Alpha virt. eigenvalues --    2.65979   2.66197   2.66538   2.69065   2.69787
 Alpha virt. eigenvalues --    2.70576   2.72569   2.74247   2.76463   2.78456
 Alpha virt. eigenvalues --    2.81873   2.82081   2.85520   2.88620   2.90333
 Alpha virt. eigenvalues --    2.94337   2.96464   2.97073   2.98824   3.05180
 Alpha virt. eigenvalues --    3.08748   3.12860   3.15077   3.24647   3.31495
 Alpha virt. eigenvalues --    3.41888   3.44445   3.82418   3.86044   4.05763
 Alpha virt. eigenvalues --    4.06593   4.07704   4.08461   4.10343   4.14742
 Alpha virt. eigenvalues --    4.15888   4.19255   4.21234   4.23125   4.24897
 Alpha virt. eigenvalues --    4.28442   4.29688   4.35163   4.35691   4.42291
 Alpha virt. eigenvalues --    4.46928   4.50519   4.57094   4.73563   4.75135
          Condensed to atoms (all electrons):
               1          2          3          4          5          6
     1  C    5.238425   0.356827  -0.068220   0.008325  -0.000295  -0.000003
     2  C    0.356827   4.702771   0.528540  -0.033642  -0.030383   0.001560
     3  C   -0.068220   0.528540   5.009562   0.473937  -0.009315   0.005753
     4  C    0.008325  -0.033642   0.473937   5.031293   0.524207  -0.036131
     5  C   -0.000295  -0.030383  -0.009315   0.524207   4.812933   0.334007
     6  C   -0.000003   0.001560   0.005753  -0.036131   0.334007   4.626777
     7  N    0.000000   0.000003   0.000504  -0.010387  -0.065614   0.459634
     8  C   -0.000000   0.000001  -0.000001   0.000165   0.004181  -0.060213
     9  C   -0.000000   0.000000  -0.000000  -0.000010  -0.000353   0.003726
    10  C    0.000000  -0.000000   0.000000  -0.000003  -0.000003   0.000466
    11  C    0.000000  -0.000000   0.000000   0.000000  -0.000000  -0.000000
    12  C   -0.000000   0.000000  -0.000000   0.000000  -0.000000   0.000000
    13  N    0.000000  -0.000000  -0.000000   0.000000  -0.000000  -0.000000
    14  N    0.000000   0.000000  -0.000000  -0.000000  -0.000000   0.000000
    15  C    0.000000   0.000000   0.000000   0.000000   0.000000   0.000000
    16  C    0.000000  -0.000000   0.000000   0.000000  -0.000000  -0.000000
    17  N    0.000000  -0.000000  -0.000000   0.000000  -0.000000   0.000002
    18  C   -0.000000   0.000000  -0.000000   0.000000   0.000000   0.000127
    19  N    0.000000  -0.000000   0.000002   0.000035   0.004578  -0.070696
    20  O    0.000000   0.000003  -0.000066   0.004206  -0.041641   0.227808
    21  C    0.009725  -0.019667  -0.065049  -0.080947   0.465632  -0.032505
    22  C   -0.070756   0.534555  -0.003202  -0.042483  -0.011014   0.003904
    23  C   -0.019861  -0.070125   0.008589   0.000481   0.006407  -0.000280
    24  H    0.360963  -0.024377   0.000888  -0.000204   0.000048   0.000000
    25  H    0.365173  -0.028355  -0.003204   0.000117   0.000012   0.000000
    26  H    0.360964  -0.024377   0.000889  -0.000204   0.000048   0.000000
    27  H   -0.010241  -0.036811   0.351476  -0.040867   0.003045  -0.000212
    28  H   -0.000160   0.003122  -0.038677   0.353337  -0.034638  -0.011249
    29  H   -0.000000   0.000000   0.000000   0.000002  -0.000035   0.000098
    30  H    0.000000  -0.000000  -0.000000  -0.000000   0.000000  -0.000000
    31  H    0.000000   0.000000   0.000000   0.000000  -0.000000  -0.000000
    32  H    0.000000   0.000000  -0.000000  -0.000000  -0.000000  -0.000000
[...]
     1  C    0.000000   0.000000   0.000000   0.000000   0.000000  -0.000000
     2  C   -0.000000   0.000000   0.000000  -0.000000  -0.000000   0.000000
     3  C   -0.000000  -0.000000   0.000000   0.000000  -0.000000  -0.000000
     4  C    0.000000  -0.000000   0.000000   0.000000   0.000000   0.000000
     5  C   -0.000000  -0.000000   0.000000  -0.000000  -0.000000   0.000000
     6  C   -0.000000   0.000000   0.000000  -0.000000   0.000002   0.000127
     7  N    0.000000   0.000000   0.000000  -0.000000  -0.000048   0.006995
     8  C   -0.000011   0.000002  -0.000020  -0.000005   0.003772  -0.034663
     9  C   -0.000335  -0.000641   0.001365   0.000189   0.010098   0.499410
    10  C    0.004180  -0.000228   0.000825   0.000039  -0.034312  -0.100239
    11  C   -0.065841   0.007218   0.004404  -0.000527  -0.022011  -0.037539
    12  C    0.398095  -0.096623  -0.063831   0.001899   0.300874  -0.027103
    13  N    6.952571   0.280808  -0.096272   0.008267  -0.094371   0.008662
    14  N    0.280808   6.803598   0.446593  -0.061300  -0.057846   0.007317
    15  C   -0.096272   0.446593   4.625569   0.369376   0.358959  -0.043664
    16  C    0.008267  -0.061300   0.369376   5.188536  -0.067274   0.001693
    17  N   -0.094371  -0.057846   0.358959  -0.067274   6.955070   0.233701
    18  C    0.008662   0.007317  -0.043664   0.001693   0.233701   5.081213
    19  N   -0.000000  -0.000000   0.000001  -0.000002   0.000253  -0.014227
    20  O    0.000000  -0.000000  -0.000000   0.000000  -0.000000  -0.000297
    21  C    0.000000   0.000000  -0.000000   0.000000  -0.000000  -0.000000
    22  C    0.000000  -0.000000   0.000000  -0.000000  -0.000000  -0.000000
    23  C    0.000000   0.000000  -0.000000   0.000000   0.000000  -0.000000
    24  H    0.000000   0.000000   0.000000   0.000000   0.000000   0.000000
    25  H    0.000000   0.000000   0.000000   0.000000   0.000000  -0.000000
    26  H    0.000000   0.000000   0.000000   0.000000   0.000000   0.000000
    27  H    0.000000   0.000000  -0.000000  -0.000000   0.000000   0.000000
    28  H   -0.000000   0.000000   0.000000   0.000000   0.000000  -0.000000
    29  H   -0.000073   0.000003   0.000009  -0.000000  -0.000024   0.006521
    30  H   -0.000811  -0.000087  -0.000013   0.000001   0.004815   0.000333
    31  H   -0.000130   0.000650  -0.028678   0.361735  -0.001832   0.001177
    32  H   -0.000095   0.004259  -0.025129   0.364722   0.003717  -0.000041
    33  H   -0.000130   0.000650  -0.028679   0.361736  -0.001832   0.001177
    34  H   -0.000209   0.000095  -0.003594   0.003648  -0.044551   0.356067
    35  H   -0.000000   0.000000   0.000000  -0.000000  -0.000000  -0.000000
    36  H    0.000000   0.000000   0.000000   0.000000  -0.000000   0.000000
    37  H    0.000000   0.000000   0.000000   0.000000  -0.000000   0.000000
    38  H    0.000000   0.000000   0.000000  -0.000000   0.000000  -0.000000
              19         20         21         22         23         24
     1  C    0.000000   0.000000   0.009725  -0.070756  -0.019861   0.360963
     2  C   -0.000000   0.000003  -0.019667   0.534555  -0.070125  -0.024377
     3  C    0.000002  -0.000066  -0.065049  -0.003202   0.008589   0.000888
     4  C    0.000035   0.004206  -0.080947  -0.042483   0.000481  -0.000204
     5  C    0.004578  -0.041641   0.465632  -0.011014   0.006407   0.000048
     6  C   -0.070696   0.227808  -0.032505   0.003904  -0.000280   0.000000
     7  N   -0.105643  -0.109537   0.006322  -0.000106   0.000000  -0.000000
     8  C    0.374847  -0.041343   0.000024   0.000005  -0.000000   0.000000
     9  C   -0.075204   0.007513   0.000000  -0.000000  -0.000000   0.000000
    10  C    0.007485   0.000017   0.000000  -0.000000   0.000000  -0.000000
    11  C   -0.000112   0.000001  -0.000000  -0.000000   0.000000  -0.000000
    12  C    0.000007   0.000000   0.000000   0.000000  -0.000000   0.000000
    13  N   -0.000000   0.000000   0.000000   0.000000   0.000000   0.000000
    14  N   -0.000000  -0.000000   0.000000  -0.000000   0.000000   0.000000
    15  C    0.000001  -0.000000  -0.000000   0.000000  -0.000000   0.000000
    16  C   -0.000002   0.000000   0.000000  -0.000000   0.000000   0.000000
    17  N    0.000253  -0.000000  -0.000000  -0.000000   0.000000   0.000000
    18  C   -0.014227  -0.000297  -0.000000  -0.000000  -0.000000   0.000000
    19  N    6.971156   0.124827   0.000035   0.000001   0.000000   0.000000
    20  O    0.124827   8.216113  -0.007009   0.000261  -0.000001  -0.000000
    21  C    0.000035  -0.007009   5.163410   0.494768  -0.059838  -0.000192
    22  C    0.000001   0.000261   0.494768   4.729381   0.352662  -0.005039
    23  C    0.000000  -0.000001  -0.059838   0.352662   5.231911   0.002393
    24  H    0.000000  -0.000000  -0.000192  -0.005039   0.002393   0.555372
    25  H    0.000000  -0.000000  -0.000149   0.003894   0.000207  -0.026909
    26  H    0.000000  -0.000000  -0.000192  -0.005039   0.002393  -0.033502
    27  H   -0.000000   0.000000   0.000904   0.004972  -0.000167   0.000138
    28  H    0.000029   0.000148   0.005078   0.000693   0.000011   0.000002
    29  H    0.000273   0.000024  -0.000000   0.000000   0.000000   0.000000
    30  H    0.000000  -0.000000   0.000000   0.000000  -0.000000  -0.000000
    31  H   -0.000001   0.000000  -0.000000  -0.000000   0.000000   0.000000
    32  H    0.000000   0.000000   0.000000   0.000000   0.000000   0.000000
    33  H   -0.000001   0.000000  -0.000000  -0.000000   0.000000   0.000000
    34  H    0.012310  -0.000162  -0.000000  -0.000000   0.000000   0.000000
    35  H   -0.000177   0.008571   0.349651  -0.036323  -0.009014  -0.000002
    36  H    0.000000  -0.000000   0.000582  -0.025099   0.362033  -0.001069
    37  H    0.000000  -0.000000   0.000582  -0.025098   0.362033   0.003902
    38  H    0.000000  -0.000003  -0.003251  -0.028079   0.364867  -0.000001
              25         26         27         28         29         30
     1  C    0.365173   0.360964  -0.010241  -0.000160  -0.000000   0.000000
     2  C   -0.028355  -0.024377  -0.036811   0.003122   0.000000  -0.000000
     3  C   -0.003204   0.000889   0.351476  -0.038677   0.000000  -0.000000
     4  C    0.000117  -0.000204  -0.040867   0.353337   0.000002  -0.000000
     5  C    0.000012   0.000048   0.003045  -0.034638  -0.000035   0.000000
     6  C    0.000000   0.000000  -0.000212  -0.011249   0.000098  -0.000000
     7  N    0.000000  -0.000000  -0.000004   0.011970   0.014456  -0.000005
     8  C    0.000000   0.000000  -0.000000   0.000065  -0.012724  -0.000117
     9  C    0.000000   0.000000   0.000000  -0.000030  -0.032762   0.003254
    10  C    0.000000  -0.000000   0.000000  -0.000004   0.357509  -0.039274
    11  C    0.000000  -0.000000  -0.000000   0.000000  -0.041063   0.362302
    12  C    0.000000   0.000000  -0.000000   0.000000   0.002755  -0.036356
    13  N    0.000000   0.000000   0.000000  -0.000000  -0.000073  -0.000811
    14  N    0.000000   0.000000   0.000000   0.000000   0.000003  -0.000087
    15  C    0.000000   0.000000  -0.000000   0.000000   0.000009  -0.000013
    16  C    0.000000   0.000000  -0.000000   0.000000  -0.000000   0.000001
    17  N    0.000000   0.000000   0.000000   0.000000  -0.000024   0.004815
    18  C   -0.000000   0.000000   0.000000  -0.000000   0.006521   0.000333
    19  N    0.000000   0.000000  -0.000000   0.000029   0.000273   0.000000
    20  O   -0.000000  -0.000000   0.000000   0.000148   0.000024  -0.000000
    21  C   -0.000149  -0.000192   0.000904   0.005078  -0.000000   0.000000
    22  C    0.003894  -0.005039   0.004972   0.000693   0.000000   0.000000
    23  C    0.000207   0.002393  -0.000167   0.000011   0.000000  -0.000000
    24  H   -0.026909  -0.033502   0.000138   0.000002   0.000000  -0.000000
    25  H    0.546832  -0.026909   0.007442  -0.000012   0.000000  -0.000000
    26  H   -0.026909   0.555371   0.000138   0.000002   0.000000  -0.000000
    27  H    0.007442   0.000138   0.590162  -0.004405  -0.000000   0.000000
    28  H   -0.000012   0.000002  -0.004405   0.550705   0.000118  -0.000000
    29  H    0.000000   0.000000  -0.000000   0.000118   0.534565  -0.004626
    30  H   -0.000000  -0.000000   0.000000  -0.000000  -0.004626   0.542531
    31  H    0.000000   0.000000  -0.000000  -0.000000  -0.000000   0.000000
    32  H    0.000000   0.000000   0.000000  -0.000000  -0.000000  -0.000000
    33  H    0.000000   0.000000  -0.000000  -0.000000  -0.000000   0.000000
    34  H   -0.000000   0.000000   0.000000  -0.000000  -0.000128   0.000018
    35  H    0.000003  -0.000002   0.000020  -0.000167  -0.000000   0.000000
    36  H    0.000002   0.003902  -0.000001  -0.000000  -0.000000   0.000000
    37  H    0.000002  -0.001069  -0.000001  -0.000000  -0.000000   0.000000
    38  H   -0.000004  -0.000001   0.000003  -0.000000   0.000000  -0.000000
              31         32         33         34         35         36
     1  C    0.000000   0.000000   0.000000  -0.000000  -0.000148   0.002192
     2  C    0.000000   0.000000   0.000000  -0.000000   0.004734  -0.005068
     3  C    0.000000  -0.000000   0.000000  -0.000000   0.000318  -0.000116
     4  C    0.000000  -0.000000   0.000000   0.000000   0.005111   0.000023
     5  C   -0.000000  -0.000000  -0.000000  -0.000000  -0.039864  -0.000126
     6  C   -0.000000  -0.000000  -0.000000   0.000056  -0.011134   0.000003
     7  N   -0.000000  -0.000000  -0.000000   0.000128   0.000157  -0.000000
     8  C   -0.000000  -0.000000  -0.000000  -0.009580   0.000057   0.000000
     9  C    0.000027   0.000004   0.000027  -0.027266  -0.000000   0.000000
    10  C   -0.000003  -0.000000  -0.000003   0.004106   0.000000  -0.000000
    11  C    0.000002   0.000003   0.000002   0.000180  -0.000000  -0.000000
    12  C    0.000154   0.000155   0.000153   0.001716   0.000000   0.000000
    13  N   -0.000130  -0.000095  -0.000130  -0.000209  -0.000000   0.000000
    14  N    0.000650   0.004259   0.000650   0.000095   0.000000   0.000000
    15  C   -0.028678  -0.025129  -0.028679  -0.003594   0.000000   0.000000
    16  C    0.361735   0.364722   0.361736   0.003648  -0.000000   0.000000
    17  N   -0.001832   0.003717  -0.001832  -0.044551  -0.000000  -0.000000
    18  C    0.001177  -0.000041   0.001177   0.356067  -0.000000   0.000000
    19  N   -0.000001   0.000000  -0.000001   0.012310  -0.000177   0.000000
    20  O    0.000000   0.000000   0.000000  -0.000162   0.008571  -0.000000
    21  C   -0.000000   0.000000  -0.000000  -0.000000   0.349651   0.000582
    22  C   -0.000000   0.000000  -0.000000  -0.000000  -0.036323  -0.025099
    23  C    0.000000   0.000000   0.000000   0.000000  -0.009014   0.362033
    24  H    0.000000   0.000000   0.000000   0.000000  -0.000002  -0.001069
    25  H    0.000000   0.000000   0.000000  -0.000000   0.000003   0.000002
    26  H    0.000000   0.000000   0.000000   0.000000  -0.000002   0.003902
    27  H   -0.000000   0.000000  -0.000000   0.000000   0.000020  -0.000001
    28  H   -0.000000  -0.000000  -0.000000  -0.000000  -0.000167  -0.000000
    29  H   -0.000000  -0.000000  -0.000000  -0.000128  -0.000000  -0.000000
    30  H    0.000000  -0.000000   0.000000   0.000018   0.000000   0.000000
    31  H    0.554089  -0.022264  -0.037564   0.000865  -0.000000   0.000000
    32  H   -0.022264   0.496201  -0.022264  -0.000107   0.000000   0.000000
    33  H   -0.037564  -0.022264   0.554089   0.000865  -0.000000  -0.000000
    34  H    0.000865  -0.000107   0.000865   0.502960  -0.000000   0.000000
    35  H   -0.000000   0.000000  -0.000000  -0.000000   0.565541   0.000111
    36  H    0.000000   0.000000  -0.000000   0.000000   0.000111   0.558364
    37  H   -0.000000   0.000000   0.000000   0.000000   0.000111  -0.034232
    38  H   -0.000000  -0.000000  -0.000000   0.000000   0.007062  -0.026830
              37         38
     1  C    0.002192   0.000210
     2  C   -0.005068   0.004021
     3  C   -0.000116  -0.000147
     4  C    0.000023  -0.000006
     5  C   -0.000126   0.000125
     6  C    0.000003   0.000007
     7  N   -0.000000   0.000000
     8  C    0.000000   0.000000
     9  C    0.000000   0.000000
    10  C   -0.000000   0.000000
    11  C   -0.000000   0.000000
    12  C    0.000000  -0.000000
    13  N    0.000000   0.000000
    14  N    0.000000   0.000000
    15  C    0.000000   0.000000
    16  C    0.000000  -0.000000
    17  N   -0.000000   0.000000
    18  C    0.000000  -0.000000
    19  N    0.000000   0.000000
    20  O   -0.000000  -0.000003
    21  C    0.000582  -0.003251
    22  C   -0.025098  -0.028079
    23  C    0.362033   0.364867
    24  H    0.003902  -0.000001
    25  H    0.000002  -0.000004
    26  H   -0.001069  -0.000001
    27  H   -0.000001   0.000003
    28  H   -0.000000  -0.000000
    29  H   -0.000000   0.000000
    30  H    0.000000  -0.000000
    31  H   -0.000000  -0.000000
    32  H    0.000000  -0.000000
    33  H    0.000000  -0.000000
    34  H    0.000000   0.000000
    35  H    0.000111   0.007062
    36  H   -0.034232  -0.026830
    37  H    0.558364  -0.026830
    38  H   -0.026830   0.545382
 Mulliken charges:
               1
     1  C   -0.535312
     2  C    0.141737
     3  C   -0.192345
     4  C   -0.156381
     5  C    0.078183
     6  C    0.558490
     7  N   -0.554254
     8  C    0.406687
     9  C    0.031637
    10  C   -0.150773
    11  C   -0.170560
    12  C    0.534971
    13  N   -0.394306
    14  N   -0.334467
    15  C    0.482778
    16  C   -0.532735
    17  N   -0.547160
    18  C    0.053380
    19  N   -0.229778
    20  O   -0.389430
    21  C   -0.227916
    22  C    0.127142
    23  C   -0.534701
    24  H    0.167587
    25  H    0.161856
    26  H    0.167587
    27  H    0.134410
    28  H    0.164062
    29  H    0.175102
    30  H    0.168032
    31  H    0.171774
    32  H    0.200839
    33  H    0.171774
    34  H    0.202583
    35  H    0.155384
    36  H    0.165326
    37  H    0.165326
    38  H    0.163475
 Sum of Mulliken charges =  -0.00000
 Mulliken charges with hydrogens summed into heavy atoms:
               1
     1  C   -0.038283
     2  C    0.141737
     3  C   -0.057935
     4  C    0.007682
     5  C    0.078183
     6  C    0.558490
     7  N   -0.554254
     8  C    0.406687
     9  C    0.031637
    10  C    0.024329
    11  C   -0.002528
    12  C    0.534971
    13  N   -0.394306
    14  N   -0.334467
    15  C    0.482778
    16  C    0.011652
    17  N   -0.547160
    18  C    0.255963
    19  N   -0.229778
    20  O   -0.389430
    21  C   -0.072532
    22  C    0.127142
    23  C   -0.040575
 Electronic spatial extent (au):  <R**2>=          12676.9011
 Charge=              0.0000 electrons
 Dipole moment (field-independent basis, Debye):
    X=              7.8626    Y=             -0.3482    Z=             -1.2721  Tot=              7.9725
 Quadrupole moment (field-independent basis, Debye-Ang):
   XX=           -155.3899   YY=           -132.0514   ZZ=           -125.5064
   XY=              7.6462   XZ=             17.4184   YZ=              3.2583
 Traceless Quadrupole moment (field-independent basis, Debye-Ang):
   XX=            -17.7407   YY=              5.5978   ZZ=             12.1428
   XY=              7.6462   XZ=             17.4184   YZ=              3.2583
 Octapole moment (field-independent basis, Debye-Ang**2):
  XXX=            842.6708  YYY=            -74.3874  ZZZ=            -24.0332  XYY=             84.5585
  XXY=            -66.4557  XXZ=           -140.9821  XZZ=             84.4486  YZZ=            -14.2609
  YYZ=            -11.5565  XYZ=              0.4652
 Hexadecapole moment (field-independent basis, Debye-Ang**3):
 XXXX=         -18634.5955 YYYY=           -367.3915 ZZZZ=          -1245.5584 XXXY=            290.2004
 XXXZ=            930.9835 YYYX=           -127.5751 YYYZ=           -236.6945 ZZZX=            -13.5270
 ZZZY=           -198.2734 XXYY=          -2668.1780 XXZZ=          -2691.2519 YYZZ=           -266.9029
 XXYZ=            -15.8699 YYXZ=             -7.8350 ZZXY=            -27.2078
 N-N= 1.697447827333D+03 E-N=-5.729659264363D+03  KE= 9.964288217213D+02
 Leave Link  601 at Sat Nov  5 09:29:26 2022, MaxMem=   402653184 cpu:               0.8 elap:               0.1
 (Enter /home/wykgroup/appl/g16/l9999.exe)
 Electronic transition elements 
                 1             2             3             4 
      1  -0.100571D+04 -0.100569D+04 -0.100567D+04 -0.100565D+04
      2   0.000000D+00  0.000000D+00 -0.189915D-01  0.295236D+00
      3   0.000000D+00  0.000000D+00  0.963135D-01  0.140925D+00
      4   0.000000D+00  0.000000D+00  0.245665D+00  0.343545D+00
      5   0.000000D+00  0.000000D+00 -0.735854D-03 -0.413132D-01
      6   0.000000D+00  0.000000D+00 -0.139503D-01 -0.224945D-01
      7   0.000000D+00  0.000000D+00 -0.354110D-01 -0.551234D-01
      8   0.000000D+00  0.000000D+00 -0.671882D-02 -0.162581D-01
      9   0.000000D+00  0.000000D+00 -0.187697D+00  0.693318D-02
     10   0.000000D+00  0.000000D+00  0.740818D-01  0.935290D-02
     11   0.000000D+00  0.000000D+00  0.125464D+00 -0.470255D+00
     12   0.000000D+00  0.000000D+00 -0.437806D-02 -0.171438D-01
     13   0.000000D+00  0.000000D+00 -0.922991D-01 -0.601576D-01
     14   0.000000D+00  0.000000D+00  0.180316D+00  0.153278D+00
     15   0.000000D+00  0.000000D+00  0.453197D+00  0.443282D+00
     16   0.000000D+00  0.000000D+00 -0.430746D-01 -0.306209D-01
 1\1\GINC-NODE43\SP\RB3LYP TD-FC\6-31G(d)\C17H15N5O1\WYKGROUP\05-Nov-20
 22\0\\#p b3lyp/6-31g(d) 6D 10F nosymm GFInput td=(50-50,nstate=2) SCF=
 XQC\\Gaussian input prepared by ASE\\0,1\C,0,6.4326452472,0.7069100564
 ,1.0860285143\C,0,4.9725565757,0.5435987417,0.7429857397\C,0,3.9869613
 741,0.8915925349,1.6757801176\C,0,2.6329856019,0.7538229945,1.39241102
 03\C,0,2.2397830711,0.2549299451,0.1441082137\C,0,0.8204267691,0.11015
 73971,-0.153834281\N,0,-0.2018852445,0.3916021038,0.611673182\C,0,-1.2
 740035058,0.0584264995,-0.1820988468\C,0,-2.6651791252,0.2068220708,0.
 2635052526\C,0,-2.9467103212,0.71820208,1.5767863895\C,0,-4.2352843625
 ,0.8636635999,2.0098805237\C,0,-5.3026161519,0.5032208157,1.1465772584
 \N,0,-6.6167746401,0.5376940315,1.2989114113\N,0,-7.1686319344,0.06921
 1194,0.1356862964\C,0,-6.2098337895,-0.2460040668,-0.7125056571\C,0,-6
 .3893694811,-0.790240826,-2.0865635703\N,0,-4.9855489479,0.00795741,-0
 .1275024042\C,0,-3.6963193025,-0.1410015916,-0.5695163776\N,0,-0.95188
 58424,-0.4035879653,-1.3719445317\O,0,0.4492738202,-0.3713043946,-1.35
 89287676\C,0,3.2182910112,-0.0969698906,-0.7982618934\C,0,4.5776621045
 ,0.0398694241,-0.5175224889\C,0,5.605876054,-0.3479175865,-1.553529502
 2\H,0,6.9372873899,1.3883171793,0.3890701898\H,0,6.5596994294,1.106857
 1453,2.0960220248\H,0,6.9690347861,-0.2492601905,1.033540355\H,0,4.290
 9768854,1.2789018122,2.6449452727\H,0,1.8776686743,1.0262258097,2.1217
 868154\H,0,-2.1087295967,0.9838315869,2.2104683536\H,0,-4.4764829259,1
 .2465972274,2.9947936466\H,0,-5.9263165767,-1.7787966163,-2.2002898978
 \H,0,-7.4597732399,-0.8866983233,-2.2789178777\H,0,-5.9583031368,-0.12
 93268642,-2.8494323841\H,0,-3.5517060162,-0.5315459509,-1.5690110217\H
 ,0,2.9097212349,-0.4833813636,-1.7649212304\H,0,6.2744600299,-1.136321
 0215,-1.1849413674\H,0,6.2426953574,0.5021413982,-1.8297587824\H,0,5.1
 273497248,-0.7160934067,-2.465480695\\Version=ES64L-G16RevB.01\HF=-100
 5.7974362\RMSD=6.979e-09\PG=C01 [X(C17H15N5O1)]\\@


 Standing in the middle of the road is very dangerous;
 you get knocked down by the traffic from both sides.
                                -- Margaret Thatcher
 Job cpu time:       0 days  0 hours 45 minutes 45.3 seconds.
 Elapsed time:       0 days  0 hours  4 minutes 23.8 seconds.
 File lengths (MBytes):  RWF=    875 Int=      0 D2E=      0 Chk=     30 Scr=      1
 Normal termination of Gaussian 16 at Sat Nov  5 09:29:27 2022.
