 Entering Gaussian System, Link 0=/home/wykgroup/appl/g16/g16
 Input=./calculation/no_transfer_pubchem_sampling_5_b3lyp/53173244.com
 Output=./calculation/no_transfer_pubchem_sampling_5_b3lyp/53173244.log
 Initial command:
 /home/wykgroup/appl/g16/l1.exe "/userdata/scratch/wykgroup/khs/./calculation/no_transfer_pubchem_sampling_5_b3lyp/53173244/Gau-22657.inp" -scrdir="/userdata/scratch/wykgroup/khs/./calculation/no_transfer_pubchem_sampling_5_b3lyp/53173244/"
 Entering Link 1 = /home/wykgroup/appl/g16/l1.exe PID=     22658.
  
 Copyright (c) 1988-2017, Gaussian, Inc.  All Rights Reserved.
  
 This is part of the Gaussian(R) 16 program.  It is based on
 the Gaussian(R) 09 system (copyright 2009, Gaussian, Inc.),
 the Gaussian(R) 03 system (copyright 2003, Gaussian, Inc.),
 the Gaussian(R) 98 system (copyright 1998, Gaussian, Inc.),
 the Gaussian(R) 94 system (copyright 1995, Gaussian, Inc.),
 the Gaussian 92(TM) system (copyright 1992, Gaussian, Inc.),
 the Gaussian 90(TM) system (copyright 1990, Gaussian, Inc.),
 the Gaussian 88(TM) system (copyright 1988, Gaussian, Inc.),
 the Gaussian 86(TM) system (copyright 1986, Carnegie Mellon
 University), and the Gaussian 82(TM) system (copyright 1983,
 Carnegie Mellon University). Gaussian is a federally registered
 trademark of Gaussian, Inc.
  
 This software contains proprietary and confidential information,
 including trade secrets, belonging to Gaussian, Inc.
  
 This software is provided under written license and may be
 used, copied, transmitted, or stored only in accord with that
 written license.
  
 The following legend is applicable only to US Government
 contracts under FAR:
  
                    RESTRICTED RIGHTS LEGEND
  
 Use, reproduction and disclosure by the US Government is
 subject to restrictions as set forth in subparagraphs (a)
 and (c) of the Commercial Computer Software - Restricted
 Rights clause in FAR 52.227-19.
  
 Gaussian, Inc.
 340 Quinnipiac St., Bldg. 40, Wallingford CT 06492
  
  
 ---------------------------------------------------------------
 Warning -- This program may not be used in any manner that
 competes with the business of Gaussian, Inc. or will provide
 assistance to any competitor of Gaussian, Inc.  The licensee
 of this program is prohibited from giving any competitor of
 Gaussian, Inc. access to this program.  By using this program,
 the user acknowledges that Gaussian, Inc. is engaged in the
 business of creating and licensing software in the field of
 computational chemistry and represents and warrants to the
 licensee that it is not a competitor of Gaussian, Inc. and that
 it will not use this program in any manner prohibited above.
 ---------------------------------------------------------------
  

 Cite this work as:
 Gaussian 16, Revision B.01,
 M. J. Frisch, G. W. Trucks, H. B. Schlegel, G. E. Scuseria, 
 M. A. Robb, J. R. Cheeseman, G. Scalmani, V. Barone, 
 G. A. Petersson, H. Nakatsuji, X. Li, M. Caricato, A. V. Marenich, 
 J. Bloino, B. G. Janesko, R. Gomperts, B. Mennucci, H. P. Hratchian, 
 J. V. Ortiz, A. F. Izmaylov, J. L. Sonnenberg, D. Williams-Young, 
 F. Ding, F. Lipparini, F. Egidi, J. Goings, B. Peng, A. Petrone, 
 T. Henderson, D. Ranasinghe, V. G. Zakrzewski, J. Gao, N. Rega, 
 G. Zheng, W. Liang, M. Hada, M. Ehara, K. Toyota, R. Fukuda, 
 J. Hasegawa, M. Ishida, T. Nakajima, Y. Honda, O. Kitao, H. Nakai, 
 T. Vreven, K. Throssell, J. A. Montgomery, Jr., J. E. Peralta, 
 F. Ogliaro, M. J. Bearpark, J. J. Heyd, E. N. Brothers, K. N. Kudin, 
 V. N. Staroverov, T. A. Keith, R. Kobayashi, J. Normand, 
 K. Raghavachari, A. P. Rendell, J. C. Burant, S. S. Iyengar, 
 J. Tomasi, M. Cossi, J. M. Millam, M. Klene, C. Adamo, R. Cammi, 
 J. W. Ochterski, R. L. Martin, K. Morokuma, O. Farkas, 
 J. B. Foresman, and D. J. Fox, Gaussian, Inc., Wallingford CT, 2016.
 
 ******************************************
 Gaussian 16:  ES64L-G16RevB.01 20-Dec-2017
                 4-Nov-2022 
 ******************************************
 %chk=./calculation/no_transfer_pubchem_sampling_5_b3lyp/53173244.chk
 %nprocshared=7
 Will use up to    7 processors via shared memory.
 %mem=6GB
 -----------------------------
 #p b3lyp/6-31g(d) opt SCF=XQC
 -----------------------------
 1/18=20,19=15,26=3,38=1/1,3;
 2/9=110,12=2,17=6,18=5,40=1/2;
 3/5=1,6=6,7=1,11=2,25=1,30=1,71=1,74=-5/1,2,3;
 4//1;
 5/5=2,8=3,13=1,38=5/2,8;
 6/7=2,8=2,9=2,10=2,28=1/1;
 7//1,2,3,16;
 1/18=20,19=15,26=3/3(2);
 2/9=110/2;
 99//99;
 2/9=110/2;
 3/5=1,6=6,7=1,11=2,25=1,30=1,71=1,74=-5/1,2,3;
 4/5=5,16=3,69=1/1;
 5/5=2,8=3,13=1,38=5/2,8;
 7//1,2,3,16;
 1/18=20,19=15,26=3/3(-5);
 2/9=110/2;
 6/7=2,8=2,9=2,10=2,19=2,28=1/1;
 99/9=1/99;
 Leave Link    1 at Fri Nov  4 21:07:04 2022, MaxMem=   805306368 cpu:               0.9 elap:               0.2
 (Enter /home/wykgroup/appl/g16/l101.exe)
 ------------------------------
 Gaussian input prepared by ASE
 ------------------------------
 Symbolic Z-matrix:
 Charge =  0 Multiplicity = 1
 C                     6.36565   0.70756   1.09099 
 C                     4.9206    0.54251   0.74277 
 C                     3.93585   0.88548   1.66278 
 C                     2.59608   0.74331   1.36754 
 C                     2.22192   0.24561   0.12131 
 C                     0.82369   0.09339  -0.19661 
 N                    -0.19284   0.3759    0.57134 
 C                    -1.26709   0.05183  -0.1992 
 C                    -2.63677   0.20126   0.24796 
 C                    -2.89883   0.71      1.55356 
 C                    -4.1755    0.85892   1.99486 
 C                    -5.2355    0.5014    1.13864 
 N                    -6.5384    0.53646   1.29192 
 N                    -7.09651   0.08364   0.16881 
 C                    -6.16674  -0.23641  -0.69024 
 C                    -6.36973  -0.77648  -2.05256 
 N                    -4.93537   0.00522  -0.13694 
 C                    -3.6674   -0.14431  -0.57935 
 N                    -0.92622  -0.40631  -1.38011 
 O                     0.43093  -0.38391  -1.39007 
 C                     3.2011   -0.10119  -0.80814 
 C                     4.54524   0.04179  -0.51105 
 C                     5.58271  -0.33599  -1.52209 
 H                     6.85257   1.38626   0.39145 
 H                     6.47849   1.10524   2.09592 
 H                     6.88427  -0.24898   1.035 
 H                     4.22889   1.27119   2.62843 
 H                     1.8312    1.00857   2.07922 
 H                    -2.05249   0.96849   2.1687 
 H                    -4.41469   1.23933   2.97328 
 H                    -5.90217  -1.7564   -2.14955 
 H                    -7.43572  -0.86882  -2.23464 
 H                    -5.9341   -0.11032  -2.79736 
 H                    -3.50886  -0.53231  -1.57307 
 H                     2.89777  -0.48587  -1.77068 
 H                     6.23633  -1.11345  -1.1282 
 H                     6.20461   0.5228   -1.77214 
 H                     5.11706  -0.7033   -2.43248 
 
 ITRead=  0  0  0  0  0  0  0  0  0  0  0  0  0  0  0  0  0  0  0  0
 ITRead=  0  0  0  0  0  0  0  0  0  0  0  0  0  0  0  0  0  0
 MicOpt= -1 -1 -1 -1 -1 -1 -1 -1 -1 -1 -1 -1 -1 -1 -1 -1 -1 -1 -1 -1
 MicOpt= -1 -1 -1 -1 -1 -1 -1 -1 -1 -1 -1 -1 -1 -1 -1 -1 -1 -1
 NAtoms=     38 NQM=       38 NQMF=       0 NMMI=      0 NMMIF=      0
                NMic=       0 NMicF=      0.
                    Isotopes and Nuclear Properties:
 (Nuclear quadrupole moments (NQMom) in fm**2, nuclear magnetic moments (NMagM)
  in nuclear magnetons)

  Atom         1           2           3           4           5           6           7           8           9          10
 IAtWgt=          12          12          12          12          12          12          14          12          12          12
 AtmWgt=  12.0000000  12.0000000  12.0000000  12.0000000  12.0000000  12.0000000  14.0030740  12.0000000  12.0000000  12.0000000
 NucSpn=           0           0           0           0           0           0           2           0           0           0
 AtZEff=  -0.0000000  -0.0000000  -0.0000000  -0.0000000  -0.0000000  -0.0000000  -0.0000000  -0.0000000  -0.0000000  -0.0000000
 NQMom=    0.0000000   0.0000000   0.0000000   0.0000000   0.0000000   0.0000000   2.0440000   0.0000000   0.0000000   0.0000000
 NMagM=    0.0000000   0.0000000   0.0000000   0.0000000   0.0000000   0.0000000   0.4037610   0.0000000   0.0000000   0.0000000
 AtZNuc=   6.0000000   6.0000000   6.0000000   6.0000000   6.0000000   6.0000000   7.0000000   6.0000000   6.0000000   6.0000000

  Atom        11          12          13          14          15          16          17          18          19          20
 IAtWgt=          12          12          14          14          12          12          14          12          14          16
 AtmWgt=  12.0000000  12.0000000  14.0030740  14.0030740  12.0000000  12.0000000  14.0030740  12.0000000  14.0030740  15.9949146
 NucSpn=           0           0           2           2           0           0           2           0           2           0
 AtZEff=  -0.0000000  -0.0000000  -0.0000000  -0.0000000  -0.0000000  -0.0000000  -0.0000000  -0.0000000  -0.0000000  -0.0000000
 NQMom=    0.0000000   0.0000000   2.0440000   2.0440000   0.0000000   0.0000000   2.0440000   0.0000000   2.0440000   0.0000000
 NMagM=    0.0000000   0.0000000   0.4037610   0.4037610   0.0000000   0.0000000   0.4037610   0.0000000   0.4037610   0.0000000
 AtZNuc=   6.0000000   6.0000000   7.0000000   7.0000000   6.0000000   6.0000000   7.0000000   6.0000000   7.0000000   8.0000000

  Atom        21          22          23          24          25          26          27          28          29          30
 IAtWgt=          12          12          12           1           1           1           1           1           1           1
 AtmWgt=  12.0000000  12.0000000  12.0000000   1.0078250   1.0078250   1.0078250   1.0078250   1.0078250   1.0078250   1.0078250
 NucSpn=           0           0           0           1           1           1           1           1           1           1
 AtZEff=  -0.0000000  -0.0000000  -0.0000000  -0.0000000  -0.0000000  -0.0000000  -0.0000000  -0.0000000  -0.0000000  -0.0000000
 NQMom=    0.0000000   0.0000000   0.0000000   0.0000000   0.0000000   0.0000000   0.0000000   0.0000000   0.0000000   0.0000000
 NMagM=    0.0000000   0.0000000   0.0000000   2.7928460   2.7928460   2.7928460   2.7928460   2.7928460   2.7928460   2.7928460
 AtZNuc=   6.0000000   6.0000000   6.0000000   1.0000000   1.0000000   1.0000000   1.0000000   1.0000000   1.0000000   1.0000000

  Atom        31          32          33          34          35          36          37          38
 IAtWgt=           1           1           1           1           1           1           1           1
 AtmWgt=   1.0078250   1.0078250   1.0078250   1.0078250   1.0078250   1.0078250   1.0078250   1.0078250
 NucSpn=           1           1           1           1           1           1           1           1
 AtZEff=  -0.0000000  -0.0000000  -0.0000000  -0.0000000  -0.0000000  -0.0000000  -0.0000000  -0.0000000
 NQMom=    0.0000000   0.0000000   0.0000000   0.0000000   0.0000000   0.0000000   0.0000000   0.0000000
 NMagM=    2.7928460   2.7928460   2.7928460   2.7928460   2.7928460   2.7928460   2.7928460   2.7928460
 AtZNuc=   1.0000000   1.0000000   1.0000000   1.0000000   1.0000000   1.0000000   1.0000000   1.0000000
 Leave Link  101 at Fri Nov  4 21:07:05 2022, MaxMem=   805306368 cpu:               2.4 elap:               0.4
 (Enter /home/wykgroup/appl/g16/l103.exe)

 GradGradGradGradGradGradGradGradGradGradGradGradGradGradGradGradGradGrad
 Berny optimization.
 Initialization pass.
                           ----------------------------
                           !    Initial Parameters    !
                           ! (Angstroms and Degrees)  !
 --------------------------                            --------------------------
 ! Name  Definition              Value          Derivative Info.                !
 --------------------------------------------------------------------------------
 ! R1    R(1,2)                  1.4956         estimate D2E/DX2                !
 ! R2    R(1,24)                 1.0895         estimate D2E/DX2                !
 ! R3    R(1,25)                 1.0866         estimate D2E/DX2                !
 ! R4    R(1,26)                 1.0895         estimate D2E/DX2                !
 ! R5    R(2,3)                  1.3906         estimate D2E/DX2                !
 ! R6    R(2,22)                 1.4013         estimate D2E/DX2                !
 ! R7    R(3,4)                  1.3793         estimate D2E/DX2                !
 ! R8    R(3,27)                 1.0803         estimate D2E/DX2                !
 ! R9    R(4,5)                  1.3931         estimate D2E/DX2                !
 ! R10   R(4,28)                 1.0779         estimate D2E/DX2                !
 ! R11   R(5,6)                  1.442          estimate D2E/DX2                !
 ! R12   R(5,21)                 1.3939         estimate D2E/DX2                !
 ! R13   R(6,7)                  1.3049         estimate D2E/DX2                !
 ! R14   R(6,20)                 1.344          estimate D2E/DX2                !
 ! R15   R(7,8)                  1.3612         estimate D2E/DX2                !
 ! R16   R(8,9)                  1.4485         estimate D2E/DX2                !
 ! R17   R(8,19)                 1.3117         estimate D2E/DX2                !
 ! R18   R(9,10)                 1.4255         estimate D2E/DX2                !
 ! R19   R(9,18)                 1.366          estimate D2E/DX2                !
 ! R20   R(10,11)                1.359          estimate D2E/DX2                !
 ! R21   R(10,29)                1.0777         estimate D2E/DX2                !
 ! R22   R(11,12)                1.4087         estimate D2E/DX2                !
 ! R23   R(11,30)                1.0767         estimate D2E/DX2                !
 ! R24   R(12,13)                1.3124         estimate D2E/DX2                !
 ! R25   R(12,17)                1.4012         estimate D2E/DX2                !
 ! R26   R(13,14)                1.3334         estimate D2E/DX2                !
 ! R27   R(14,15)                1.3057         estimate D2E/DX2                !
 ! R28   R(15,16)                1.4795         estimate D2E/DX2                !
 ! R29   R(15,17)                1.3714         estimate D2E/DX2                !
 ! R30   R(16,31)                1.0901         estimate D2E/DX2                !
 ! R31   R(16,32)                1.0854         estimate D2E/DX2                !
 ! R32   R(16,33)                1.0901         estimate D2E/DX2                !
 ! R33   R(17,18)                1.3512         estimate D2E/DX2                !
 ! R34   R(18,34)                1.0785         estimate D2E/DX2                !
 ! R35   R(19,20)                1.3574         estimate D2E/DX2                !
 ! R36   R(21,22)                1.384          estimate D2E/DX2                !
 ! R37   R(21,35)                1.08           estimate D2E/DX2                !
 ! R38   R(22,23)                1.4971         estimate D2E/DX2                !
 ! R39   R(23,36)                1.0894         estimate D2E/DX2                !
 ! R40   R(23,37)                1.0894         estimate D2E/DX2                !
 ! R41   R(23,38)                1.0865         estimate D2E/DX2                !
 ! A1    A(2,1,24)             110.5525         estimate D2E/DX2                !
 ! A2    A(2,1,25)             110.8583         estimate D2E/DX2                !
 ! A3    A(2,1,26)             110.5524         estimate D2E/DX2                !
 ! A4    A(24,1,25)            108.6269         estimate D2E/DX2                !
 ! A5    A(24,1,26)            107.5279         estimate D2E/DX2                !
 ! A6    A(25,1,26)            108.6269         estimate D2E/DX2                !
 ! A7    A(1,2,3)              120.1966         estimate D2E/DX2                !
 ! A8    A(1,2,22)             120.4363         estimate D2E/DX2                !
 ! A9    A(3,2,22)             119.367          estimate D2E/DX2                !
 ! A10   A(2,3,4)              121.3876         estimate D2E/DX2                !
 ! A11   A(2,3,27)             119.1656         estimate D2E/DX2                !
 ! A12   A(4,3,27)             119.4468         estimate D2E/DX2                !
 ! A13   A(3,4,5)              119.2879         estimate D2E/DX2                !
 ! A14   A(3,4,28)             121.5055         estimate D2E/DX2                !
 ! A15   A(5,4,28)             119.2066         estimate D2E/DX2                !
 ! A16   A(4,5,6)              119.694          estimate D2E/DX2                !
 ! A17   A(4,5,21)             119.7824         estimate D2E/DX2                !
 ! A18   A(6,5,21)             120.5237         estimate D2E/DX2                !
 ! A19   A(5,6,7)              127.0669         estimate D2E/DX2                !
 ! A20   A(5,6,20)             121.1058         estimate D2E/DX2                !
 ! A21   A(7,6,20)             111.8273         estimate D2E/DX2                !
 ! A22   A(6,7,8)              103.3032         estimate D2E/DX2                !
 ! A23   A(7,8,9)              123.157          estimate D2E/DX2                !
 ! A24   A(7,8,19)             112.8108         estimate D2E/DX2                !
 ! A25   A(9,8,19)             124.0322         estimate D2E/DX2                !
 ! A26   A(8,9,10)             119.5627         estimate D2E/DX2                !
 ! A27   A(8,9,18)             120.022          estimate D2E/DX2                !
 ! A28   A(10,9,18)            120.4153         estimate D2E/DX2                !
 ! A29   A(9,10,11)            120.6124         estimate D2E/DX2                !
 ! A30   A(9,10,29)            117.6445         estimate D2E/DX2                !
 ! A31   A(11,10,29)           121.7431         estimate D2E/DX2                !
 ! A32   A(10,11,12)           118.7965         estimate D2E/DX2                !
 ! A33   A(10,11,30)           122.8545         estimate D2E/DX2                !
 ! A34   A(12,11,30)           118.3491         estimate D2E/DX2                !
 ! A35   A(11,12,13)           132.0097         estimate D2E/DX2                !
 ! A36   A(11,12,17)           118.8161         estimate D2E/DX2                !
 ! A37   A(13,12,17)           109.1743         estimate D2E/DX2                !
 ! A38   A(12,13,14)           107.9447         estimate D2E/DX2                !
 ! A39   A(13,14,15)           109.8375         estimate D2E/DX2                !
 ! A40   A(14,15,16)           126.6983         estimate D2E/DX2                !
 ! A41   A(14,15,17)           109.3133         estimate D2E/DX2                !
 ! A42   A(16,15,17)           123.9884         estimate D2E/DX2                !
 ! A43   A(15,16,31)           110.5627         estimate D2E/DX2                !
 ! A44   A(15,16,32)           108.6804         estimate D2E/DX2                !
 ! A45   A(15,16,33)           110.5627         estimate D2E/DX2                !
 ! A46   A(31,16,32)           109.2611         estimate D2E/DX2                !
 ! A47   A(31,16,33)           108.4908         estimate D2E/DX2                !
 ! A48   A(32,16,33)           109.2611         estimate D2E/DX2                !
 ! A49   A(12,17,15)           103.7302         estimate D2E/DX2                !
 ! A50   A(12,17,18)           122.5642         estimate D2E/DX2                !
 ! A51   A(15,17,18)           133.7056         estimate D2E/DX2                !
 ! A52   A(9,18,17)            118.7957         estimate D2E/DX2                !
 ! A53   A(9,18,34)            122.556          estimate D2E/DX2                !
 ! A54   A(17,18,34)           118.6484         estimate D2E/DX2                !
 ! A55   A(8,19,20)            105.1097         estimate D2E/DX2                !
 ! A56   A(6,20,19)            106.949          estimate D2E/DX2                !
 ! A57   A(5,21,22)            120.8918         estimate D2E/DX2                !
 ! A58   A(5,21,35)            119.0509         estimate D2E/DX2                !
 ! A59   A(22,21,35)           120.0572         estimate D2E/DX2                !
 ! A60   A(2,22,21)            119.2832         estimate D2E/DX2                !
 ! A61   A(2,22,23)            120.5839         estimate D2E/DX2                !
 ! A62   A(21,22,23)           120.1328         estimate D2E/DX2                !
 ! A63   A(22,23,36)           110.591          estimate D2E/DX2                !
 ! A64   A(22,23,37)           110.591          estimate D2E/DX2                !
 ! A65   A(22,23,38)           110.743          estimate D2E/DX2                !
 ! A66   A(36,23,37)           107.6413         estimate D2E/DX2                !
 ! A67   A(36,23,38)           108.5915         estimate D2E/DX2                !
 ! A68   A(37,23,38)           108.5915         estimate D2E/DX2                !
 ! D1    D(24,1,2,3)          -120.5241         estimate D2E/DX2                !
 ! D2    D(24,1,2,22)           59.4759         estimate D2E/DX2                !
 ! D3    D(25,1,2,3)            -0.0001         estimate D2E/DX2                !
 ! D4    D(25,1,2,22)          179.9999         estimate D2E/DX2                !
 ! D5    D(26,1,2,3)           120.5238         estimate D2E/DX2                !
 ! D6    D(26,1,2,22)          -59.4761         estimate D2E/DX2                !
 ! D7    D(1,2,3,4)           -180.0            estimate D2E/DX2                !
 ! D8    D(1,2,3,27)             0.0            estimate D2E/DX2                !
 ! D9    D(22,2,3,4)             0.0            estimate D2E/DX2                !
 ! D10   D(22,2,3,27)          180.0            estimate D2E/DX2                !
 ! D11   D(1,2,22,21)          180.0            estimate D2E/DX2                !
 ! D12   D(1,2,22,23)            0.0            estimate D2E/DX2                !
 ! D13   D(3,2,22,21)            0.0            estimate D2E/DX2                !
 ! D14   D(3,2,22,23)         -180.0            estimate D2E/DX2                !
 ! D15   D(2,3,4,5)              0.0            estimate D2E/DX2                !
 ! D16   D(2,3,4,28)           180.0            estimate D2E/DX2                !
 ! D17   D(27,3,4,5)           180.0            estimate D2E/DX2                !
 ! D18   D(27,3,4,28)            0.0            estimate D2E/DX2                !
 ! D19   D(3,4,5,6)            180.0            estimate D2E/DX2                !
 ! D20   D(3,4,5,21)             0.0            estimate D2E/DX2                !
 ! D21   D(28,4,5,6)             0.0            estimate D2E/DX2                !
 ! D22   D(28,4,5,21)          180.0            estimate D2E/DX2                !
 ! D23   D(4,5,6,7)              0.0            estimate D2E/DX2                !
 ! D24   D(4,5,6,20)           179.9999         estimate D2E/DX2                !
 ! D25   D(21,5,6,7)          -180.0            estimate D2E/DX2                !
 ! D26   D(21,5,6,20)           -0.0001         estimate D2E/DX2                !
 ! D27   D(4,5,21,22)            0.0            estimate D2E/DX2                !
 ! D28   D(4,5,21,35)          180.0            estimate D2E/DX2                !
 ! D29   D(6,5,21,22)         -180.0            estimate D2E/DX2                !
 ! D30   D(6,5,21,35)            0.0            estimate D2E/DX2                !
 ! D31   D(5,6,7,8)            180.0            estimate D2E/DX2                !
 ! D32   D(20,6,7,8)             0.0001         estimate D2E/DX2                !
 ! D33   D(5,6,20,19)          179.9998         estimate D2E/DX2                !
 ! D34   D(7,6,20,19)           -0.0003         estimate D2E/DX2                !
 ! D35   D(6,7,8,9)            180.0            estimate D2E/DX2                !
 ! D36   D(6,7,8,19)             0.0002         estimate D2E/DX2                !
 ! D37   D(7,8,9,10)             0.0            estimate D2E/DX2                !
 ! D38   D(7,8,9,18)          -179.9999         estimate D2E/DX2                !
 ! D39   D(19,8,9,10)          179.9998         estimate D2E/DX2                !
 ! D40   D(19,8,9,18)           -0.0002         estimate D2E/DX2                !
 ! D41   D(7,8,19,20)           -0.0004         estimate D2E/DX2                !
 ! D42   D(9,8,19,20)          179.9998         estimate D2E/DX2                !
 ! D43   D(8,9,10,11)         -180.0            estimate D2E/DX2                !
 ! D44   D(8,9,10,29)            0.0            estimate D2E/DX2                !
 ! D45   D(18,9,10,11)           0.0            estimate D2E/DX2                !
 ! D46   D(18,9,10,29)        -180.0            estimate D2E/DX2                !
 ! D47   D(8,9,18,17)          179.9999         estimate D2E/DX2                !
 ! D48   D(8,9,18,34)            0.0            estimate D2E/DX2                !
 ! D49   D(10,9,18,17)           0.0            estimate D2E/DX2                !
 ! D50   D(10,9,18,34)         180.0            estimate D2E/DX2                !
 ! D51   D(9,10,11,12)           0.0            estimate D2E/DX2                !
 ! D52   D(9,10,11,30)        -180.0            estimate D2E/DX2                !
 ! D53   D(29,10,11,12)       -180.0            estimate D2E/DX2                !
 ! D54   D(29,10,11,30)          0.0            estimate D2E/DX2                !
 ! D55   D(10,11,12,13)        179.9999         estimate D2E/DX2                !
 ! D56   D(10,11,12,17)          0.0            estimate D2E/DX2                !
 ! D57   D(30,11,12,13)         -0.0001         estimate D2E/DX2                !
 ! D58   D(30,11,12,17)        180.0            estimate D2E/DX2                !
 ! D59   D(11,12,13,14)       -180.0            estimate D2E/DX2                !
 ! D60   D(17,12,13,14)          0.0            estimate D2E/DX2                !
 ! D61   D(11,12,17,15)        180.0            estimate D2E/DX2                !
 ! D62   D(11,12,17,18)          0.0            estimate D2E/DX2                !
 ! D63   D(13,12,17,15)          0.0            estimate D2E/DX2                !
 ! D64   D(13,12,17,18)       -180.0            estimate D2E/DX2                !
 ! D65   D(12,13,14,15)          0.0            estimate D2E/DX2                !
 ! D66   D(13,14,15,16)       -180.0            estimate D2E/DX2                !
 ! D67   D(13,14,15,17)          0.0            estimate D2E/DX2                !
 ! D68   D(14,15,16,31)       -119.9177         estimate D2E/DX2                !
 ! D69   D(14,15,16,32)         -0.0007         estimate D2E/DX2                !
 ! D70   D(14,15,16,33)        119.9163         estimate D2E/DX2                !
 ! D71   D(17,15,16,31)         60.0823         estimate D2E/DX2                !
 ! D72   D(17,15,16,32)        179.9994         estimate D2E/DX2                !
 ! D73   D(17,15,16,33)        -60.0837         estimate D2E/DX2                !
 ! D74   D(14,15,17,12)          0.0            estimate D2E/DX2                !
 ! D75   D(14,15,17,18)        180.0            estimate D2E/DX2                !
 ! D76   D(16,15,17,12)        180.0            estimate D2E/DX2                !
 ! D77   D(16,15,17,18)         -0.0001         estimate D2E/DX2                !
 ! D78   D(12,17,18,9)           0.0            estimate D2E/DX2                !
 ! D79   D(12,17,18,34)        180.0            estimate D2E/DX2                !
 ! D80   D(15,17,18,9)        -179.9999         estimate D2E/DX2                !
 ! D81   D(15,17,18,34)          0.0            estimate D2E/DX2                !
 ! D82   D(8,19,20,6)            0.0004         estimate D2E/DX2                !
 ! D83   D(5,21,22,2)            0.0            estimate D2E/DX2                !
 ! D84   D(5,21,22,23)         180.0            estimate D2E/DX2                !
 ! D85   D(35,21,22,2)         180.0            estimate D2E/DX2                !
 ! D86   D(35,21,22,23)          0.0            estimate D2E/DX2                !
 ! D87   D(2,22,23,36)          59.5712         estimate D2E/DX2                !
 ! D88   D(2,22,23,37)         -59.5711         estimate D2E/DX2                !
 ! D89   D(2,22,23,38)        -180.0            estimate D2E/DX2                !
 ! D90   D(21,22,23,36)       -120.4288         estimate D2E/DX2                !
 ! D91   D(21,22,23,37)        120.4289         estimate D2E/DX2                !
 ! D92   D(21,22,23,38)          0.0001         estimate D2E/DX2                !
 --------------------------------------------------------------------------------
 Trust Radius=3.00D-01 FncErr=1.00D-07 GrdErr=1.00D-06 EigMax=2.50D+02 EigMin=1.00D-04
 Number of steps in this run=    211 maximum allowed number of steps=    228.
 GradGradGradGradGradGradGradGradGradGradGradGradGradGradGradGradGradGrad

 Leave Link  103 at Fri Nov  4 21:07:05 2022, MaxMem=   805306368 cpu:               0.3 elap:               0.1
 (Enter /home/wykgroup/appl/g16/l202.exe)
                          Input orientation:                          
 ---------------------------------------------------------------------
 Center     Atomic      Atomic             Coordinates (Angstroms)
 Number     Number       Type             X           Y           Z
 ---------------------------------------------------------------------
      1          6           0        6.365652    0.707563    1.090993
      2          6           0        4.920598    0.542506    0.742774
      3          6           0        3.935854    0.885482    1.662782
      4          6           0        2.596076    0.743314    1.367536
      5          6           0        2.221918    0.245609    0.121307
      6          6           0        0.823686    0.093387   -0.196608
      7          7           0       -0.192835    0.375903    0.571337
      8          6           0       -1.267095    0.051833   -0.199202
      9          6           0       -2.636768    0.201260    0.247962
     10          6           0       -2.898835    0.709995    1.553561
     11          6           0       -4.175504    0.858915    1.994857
     12          6           0       -5.235499    0.501400    1.138639
     13          7           0       -6.538399    0.536463    1.291922
     14          7           0       -7.096511    0.083644    0.168813
     15          6           0       -6.166736   -0.236409   -0.690243
     16          6           0       -6.369734   -0.776484   -2.052564
     17          7           0       -4.935368    0.005219   -0.136936
     18          6           0       -3.667399   -0.144310   -0.579352
     19          7           0       -0.926219   -0.406307   -1.380108
     20          8           0        0.430929   -0.383909   -1.390068
     21          6           0        3.201096   -0.101188   -0.808138
     22          6           0        4.545241    0.041788   -0.511053
     23          6           0        5.582705   -0.335990   -1.522086
     24          1           0        6.852565    1.386259    0.391448
     25          1           0        6.478491    1.105238    2.095917
     26          1           0        6.884267   -0.248984    1.034997
     27          1           0        4.228888    1.271191    2.628426
     28          1           0        1.831196    1.008568    2.079221
     29          1           0       -2.052493    0.968489    2.168696
     30          1           0       -4.414687    1.239334    2.973279
     31          1           0       -5.902168   -1.756398   -2.149550
     32          1           0       -7.435722   -0.868819   -2.234638
     33          1           0       -5.934104   -0.110325   -2.797356
     34          1           0       -3.508858   -0.532313   -1.573072
     35          1           0        2.897770   -0.485875   -1.770678
     36          1           0        6.236331   -1.113447   -1.128201
     37          1           0        6.204610    0.522799   -1.772142
     38          1           0        5.117063   -0.703299   -2.432478
 ---------------------------------------------------------------------
                    Distance matrix (angstroms):
                    1          2          3          4          5
     1  C    0.000000
     2  C    1.495554   0.000000
     3  C    2.502502   1.390600   0.000000
     4  C    3.779875   2.415378   1.379270   0.000000
     5  C    4.280681   2.785183   2.392313   1.393123   0.000000
     6  C    5.722633   4.227155   3.710841   2.451596   1.441976
     7  N    6.587397   5.119018   4.300814   2.923517   2.459784
     8  C    7.768746   6.278186   5.588616   4.225743   3.509057
     9  C    9.055971   7.581231   6.757901   5.378655   4.860538
    10  C    9.276028   7.863139   6.837813   5.498160   5.337519
    11  C   10.580920   9.187323   8.118196   6.801559   6.694277
    12  C   11.603081  10.163893   9.194344   7.838654   7.530834
    13  N   12.906750  11.472149  10.486626   9.137130   8.842968
    14  N   13.508128  12.039555  11.161898   9.788685   9.319957
    15  C   12.693489  11.206660  10.433489   9.054347   8.441592
    16  C   13.201304  11.705778  11.080211   9.715587   8.921147
    17  N   11.389212   9.909724   9.094637   7.715625   7.165976
    18  C   10.206755   8.716273   7.993566   6.618865   5.943653
    19  N    7.779360   6.292229   5.879426   4.612780   3.548240
    20  O    6.524409   5.056123   4.818272   3.682781   2.426558
    21  C    3.778252   2.403405   2.760223   2.410973   1.393889
    22  C    2.514698   1.401318   2.410131   2.796511   2.416454
    23  C    2.920649   2.517883   3.787809   4.293572   3.786013
    24  H    1.089531   2.137252   3.220912   4.414048   4.776710
    25  H    1.086623   2.138854   2.588610   3.966695   4.770374
    26  H    1.089531   2.137252   3.220910   4.414047   4.776709
    27  H    2.692051   2.136616   1.080328   2.129453   3.371260
    28  H    4.650644   3.398192   2.148990   1.077913   2.137334
    29  H    8.490860   7.130128   6.010253   4.722474   4.794262
    30  H   10.956345   9.623319   8.460151   7.209387   7.291485
    31  H   12.925620  11.436029  10.876584   9.530930   8.669809
    32  H   14.283653  12.788099  12.148259  10.780149  10.003121
    33  H   12.925641  11.436051  10.876605   9.530950   8.669831
    34  H   10.302450   8.807616   8.240426   6.895261   6.026431
    35  H    4.651845   3.386272   3.840168   3.383831   2.138096
    36  H    2.873608   2.823806   4.132493   4.788289   4.418576
    37  H    2.873607   2.823806   4.132493   4.788290   4.418577
    38  H    3.995541   3.416556   4.548696   4.784158   3.975439
                    6          7          8          9         10
     6  C    0.000000
     7  N    1.304941   0.000000
     8  C    2.091195   1.361170   0.000000
     9  C    3.490561   2.471412   1.448547   0.000000
    10  C    4.159382   2.898071   2.483532   1.425510   0.000000
    11  C    5.511847   4.256920   3.731504   2.419062   1.358972
    12  C    6.217965   5.076026   4.211907   2.763475   2.382368
    13  N    7.524116   6.388364   5.499542   4.052769   3.653081
    14  N    7.928628   6.921573   5.841108   4.461996   4.464340
    15  C    7.015586   6.136286   4.932615   3.678649   4.075478
    16  C    7.479742   6.809327   5.491629   4.492599   5.221197
    17  N    5.760037   4.809435   3.669097   2.338833   2.738970
    18  C    4.513627   3.696931   2.438123   1.366041   2.422777
    19  N    2.170837   2.226620   1.311727   2.438386   3.707257
    20  O    1.344029   2.193970   2.119273   3.526518   4.576997
    21  C    2.462501   3.694501   4.512089   5.940326   6.591267
    22  C    3.735172   4.871608   5.820704   7.223765   7.753927
    23  C    4.958782   6.184341   6.987144   8.425048   9.082412
    24  H    6.193926   7.119751   8.249754   9.564113   9.843660
    25  H    6.185171   6.882069   8.146861   9.344520   9.401309
    26  H    6.193925   7.119750   8.249753   9.564112   9.843659
    27  H    4.578585   4.958306   6.299852   7.344971   7.230125
    28  H    2.651798   2.602054   3.963074   4.895708   4.768506
    29  H    3.825294   2.522111   2.657828   2.149241   1.077731
    30  H    6.229120   4.933444   4.624082   3.415545   2.143270
    31  H    7.243811   6.674310   5.343918   4.499259   5.368067
    32  H    8.561380   7.866526   6.560683   5.508025   6.117717
    33  H    7.243832   6.674329   5.343938   4.499275   5.368078
    34  H    4.588800   4.052079   2.693371   2.148216   3.419253
    35  H    2.667408   3.972347   4.483834   5.931119   6.788321
    36  H    5.623259   6.814746   7.649988   9.074919   9.693711
    37  H    5.623260   6.814747   7.649989   9.074920   9.693712
    38  H    4.905804   6.195370   6.805529   8.253780   9.063141
                   11         12         13         14         15
    11  C    0.000000
    12  C    1.408729   0.000000
    13  N    2.486235   1.312354   0.000000
    14  N    3.530972   2.139730   1.333382   0.000000
    15  C    3.517741   2.180911   2.159732   1.305715   0.000000
    16  C    4.885774   3.619841   3.596924   2.490490   1.479462
    17  N    2.418829   1.401202   2.212140   2.184072   1.371423
    18  C    2.809125   2.413995   3.493960   3.517175   2.503491
    19  N    4.852734   5.073254   6.286901   6.380572   5.288459
    20  O    5.849920   6.267898   7.524074   7.701368   6.636317
    21  C    7.949391   8.679240   9.983718  10.345497   9.369550
    22  C    9.110361   9.929532  11.240217  11.661661  10.717087
    23  C   10.441233  11.172029  12.474012  12.798349  11.779272
    24  H   11.156493  12.143417  13.448083  14.011534  13.164548
    25  H   10.657322  11.768542  13.054093  13.749112  13.017853
    26  H   11.156492  12.143416  13.448081  14.011533  13.164547
    27  H    8.438317   9.611799  10.874766  11.650091  11.016144
    28  H    6.009157   7.147034   8.419789   9.176551   8.554929
    29  H    2.132933   3.377975   4.591158   5.497690   5.152893
    30  H    1.076678   2.141071   2.798418   4.048806   4.320751
    31  H    5.195896   4.044043   4.183985   3.191710   2.123662
    32  H    5.612728   4.254113   3.900850   2.607456   2.096527
    33  H    5.195903   4.044046   4.183981   3.191703   2.123662
    34  H    3.887165   3.376866   4.304485   4.035445   2.816250
    35  H    8.125204   8.694189   9.973264  10.196648   9.132079
    36  H   11.047625  11.804625  13.106217  13.449161  12.441747
    37  H   11.047626  11.804627  13.106218  13.449163  12.441749
    38  H   10.411226  11.017247  12.298698  12.512290  11.427052
                   16         17         18         19         20
    16  C    0.000000
    17  N    2.517558   0.000000
    18  C    3.142072   1.351235   0.000000
    19  N    5.497371   4.217594   2.867737   0.000000
    20  O    6.844124   5.524392   4.184610   1.357370   0.000000
    21  C    9.674989   8.164795   6.872440   4.177916   2.844714
    22  C   11.053619   9.488057   8.215032   5.558140   4.228646
    23  C   11.972312  10.614373   9.299995   6.510852   5.153690
    24  H   13.619099  11.880312  10.674958   8.176869   6.895266
    25  H   13.631862  11.682117  10.566812   8.318489   7.137412
    26  H   13.619098  11.880311  10.674958   8.176868   6.895267
    27  H   11.765859   9.655750   8.639724   6.742216   5.771667
    28  H    9.354855   7.190580   6.215439   4.644584   3.991955
    29  H    6.285104   3.815074   3.376094   3.968950   4.545456
    30  H    5.757155   3.386383   3.885112   5.816315   6.719651
    31  H    1.090072   2.844048   3.171521   5.212951   6.524467
    32  H    1.085361   3.378767   4.179132   6.581624   7.926704
    33  H    1.090072   2.844057   3.171537   5.212975   6.524489
    34  H    2.911039   2.094363   1.078499   2.592901   3.946826
    35  H    9.276344   8.016754   6.681121   3.844707   2.498113
    36  H   12.644400  11.271240   9.966159   7.201779   5.856918
    37  H   12.644402  11.271242   9.966160   7.201782   5.856919
    38  H   11.493312  10.335516   8.995183   6.141413   4.811287
                   21         22         23         24         25
    21  C    0.000000
    22  C    1.383989   0.000000
    23  C    2.497382   1.497076   0.000000
    24  H    4.121253   2.818839   2.870592   0.000000
    25  H    4.542061   3.415359   3.996188   1.767518   0.000000
    26  H    4.121254   2.818840   2.870594   1.757606   1.767518
    27  H    3.840540   3.386419   4.652161   3.449782   2.317719
    28  H    3.383050   3.874303   5.371319   5.310874   4.648331
    29  H    6.132369   7.181220   8.580198   9.090281   8.532391
    30  H    8.607919   9.687879  11.074196  11.560208  10.929277
    31  H    9.349253  10.726905  11.589374  13.379693  13.397525
    32  H   10.759464  12.138510  13.048796  14.701594  14.705643
    33  H    9.349276  10.726928  11.589397  13.262999  13.397546
    34  H    6.767162   8.144076   9.093825  10.719111  10.765231
    35  H    1.080034   2.139916   2.700581   4.880581   5.504885
    36  H    3.215549   2.138978   1.089409   2.989583   3.921242
    37  H    3.215550   2.138978   1.089409   2.417959   3.921240
    38  H    2.583011   2.138693   1.086531   3.918261   5.062672
                   26         27         28         29         30
    26  H    0.000000
    27  H    3.449779   0.000000
    28  H    5.310872   2.473767   0.000000
    29  H    9.090280   6.305453   3.884927   0.000000
    30  H   11.560207   8.650511   6.313767   2.510114   0.000000
    31  H   13.262977  11.603174   9.237557   6.394705   6.118038
    32  H   14.701591  12.817651  10.392773   7.193344   6.379135
    33  H   13.379715  11.603194   9.237576   6.394717   6.118042
    34  H   10.719111   8.987654   6.650543   4.286517   4.962717
    35  H    4.880582   4.920495   4.265286   6.491452   8.885579
    36  H    2.417963   4.881451   5.847710   9.160163  11.653407
    37  H    2.989584   4.881451   5.847711   9.160164  11.653408
    38  H    3.918264   5.504563   5.838051   8.681487  11.128805
                   31         32         33         34         35
    31  H    0.000000
    32  H    1.773929   0.000000
    33  H    1.769246   1.773929   0.000000
    34  H    2.749299   3.996395   2.749321   0.000000
    35  H    8.899253  10.350989   8.899276   6.409843   0.000000
    36  H   12.198348  13.718931  12.325251   9.772631   3.457254
    37  H   12.325229  13.718935  12.198373   9.772633   3.457256
    38  H   11.073055  12.555436  11.073078   8.670313   2.326051
                   36         37         38
    36  H    0.000000
    37  H    1.758684   0.000000
    38  H    1.766952   1.766952   0.000000
 Stoichiometry    C17H15N5O
 Framework group  C1[X(C17H15N5O)]
 Deg. of freedom   108
 Full point group                 C1      NOp   1
 Largest Abelian subgroup         C1      NOp   1
 Largest concise Abelian subgroup C1      NOp   1
                         Standard orientation:                         
 ---------------------------------------------------------------------
 Center     Atomic      Atomic             Coordinates (Angstroms)
 Number     Number       Type             X           Y           Z
 ---------------------------------------------------------------------
      1          6           0        7.051869   -1.017548   -0.000001
      2          6           0        5.599397   -0.661165   -0.000000
      3          6           0        4.633710   -1.661774   -0.000001
      4          6           0        3.287631   -1.361014   -0.000001
      5          6           0        2.887466   -0.026601    0.000000
      6          6           0        1.482453    0.297797    0.000000
      7          7           0        0.481817   -0.539817    0.000001
      8          6           0       -0.608616    0.274884    0.000002
      9          6           0       -1.969127   -0.222408    0.000002
     10          6           0       -2.204022   -1.628432    0.000002
     11          6           0       -3.471641   -2.118275    0.000001
     12          6           0       -4.549594   -1.211339    0.000000
     13          7           0       -5.849447   -1.392048   -0.000002
     14          7           0       -6.431020   -0.192182   -0.000002
     15          6           0       -5.519039    0.742260   -0.000001
     16          6           0       -5.750443    2.203513   -0.000001
     17          7           0       -4.276004    0.162894    0.000001
     18          6           0       -3.017110    0.653833    0.000002
     19          7           0       -0.292306    1.547902   -0.000003
     20          8           0        1.064788    1.575283    0.000003
     21          6           0        3.847390    0.984078    0.000000
     22          6           0        5.197875    0.681397   -0.000000
     23          6           0        6.214392    1.780456   -0.000000
     24          1           0        7.546819   -0.605470    0.878801
     25          1           0        7.185657   -2.095903    0.000000
     26          1           0        7.546817   -0.605473   -0.878805
     27          1           0        4.946896   -2.695709   -0.000001
     28          1           0        2.537492   -2.135087   -0.000001
     29          1           0       -1.344770   -2.278962    0.000002
     30          1           0       -3.690466   -3.172482    0.000001
     31          1           0       -5.307551    2.661288   -0.884617
     32          1           0       -6.820344    2.386045   -0.000014
     33          1           0       -5.307574    2.661284    0.884629
     34          1           0       -2.879255    1.723486    0.000002
     35          1           0        3.523976    2.014553    0.000001
     36          1           0        6.853726    1.711027   -0.879343
     37          1           0        6.853728    1.711026    0.879341
     38          1           0        5.729731    2.752903    0.000001
 ---------------------------------------------------------------------
 Rotational constants (GHZ):           1.0376846           0.0897486           0.0827311
 Leave Link  202 at Fri Nov  4 21:07:05 2022, MaxMem=   805306368 cpu:               0.5 elap:               0.1
 (Enter /home/wykgroup/appl/g16/l301.exe)
 Standard basis: 6-31G(d) (6D, 7F)
 Ernie: Thresh=  0.10000D-02 Tol=  0.10000D-05 Strict=F.
 There are   375 symmetry adapted cartesian basis functions of A   symmetry.
 There are   375 symmetry adapted basis functions of A   symmetry.
   375 basis functions,   704 primitive gaussians,   375 cartesian basis functions
    80 alpha electrons       80 beta electrons
       nuclear repulsion energy      1712.4514257933 Hartrees.
 IExCor=  402 DFT=T Ex+Corr=B3LYP ExCW=0 ScaHFX=  0.200000
 ScaDFX=  0.800000  0.720000  1.000000  0.810000 ScalE2=  1.000000  1.000000
 IRadAn=      5 IRanWt=     -1 IRanGd=            0 ICorTp=0 IEmpDi=  4
 NAtoms=   38 NActive=   38 NUniq=   38 SFac= 1.00D+00 NAtFMM=   60 NAOKFM=F Big=F
 Integral buffers will be    131072 words long.
 Raffenetti 2 integral format.
 Two-electron integral symmetry is turned on.
 Leave Link  301 at Fri Nov  4 21:07:05 2022, MaxMem=   805306368 cpu:               0.6 elap:               0.1
 (Enter /home/wykgroup/appl/g16/l302.exe)
 NPDir=0 NMtPBC=     1 NCelOv=     1 NCel=       1 NClECP=     1 NCelD=      1
         NCelK=      1 NCelE2=     1 NClLst=     1 CellRange=     0.0.
 One-electron integrals computed using PRISM.
 One-electron integral symmetry used in STVInt
 NBasis=   375 RedAO= T EigKep=  3.46D-04  NBF=   375
 NBsUse=   375 1.00D-06 EigRej= -1.00D+00 NBFU=   375
 Precomputing XC quadrature grid using
 IXCGrd= 4 IRadAn=           5 IRanWt=          -1 IRanGd=           0 AccXCQ= 0.00D+00.
 Generated NRdTot=       0 NPtTot=           0 NUsed=           0 NTot=          32
 NSgBfM=   367   367   367   367   367 MxSgAt=    38 MxSgA2=    38.
 Leave Link  302 at Fri Nov  4 21:07:05 2022, MaxMem=   805306368 cpu:               3.7 elap:               0.6
 (Enter /home/wykgroup/appl/g16/l303.exe)
 DipDrv:  MaxL=1.
 Leave Link  303 at Fri Nov  4 21:07:06 2022, MaxMem=   805306368 cpu:               1.0 elap:               0.2
 (Enter /home/wykgroup/appl/g16/l401.exe)
 ExpMin= 1.61D-01 ExpMax= 5.48D+03 ExpMxC= 8.25D+02 IAcc=3 IRadAn=         5 AccDes= 0.00D+00
 Harris functional with IExCor=  402 and IRadAn=       5 diagonalized for initial guess.
 HarFok:  IExCor=  402 AccDes= 0.00D+00 IRadAn=         5 IDoV= 1 UseB2=F ITyADJ=14
 ICtDFT=  3500011 ScaDFX=  1.000000  1.000000  1.000000  1.000000
 FoFCou: FMM=F IPFlag=           0 FMFlag=      100000 FMFlg1=           0
         NFxFlg=           0 DoJE=T BraDBF=F KetDBF=T FulRan=T
         wScrn=  0.000000 ICntrl=       500 IOpCl=  0 I1Cent=   200000004 NGrid=           0
         NMat0=    1 NMatS0=      1 NMatT0=    0 NMatD0=    1 NMtDS0=    0 NMtDT0=    0
 Petite list used in FoFCou.
 Harris En= -1005.74183191112    
 JPrj=0 DoOrth=F DoCkMO=F.
 Leave Link  401 at Fri Nov  4 21:07:08 2022, MaxMem=   805306368 cpu:              14.4 elap:               2.1
 (Enter /home/wykgroup/appl/g16/l502.exe)
 Integral symmetry usage will be decided dynamically.
 Closed shell SCF:
 Using DIIS extrapolation, IDIIS=  1040.
 NGot=   805306368 LenX=   805018402 LenY=   804877336
 Requested convergence on RMS density matrix=1.00D-08 within  32 cycles.
 Requested convergence on MAX density matrix=1.00D-06.
 Requested convergence on             energy=1.00D-06.
 No special actions if energy rises.
 Fock matrices will be formed incrementally for  20 cycles.
 Integral accuracy reduced to 1.0D-05 until final iterations.

 Cycle   1  Pass 0  IDiag  1:
 FoFJK:  IHMeth= 1 ICntrl=       0 DoSepK=F KAlg= 0 I1Cent=           0 FoldK=F
 IRaf= 630000000 NMat=       1 IRICut=       1 DoRegI=T DoRafI=F ISym2E= 0 IDoP0=0 IntGTp=1.
 FoFCou: FMM=F IPFlag=           0 FMFlag=      100000 FMFlg1=           0
         NFxFlg=           0 DoJE=F BraDBF=F KetDBF=F FulRan=T
         wScrn=  0.000000 ICntrl=         0 IOpCl=  0 I1Cent=           0 NGrid=           0
         NMat0=    1 NMatS0=      1 NMatT0=    0 NMatD0=    1 NMtDS0=    0 NMtDT0=    0
 Symmetry not used in FoFCou.
 E= -1005.32998914211    
 DIIS: error= 5.05D-02 at cycle   1 NSaved=   1.
 NSaved= 1 IEnMin= 1 EnMin= -1005.32998914211     IErMin= 1 ErrMin= 5.05D-02
 ErrMax= 5.05D-02  0.00D+00 EMaxC= 1.00D-01 BMatC= 4.56D-01 BMatP= 4.56D-01
 IDIUse=3 WtCom= 4.95D-01 WtEn= 5.05D-01
 Coeff-Com:  0.100D+01
 Coeff-En:   0.100D+01
 Coeff:      0.100D+01
 Gap=     0.194 Goal=   None    Shift=    0.000
 GapD=    0.194 DampG=1.000 DampE=0.500 DampFc=0.5000 IDamp=-1.
 Damping current iteration by 5.00D-01
 RMSDP=4.41D-03 MaxDP=1.34D-01              OVMax= 2.23D-01

 Cycle   2  Pass 0  IDiag  1:
 RMSU=  2.16D-03    CP:  9.75D-01
 E= -1005.51246968368     Delta-E=       -0.182480541576 Rises=F Damp=T
 DIIS: error= 1.04D-02 at cycle   2 NSaved=   2.
 NSaved= 2 IEnMin= 2 EnMin= -1005.51246968368     IErMin= 2 ErrMin= 1.04D-02
 ErrMax= 1.04D-02  0.00D+00 EMaxC= 1.00D-01 BMatC= 5.10D-02 BMatP= 4.56D-01
 IDIUse=3 WtCom= 8.96D-01 WtEn= 1.04D-01
 Coeff-Com:  0.102D+00 0.898D+00
 Coeff-En:   0.182D+00 0.818D+00
 Coeff:      0.110D+00 0.890D+00
 Gap=     0.213 Goal=   None    Shift=    0.000
 RMSDP=1.66D-03 MaxDP=5.85D-02 DE=-1.82D-01 OVMax= 2.35D-01

 Cycle   3  Pass 0  IDiag  1:
 RMSU=  1.57D-03    CP:  9.57D-01  8.14D-01
 E= -1005.72015422018     Delta-E=       -0.207684536497 Rises=F Damp=F
 DIIS: error= 1.71D-02 at cycle   3 NSaved=   3.
 NSaved= 3 IEnMin= 3 EnMin= -1005.72015422018     IErMin= 2 ErrMin= 1.04D-02
 ErrMax= 1.71D-02  0.00D+00 EMaxC= 1.00D-01 BMatC= 7.50D-02 BMatP= 5.10D-02
 IDIUse=2 WtCom= 0.00D+00 WtEn= 1.00D+00
 Coeff-En:   0.000D+00 0.000D+00 0.100D+01
 Coeff:      0.000D+00 0.000D+00 0.100D+01
 Gap=     0.158 Goal=   None    Shift=    0.000
 RMSDP=2.41D-03 MaxDP=1.10D-01 DE=-2.08D-01 OVMax= 2.14D-01

 Cycle   4  Pass 0  IDiag  1:
 RMSU=  1.35D-03    CP:  9.63D-01  1.31D+00 -6.75D-02
 E= -1005.41871453466     Delta-E=        0.301439685517 Rises=F Damp=F
 DIIS: error= 3.85D-02 at cycle   4 NSaved=   4.
 NSaved= 4 IEnMin= 3 EnMin= -1005.72015422018     IErMin= 2 ErrMin= 1.04D-02
 ErrMax= 3.85D-02  0.00D+00 EMaxC= 1.00D-01 BMatC= 3.99D-01 BMatP= 5.10D-02
 IDIUse=2 WtCom= 0.00D+00 WtEn= 1.00D+00
 Coeff-En:   0.000D+00 0.000D+00 0.783D+00 0.217D+00
 Coeff:      0.000D+00 0.000D+00 0.783D+00 0.217D+00
 Gap=     0.157 Goal=   None    Shift=    0.000
 RMSDP=1.23D-03 MaxDP=5.23D-02 DE= 3.01D-01 OVMax= 1.07D-01

 Cycle   5  Pass 0  IDiag  1:
 RMSU=  2.17D-04    CP:  9.61D-01  1.03D+00  4.41D-01  4.94D-01
 E= -1005.76360886661     Delta-E=       -0.344894331949 Rises=F Damp=F
 DIIS: error= 1.05D-02 at cycle   5 NSaved=   5.
 NSaved= 5 IEnMin= 5 EnMin= -1005.76360886661     IErMin= 2 ErrMin= 1.04D-02
 ErrMax= 1.05D-02  0.00D+00 EMaxC= 1.00D-01 BMatC= 2.95D-02 BMatP= 5.10D-02
 IDIUse=3 WtCom= 8.95D-01 WtEn= 1.05D-01
 Coeff-Com:  0.152D-02 0.124D-01 0.305D+00-0.779D-01 0.758D+00
 Coeff-En:   0.000D+00 0.000D+00 0.331D+00 0.000D+00 0.669D+00
 Coeff:      0.136D-02 0.111D-01 0.308D+00-0.697D-01 0.749D+00
 Gap=     0.152 Goal=   None    Shift=    0.000
 RMSDP=4.87D-04 MaxDP=2.42D-02 DE=-3.45D-01 OVMax= 4.90D-02

 Cycle   6  Pass 0  IDiag  1:
 RMSU=  6.91D-05    CP:  9.60D-01  9.34D-01  6.59D-01  3.03D-01  7.16D-01
 E= -1005.79115906838     Delta-E=       -0.027550201765 Rises=F Damp=F
 DIIS: error= 5.29D-04 at cycle   6 NSaved=   6.
 NSaved= 6 IEnMin= 6 EnMin= -1005.79115906838     IErMin= 6 ErrMin= 5.29D-04
 ErrMax= 5.29D-04  0.00D+00 EMaxC= 1.00D-01 BMatC= 1.86D-04 BMatP= 2.95D-02
 IDIUse=3 WtCom= 9.95D-01 WtEn= 5.29D-03
 Coeff-Com: -0.812D-03 0.362D-02 0.140D+00-0.632D-01 0.460D+00 0.460D+00
 Coeff-En:   0.000D+00 0.000D+00 0.000D+00 0.000D+00 0.000D+00 0.100D+01
 Coeff:     -0.808D-03 0.360D-02 0.139D+00-0.629D-01 0.458D+00 0.463D+00
 Gap=     0.150 Goal=   None    Shift=    0.000
 RMSDP=4.67D-05 MaxDP=2.49D-03 DE=-2.76D-02 OVMax= 6.59D-03

 Cycle   7  Pass 0  IDiag  1:
 RMSU=  2.19D-05    CP:  9.60D-01  9.40D-01  6.49D-01  3.02D-01  8.07D-01
                    CP:  5.62D-01
 E= -1005.79133851077     Delta-E=       -0.000179442396 Rises=F Damp=F
 DIIS: error= 2.04D-04 at cycle   7 NSaved=   7.
 NSaved= 7 IEnMin= 7 EnMin= -1005.79133851077     IErMin= 7 ErrMin= 2.04D-04
 ErrMax= 2.04D-04  0.00D+00 EMaxC= 1.00D-01 BMatC= 9.43D-06 BMatP= 1.86D-04
 IDIUse=3 WtCom= 9.98D-01 WtEn= 2.04D-03
 Coeff-Com: -0.635D-03 0.181D-02 0.561D-01-0.311D-01 0.204D+00 0.253D+00
 Coeff-Com:  0.517D+00
 Coeff-En:   0.000D+00 0.000D+00 0.000D+00 0.000D+00 0.000D+00 0.000D+00
 Coeff-En:   0.100D+01
 Coeff:     -0.634D-03 0.181D-02 0.560D-01-0.311D-01 0.203D+00 0.252D+00
 Coeff:      0.518D+00
 Gap=     0.151 Goal=   None    Shift=    0.000
 RMSDP=1.11D-05 MaxDP=3.88D-04 DE=-1.79D-04 OVMax= 9.98D-04

 Cycle   8  Pass 0  IDiag  1:
 RMSU=  6.41D-06    CP:  9.60D-01  9.39D-01  6.51D-01  3.03D-01  8.09D-01
                    CP:  5.94D-01  6.22D-01
 E= -1005.79134707911     Delta-E=       -0.000008568333 Rises=F Damp=F
 DIIS: error= 4.79D-05 at cycle   8 NSaved=   8.
 NSaved= 8 IEnMin= 8 EnMin= -1005.79134707911     IErMin= 8 ErrMin= 4.79D-05
 ErrMax= 4.79D-05  0.00D+00 EMaxC= 1.00D-01 BMatC= 9.23D-07 BMatP= 9.43D-06
 IDIUse=1 WtCom= 1.00D+00 WtEn= 0.00D+00
 Coeff-Com: -0.978D-04 0.414D-04 0.101D-01-0.662D-02 0.390D-01 0.652D-01
 Coeff-Com:  0.266D+00 0.626D+00
 Coeff:     -0.978D-04 0.414D-04 0.101D-01-0.662D-02 0.390D-01 0.652D-01
 Coeff:      0.266D+00 0.626D+00
 Gap=     0.151 Goal=   None    Shift=    0.000
 RMSDP=3.66D-06 MaxDP=1.70D-04 DE=-8.57D-06 OVMax= 4.83D-04

 Initial convergence to 1.0D-05 achieved.  Increase integral accuracy.
 Cycle   9  Pass 1  IDiag  1:
 E= -1005.79131126273     Delta-E=        0.000035816382 Rises=F Damp=F
 DIIS: error= 4.26D-05 at cycle   1 NSaved=   1.
 NSaved= 1 IEnMin= 1 EnMin= -1005.79131126273     IErMin= 1 ErrMin= 4.26D-05
 ErrMax= 4.26D-05  0.00D+00 EMaxC= 1.00D-01 BMatC= 6.85D-07 BMatP= 6.85D-07
 IDIUse=1 WtCom= 1.00D+00 WtEn= 0.00D+00
 Coeff-Com:  0.100D+01
 Coeff:      0.100D+01
 Gap=     0.151 Goal=   None    Shift=    0.000
 RMSDP=3.66D-06 MaxDP=1.70D-04 DE= 3.58D-05 OVMax= 2.91D-04

 Cycle  10  Pass 1  IDiag  1:
 RMSU=  3.02D-05    CP:  1.00D+00
 E= -1005.79131141566     Delta-E=       -0.000000152933 Rises=F Damp=F
 DIIS: error= 4.36D-05 at cycle   2 NSaved=   2.
 NSaved= 2 IEnMin= 2 EnMin= -1005.79131141566     IErMin= 1 ErrMin= 4.26D-05
 ErrMax= 4.36D-05  0.00D+00 EMaxC= 1.00D-01 BMatC= 4.63D-07 BMatP= 6.85D-07
 IDIUse=1 WtCom= 1.00D+00 WtEn= 0.00D+00
 Coeff-Com:  0.432D+00 0.568D+00
 Coeff:      0.432D+00 0.568D+00
 Gap=     0.151 Goal=   None    Shift=    0.000
 RMSDP=3.38D-06 MaxDP=1.34D-04 DE=-1.53D-07 OVMax= 3.67D-04

 Cycle  11  Pass 1  IDiag  1:
 RMSU=  3.37D-06    CP:  1.00D+00  9.89D-01
 E= -1005.79131165966     Delta-E=       -0.000000243997 Rises=F Damp=F
 DIIS: error= 3.14D-05 at cycle   3 NSaved=   3.
 NSaved= 3 IEnMin= 3 EnMin= -1005.79131165966     IErMin= 3 ErrMin= 3.14D-05
 ErrMax= 3.14D-05  0.00D+00 EMaxC= 1.00D-01 BMatC= 2.21D-07 BMatP= 4.63D-07
 IDIUse=1 WtCom= 1.00D+00 WtEn= 0.00D+00
 Coeff-Com:  0.220D-01 0.405D+00 0.573D+00
 Coeff:      0.220D-01 0.405D+00 0.573D+00
 Gap=     0.151 Goal=   None    Shift=    0.000
 RMSDP=1.55D-06 MaxDP=6.55D-05 DE=-2.44D-07 OVMax= 1.56D-04

 Cycle  12  Pass 1  IDiag  1:
 RMSU=  4.90D-07    CP:  1.00D+00  1.00D+00  5.76D-01
 E= -1005.79131187915     Delta-E=       -0.000000219491 Rises=F Damp=F
 DIIS: error= 6.65D-06 at cycle   4 NSaved=   4.
 NSaved= 4 IEnMin= 4 EnMin= -1005.79131187915     IErMin= 4 ErrMin= 6.65D-06
 ErrMax= 6.65D-06  0.00D+00 EMaxC= 1.00D-01 BMatC= 1.10D-08 BMatP= 2.21D-07
 IDIUse=1 WtCom= 1.00D+00 WtEn= 0.00D+00
 Coeff-Com: -0.199D-02 0.226D+00 0.348D+00 0.428D+00
 Coeff:     -0.199D-02 0.226D+00 0.348D+00 0.428D+00
 Gap=     0.151 Goal=   None    Shift=    0.000
 RMSDP=2.94D-07 MaxDP=1.64D-05 DE=-2.19D-07 OVMax= 2.63D-05

 Cycle  13  Pass 1  IDiag  1:
 RMSU=  1.39D-07    CP:  1.00D+00  1.00D+00  5.97D-01  4.94D-01
 E= -1005.79131188850     Delta-E=       -0.000000009351 Rises=F Damp=F
 DIIS: error= 1.51D-06 at cycle   5 NSaved=   5.
 NSaved= 5 IEnMin= 5 EnMin= -1005.79131188850     IErMin= 5 ErrMin= 1.51D-06
 ErrMax= 1.51D-06  0.00D+00 EMaxC= 1.00D-01 BMatC= 6.71D-10 BMatP= 1.10D-08
 IDIUse=1 WtCom= 1.00D+00 WtEn= 0.00D+00
 Coeff-Com: -0.228D-02 0.128D+00 0.199D+00 0.277D+00 0.398D+00
 Coeff:     -0.228D-02 0.128D+00 0.199D+00 0.277D+00 0.398D+00
 Gap=     0.151 Goal=   None    Shift=    0.000
 RMSDP=8.24D-08 MaxDP=4.33D-06 DE=-9.35D-09 OVMax= 9.48D-06

 Cycle  14  Pass 1  IDiag  1:
 RMSU=  4.56D-08    CP:  1.00D+00  1.00D+00  5.97D-01  5.01D-01  5.06D-01
 E= -1005.79131188909     Delta-E=       -0.000000000594 Rises=F Damp=F
 DIIS: error= 2.40D-07 at cycle   6 NSaved=   6.
 NSaved= 6 IEnMin= 6 EnMin= -1005.79131188909     IErMin= 6 ErrMin= 2.40D-07
 ErrMax= 2.40D-07  0.00D+00 EMaxC= 1.00D-01 BMatC= 2.61D-11 BMatP= 6.71D-10
 IDIUse=1 WtCom= 1.00D+00 WtEn= 0.00D+00
 Coeff-Com: -0.126D-02 0.642D-01 0.100D+00 0.143D+00 0.242D+00 0.452D+00
 Coeff:     -0.126D-02 0.642D-01 0.100D+00 0.143D+00 0.242D+00 0.452D+00
 Gap=     0.151 Goal=   None    Shift=    0.000
 RMSDP=1.86D-08 MaxDP=8.10D-07 DE=-5.94D-10 OVMax= 1.68D-06

 Cycle  15  Pass 1  IDiag  1:
 RMSU=  1.48D-08    CP:  1.00D+00  1.00D+00  5.96D-01  4.93D-01  5.39D-01
                    CP:  8.13D-01
 E= -1005.79131188912     Delta-E=       -0.000000000029 Rises=F Damp=F
 DIIS: error= 7.82D-08 at cycle   7 NSaved=   7.
 NSaved= 7 IEnMin= 7 EnMin= -1005.79131188912     IErMin= 7 ErrMin= 7.82D-08
 ErrMax= 7.82D-08  0.00D+00 EMaxC= 1.00D-01 BMatC= 1.98D-12 BMatP= 2.61D-11
 IDIUse=1 WtCom= 1.00D+00 WtEn= 0.00D+00
 Coeff-Com: -0.176D-03 0.665D-02 0.105D-01 0.171D-01 0.419D-01 0.224D+00
 Coeff-Com:  0.700D+00
 Coeff:     -0.176D-03 0.665D-02 0.105D-01 0.171D-01 0.419D-01 0.224D+00
 Coeff:      0.700D+00
 Gap=     0.151 Goal=   None    Shift=    0.000
 RMSDP=6.92D-09 MaxDP=3.18D-07 DE=-2.91D-11 OVMax= 7.16D-07

 SCF Done:  E(RB3LYP) =  -1005.79131189     A.U. after   15 cycles
            NFock= 15  Conv=0.69D-08     -V/T= 2.0085
 KE= 9.973392946626D+02 PE=-5.760345082903D+03 EE= 2.044763050558D+03
 Leave Link  502 at Fri Nov  4 21:07:49 2022, MaxMem=   805306368 cpu:             289.2 elap:              41.5
 (Enter /home/wykgroup/appl/g16/l508.exe)
 QCSCF skips out because SCF is already converged.
 Leave Link  508 at Fri Nov  4 21:07:49 2022, MaxMem=   805306368 cpu:               0.1 elap:               0.0
 (Enter /home/wykgroup/appl/g16/l601.exe)
 Copying SCF densities to generalized density rwf, IOpCl= 0 IROHF=0.

 **********************************************************************

            Population analysis using the SCF Density.

 **********************************************************************

 Orbital symmetries:
       Occupied  (A) (A) (A) (A) (A) (A) (A) (A) (A) (A) (A) (A)
                 (A) (A) (A) (A) (A) (A) (A) (A) (A) (A) (A) (A)
                 (A) (A) (A) (A) (A) (A) (A) (A) (A) (A) (A) (A)
                 (A) (A) (A) (A) (A) (A) (A) (A) (A) (A) (A) (A)
                 (A) (A) (A) (A) (A) (A) (A) (A) (A) (A) (A) (A)
                 (A) (A) (A) (A) (A) (A) (A) (A) (A) (A) (A) (A)
                 (A) (A) (A) (A) (A) (A) (A) (A)
       Virtual   (A) (A) (A) (A) (A) (A) (A) (A) (A) (A) (A) (A)
                 (A) (A) (A) (A) (A) (A) (A) (A) (A) (A) (A) (A)
                 (A) (A) (A) (A) (A) (A) (A) (A) (A) (A) (A) (A)
                 (A) (A) (A) (A) (A) (A) (A) (A) (A) (A) (A) (A)
                 (A) (A) (A) (A) (A) (A) (A) (A) (A) (A) (A) (A)
                 (A) (A) (A) (A) (A) (A) (A) (A) (A) (A) (A) (A)
                 (A) (A) (A) (A) (A) (A) (A) (A) (A) (A) (A) (A)
                 (A) (A) (A) (A) (A) (A) (A) (A) (A) (A) (A) (A)
                 (A) (A) (A) (A) (A) (A) (A) (A) (A) (A) (A) (A)
                 (A) (A) (A) (A) (A) (A) (A) (A) (A) (A) (A) (A)
                 (A) (A) (A) (A) (A) (A) (A) (A) (A) (A) (A) (A)
                 (A) (A) (A) (A) (A) (A) (A) (A) (A) (A) (A) (A)
                 (A) (A) (A) (A) (A) (A) (A) (A) (A) (A) (A) (A)
                 (A) (A) (A) (A) (A) (A) (A) (A) (A) (A) (A) (A)
                 (A) (A) (A) (A) (A) (A) (A) (A) (A) (A) (A) (A)
                 (A) (A) (A) (A) (A) (A) (A) (A) (A) (A) (A) (A)
                 (A) (A) (A) (A) (A) (A) (A) (A) (A) (A) (A) (A)
                 (A) (A) (A) (A) (A) (A) (A) (A) (A) (A) (A) (A)
                 (A) (A) (A) (A) (A) (A) (A) (A) (A) (A) (A) (A)
                 (A) (A) (A) (A) (A) (A) (A) (A) (A) (A) (A) (A)
                 (A) (A) (A) (A) (A) (A) (A) (A) (A) (A) (A) (A)
                 (A) (A) (A) (A) (A) (A) (A) (A) (A) (A) (A) (A)
                 (A) (A) (A) (A) (A) (A) (A) (A) (A) (A) (A) (A)
                 (A) (A) (A) (A) (A) (A) (A) (A) (A) (A) (A) (A)
                 (A) (A) (A) (A) (A) (A) (A)
 The electronic state is 1-A.
 Alpha  occ. eigenvalues --  -19.25913 -14.42254 -14.38988 -14.34477 -14.34001
 Alpha  occ. eigenvalues --  -14.32942 -10.30013 -10.26565 -10.25624 -10.25014
 Alpha  occ. eigenvalues --  -10.24732 -10.22490 -10.21710 -10.21164 -10.21149
 Alpha  occ. eigenvalues --  -10.21033 -10.20873 -10.20433 -10.20367 -10.20023
 Alpha  occ. eigenvalues --  -10.19991 -10.19532 -10.19403  -1.19026  -1.07826
 Alpha  occ. eigenvalues --   -0.96363  -0.95258  -0.90042  -0.87423  -0.85506
 Alpha  occ. eigenvalues --   -0.81358  -0.80145  -0.78437  -0.77849  -0.72656
 Alpha  occ. eigenvalues --   -0.72219  -0.70498  -0.69626  -0.66009  -0.63747
 Alpha  occ. eigenvalues --   -0.63227  -0.61376  -0.60092  -0.58725  -0.54514
 Alpha  occ. eigenvalues --   -0.53472  -0.51749  -0.51006  -0.49759  -0.49011
 Alpha  occ. eigenvalues --   -0.48485  -0.47871  -0.46687  -0.46451  -0.45397
 Alpha  occ. eigenvalues --   -0.43720  -0.43019  -0.42733  -0.42183  -0.41872
 Alpha  occ. eigenvalues --   -0.41700  -0.40827  -0.40326  -0.40180  -0.38680
 Alpha  occ. eigenvalues --   -0.38090  -0.37774  -0.36188  -0.35395  -0.34571
 Alpha  occ. eigenvalues --   -0.33772  -0.32756  -0.31387  -0.31180  -0.30027
 Alpha  occ. eigenvalues --   -0.26668  -0.26047  -0.24320  -0.24126  -0.21744
 Alpha virt. eigenvalues --   -0.06687  -0.04828  -0.02382  -0.01101   0.03657
 Alpha virt. eigenvalues --    0.05618   0.08065   0.08149   0.08885   0.09473
 Alpha virt. eigenvalues --    0.11023   0.11689   0.12132   0.12378   0.14070
 Alpha virt. eigenvalues --    0.14285   0.15511   0.15722   0.16226   0.16254
 Alpha virt. eigenvalues --    0.16797   0.17089   0.18144   0.18779   0.20260
 Alpha virt. eigenvalues --    0.20786   0.21951   0.22548   0.23216   0.24246
 Alpha virt. eigenvalues --    0.24464   0.25184   0.27342   0.28529   0.29556
 Alpha virt. eigenvalues --    0.30540   0.31036   0.31832   0.33015   0.33287
 Alpha virt. eigenvalues --    0.35968   0.38021   0.40914   0.41990   0.43214
 Alpha virt. eigenvalues --    0.45170   0.45759   0.47162   0.47986   0.47999
 Alpha virt. eigenvalues --    0.49111   0.49768   0.50811   0.51651   0.52114
 Alpha virt. eigenvalues --    0.52484   0.53230   0.53639   0.53768   0.54814
 Alpha virt. eigenvalues --    0.55052   0.55869   0.57282   0.57649   0.57766
 Alpha virt. eigenvalues --    0.58073   0.58352   0.58558   0.60152   0.60534
 Alpha virt. eigenvalues --    0.61745   0.62482   0.62766   0.63575   0.64744
 Alpha virt. eigenvalues --    0.64893   0.65874   0.66169   0.66930   0.68169
 Alpha virt. eigenvalues --    0.68782   0.70721   0.71950   0.72073   0.72461
 Alpha virt. eigenvalues --    0.72606   0.75578   0.75580   0.76085   0.76848
 Alpha virt. eigenvalues --    0.77071   0.78053   0.78512   0.79096   0.80327
 Alpha virt. eigenvalues --    0.80526   0.80829   0.81081   0.82079   0.83206
 Alpha virt. eigenvalues --    0.84040   0.84810   0.85562   0.86728   0.87081
 Alpha virt. eigenvalues --    0.87854   0.88528   0.89207   0.89629   0.90492
 Alpha virt. eigenvalues --    0.90810   0.90969   0.91687   0.92486   0.93736
 Alpha virt. eigenvalues --    0.94251   0.94669   0.95505   0.98135   0.98880
 Alpha virt. eigenvalues --    0.98896   0.99820   1.01136   1.02020   1.03871
 Alpha virt. eigenvalues --    1.04953   1.06872   1.09111   1.11615   1.12596
 Alpha virt. eigenvalues --    1.15320   1.17590   1.17905   1.19656   1.20681
 Alpha virt. eigenvalues --    1.21689   1.22186   1.23274   1.23297   1.26178
 Alpha virt. eigenvalues --    1.26408   1.29540   1.30609   1.31278   1.32308
 Alpha virt. eigenvalues --    1.33100   1.33330   1.35485   1.35967   1.36292
 Alpha virt. eigenvalues --    1.37339   1.38813   1.39832   1.40148   1.41415
 Alpha virt. eigenvalues --    1.42964   1.44259   1.44852   1.45891   1.46164
 Alpha virt. eigenvalues --    1.47030   1.47484   1.47633   1.51069   1.53130
 Alpha virt. eigenvalues --    1.53637   1.56962   1.57891   1.59555   1.66217
 Alpha virt. eigenvalues --    1.66656   1.68018   1.73112   1.76215   1.76567
 Alpha virt. eigenvalues --    1.76946   1.77980   1.81792   1.82498   1.83460
 Alpha virt. eigenvalues --    1.83910   1.84323   1.84699   1.85016   1.87039
 Alpha virt. eigenvalues --    1.87608   1.89027   1.90746   1.92266   1.92930
 Alpha virt. eigenvalues --    1.93554   1.94789   1.96436   1.96977   1.98452
 Alpha virt. eigenvalues --    1.99809   2.00726   2.00991   2.02680   2.04295
 Alpha virt. eigenvalues --    2.04933   2.08154   2.11388   2.13021   2.13364
 Alpha virt. eigenvalues --    2.14660   2.14845   2.16123   2.17523   2.18159
 Alpha virt. eigenvalues --    2.18825   2.19862   2.20169   2.22179   2.22389
 Alpha virt. eigenvalues --    2.23670   2.24483   2.24492   2.27470   2.27804
 Alpha virt. eigenvalues --    2.29309   2.29468   2.31800   2.32343   2.33388
 Alpha virt. eigenvalues --    2.34021   2.34531   2.35513   2.37328   2.38368
 Alpha virt. eigenvalues --    2.41252   2.42249   2.44520   2.45263   2.46266
 Alpha virt. eigenvalues --    2.49421   2.53443   2.54399   2.55254   2.56275
 Alpha virt. eigenvalues --    2.57823   2.60723   2.63371   2.65660   2.66523
 Alpha virt. eigenvalues --    2.67229   2.67877   2.68533   2.70625   2.71316
 Alpha virt. eigenvalues --    2.71564   2.74312   2.75513   2.78108   2.80065
 Alpha virt. eigenvalues --    2.83365   2.84015   2.86829   2.89894   2.92633
 Alpha virt. eigenvalues --    2.96289   2.98325   2.99628   3.01201   3.08463
 Alpha virt. eigenvalues --    3.10548   3.17003   3.18345   3.27840   3.34163
 Alpha virt. eigenvalues --    3.45861   3.48235   3.84748   3.89441   4.07209
 Alpha virt. eigenvalues --    4.07876   4.09041   4.09716   4.11104   4.16137
 Alpha virt. eigenvalues --    4.16842   4.20812   4.21957   4.23608   4.25754
 Alpha virt. eigenvalues --    4.29029   4.31517   4.35771   4.37648   4.43904
 Alpha virt. eigenvalues --    4.48758   4.51651   4.60375   4.75733   4.77549
          Condensed to atoms (all electrons):
               1          2          3          4          5          6
     1  C    5.242300   0.359979  -0.072429   0.009166  -0.000359  -0.000005
     2  C    0.359979   4.698215   0.533092  -0.034404  -0.031552   0.001887
     3  C   -0.072429   0.533092   5.010741   0.472672  -0.007528   0.006315
     4  C    0.009166  -0.034404   0.472672   5.033729   0.528418  -0.035312
     5  C   -0.000359  -0.031552  -0.007528   0.528418   4.811261   0.325172
     6  C   -0.000005   0.001887   0.006315  -0.035312   0.325172   4.658317
     7  N    0.000000   0.000005   0.000583  -0.011756  -0.065650   0.467908
     8  C   -0.000000   0.000001  -0.000001   0.000266   0.003695  -0.061573
     9  C   -0.000000   0.000000  -0.000000  -0.000013  -0.000446   0.003310
    10  C    0.000000  -0.000000   0.000000  -0.000004  -0.000002   0.000508
    11  C    0.000000  -0.000000   0.000000   0.000000  -0.000000  -0.000001
    12  C   -0.000000   0.000000  -0.000000   0.000000  -0.000000  -0.000000
    13  N    0.000000  -0.000000  -0.000000   0.000000  -0.000000  -0.000000
    14  N    0.000000   0.000000  -0.000000  -0.000000   0.000000   0.000000
    15  C    0.000000   0.000000   0.000000   0.000000   0.000000   0.000000
    16  C    0.000000  -0.000000   0.000000   0.000000  -0.000000  -0.000000
    17  N    0.000000  -0.000000  -0.000000   0.000000  -0.000000   0.000003
    18  C   -0.000000  -0.000000  -0.000000   0.000000   0.000000   0.000215
    19  N    0.000000  -0.000000   0.000003   0.000049   0.005002  -0.080883
    20  O    0.000000   0.000003  -0.000069   0.004416  -0.042448   0.225428
    21  C    0.010891  -0.018836  -0.069935  -0.083514   0.463476  -0.035855
    22  C   -0.075548   0.540017  -0.000120  -0.044880  -0.007852   0.004444
    23  C   -0.021989  -0.074662   0.009510   0.000585   0.006774  -0.000335
    24  H    0.361384  -0.025315   0.001017  -0.000235   0.000059   0.000000
    25  H    0.365475  -0.028757  -0.003735   0.000111   0.000016   0.000000
    26  H    0.361384  -0.025315   0.001017  -0.000235   0.000059   0.000000
    27  H   -0.011163  -0.037244   0.351364  -0.041918   0.003157  -0.000236
    28  H   -0.000179   0.003232  -0.040112   0.352554  -0.034203  -0.012600
    29  H   -0.000000   0.000000   0.000000   0.000001  -0.000047   0.000117
    30  H    0.000000  -0.000000  -0.000000  -0.000000   0.000000  -0.000000
    31  H    0.000000   0.000000   0.000000   0.000000  -0.000000  -0.000000
    32  H    0.000000   0.000000  -0.000000  -0.000000  -0.000000  -0.000000
    33  H    0.000000   0.000000   0.000000   0.000000  -0.000000  -0.000000
    34  H   -0.000000  -0.000000  -0.000000   0.000000  -0.000000   0.000077
    35  H   -0.000163   0.004983   0.000355   0.005378  -0.041846  -0.012058
    36  H    0.002451  -0.005897  -0.000145   0.000027  -0.000137   0.000004
    37  H    0.002451  -0.005897  -0.000145   0.000027  -0.000137   0.000004
    38  H    0.000253   0.004485  -0.000161  -0.000011   0.000131   0.000013
               7          8          9         10         11         12
     1  C    0.000000  -0.000000  -0.000000   0.000000   0.000000  -0.000000
     2  C    0.000005   0.000001   0.000000  -0.000000  -0.000000   0.000000
     3  C    0.000583  -0.000001  -0.000000   0.000000   0.000000  -0.000000
     4  C   -0.011756   0.000266  -0.000013  -0.000004   0.000000   0.000000
     5  C   -0.065650   0.003695  -0.000446  -0.000002  -0.000000  -0.000000
     6  C    0.467908  -0.061573   0.003310   0.000508  -0.000001  -0.000000
     7  N    7.021130   0.400629  -0.064426  -0.011959   0.000556  -0.000009
     8  C    0.400629   4.637464   0.338956  -0.019407   0.006767   0.000243
     9  C   -0.064426   0.338956   4.889430   0.449905  -0.008355  -0.021164
    10  C   -0.011959  -0.019407   0.449905   5.053160   0.495916  -0.008871
    11  C    0.000556   0.006767  -0.008355   0.495916   5.032281   0.437769
    12  C   -0.000009   0.000243  -0.021164  -0.008871   0.437769   4.576292
    13  N    0.000000  -0.000017  -0.000415   0.004566  -0.069183   0.410654
    14  N    0.000000   0.000003  -0.000713  -0.000275   0.008171  -0.108241
    15  C    0.000000  -0.000012   0.001486   0.000925   0.004228  -0.062505
    16  C   -0.000000  -0.000006   0.000207   0.000044  -0.000602   0.001615
    17  N   -0.000058   0.004155   0.012242  -0.035347  -0.021051   0.304322
    18  C    0.007755  -0.034908   0.492561  -0.106656  -0.039602  -0.029522
    19  N   -0.112473   0.389043  -0.078021   0.008244  -0.000134   0.000010
    20  O   -0.112230  -0.043704   0.008146   0.000022   0.000001   0.000000
    21  C    0.006904   0.000050   0.000001   0.000000  -0.000000   0.000000
    22  C   -0.000142   0.000006  -0.000000  -0.000000  -0.000000   0.000000
    23  C    0.000000  -0.000000  -0.000000   0.000000   0.000000  -0.000000
    24  H   -0.000000   0.000000   0.000000  -0.000000  -0.000000   0.000000
    25  H    0.000000   0.000000   0.000000   0.000000   0.000000   0.000000
    26  H   -0.000000   0.000000   0.000000  -0.000000  -0.000000   0.000000
    27  H   -0.000006  -0.000000   0.000000   0.000000  -0.000000  -0.000000
    28  H    0.013728   0.000110  -0.000041  -0.000007   0.000000   0.000000
    29  H    0.015980  -0.014192  -0.033104   0.357113  -0.042277   0.002807
    30  H   -0.000006  -0.000126   0.003361  -0.040244   0.362702  -0.036987
    31  H   -0.000000  -0.000000   0.000037  -0.000004   0.000003   0.000201
    32  H   -0.000000  -0.000000   0.000004   0.000000   0.000003   0.000180
    33  H   -0.000000  -0.000000   0.000037  -0.000004   0.000003   0.000201
    34  H    0.000163  -0.010123  -0.028233   0.004320   0.000224   0.001670
    35  H    0.000195   0.000061  -0.000000   0.000000  -0.000000   0.000000
    36  H   -0.000000   0.000000   0.000000  -0.000000  -0.000000   0.000000
    37  H   -0.000000   0.000000   0.000000  -0.000000  -0.000000   0.000000
    38  H    0.000000   0.000000   0.000000   0.000000   0.000000   0.000000
              13         14         15         16         17         18
     1  C    0.000000   0.000000   0.000000   0.000000   0.000000  -0.000000
     2  C   -0.000000   0.000000   0.000000  -0.000000  -0.000000  -0.000000
     3  C   -0.000000  -0.000000   0.000000   0.000000  -0.000000  -0.000000
     4  C    0.000000  -0.000000   0.000000   0.000000   0.000000   0.000000
     5  C   -0.000000   0.000000   0.000000  -0.000000  -0.000000   0.000000
     6  C   -0.000000   0.000000   0.000000  -0.000000   0.000003   0.000215
     7  N    0.000000   0.000000   0.000000  -0.000000  -0.000058   0.007755
     8  C   -0.000017   0.000003  -0.000012  -0.000006   0.004155  -0.034908
     9  C   -0.000415  -0.000713   0.001486   0.000207   0.012242   0.492561
    10  C    0.004566  -0.000275   0.000925   0.000044  -0.035347  -0.106656
    11  C   -0.069183   0.008171   0.004228  -0.000602  -0.021051  -0.039602
    12  C    0.410654  -0.108241  -0.062505   0.001615   0.304322  -0.029522
    13  N    6.936015   0.299018  -0.109266   0.009422  -0.097437   0.009563
    14  N    0.299018   6.777435   0.460673  -0.063694  -0.056893   0.007910
    15  C   -0.109266   0.460673   4.629348   0.371303   0.366366  -0.047770
    16  C    0.009422  -0.063694   0.371303   5.184113  -0.070242   0.002012
    17  N   -0.097437  -0.056893   0.366366  -0.070242   6.942995   0.234038
    18  C    0.009563   0.007910  -0.047770   0.002012   0.234038   5.098731
    19  N   -0.000000  -0.000000   0.000001  -0.000002   0.000271  -0.015238
    20  O    0.000000  -0.000000  -0.000000   0.000000  -0.000000  -0.000325
    21  C    0.000000  -0.000000  -0.000000   0.000000  -0.000000  -0.000000
    22  C    0.000000  -0.000000   0.000000  -0.000000  -0.000000  -0.000000
    23  C    0.000000   0.000000  -0.000000   0.000000   0.000000  -0.000000
    24  H    0.000000   0.000000   0.000000   0.000000  -0.000000   0.000000
    25  H    0.000000   0.000000   0.000000   0.000000   0.000000  -0.000000
    26  H    0.000000   0.000000   0.000000   0.000000  -0.000000   0.000000
    27  H    0.000000   0.000000  -0.000000  -0.000000   0.000000   0.000000
    28  H   -0.000000   0.000000   0.000000   0.000000   0.000000  -0.000000
    29  H   -0.000081   0.000004   0.000010  -0.000000  -0.000040   0.007036
    30  H   -0.000877  -0.000076   0.000005   0.000001   0.005081   0.000367
    31  H   -0.000158   0.000719  -0.030363   0.362545  -0.002138   0.001424
    32  H   -0.000074   0.004266  -0.024967   0.365404   0.003960  -0.000050
    33  H   -0.000158   0.000719  -0.030364   0.362545  -0.002138   0.001424
    34  H   -0.000238   0.000108  -0.003491   0.003502  -0.045131   0.355416
    35  H   -0.000000   0.000000   0.000000  -0.000000  -0.000000  -0.000000
    36  H    0.000000   0.000000   0.000000   0.000000  -0.000000   0.000000
    37  H    0.000000   0.000000   0.000000   0.000000  -0.000000   0.000000
    38  H    0.000000   0.000000   0.000000  -0.000000  -0.000000  -0.000000
              19         20         21         22         23         24
     1  C    0.000000   0.000000   0.010891  -0.075548  -0.021989   0.361384
     2  C   -0.000000   0.000003  -0.018836   0.540017  -0.074662  -0.025315
     3  C    0.000003  -0.000069  -0.069935  -0.000120   0.009510   0.001017
     4  C    0.000049   0.004416  -0.083514  -0.044880   0.000585  -0.000235
     5  C    0.005002  -0.042448   0.463476  -0.007852   0.006774   0.000059
     6  C   -0.080883   0.225428  -0.035855   0.004444  -0.000335   0.000000
     7  N   -0.112473  -0.112230   0.006904  -0.000142   0.000000  -0.000000
     8  C    0.389043  -0.043704   0.000050   0.000006  -0.000000   0.000000
     9  C   -0.078021   0.008146   0.000001  -0.000000  -0.000000   0.000000
    10  C    0.008244   0.000022   0.000000  -0.000000   0.000000  -0.000000
    11  C   -0.000134   0.000001  -0.000000  -0.000000   0.000000  -0.000000
    12  C    0.000010   0.000000   0.000000   0.000000  -0.000000   0.000000
    13  N   -0.000000   0.000000   0.000000   0.000000   0.000000   0.000000
    14  N   -0.000000  -0.000000  -0.000000  -0.000000   0.000000   0.000000
    15  C    0.000001  -0.000000  -0.000000   0.000000  -0.000000   0.000000
    16  C   -0.000002   0.000000   0.000000  -0.000000   0.000000   0.000000
    17  N    0.000271  -0.000000  -0.000000  -0.000000   0.000000  -0.000000
    18  C   -0.015238  -0.000325  -0.000000  -0.000000  -0.000000   0.000000
    19  N    6.966921   0.131621   0.000054   0.000002   0.000000   0.000000
    20  O    0.131621   8.206914  -0.007591   0.000254  -0.000001  -0.000000
    21  C    0.000054  -0.007591   5.181059   0.493145  -0.063339  -0.000239
    22  C    0.000002   0.000254   0.493145   4.728012   0.354578  -0.005847
    23  C    0.000000  -0.000001  -0.063339   0.354578   5.235860   0.002679
    24  H    0.000000  -0.000000  -0.000239  -0.005847   0.002679   0.554427
    25  H    0.000000  -0.000000  -0.000166   0.004352   0.000250  -0.026236
    26  H    0.000000  -0.000000  -0.000239  -0.005847   0.002679  -0.032878
[...]
    26  H   -0.000000   0.000000   0.000000  -0.000000  -0.000000   0.000000
    27  H   -0.000004  -0.000000   0.000000   0.000000  -0.000000  -0.000000
    28  H    0.011970   0.000065  -0.000030  -0.000004   0.000000   0.000000
    29  H    0.014456  -0.012723  -0.032763   0.357509  -0.041063   0.002755
    30  H   -0.000005  -0.000117   0.003254  -0.039274   0.362303  -0.036356
    31  H   -0.000000  -0.000000   0.000027  -0.000003   0.000002   0.000154
    32  H   -0.000000  -0.000000   0.000004  -0.000000   0.000003   0.000155
    33  H   -0.000000  -0.000000   0.000027  -0.000003   0.000002   0.000154
    34  H    0.000128  -0.009581  -0.027265   0.004106   0.000180   0.001716
    35  H    0.000157   0.000057  -0.000000   0.000000  -0.000000   0.000000
    36  H   -0.000000   0.000000   0.000000  -0.000000  -0.000000   0.000000
    37  H   -0.000000   0.000000   0.000000  -0.000000  -0.000000   0.000000
    38  H    0.000000   0.000000   0.000000   0.000000   0.000000  -0.000000
              13         14         15         16         17         18
     1  C    0.000000   0.000000   0.000000   0.000000   0.000000  -0.000000
     2  C   -0.000000   0.000000   0.000000  -0.000000  -0.000000   0.000000
     3  C   -0.000000  -0.000000   0.000000   0.000000  -0.000000  -0.000000
     4  C    0.000000  -0.000000   0.000000   0.000000   0.000000   0.000000
     5  C   -0.000000  -0.000000   0.000000  -0.000000  -0.000000   0.000000
     6  C   -0.000000   0.000000   0.000000  -0.000000   0.000002   0.000127
     7  N    0.000000   0.000000   0.000000  -0.000000  -0.000048   0.006995
     8  C   -0.000011   0.000002  -0.000020  -0.000005   0.003771  -0.034660
     9  C   -0.000335  -0.000641   0.001365   0.000189   0.010090   0.499416
    10  C    0.004180  -0.000228   0.000825   0.000039  -0.034313  -0.100237
    11  C   -0.065841   0.007218   0.004404  -0.000527  -0.022016  -0.037536
    12  C    0.398102  -0.096623  -0.063834   0.001899   0.300871  -0.027100
    13  N    6.952564   0.280810  -0.096273   0.008267  -0.094370   0.008662
    14  N    0.280810   6.803593   0.446597  -0.061299  -0.057850   0.007316
    15  C   -0.096273   0.446597   4.625576   0.369377   0.358957  -0.043664
    16  C    0.008267  -0.061299   0.369377   5.188533  -0.067272   0.001693
    17  N   -0.094370  -0.057850   0.358957  -0.067272   6.955058   0.233710
    18  C    0.008662   0.007316  -0.043664   0.001693   0.233710   5.081208
    19  N   -0.000000  -0.000000   0.000001  -0.000002   0.000253  -0.014227
    20  O    0.000000  -0.000000  -0.000000   0.000000  -0.000000  -0.000297
    21  C    0.000000   0.000000  -0.000000   0.000000  -0.000000  -0.000000
    22  C    0.000000  -0.000000   0.000000  -0.000000  -0.000000  -0.000000
    23  C    0.000000   0.000000  -0.000000   0.000000   0.000000  -0.000000
    24  H    0.000000   0.000000   0.000000   0.000000   0.000000   0.000000
    25  H    0.000000   0.000000   0.000000   0.000000   0.000000  -0.000000
    26  H    0.000000   0.000000   0.000000   0.000000   0.000000   0.000000
    27  H    0.000000   0.000000  -0.000000  -0.000000   0.000000   0.000000
    28  H   -0.000000   0.000000   0.000000   0.000000   0.000000  -0.000000
    29  H   -0.000073   0.000003   0.000009  -0.000000  -0.000024   0.006521
    30  H   -0.000811  -0.000087  -0.000013   0.000001   0.004815   0.000333
    31  H   -0.000130   0.000650  -0.028679   0.361735  -0.001833   0.001177
    32  H   -0.000095   0.004259  -0.025129   0.364723   0.003717  -0.000041
    33  H   -0.000130   0.000650  -0.028679   0.361735  -0.001832   0.001177
    34  H   -0.000209   0.000095  -0.003594   0.003648  -0.044551   0.356067
    35  H   -0.000000   0.000000   0.000000  -0.000000  -0.000000  -0.000000
    36  H    0.000000   0.000000   0.000000   0.000000  -0.000000   0.000000
    37  H    0.000000   0.000000   0.000000   0.000000  -0.000000   0.000000
    38  H    0.000000   0.000000   0.000000  -0.000000   0.000000  -0.000000
              19         20         21         22         23         24
     1  C    0.000000   0.000000   0.009725  -0.070754  -0.019860   0.360964
     2  C   -0.000000   0.000003  -0.019667   0.534552  -0.070125  -0.024377
     3  C    0.000002  -0.000066  -0.065048  -0.003203   0.008589   0.000889
     4  C    0.000035   0.004206  -0.080947  -0.042482   0.000481  -0.000204
     5  C    0.004578  -0.041641   0.465633  -0.011015   0.006407   0.000048
     6  C   -0.070697   0.227807  -0.032502   0.003903  -0.000280   0.000000
     7  N   -0.105641  -0.109539   0.006322  -0.000106   0.000000  -0.000000
     8  C    0.374847  -0.041343   0.000024   0.000005  -0.000000   0.000000
     9  C   -0.075204   0.007513   0.000000  -0.000000  -0.000000   0.000000
    10  C    0.007485   0.000017   0.000000  -0.000000   0.000000  -0.000000
    11  C   -0.000112   0.000001  -0.000000  -0.000000   0.000000  -0.000000
    12  C    0.000007   0.000000   0.000000   0.000000  -0.000000   0.000000
    13  N   -0.000000   0.000000   0.000000   0.000000   0.000000   0.000000
    14  N   -0.000000  -0.000000   0.000000  -0.000000   0.000000   0.000000
    15  C    0.000001  -0.000000  -0.000000   0.000000  -0.000000   0.000000
    16  C   -0.000002   0.000000   0.000000  -0.000000   0.000000   0.000000
    17  N    0.000253  -0.000000  -0.000000  -0.000000   0.000000   0.000000
    18  C   -0.014227  -0.000297  -0.000000  -0.000000  -0.000000   0.000000
    19  N    6.971155   0.124830   0.000035   0.000001   0.000000   0.000000
    20  O    0.124830   8.216114  -0.007009   0.000261  -0.000001  -0.000000
    21  C    0.000035  -0.007009   5.163407   0.494775  -0.059838  -0.000192
    22  C    0.000001   0.000261   0.494775   4.729367   0.352660  -0.005039
    23  C    0.000000  -0.000001  -0.059838   0.352660   5.231921   0.002393
    24  H    0.000000  -0.000000  -0.000192  -0.005039   0.002393   0.555372
    25  H    0.000000  -0.000000  -0.000149   0.003894   0.000207  -0.026909
    26  H    0.000000  -0.000000  -0.000192  -0.005039   0.002393  -0.033502
    27  H   -0.000000   0.000000   0.000904   0.004972  -0.000167   0.000138
    28  H    0.000029   0.000148   0.005078   0.000693   0.000011   0.000002
    29  H    0.000273   0.000024  -0.000000   0.000000   0.000000   0.000000
    30  H    0.000000  -0.000000   0.000000   0.000000  -0.000000  -0.000000
    31  H   -0.000001   0.000000  -0.000000  -0.000000   0.000000   0.000000
    32  H    0.000000   0.000000   0.000000   0.000000   0.000000   0.000000
    33  H   -0.000001   0.000000  -0.000000  -0.000000   0.000000   0.000000
    34  H    0.012310  -0.000162  -0.000000  -0.000000   0.000000   0.000000
    35  H   -0.000177   0.008571   0.349652  -0.036323  -0.009015  -0.000002
    36  H    0.000000  -0.000000   0.000582  -0.025098   0.362033  -0.001069
    37  H    0.000000  -0.000000   0.000582  -0.025098   0.362033   0.003902
    38  H    0.000000  -0.000003  -0.003251  -0.028077   0.364866  -0.000001
              25         26         27         28         29         30
     1  C    0.365173   0.360964  -0.010241  -0.000160  -0.000000   0.000000
     2  C   -0.028356  -0.024377  -0.036811   0.003122   0.000000  -0.000000
     3  C   -0.003204   0.000889   0.351477  -0.038678   0.000000  -0.000000
     4  C    0.000117  -0.000204  -0.040867   0.353337   0.000002  -0.000000
     5  C    0.000012   0.000048   0.003045  -0.034638  -0.000035   0.000000
     6  C    0.000000   0.000000  -0.000212  -0.011248   0.000098  -0.000000
     7  N    0.000000  -0.000000  -0.000004   0.011970   0.014456  -0.000005
     8  C    0.000000   0.000000  -0.000000   0.000065  -0.012723  -0.000117
     9  C    0.000000   0.000000   0.000000  -0.000030  -0.032763   0.003254
    10  C    0.000000  -0.000000   0.000000  -0.000004   0.357509  -0.039274
    11  C    0.000000  -0.000000  -0.000000   0.000000  -0.041063   0.362303
    12  C    0.000000   0.000000  -0.000000   0.000000   0.002755  -0.036356
    13  N    0.000000   0.000000   0.000000  -0.000000  -0.000073  -0.000811
    14  N    0.000000   0.000000   0.000000   0.000000   0.000003  -0.000087
    15  C    0.000000   0.000000  -0.000000   0.000000   0.000009  -0.000013
    16  C    0.000000   0.000000  -0.000000   0.000000  -0.000000   0.000001
    17  N    0.000000   0.000000   0.000000   0.000000  -0.000024   0.004815
    18  C   -0.000000   0.000000   0.000000  -0.000000   0.006521   0.000333
    19  N    0.000000   0.000000  -0.000000   0.000029   0.000273   0.000000
    20  O   -0.000000  -0.000000   0.000000   0.000148   0.000024  -0.000000
    21  C   -0.000149  -0.000192   0.000904   0.005078  -0.000000   0.000000
    22  C    0.003894  -0.005039   0.004972   0.000693   0.000000   0.000000
    23  C    0.000207   0.002393  -0.000167   0.000011   0.000000  -0.000000
    24  H   -0.026909  -0.033502   0.000138   0.000002   0.000000  -0.000000
    25  H    0.546834  -0.026909   0.007442  -0.000012   0.000000  -0.000000
    26  H   -0.026909   0.555372   0.000138   0.000002   0.000000  -0.000000
    27  H    0.007442   0.000138   0.590161  -0.004405  -0.000000   0.000000
    28  H   -0.000012   0.000002  -0.004405   0.550708   0.000118  -0.000000
    29  H    0.000000   0.000000  -0.000000   0.000118   0.534566  -0.004626
    30  H   -0.000000  -0.000000   0.000000  -0.000000  -0.004626   0.542531
    31  H    0.000000   0.000000  -0.000000  -0.000000  -0.000000   0.000000
    32  H    0.000000   0.000000   0.000000  -0.000000  -0.000000  -0.000000
    33  H    0.000000   0.000000  -0.000000  -0.000000  -0.000000   0.000000
    34  H   -0.000000   0.000000   0.000000  -0.000000  -0.000128   0.000018
    35  H    0.000003  -0.000002   0.000020  -0.000167  -0.000000   0.000000
    36  H    0.000002   0.003902  -0.000001  -0.000000  -0.000000   0.000000
    37  H    0.000002  -0.001069  -0.000001  -0.000000  -0.000000   0.000000
    38  H   -0.000004  -0.000001   0.000003  -0.000000   0.000000  -0.000000
              31         32         33         34         35         36
     1  C    0.000000   0.000000   0.000000  -0.000000  -0.000148   0.002191
     2  C    0.000000   0.000000   0.000000  -0.000000   0.004734  -0.005068
     3  C    0.000000  -0.000000   0.000000  -0.000000   0.000318  -0.000116
     4  C    0.000000  -0.000000   0.000000   0.000000   0.005111   0.000023
     5  C   -0.000000  -0.000000  -0.000000  -0.000000  -0.039864  -0.000126
     6  C   -0.000000  -0.000000  -0.000000   0.000056  -0.011134   0.000003
     7  N   -0.000000  -0.000000  -0.000000   0.000128   0.000157  -0.000000
     8  C   -0.000000  -0.000000  -0.000000  -0.009581   0.000057   0.000000
     9  C    0.000027   0.000004   0.000027  -0.027265  -0.000000   0.000000
    10  C   -0.000003  -0.000000  -0.000003   0.004106   0.000000  -0.000000
    11  C    0.000002   0.000003   0.000002   0.000180  -0.000000  -0.000000
    12  C    0.000154   0.000155   0.000154   0.001716   0.000000   0.000000
    13  N   -0.000130  -0.000095  -0.000130  -0.000209  -0.000000   0.000000
    14  N    0.000650   0.004259   0.000650   0.000095   0.000000   0.000000
    15  C   -0.028679  -0.025129  -0.028679  -0.003594   0.000000   0.000000
    16  C    0.361735   0.364723   0.361735   0.003648  -0.000000   0.000000
    17  N   -0.001833   0.003717  -0.001832  -0.044551  -0.000000  -0.000000
    18  C    0.001177  -0.000041   0.001177   0.356067  -0.000000   0.000000
    19  N   -0.000001   0.000000  -0.000001   0.012310  -0.000177   0.000000
    20  O    0.000000   0.000000   0.000000  -0.000162   0.008571  -0.000000
    21  C   -0.000000   0.000000  -0.000000  -0.000000   0.349652   0.000582
    22  C   -0.000000   0.000000  -0.000000  -0.000000  -0.036323  -0.025098
    23  C    0.000000   0.000000   0.000000   0.000000  -0.009015   0.362033
    24  H    0.000000   0.000000   0.000000   0.000000  -0.000002  -0.001069
    25  H    0.000000   0.000000   0.000000  -0.000000   0.000003   0.000002
    26  H    0.000000   0.000000   0.000000   0.000000  -0.000002   0.003902
    27  H   -0.000000   0.000000  -0.000000   0.000000   0.000020  -0.000001
    28  H   -0.000000  -0.000000  -0.000000  -0.000000  -0.000167  -0.000000
    29  H   -0.000000  -0.000000  -0.000000  -0.000128  -0.000000  -0.000000
    30  H    0.000000  -0.000000   0.000000   0.000018   0.000000   0.000000
    31  H    0.554088  -0.022264  -0.037563   0.000865  -0.000000   0.000000
    32  H   -0.022264   0.496200  -0.022264  -0.000107   0.000000   0.000000
    33  H   -0.037563  -0.022264   0.554088   0.000865  -0.000000  -0.000000
    34  H    0.000865  -0.000107   0.000865   0.502958  -0.000000   0.000000
    35  H   -0.000000   0.000000  -0.000000  -0.000000   0.565540   0.000111
    36  H    0.000000   0.000000  -0.000000   0.000000   0.000111   0.558363
    37  H   -0.000000   0.000000   0.000000   0.000000   0.000111  -0.034232
    38  H   -0.000000  -0.000000  -0.000000   0.000000   0.007062  -0.026829
              37         38
     1  C    0.002191   0.000210
     2  C   -0.005068   0.004021
     3  C   -0.000116  -0.000147
     4  C    0.000023  -0.000006
     5  C   -0.000126   0.000125
     6  C    0.000003   0.000007
     7  N   -0.000000   0.000000
     8  C    0.000000   0.000000
     9  C    0.000000   0.000000
    10  C   -0.000000   0.000000
    11  C   -0.000000   0.000000
    12  C    0.000000  -0.000000
    13  N    0.000000   0.000000
    14  N    0.000000   0.000000
    15  C    0.000000   0.000000
    16  C    0.000000  -0.000000
    17  N   -0.000000   0.000000
    18  C    0.000000  -0.000000
    19  N    0.000000   0.000000
    20  O   -0.000000  -0.000003
    21  C    0.000582  -0.003251
    22  C   -0.025098  -0.028077
    23  C    0.362033   0.364866
    24  H    0.003902  -0.000001
    25  H    0.000002  -0.000004
    26  H   -0.001069  -0.000001
    27  H   -0.000001   0.000003
    28  H   -0.000000  -0.000000
    29  H   -0.000000   0.000000
    30  H    0.000000  -0.000000
    31  H   -0.000000  -0.000000
    32  H    0.000000  -0.000000
    33  H    0.000000  -0.000000
    34  H    0.000000   0.000000
    35  H    0.000111   0.007062
    36  H   -0.034232  -0.026829
    37  H    0.558363  -0.026829
    38  H   -0.026829   0.545380
 Mulliken charges:
               1
     1  C   -0.535306
     2  C    0.141731
     3  C   -0.192346
     4  C   -0.156375
     5  C    0.078180
     6  C    0.558488
     7  N   -0.554249
     8  C    0.406679
     9  C    0.031655
    10  C   -0.150779
    11  C   -0.170546
    12  C    0.534960
    13  N   -0.394310
    14  N   -0.334465
    15  C    0.482771
    16  C   -0.532737
    17  N   -0.547136
    18  C    0.053359
    19  N   -0.229781
    20  O   -0.389430
    21  C   -0.227925
    22  C    0.127153
    23  C   -0.534709
    24  H    0.167586
    25  H    0.161855
    26  H    0.167586
    27  H    0.134410
    28  H    0.164060
    29  H    0.175102
    30  H    0.168032
    31  H    0.171774
    32  H    0.200840
    33  H    0.171774
    34  H    0.202584
    35  H    0.155385
    36  H    0.165328
    37  H    0.165328
    38  H    0.163476
 Sum of Mulliken charges =  -0.00000
 Mulliken charges with hydrogens summed into heavy atoms:
               1
     1  C   -0.038279
     2  C    0.141731
     3  C   -0.057936
     4  C    0.007686
     5  C    0.078180
     6  C    0.558488
     7  N   -0.554249
     8  C    0.406679
     9  C    0.031655
    10  C    0.024322
    11  C   -0.002514
    12  C    0.534960
    13  N   -0.394310
    14  N   -0.334465
    15  C    0.482771
    16  C    0.011651
    17  N   -0.547136
    18  C    0.255943
    19  N   -0.229781
    20  O   -0.389430
    21  C   -0.072540
    22  C    0.127153
    23  C   -0.040578
 Electronic spatial extent (au):  <R**2>=          12391.5188
 Charge=             -0.0000 electrons
 Dipole moment (field-independent basis, Debye):
    X=              7.8363    Y=              1.4671    Z=              0.0000  Tot=              7.9725
 Quadrupole moment (field-independent basis, Debye-Ang):
   XX=           -144.1337   YY=           -124.5202   ZZ=           -133.4280
   XY=            -17.5390   XZ=             -0.0000   YZ=              0.0000
 Traceless Quadrupole moment (field-independent basis, Debye-Ang):
   XX=            -10.1064   YY=              9.5071   ZZ=              0.5993
   XY=            -17.5390   XZ=             -0.0000   YZ=              0.0000
 Octapole moment (field-independent basis, Debye-Ang**2):
  XXX=            533.2017  YYY=             -6.1551  ZZZ=              0.0000  XYY=              1.6436
  XXY=            122.9738  XXZ=              0.0001  XZZ=             -5.8703  YZZ=              7.7196
  YYZ=              0.0000  XYZ=             -0.0001
 Hexadecapole moment (field-independent basis, Debye-Ang**3):
 XXXX=         -16730.2739 YYYY=          -1394.2303 ZZZZ=           -149.1294 XXXY=           -792.7100
 XXXZ=             -0.0005 YYYX=            -55.5039 YYYZ=             -0.0000 ZZZX=             -0.0002
 ZZZY=              0.0000 XXYY=          -2639.4952 XXZZ=          -2608.1114 YYZZ=           -279.4405
 XXYZ=             -0.0001 YYXZ=              0.0001 ZZXY=              0.3271
 N-N= 1.697447827331D+03 E-N=-5.729659260699D+03  KE= 9.964288202125D+02
 No NMR shielding tensors so no spin-rotation constants.
 Leave Link  601 at Fri Nov  4 21:12:19 2022, MaxMem=   805306368 cpu:               1.1 elap:               0.2
 (Enter /home/wykgroup/appl/g16/l9999.exe)
 1\1\GINC-NODE66\FOpt\RB3LYP\6-31G(d)\C17H15N5O1\WYKGROUP\04-Nov-2022\0
 \\#p b3lyp/6-31g(d) opt SCF=XQC\\Gaussian input prepared by ASE\\0,1\C
 ,6.4326452472,0.7069100564,1.0860285143\C,4.9725565757,0.5435987417,0.
 7429857397\C,3.9869613741,0.8915925349,1.6757801176\C,2.6329856019,0.7
 538229945,1.3924110203\C,2.2397830711,0.2549299451,0.1441082137\C,0.82
 04267691,0.1101573971,-0.153834281\N,-0.2018852445,0.3916021038,0.6116
 73182\C,-1.2740035058,0.0584264995,-0.1820988468\C,-2.6651791252,0.206
 8220708,0.2635052526\C,-2.9467103212,0.71820208,1.5767863895\C,-4.2352
 843625,0.8636635999,2.0098805237\C,-5.3026161519,0.5032208157,1.146577
 2584\N,-6.6167746401,0.5376940315,1.2989114113\N,-7.1686319344,0.06921
 1194,0.1356862964\C,-6.2098337895,-0.2460040668,-0.7125056571\C,-6.389
 3694811,-0.790240826,-2.0865635703\N,-4.9855489479,0.00795741,-0.12750
 24042\C,-3.6963193025,-0.1410015916,-0.5695163776\N,-0.9518858424,-0.4
 035879653,-1.3719445317\O,0.4492738202,-0.3713043946,-1.3589287676\C,3
 .2182910112,-0.0969698906,-0.7982618934\C,4.5776621045,0.0398694241,-0
 .5175224889\C,5.605876054,-0.3479175865,-1.5535295022\H,6.9372873899,1
 .3883171793,0.3890701898\H,6.5596994294,1.1068571453,2.0960220248\H,6.
 9690347861,-0.2492601905,1.033540355\H,4.2909768854,1.2789018122,2.644
 9452727\H,1.8776686743,1.0262258097,2.1217868154\H,-2.1087295967,0.983
 8315869,2.2104683536\H,-4.4764829259,1.2465972274,2.9947936466\H,-5.92
 63165767,-1.7787966163,-2.2002898978\H,-7.4597732399,-0.8866983233,-2.
 2789178777\H,-5.9583031368,-0.1293268642,-2.8494323841\H,-3.5517060162
 ,-0.5315459509,-1.5690110217\H,2.9097212349,-0.4833813636,-1.764921230
 4\H,6.2744600299,-1.1363210215,-1.1849413674\H,6.2426953574,0.50214139
 82,-1.8297587824\H,5.1273497248,-0.7160934067,-2.465480695\\Version=ES
 64L-G16RevB.01\State=1-A\HF=-1005.7974378\RMSD=5.579e-09\RMSF=6.641e-0
 5\Dipole=3.0933967,-0.1370039,-0.5005144\Quadrupole=-8.0228079,1.55656
 9,6.4662389,4.5226492,11.9091809,2.6003231\PG=C01 [X(C17H15N5O1)]\\@


 TO BEHOLD HARMS OF OUR OWN HANDS DOING,
 WHERE NONE BESIDE US WROUGHT,
 CAUSES SHARP RUING...

                                         SOPHOCLES
 Job cpu time:       0 days  0 hours 35 minutes 51.9 seconds.
 Elapsed time:       0 days  0 hours  5 minutes 13.8 seconds.
 File lengths (MBytes):  RWF=     93 Int=      0 D2E=      0 Chk=     13 Scr=      1
 Normal termination of Gaussian 16 at Fri Nov  4 21:12:19 2022.
