 Entering Gaussian System, Link 0=/home/wykgroup/appl/g16/g16
 Input=calculation/no_transfer_pubchem_sampling_5_b3lyp/53958798_rwf.com
 Output=calculation/no_transfer_pubchem_sampling_5_b3lyp/53958798_rwf.log
 Initial command:
 /home/wykgroup/appl/g16/l1.exe "/userdata/scratch/wykgroup/khs/calculation/no_transfer_pubchem_sampling_5_b3lyp/53958798_rwf/Gau-13518.inp" -scrdir="/userdata/scratch/wykgroup/khs/calculation/no_transfer_pubchem_sampling_5_b3lyp/53958798_rwf/"
 Entering Link 1 = /home/wykgroup/appl/g16/l1.exe PID=     13519.
  
 Copyright (c) 1988-2017, Gaussian, Inc.  All Rights Reserved.
  
 This is part of the Gaussian(R) 16 program.  It is based on
 the Gaussian(R) 09 system (copyright 2009, Gaussian, Inc.),
 the Gaussian(R) 03 system (copyright 2003, Gaussian, Inc.),
 the Gaussian(R) 98 system (copyright 1998, Gaussian, Inc.),
 the Gaussian(R) 94 system (copyright 1995, Gaussian, Inc.),
 the Gaussian 92(TM) system (copyright 1992, Gaussian, Inc.),
 the Gaussian 90(TM) system (copyright 1990, Gaussian, Inc.),
 the Gaussian 88(TM) system (copyright 1988, Gaussian, Inc.),
 the Gaussian 86(TM) system (copyright 1986, Carnegie Mellon
 University), and the Gaussian 82(TM) system (copyright 1983,
 Carnegie Mellon University). Gaussian is a federally registered
 trademark of Gaussian, Inc.
  
 This software contains proprietary and confidential information,
 including trade secrets, belonging to Gaussian, Inc.
  
 This software is provided under written license and may be
 used, copied, transmitted, or stored only in accord with that
 written license.
  
 The following legend is applicable only to US Government
 contracts under FAR:
  
                    RESTRICTED RIGHTS LEGEND
  
 Use, reproduction and disclosure by the US Government is
 subject to restrictions as set forth in subparagraphs (a)
 and (c) of the Commercial Computer Software - Restricted
 Rights clause in FAR 52.227-19.
  
 Gaussian, Inc.
 340 Quinnipiac St., Bldg. 40, Wallingford CT 06492
  
  
 ---------------------------------------------------------------
 Warning -- This program may not be used in any manner that
 competes with the business of Gaussian, Inc. or will provide
 assistance to any competitor of Gaussian, Inc.  The licensee
 of this program is prohibited from giving any competitor of
 Gaussian, Inc. access to this program.  By using this program,
 the user acknowledges that Gaussian, Inc. is engaged in the
 business of creating and licensing software in the field of
 computational chemistry and represents and warrants to the
 licensee that it is not a competitor of Gaussian, Inc. and that
 it will not use this program in any manner prohibited above.
 ---------------------------------------------------------------
  

 Cite this work as:
 Gaussian 16, Revision B.01,
 M. J. Frisch, G. W. Trucks, H. B. Schlegel, G. E. Scuseria, 
 M. A. Robb, J. R. Cheeseman, G. Scalmani, V. Barone, 
 G. A. Petersson, H. Nakatsuji, X. Li, M. Caricato, A. V. Marenich, 
 J. Bloino, B. G. Janesko, R. Gomperts, B. Mennucci, H. P. Hratchian, 
 J. V. Ortiz, A. F. Izmaylov, J. L. Sonnenberg, D. Williams-Young, 
 F. Ding, F. Lipparini, F. Egidi, J. Goings, B. Peng, A. Petrone, 
 T. Henderson, D. Ranasinghe, V. G. Zakrzewski, J. Gao, N. Rega, 
 G. Zheng, W. Liang, M. Hada, M. Ehara, K. Toyota, R. Fukuda, 
 J. Hasegawa, M. Ishida, T. Nakajima, Y. Honda, O. Kitao, H. Nakai, 
 T. Vreven, K. Throssell, J. A. Montgomery, Jr., J. E. Peralta, 
 F. Ogliaro, M. J. Bearpark, J. J. Heyd, E. N. Brothers, K. N. Kudin, 
 V. N. Staroverov, T. A. Keith, R. Kobayashi, J. Normand, 
 K. Raghavachari, A. P. Rendell, J. C. Burant, S. S. Iyengar, 
 J. Tomasi, M. Cossi, J. M. Millam, M. Klene, C. Adamo, R. Cammi, 
 J. W. Ochterski, R. L. Martin, K. Morokuma, O. Farkas, 
 J. B. Foresman, and D. J. Fox, Gaussian, Inc., Wallingford CT, 2016.
 
 ******************************************
 Gaussian 16:  ES64L-G16RevB.01 20-Dec-2017
                 5-Nov-2022 
 ******************************************
 %chk=calculation/no_transfer_pubchem_sampling_5_b3lyp/53958798_rwf.chk
 %rwf=calculation/no_transfer_pubchem_sampling_5_b3lyp/53958798_rwf.rwf
 %nprocshared=14
 Will use up to   14 processors via shared memory.
 %mem=3GB
 -------------------------------------------------------------------
 #p b3lyp/6-31g(d) 6D 10F nosymm GFInput td=(50-50,nstate=2) SCF=XQC
 -------------------------------------------------------------------
 1/38=1,172=1/1;
 2/12=2,15=1,17=6,18=5,40=1/2;
 3/5=1,6=6,7=1,8=22,11=9,24=10,25=1,30=1,74=-5/1,2,3,8;
 4//1;
 5/5=2,8=3,13=1,38=5/2,8;
 8/6=1,10=2,108=2/1;
 9/41=2,42=1,48=2,70=2/14;
 6/7=2,8=2,9=2,10=2/1;
 99/5=1,9=1/99;
 Leave Link    1 at Sat Nov  5 09:25:12 2022, MaxMem=   402653184 cpu:               4.0 elap:               0.3
 (Enter /home/wykgroup/appl/g16/l101.exe)
 ------------------------------
 Gaussian input prepared by ASE
 ------------------------------
 Symbolic Z-matrix:
 Charge =  0 Multiplicity = 1
 C                     8.60325  -0.33058  -0.06582 
 O                     7.17641  -0.22151  -0.18137 
 C                     6.62478  -0.92783  -1.1977 
 O                     7.28172  -1.60354  -1.96551 
 C                     5.14432  -0.78066  -1.26287 
 C                     4.46009  -1.47712  -2.27509 
 C                     3.08567  -1.38137  -2.35027 
 C                     2.35687  -0.59201  -1.43649 
 N                     0.99044  -0.56889  -1.55552 
 C                     0.27448   0.10526  -0.69171 
 C                    -1.16955   0.09712  -0.8273 
 C                    -2.09681   0.72946  -0.01005 
 N                    -3.36917   0.49654  -0.45852 
 C                    -4.58161   1.00148   0.1584 
 C                    -5.40508  -0.04608   0.89456 
 C                    -4.80165  -1.14518   1.51707 
 C                    -5.56622  -2.06608   2.22615 
 C                    -6.95711  -1.89633   2.32512 
 C                    -7.74992  -2.8424    3.05507 
 N                    -8.39458  -3.60794   3.64809 
 C                    -7.56906  -0.79702   1.70139 
 C                    -6.79315   0.11323   0.99106 
 C                    -3.30826  -0.30666  -1.59594 
 C                    -4.34738  -0.79651  -2.39055 
 C                    -3.99772  -1.57565  -3.48895 
 C                    -2.64949  -1.85614  -3.77598 
 C                    -1.62029  -1.36833  -2.97657 
 C                    -1.94186  -0.57745  -1.86149 
 C                     0.89919   0.8862    0.42356 
 O                     0.2368    1.48493   1.27376 
 N                     2.28732   0.92969   0.43689 
 C                     2.94336   1.78603   1.46838 
 C                     2.89765   1.14115   2.85583 
 C                     2.4233    3.24239   1.45833 
 N                     3.44862   4.09442   2.07249 
 C                     3.05128   0.13596  -0.43205 
 C                     4.44764   0.01447  -0.35104 
 H                     8.89664  -1.3704    0.10098 
 H                     8.875     0.28723   0.79068 
 H                     9.09116   0.03347  -0.97392 
 H                     5.02835  -2.08383  -2.97097 
 H                     2.51897  -1.91442  -3.10674 
 H                    -1.91721   1.33512   0.863 
 H                    -4.27937   1.79144   0.85579 
 H                    -5.19871   1.4815   -0.61078 
 H                    -3.72802  -1.28628   1.43939 
 H                    -5.09452  -2.91845   2.70419 
 H                    -8.64437  -0.66884   1.77122 
 H                    -7.2746    0.95841   0.50468 
 H                    -5.38767  -0.58938  -2.15819 
 H                    -4.77862  -1.97545  -4.12981 
 H                    -2.40773  -2.46941  -4.63983 
 H                    -0.58343  -1.58642  -3.19672 
 H                     3.98461   1.8632    1.15686 
 H                     1.86335   1.00006   3.17892 
 H                     3.40579   1.80269   3.56331 
 H                     3.40457   0.16997   2.85623 
 H                     2.16503   3.5237    0.42367 
 H                     1.51066   3.31614   2.04889 
 H                     4.17904   4.31589   1.39752 
 H                     3.03994   4.98245   2.35356 
 H                     5.01687   0.50855   0.42269 
 
 ITRead=  0  0  0  0  0  0  0  0  0  0  0  0  0  0  0  0  0  0  0  0
 ITRead=  0  0  0  0  0  0  0  0  0  0  0  0  0  0  0  0  0  0  0  0
 ITRead=  0  0  0  0  0  0  0  0  0  0  0  0  0  0  0  0  0  0  0  0
 ITRead=  0  0
 MicOpt= -1 -1 -1 -1 -1 -1 -1 -1 -1 -1 -1 -1 -1 -1 -1 -1 -1 -1 -1 -1
 MicOpt= -1 -1 -1 -1 -1 -1 -1 -1 -1 -1 -1 -1 -1 -1 -1 -1 -1 -1 -1 -1
 MicOpt= -1 -1 -1 -1 -1 -1 -1 -1 -1 -1 -1 -1 -1 -1 -1 -1 -1 -1 -1 -1
 MicOpt= -1 -1
 NAtoms=     62 NQM=       62 NQMF=       0 NMMI=      0 NMMIF=      0
                NMic=       0 NMicF=      0.
                    Isotopes and Nuclear Properties:
 (Nuclear quadrupole moments (NQMom) in fm**2, nuclear magnetic moments (NMagM)
  in nuclear magnetons)

  Atom         1           2           3           4           5           6           7           8           9          10
 IAtWgt=          12          16          12          16          12          12          12          12          14          12
 AtmWgt=  12.0000000  15.9949146  12.0000000  15.9949146  12.0000000  12.0000000  12.0000000  12.0000000  14.0030740  12.0000000
 NucSpn=           0           0           0           0           0           0           0           0           2           0
 AtZEff=  -0.0000000  -0.0000000  -0.0000000  -0.0000000  -0.0000000  -0.0000000  -0.0000000  -0.0000000  -0.0000000  -0.0000000
 NQMom=    0.0000000   0.0000000   0.0000000   0.0000000   0.0000000   0.0000000   0.0000000   0.0000000   2.0440000   0.0000000
 NMagM=    0.0000000   0.0000000   0.0000000   0.0000000   0.0000000   0.0000000   0.0000000   0.0000000   0.4037610   0.0000000
 AtZNuc=   6.0000000   8.0000000   6.0000000   8.0000000   6.0000000   6.0000000   6.0000000   6.0000000   7.0000000   6.0000000

  Atom        11          12          13          14          15          16          17          18          19          20
 IAtWgt=          12          12          14          12          12          12          12          12          12          14
 AtmWgt=  12.0000000  12.0000000  14.0030740  12.0000000  12.0000000  12.0000000  12.0000000  12.0000000  12.0000000  14.0030740
 NucSpn=           0           0           2           0           0           0           0           0           0           2
 AtZEff=  -0.0000000  -0.0000000  -0.0000000  -0.0000000  -0.0000000  -0.0000000  -0.0000000  -0.0000000  -0.0000000  -0.0000000
 NQMom=    0.0000000   0.0000000   2.0440000   0.0000000   0.0000000   0.0000000   0.0000000   0.0000000   0.0000000   2.0440000
 NMagM=    0.0000000   0.0000000   0.4037610   0.0000000   0.0000000   0.0000000   0.0000000   0.0000000   0.0000000   0.4037610
 AtZNuc=   6.0000000   6.0000000   7.0000000   6.0000000   6.0000000   6.0000000   6.0000000   6.0000000   6.0000000   7.0000000

  Atom        21          22          23          24          25          26          27          28          29          30
 IAtWgt=          12          12          12          12          12          12          12          12          12          16
 AtmWgt=  12.0000000  12.0000000  12.0000000  12.0000000  12.0000000  12.0000000  12.0000000  12.0000000  12.0000000  15.9949146
 NucSpn=           0           0           0           0           0           0           0           0           0           0
 AtZEff=  -0.0000000  -0.0000000  -0.0000000  -0.0000000  -0.0000000  -0.0000000  -0.0000000  -0.0000000  -0.0000000  -0.0000000
 NQMom=    0.0000000   0.0000000   0.0000000   0.0000000   0.0000000   0.0000000   0.0000000   0.0000000   0.0000000   0.0000000
 NMagM=    0.0000000   0.0000000   0.0000000   0.0000000   0.0000000   0.0000000   0.0000000   0.0000000   0.0000000   0.0000000
 AtZNuc=   6.0000000   6.0000000   6.0000000   6.0000000   6.0000000   6.0000000   6.0000000   6.0000000   6.0000000   8.0000000

  Atom        31          32          33          34          35          36          37          38          39          40
 IAtWgt=          14          12          12          12          14          12          12           1           1           1
 AtmWgt=  14.0030740  12.0000000  12.0000000  12.0000000  14.0030740  12.0000000  12.0000000   1.0078250   1.0078250   1.0078250
 NucSpn=           2           0           0           0           2           0           0           1           1           1
 AtZEff=  -0.0000000  -0.0000000  -0.0000000  -0.0000000  -0.0000000  -0.0000000  -0.0000000  -0.0000000  -0.0000000  -0.0000000
 NQMom=    2.0440000   0.0000000   0.0000000   0.0000000   2.0440000   0.0000000   0.0000000   0.0000000   0.0000000   0.0000000
 NMagM=    0.4037610   0.0000000   0.0000000   0.0000000   0.4037610   0.0000000   0.0000000   2.7928460   2.7928460   2.7928460
 AtZNuc=   7.0000000   6.0000000   6.0000000   6.0000000   7.0000000   6.0000000   6.0000000   1.0000000   1.0000000   1.0000000

  Atom        41          42          43          44          45          46          47          48          49          50
 IAtWgt=           1           1           1           1           1           1           1           1           1           1
 AtmWgt=   1.0078250   1.0078250   1.0078250   1.0078250   1.0078250   1.0078250   1.0078250   1.0078250   1.0078250   1.0078250
 NucSpn=           1           1           1           1           1           1           1           1           1           1
 AtZEff=  -0.0000000  -0.0000000  -0.0000000  -0.0000000  -0.0000000  -0.0000000  -0.0000000  -0.0000000  -0.0000000  -0.0000000
 NQMom=    0.0000000   0.0000000   0.0000000   0.0000000   0.0000000   0.0000000   0.0000000   0.0000000   0.0000000   0.0000000
 NMagM=    2.7928460   2.7928460   2.7928460   2.7928460   2.7928460   2.7928460   2.7928460   2.7928460   2.7928460   2.7928460
 AtZNuc=   1.0000000   1.0000000   1.0000000   1.0000000   1.0000000   1.0000000   1.0000000   1.0000000   1.0000000   1.0000000

  Atom        51          52          53          54          55          56          57          58          59          60
 IAtWgt=           1           1           1           1           1           1           1           1           1           1
 AtmWgt=   1.0078250   1.0078250   1.0078250   1.0078250   1.0078250   1.0078250   1.0078250   1.0078250   1.0078250   1.0078250
 NucSpn=           1           1           1           1           1           1           1           1           1           1
 AtZEff=  -0.0000000  -0.0000000  -0.0000000  -0.0000000  -0.0000000  -0.0000000  -0.0000000  -0.0000000  -0.0000000  -0.0000000
 NQMom=    0.0000000   0.0000000   0.0000000   0.0000000   0.0000000   0.0000000   0.0000000   0.0000000   0.0000000   0.0000000
 NMagM=    2.7928460   2.7928460   2.7928460   2.7928460   2.7928460   2.7928460   2.7928460   2.7928460   2.7928460   2.7928460
 AtZNuc=   1.0000000   1.0000000   1.0000000   1.0000000   1.0000000   1.0000000   1.0000000   1.0000000   1.0000000   1.0000000

  Atom        61          62
 IAtWgt=           1           1
 AtmWgt=   1.0078250   1.0078250
 NucSpn=           1           1
 AtZEff=  -0.0000000  -0.0000000
 NQMom=    0.0000000   0.0000000
 NMagM=    2.7928460   2.7928460
 AtZNuc=   1.0000000   1.0000000
 Leave Link  101 at Sat Nov  5 09:25:12 2022, MaxMem=   402653184 cpu:               2.1 elap:               0.3
 (Enter /home/wykgroup/appl/g16/l202.exe)
 Symmetry turned off by external request.
 Stoichiometry    C29H25N5O3
 Framework group  C1[X(C29H25N5O3)]
 Deg. of freedom   180
 Full point group                 C1      NOp   1
                          Input orientation:                          
 ---------------------------------------------------------------------
 Center     Atomic      Atomic             Coordinates (Angstroms)
 Number     Number       Type             X           Y           Z
 ---------------------------------------------------------------------
      1          6           0        8.603247   -0.330581   -0.065819
      2          8           0        7.176406   -0.221510   -0.181368
      3          6           0        6.624783   -0.927826   -1.197697
      4          8           0        7.281720   -1.603536   -1.965508
      5          6           0        5.144316   -0.780658   -1.262870
      6          6           0        4.460091   -1.477118   -2.275087
      7          6           0        3.085673   -1.381373   -2.350267
      8          6           0        2.356872   -0.592006   -1.436487
      9          7           0        0.990445   -0.568891   -1.555516
     10          6           0        0.274476    0.105261   -0.691711
     11          6           0       -1.169552    0.097120   -0.827296
     12          6           0       -2.096811    0.729461   -0.010053
     13          7           0       -3.369173    0.496540   -0.458524
     14          6           0       -4.581612    1.001477    0.158401
     15          6           0       -5.405081   -0.046083    0.894556
     16          6           0       -4.801649   -1.145179    1.517065
     17          6           0       -5.566224   -2.066077    2.226149
     18          6           0       -6.957107   -1.896334    2.325121
     19          6           0       -7.749916   -2.842398    3.055067
     20          7           0       -8.394580   -3.607937    3.648091
     21          6           0       -7.569060   -0.797015    1.701390
     22          6           0       -6.793150    0.113227    0.991065
     23          6           0       -3.308255   -0.306665   -1.595941
     24          6           0       -4.347384   -0.796514   -2.390552
     25          6           0       -3.997719   -1.575648   -3.488953
     26          6           0       -2.649490   -1.856137   -3.775975
     27          6           0       -1.620295   -1.368328   -2.976574
     28          6           0       -1.941865   -0.577454   -1.861494
     29          6           0        0.899192    0.886203    0.423556
     30          8           0        0.236801    1.484931    1.273765
     31          7           0        2.287318    0.929692    0.436894
     32          6           0        2.943363    1.786031    1.468384
     33          6           0        2.897649    1.141151    2.855826
     34          6           0        2.423296    3.242394    1.458327
     35          7           0        3.448624    4.094418    2.072491
     36          6           0        3.051279    0.135961   -0.432054
     37          6           0        4.447640    0.014466   -0.351038
     38          1           0        8.896640   -1.370397    0.100975
     39          1           0        8.875004    0.287232    0.790678
     40          1           0        9.091158    0.033469   -0.973916
     41          1           0        5.028347   -2.083828   -2.970967
     42          1           0        2.518967   -1.914419   -3.106739
     43          1           0       -1.917207    1.335118    0.863003
     44          1           0       -4.279368    1.791436    0.855794
     45          1           0       -5.198707    1.481500   -0.610779
     46          1           0       -3.728015   -1.286284    1.439386
     47          1           0       -5.094521   -2.918446    2.704193
     48          1           0       -8.644372   -0.668839    1.771222
     49          1           0       -7.274598    0.958409    0.504678
     50          1           0       -5.387671   -0.589382   -2.158187
     51          1           0       -4.778620   -1.975451   -4.129811
     52          1           0       -2.407726   -2.469407   -4.639834
     53          1           0       -0.583427   -1.586423   -3.196715
     54          1           0        3.984610    1.863204    1.156865
     55          1           0        1.863346    1.000059    3.178921
     56          1           0        3.405794    1.802689    3.563310
     57          1           0        3.404567    0.169966    2.856228
     58          1           0        2.165030    3.523705    0.423668
     59          1           0        1.510657    3.316136    2.048891
     60          1           0        4.179037    4.315894    1.397523
     61          1           0        3.039936    4.982449    2.353561
     62          1           0        5.016870    0.508546    0.422687
 ---------------------------------------------------------------------
 Rotational constants (GHZ):           0.1898679           0.0416042           0.0382055
 Leave Link  202 at Sat Nov  5 09:25:12 2022, MaxMem=   402653184 cpu:               0.5 elap:               0.1
 (Enter /home/wykgroup/appl/g16/l301.exe)
 Standard basis: 6-31G(d) (6D, 10F)
 Ernie: Thresh=  0.10000D-02 Tol=  0.10000D-05 Strict=F.
 AO basis set in the form of general basis input (Overlap normalization):
      1 0
 S   6 1.00       0.000000000000
      0.3047524880D+04  0.1834737132D-02
      0.4573695180D+03  0.1403732281D-01
      0.1039486850D+03  0.6884262226D-01
      0.2921015530D+02  0.2321844432D+00
      0.9286662960D+01  0.4679413484D+00
      0.3163926960D+01  0.3623119853D+00
 SP   3 1.00       0.000000000000
      0.7868272350D+01 -0.1193324198D+00  0.6899906659D-01
      0.1881288540D+01 -0.1608541517D+00  0.3164239610D+00
      0.5442492580D+00  0.1143456438D+01  0.7443082909D+00
 SP   1 1.00       0.000000000000
      0.1687144782D+00  0.1000000000D+01  0.1000000000D+01
 D   1 1.00       0.000000000000
      0.8000000000D+00  0.1000000000D+01
 ****
      2 0
 S   6 1.00       0.000000000000
      0.5484671660D+04  0.1831074430D-02
      0.8252349460D+03  0.1395017220D-01
      0.1880469580D+03  0.6844507810D-01
      0.5296450000D+02  0.2327143360D+00
      0.1689757040D+02  0.4701928980D+00
      0.5799635340D+01  0.3585208530D+00
 SP   3 1.00       0.000000000000
      0.1553961625D+02 -0.1107775495D+00  0.7087426823D-01
      0.3599933586D+01 -0.1480262627D+00  0.3397528391D+00
      0.1013761750D+01  0.1130767015D+01  0.7271585773D+00
 SP   1 1.00       0.000000000000
      0.2700058226D+00  0.1000000000D+01  0.1000000000D+01
 D   1 1.00       0.000000000000
      0.8000000000D+00  0.1000000000D+01
 ****
      3 0
 S   6 1.00       0.000000000000
      0.3047524880D+04  0.1834737132D-02
      0.4573695180D+03  0.1403732281D-01
      0.1039486850D+03  0.6884262226D-01
      0.2921015530D+02  0.2321844432D+00
      0.9286662960D+01  0.4679413484D+00
      0.3163926960D+01  0.3623119853D+00
 SP   3 1.00       0.000000000000
      0.7868272350D+01 -0.1193324198D+00  0.6899906659D-01
      0.1881288540D+01 -0.1608541517D+00  0.3164239610D+00
      0.5442492580D+00  0.1143456438D+01  0.7443082909D+00
 SP   1 1.00       0.000000000000
      0.1687144782D+00  0.1000000000D+01  0.1000000000D+01
 D   1 1.00       0.000000000000
      0.8000000000D+00  0.1000000000D+01
 ****
      4 0
 S   6 1.00       0.000000000000
      0.5484671660D+04  0.1831074430D-02
      0.8252349460D+03  0.1395017220D-01
      0.1880469580D+03  0.6844507810D-01
      0.5296450000D+02  0.2327143360D+00
      0.1689757040D+02  0.4701928980D+00
      0.5799635340D+01  0.3585208530D+00
 SP   3 1.00       0.000000000000
      0.1553961625D+02 -0.1107775495D+00  0.7087426823D-01
      0.3599933586D+01 -0.1480262627D+00  0.3397528391D+00
      0.1013761750D+01  0.1130767015D+01  0.7271585773D+00
 SP   1 1.00       0.000000000000
      0.2700058226D+00  0.1000000000D+01  0.1000000000D+01
 D   1 1.00       0.000000000000
      0.8000000000D+00  0.1000000000D+01
 ****
      5 0
 S   6 1.00       0.000000000000
      0.3047524880D+04  0.1834737132D-02
      0.4573695180D+03  0.1403732281D-01
      0.1039486850D+03  0.6884262226D-01
      0.2921015530D+02  0.2321844432D+00
      0.9286662960D+01  0.4679413484D+00
      0.3163926960D+01  0.3623119853D+00
 SP   3 1.00       0.000000000000
      0.7868272350D+01 -0.1193324198D+00  0.6899906659D-01
      0.1881288540D+01 -0.1608541517D+00  0.3164239610D+00
      0.5442492580D+00  0.1143456438D+01  0.7443082909D+00
 SP   1 1.00       0.000000000000
      0.1687144782D+00  0.1000000000D+01  0.1000000000D+01
 D   1 1.00       0.000000000000
      0.8000000000D+00  0.1000000000D+01
 ****
      6 0
 S   6 1.00       0.000000000000
      0.3047524880D+04  0.1834737132D-02
      0.4573695180D+03  0.1403732281D-01
      0.1039486850D+03  0.6884262226D-01
      0.2921015530D+02  0.2321844432D+00
      0.9286662960D+01  0.4679413484D+00
      0.3163926960D+01  0.3623119853D+00
 SP   3 1.00       0.000000000000
      0.7868272350D+01 -0.1193324198D+00  0.6899906659D-01
      0.1881288540D+01 -0.1608541517D+00  0.3164239610D+00
      0.5442492580D+00  0.1143456438D+01  0.7443082909D+00
 SP   1 1.00       0.000000000000
      0.1687144782D+00  0.1000000000D+01  0.1000000000D+01
 D   1 1.00       0.000000000000
      0.8000000000D+00  0.1000000000D+01
 ****
      7 0
 S   6 1.00       0.000000000000
      0.3047524880D+04  0.1834737132D-02
      0.4573695180D+03  0.1403732281D-01
      0.1039486850D+03  0.6884262226D-01
      0.2921015530D+02  0.2321844432D+00
      0.9286662960D+01  0.4679413484D+00
      0.3163926960D+01  0.3623119853D+00
 SP   3 1.00       0.000000000000
      0.7868272350D+01 -0.1193324198D+00  0.6899906659D-01
      0.1881288540D+01 -0.1608541517D+00  0.3164239610D+00
      0.5442492580D+00  0.1143456438D+01  0.7443082909D+00
 SP   1 1.00       0.000000000000
      0.1687144782D+00  0.1000000000D+01  0.1000000000D+01
 D   1 1.00       0.000000000000
      0.8000000000D+00  0.1000000000D+01
 ****
      8 0
 S   6 1.00       0.000000000000
      0.3047524880D+04  0.1834737132D-02
      0.4573695180D+03  0.1403732281D-01
      0.1039486850D+03  0.6884262226D-01
      0.2921015530D+02  0.2321844432D+00
      0.9286662960D+01  0.4679413484D+00
      0.3163926960D+01  0.3623119853D+00
 SP   3 1.00       0.000000000000
      0.7868272350D+01 -0.1193324198D+00  0.6899906659D-01
      0.1881288540D+01 -0.1608541517D+00  0.3164239610D+00
      0.5442492580D+00  0.1143456438D+01  0.7443082909D+00
 SP   1 1.00       0.000000000000
      0.1687144782D+00  0.1000000000D+01  0.1000000000D+01
 D   1 1.00       0.000000000000
      0.8000000000D+00  0.1000000000D+01
 ****
      9 0
 S   6 1.00       0.000000000000
      0.4173511460D+04  0.1834772160D-02
      0.6274579110D+03  0.1399462700D-01
      0.1429020930D+03  0.6858655181D-01
      0.4023432930D+02  0.2322408730D+00
      0.1282021290D+02  0.4690699481D+00
      0.4390437010D+01  0.3604551991D+00
 SP   3 1.00       0.000000000000
      0.1162636186D+02 -0.1149611817D+00  0.6757974388D-01
      0.2716279807D+01 -0.1691174786D+00  0.3239072959D+00
      0.7722183966D+00  0.1145851947D+01  0.7408951398D+00
 SP   1 1.00       0.000000000000
      0.2120314975D+00  0.1000000000D+01  0.1000000000D+01
 D   1 1.00       0.000000000000
      0.8000000000D+00  0.1000000000D+01
 ****
     10 0
 S   6 1.00       0.000000000000
      0.3047524880D+04  0.1834737132D-02
      0.4573695180D+03  0.1403732281D-01
      0.1039486850D+03  0.6884262226D-01
      0.2921015530D+02  0.2321844432D+00
      0.9286662960D+01  0.4679413484D+00
      0.3163926960D+01  0.3623119853D+00
 SP   3 1.00       0.000000000000
      0.7868272350D+01 -0.1193324198D+00  0.6899906659D-01
      0.1881288540D+01 -0.1608541517D+00  0.3164239610D+00
      0.5442492580D+00  0.1143456438D+01  0.7443082909D+00
 SP   1 1.00       0.000000000000
      0.1687144782D+00  0.1000000000D+01  0.1000000000D+01
 D   1 1.00       0.000000000000
      0.8000000000D+00  0.1000000000D+01
 ****
     11 0
 S   6 1.00       0.000000000000
      0.3047524880D+04  0.1834737132D-02
      0.4573695180D+03  0.1403732281D-01
      0.1039486850D+03  0.6884262226D-01
      0.2921015530D+02  0.2321844432D+00
      0.9286662960D+01  0.4679413484D+00
      0.3163926960D+01  0.3623119853D+00
 SP   3 1.00       0.000000000000
      0.7868272350D+01 -0.1193324198D+00  0.6899906659D-01
      0.1881288540D+01 -0.1608541517D+00  0.3164239610D+00
      0.5442492580D+00  0.1143456438D+01  0.7443082909D+00
 SP   1 1.00       0.000000000000
      0.1687144782D+00  0.1000000000D+01  0.1000000000D+01
 D   1 1.00       0.000000000000
      0.8000000000D+00  0.1000000000D+01
 ****
     12 0
 S   6 1.00       0.000000000000
      0.3047524880D+04  0.1834737132D-02
      0.4573695180D+03  0.1403732281D-01
      0.1039486850D+03  0.6884262226D-01
      0.2921015530D+02  0.2321844432D+00
      0.9286662960D+01  0.4679413484D+00
      0.3163926960D+01  0.3623119853D+00
 SP   3 1.00       0.000000000000
      0.7868272350D+01 -0.1193324198D+00  0.6899906659D-01
      0.1881288540D+01 -0.1608541517D+00  0.3164239610D+00
      0.5442492580D+00  0.1143456438D+01  0.7443082909D+00
 SP   1 1.00       0.000000000000
      0.1687144782D+00  0.1000000000D+01  0.1000000000D+01
 D   1 1.00       0.000000000000
      0.8000000000D+00  0.1000000000D+01
 ****
     13 0
 S   6 1.00       0.000000000000
      0.4173511460D+04  0.1834772160D-02
      0.6274579110D+03  0.1399462700D-01
      0.1429020930D+03  0.6858655181D-01
      0.4023432930D+02  0.2322408730D+00
      0.1282021290D+02  0.4690699481D+00
      0.4390437010D+01  0.3604551991D+00
 SP   3 1.00       0.000000000000
      0.1162636186D+02 -0.1149611817D+00  0.6757974388D-01
      0.2716279807D+01 -0.1691174786D+00  0.3239072959D+00
      0.7722183966D+00  0.1145851947D+01  0.7408951398D+00
 SP   1 1.00       0.000000000000
      0.2120314975D+00  0.1000000000D+01  0.1000000000D+01
 D   1 1.00       0.000000000000
      0.8000000000D+00  0.1000000000D+01
 ****
     14 0
 S   6 1.00       0.000000000000
      0.3047524880D+04  0.1834737132D-02
      0.4573695180D+03  0.1403732281D-01
      0.1039486850D+03  0.6884262226D-01
      0.2921015530D+02  0.2321844432D+00
      0.9286662960D+01  0.4679413484D+00
      0.3163926960D+01  0.3623119853D+00
 SP   3 1.00       0.000000000000
      0.7868272350D+01 -0.1193324198D+00  0.6899906659D-01
      0.1881288540D+01 -0.1608541517D+00  0.3164239610D+00
      0.5442492580D+00  0.1143456438D+01  0.7443082909D+00
 SP   1 1.00       0.000000000000
      0.1687144782D+00  0.1000000000D+01  0.1000000000D+01
 D   1 1.00       0.000000000000
      0.8000000000D+00  0.1000000000D+01
 ****
     15 0
 S   6 1.00       0.000000000000
      0.3047524880D+04  0.1834737132D-02
      0.4573695180D+03  0.1403732281D-01
      0.1039486850D+03  0.6884262226D-01
      0.2921015530D+02  0.2321844432D+00
      0.9286662960D+01  0.4679413484D+00
      0.3163926960D+01  0.3623119853D+00
 SP   3 1.00       0.000000000000
      0.7868272350D+01 -0.1193324198D+00  0.6899906659D-01
      0.1881288540D+01 -0.1608541517D+00  0.3164239610D+00
      0.5442492580D+00  0.1143456438D+01  0.7443082909D+00
 SP   1 1.00       0.000000000000
      0.1687144782D+00  0.1000000000D+01  0.1000000000D+01
 D   1 1.00       0.000000000000
      0.8000000000D+00  0.1000000000D+01
 ****
     16 0
 S   6 1.00       0.000000000000
      0.3047524880D+04  0.1834737132D-02
      0.4573695180D+03  0.1403732281D-01
      0.1039486850D+03  0.6884262226D-01
      0.2921015530D+02  0.2321844432D+00
      0.9286662960D+01  0.4679413484D+00
      0.3163926960D+01  0.3623119853D+00
 SP   3 1.00       0.000000000000
      0.7868272350D+01 -0.1193324198D+00  0.6899906659D-01
      0.1881288540D+01 -0.1608541517D+00  0.3164239610D+00
      0.5442492580D+00  0.1143456438D+01  0.7443082909D+00
 SP   1 1.00       0.000000000000
      0.1687144782D+00  0.1000000000D+01  0.1000000000D+01
 D   1 1.00       0.000000000000
      0.8000000000D+00  0.1000000000D+01
 ****
     17 0
 S   6 1.00       0.000000000000
      0.3047524880D+04  0.1834737132D-02
      0.4573695180D+03  0.1403732281D-01
      0.1039486850D+03  0.6884262226D-01
      0.2921015530D+02  0.2321844432D+00
      0.9286662960D+01  0.4679413484D+00
      0.3163926960D+01  0.3623119853D+00
 SP   3 1.00       0.000000000000
      0.7868272350D+01 -0.1193324198D+00  0.6899906659D-01
      0.1881288540D+01 -0.1608541517D+00  0.3164239610D+00
      0.5442492580D+00  0.1143456438D+01  0.7443082909D+00
 SP   1 1.00       0.000000000000
      0.1687144782D+00  0.1000000000D+01  0.1000000000D+01
 D   1 1.00       0.000000000000
      0.8000000000D+00  0.1000000000D+01
 ****
     18 0
 S   6 1.00       0.000000000000
      0.3047524880D+04  0.1834737132D-02
      0.4573695180D+03  0.1403732281D-01
      0.1039486850D+03  0.6884262226D-01
      0.2921015530D+02  0.2321844432D+00
      0.9286662960D+01  0.4679413484D+00
      0.3163926960D+01  0.3623119853D+00
 SP   3 1.00       0.000000000000
      0.7868272350D+01 -0.1193324198D+00  0.6899906659D-01
      0.1881288540D+01 -0.1608541517D+00  0.3164239610D+00
      0.5442492580D+00  0.1143456438D+01  0.7443082909D+00
 SP   1 1.00       0.000000000000
      0.1687144782D+00  0.1000000000D+01  0.1000000000D+01
 D   1 1.00       0.000000000000
      0.8000000000D+00  0.1000000000D+01
 ****
     19 0
 S   6 1.00       0.000000000000
      0.3047524880D+04  0.1834737132D-02
      0.4573695180D+03  0.1403732281D-01
      0.1039486850D+03  0.6884262226D-01
      0.2921015530D+02  0.2321844432D+00
      0.9286662960D+01  0.4679413484D+00
      0.3163926960D+01  0.3623119853D+00
 SP   3 1.00       0.000000000000
      0.7868272350D+01 -0.1193324198D+00  0.6899906659D-01
      0.1881288540D+01 -0.1608541517D+00  0.3164239610D+00
      0.5442492580D+00  0.1143456438D+01  0.7443082909D+00
 SP   1 1.00       0.000000000000
      0.1687144782D+00  0.1000000000D+01  0.1000000000D+01
 D   1 1.00       0.000000000000
      0.8000000000D+00  0.1000000000D+01
 ****
     20 0
 S   6 1.00       0.000000000000
      0.4173511460D+04  0.1834772160D-02
      0.6274579110D+03  0.1399462700D-01
      0.1429020930D+03  0.6858655181D-01
      0.4023432930D+02  0.2322408730D+00
      0.1282021290D+02  0.4690699481D+00
      0.4390437010D+01  0.3604551991D+00
 SP   3 1.00       0.000000000000
      0.1162636186D+02 -0.1149611817D+00  0.6757974388D-01
      0.2716279807D+01 -0.1691174786D+00  0.3239072959D+00
      0.7722183966D+00  0.1145851947D+01  0.7408951398D+00
 SP   1 1.00       0.000000000000
      0.2120314975D+00  0.1000000000D+01  0.1000000000D+01
 D   1 1.00       0.000000000000
      0.8000000000D+00  0.1000000000D+01
 ****
     21 0
 S   6 1.00       0.000000000000
      0.3047524880D+04  0.1834737132D-02
      0.4573695180D+03  0.1403732281D-01
      0.1039486850D+03  0.6884262226D-01
      0.2921015530D+02  0.2321844432D+00
      0.9286662960D+01  0.4679413484D+00
      0.3163926960D+01  0.3623119853D+00
 SP   3 1.00       0.000000000000
      0.7868272350D+01 -0.1193324198D+00  0.6899906659D-01
      0.1881288540D+01 -0.1608541517D+00  0.3164239610D+00
      0.5442492580D+00  0.1143456438D+01  0.7443082909D+00
 SP   1 1.00       0.000000000000
      0.1687144782D+00  0.1000000000D+01  0.1000000000D+01
 D   1 1.00       0.000000000000
      0.8000000000D+00  0.1000000000D+01
 ****
     22 0
 S   6 1.00       0.000000000000
      0.3047524880D+04  0.1834737132D-02
      0.4573695180D+03  0.1403732281D-01
      0.1039486850D+03  0.6884262226D-01
      0.2921015530D+02  0.2321844432D+00
      0.9286662960D+01  0.4679413484D+00
      0.3163926960D+01  0.3623119853D+00
 SP   3 1.00       0.000000000000
      0.7868272350D+01 -0.1193324198D+00  0.6899906659D-01
      0.1881288540D+01 -0.1608541517D+00  0.3164239610D+00
      0.5442492580D+00  0.1143456438D+01  0.7443082909D+00
 SP   1 1.00       0.000000000000
      0.1687144782D+00  0.1000000000D+01  0.1000000000D+01
 D   1 1.00       0.000000000000
      0.8000000000D+00  0.1000000000D+01
 ****
     23 0
 S   6 1.00       0.000000000000
      0.3047524880D+04  0.1834737132D-02
      0.4573695180D+03  0.1403732281D-01
      0.1039486850D+03  0.6884262226D-01
      0.2921015530D+02  0.2321844432D+00
      0.9286662960D+01  0.4679413484D+00
      0.3163926960D+01  0.3623119853D+00
 SP   3 1.00       0.000000000000
      0.7868272350D+01 -0.1193324198D+00  0.6899906659D-01
      0.1881288540D+01 -0.1608541517D+00  0.3164239610D+00
      0.5442492580D+00  0.1143456438D+01  0.7443082909D+00
 SP   1 1.00       0.000000000000
      0.1687144782D+00  0.1000000000D+01  0.1000000000D+01
 D   1 1.00       0.000000000000
      0.8000000000D+00  0.1000000000D+01
 ****
     24 0
 S   6 1.00       0.000000000000
      0.3047524880D+04  0.1834737132D-02
      0.4573695180D+03  0.1403732281D-01
      0.1039486850D+03  0.6884262226D-01
      0.2921015530D+02  0.2321844432D+00
      0.9286662960D+01  0.4679413484D+00
      0.3163926960D+01  0.3623119853D+00
 SP   3 1.00       0.000000000000
      0.7868272350D+01 -0.1193324198D+00  0.6899906659D-01
      0.1881288540D+01 -0.1608541517D+00  0.3164239610D+00
      0.5442492580D+00  0.1143456438D+01  0.7443082909D+00
 SP   1 1.00       0.000000000000
      0.1687144782D+00  0.1000000000D+01  0.1000000000D+01
 D   1 1.00       0.000000000000
      0.8000000000D+00  0.1000000000D+01
 ****
     25 0
 S   6 1.00       0.000000000000
      0.3047524880D+04  0.1834737132D-02
      0.4573695180D+03  0.1403732281D-01
      0.1039486850D+03  0.6884262226D-01
      0.2921015530D+02  0.2321844432D+00
      0.9286662960D+01  0.4679413484D+00
      0.3163926960D+01  0.3623119853D+00
 SP   3 1.00       0.000000000000
      0.7868272350D+01 -0.1193324198D+00  0.6899906659D-01
      0.1881288540D+01 -0.1608541517D+00  0.3164239610D+00
      0.5442492580D+00  0.1143456438D+01  0.7443082909D+00
 SP   1 1.00       0.000000000000
      0.1687144782D+00  0.1000000000D+01  0.1000000000D+01
 D   1 1.00       0.000000000000
      0.8000000000D+00  0.1000000000D+01
 ****
     26 0
 S   6 1.00       0.000000000000
      0.3047524880D+04  0.1834737132D-02
      0.4573695180D+03  0.1403732281D-01
      0.1039486850D+03  0.6884262226D-01
      0.2921015530D+02  0.2321844432D+00
      0.9286662960D+01  0.4679413484D+00
      0.3163926960D+01  0.3623119853D+00
 SP   3 1.00       0.000000000000
      0.7868272350D+01 -0.1193324198D+00  0.6899906659D-01
      0.1881288540D+01 -0.1608541517D+00  0.3164239610D+00
      0.5442492580D+00  0.1143456438D+01  0.7443082909D+00
 SP   1 1.00       0.000000000000
      0.1687144782D+00  0.1000000000D+01  0.1000000000D+01
 D   1 1.00       0.000000000000
      0.8000000000D+00  0.1000000000D+01
 ****
     27 0
 S   6 1.00       0.000000000000
      0.3047524880D+04  0.1834737132D-02
      0.4573695180D+03  0.1403732281D-01
      0.1039486850D+03  0.6884262226D-01
      0.2921015530D+02  0.2321844432D+00
      0.9286662960D+01  0.4679413484D+00
      0.3163926960D+01  0.3623119853D+00
 SP   3 1.00       0.000000000000
      0.7868272350D+01 -0.1193324198D+00  0.6899906659D-01
      0.1881288540D+01 -0.1608541517D+00  0.3164239610D+00
      0.5442492580D+00  0.1143456438D+01  0.7443082909D+00
 SP   1 1.00       0.000000000000
      0.1687144782D+00  0.1000000000D+01  0.1000000000D+01
 D   1 1.00       0.000000000000
      0.8000000000D+00  0.1000000000D+01
 ****
     28 0
 S   6 1.00       0.000000000000
      0.3047524880D+04  0.1834737132D-02
      0.4573695180D+03  0.1403732281D-01
      0.1039486850D+03  0.6884262226D-01
      0.2921015530D+02  0.2321844432D+00
      0.9286662960D+01  0.4679413484D+00
      0.3163926960D+01  0.3623119853D+00
 SP   3 1.00       0.000000000000
      0.7868272350D+01 -0.1193324198D+00  0.6899906659D-01
      0.1881288540D+01 -0.1608541517D+00  0.3164239610D+00
      0.5442492580D+00  0.1143456438D+01  0.7443082909D+00
 SP   1 1.00       0.000000000000
      0.1687144782D+00  0.1000000000D+01  0.1000000000D+01
 D   1 1.00       0.000000000000
      0.8000000000D+00  0.1000000000D+01
 ****
     29 0
 S   6 1.00       0.000000000000
      0.3047524880D+04  0.1834737132D-02
      0.4573695180D+03  0.1403732281D-01
      0.1039486850D+03  0.6884262226D-01
      0.2921015530D+02  0.2321844432D+00
      0.9286662960D+01  0.4679413484D+00
      0.3163926960D+01  0.3623119853D+00
 SP   3 1.00       0.000000000000
      0.7868272350D+01 -0.1193324198D+00  0.6899906659D-01
      0.1881288540D+01 -0.1608541517D+00  0.3164239610D+00
      0.5442492580D+00  0.1143456438D+01  0.7443082909D+00
 SP   1 1.00       0.000000000000
      0.1687144782D+00  0.1000000000D+01  0.1000000000D+01
 D   1 1.00       0.000000000000
      0.8000000000D+00  0.1000000000D+01
 ****
     30 0
 S   6 1.00       0.000000000000
      0.5484671660D+04  0.1831074430D-02
      0.8252349460D+03  0.1395017220D-01
      0.1880469580D+03  0.6844507810D-01
      0.5296450000D+02  0.2327143360D+00
      0.1689757040D+02  0.4701928980D+00
      0.5799635340D+01  0.3585208530D+00
 SP   3 1.00       0.000000000000
      0.1553961625D+02 -0.1107775495D+00  0.7087426823D-01
      0.3599933586D+01 -0.1480262627D+00  0.3397528391D+00
      0.1013761750D+01  0.1130767015D+01  0.7271585773D+00
 SP   1 1.00       0.000000000000
      0.2700058226D+00  0.1000000000D+01  0.1000000000D+01
 D   1 1.00       0.000000000000
      0.8000000000D+00  0.1000000000D+01
 ****
     31 0
 S   6 1.00       0.000000000000
      0.4173511460D+04  0.1834772160D-02
      0.6274579110D+03  0.1399462700D-01
      0.1429020930D+03  0.6858655181D-01
      0.4023432930D+02  0.2322408730D+00
      0.1282021290D+02  0.4690699481D+00
      0.4390437010D+01  0.3604551991D+00
 SP   3 1.00       0.000000000000
      0.1162636186D+02 -0.1149611817D+00  0.6757974388D-01
      0.2716279807D+01 -0.1691174786D+00  0.3239072959D+00
      0.7722183966D+00  0.1145851947D+01  0.7408951398D+00
 SP   1 1.00       0.000000000000
      0.2120314975D+00  0.1000000000D+01  0.1000000000D+01
 D   1 1.00       0.000000000000
      0.8000000000D+00  0.1000000000D+01
 ****
     32 0
 S   6 1.00       0.000000000000
      0.3047524880D+04  0.1834737132D-02
      0.4573695180D+03  0.1403732281D-01
      0.1039486850D+03  0.6884262226D-01
      0.2921015530D+02  0.2321844432D+00
      0.9286662960D+01  0.4679413484D+00
      0.3163926960D+01  0.3623119853D+00
 SP   3 1.00       0.000000000000
      0.7868272350D+01 -0.1193324198D+00  0.6899906659D-01
      0.1881288540D+01 -0.1608541517D+00  0.3164239610D+00
      0.5442492580D+00  0.1143456438D+01  0.7443082909D+00
 SP   1 1.00       0.000000000000
      0.1687144782D+00  0.1000000000D+01  0.1000000000D+01
 D   1 1.00       0.000000000000
      0.8000000000D+00  0.1000000000D+01
 ****
     33 0
 S   6 1.00       0.000000000000
      0.3047524880D+04  0.1834737132D-02
      0.4573695180D+03  0.1403732281D-01
      0.1039486850D+03  0.6884262226D-01
      0.2921015530D+02  0.2321844432D+00
      0.9286662960D+01  0.4679413484D+00
      0.3163926960D+01  0.3623119853D+00
 SP   3 1.00       0.000000000000
      0.7868272350D+01 -0.1193324198D+00  0.6899906659D-01
      0.1881288540D+01 -0.1608541517D+00  0.3164239610D+00
      0.5442492580D+00  0.1143456438D+01  0.7443082909D+00
 SP   1 1.00       0.000000000000
      0.1687144782D+00  0.1000000000D+01  0.1000000000D+01
 D   1 1.00       0.000000000000
      0.8000000000D+00  0.1000000000D+01
 ****
     34 0
 S   6 1.00       0.000000000000
      0.3047524880D+04  0.1834737132D-02
      0.4573695180D+03  0.1403732281D-01
      0.1039486850D+03  0.6884262226D-01
      0.2921015530D+02  0.2321844432D+00
      0.9286662960D+01  0.4679413484D+00
      0.3163926960D+01  0.3623119853D+00
 SP   3 1.00       0.000000000000
      0.7868272350D+01 -0.1193324198D+00  0.6899906659D-01
      0.1881288540D+01 -0.1608541517D+00  0.3164239610D+00
      0.5442492580D+00  0.1143456438D+01  0.7443082909D+00
 SP   1 1.00       0.000000000000
      0.1687144782D+00  0.1000000000D+01  0.1000000000D+01
 D   1 1.00       0.000000000000
      0.8000000000D+00  0.1000000000D+01
 ****
     35 0
 S   6 1.00       0.000000000000
      0.4173511460D+04  0.1834772160D-02
      0.6274579110D+03  0.1399462700D-01
      0.1429020930D+03  0.6858655181D-01
      0.4023432930D+02  0.2322408730D+00
      0.1282021290D+02  0.4690699481D+00
      0.4390437010D+01  0.3604551991D+00
 SP   3 1.00       0.000000000000
      0.1162636186D+02 -0.1149611817D+00  0.6757974388D-01
      0.2716279807D+01 -0.1691174786D+00  0.3239072959D+00
      0.7722183966D+00  0.1145851947D+01  0.7408951398D+00
 SP   1 1.00       0.000000000000
      0.2120314975D+00  0.1000000000D+01  0.1000000000D+01
 D   1 1.00       0.000000000000
      0.8000000000D+00  0.1000000000D+01
 ****
     36 0
 S   6 1.00       0.000000000000
      0.3047524880D+04  0.1834737132D-02
      0.4573695180D+03  0.1403732281D-01
      0.1039486850D+03  0.6884262226D-01
      0.2921015530D+02  0.2321844432D+00
      0.9286662960D+01  0.4679413484D+00
      0.3163926960D+01  0.3623119853D+00
 SP   3 1.00       0.000000000000
      0.7868272350D+01 -0.1193324198D+00  0.6899906659D-01
      0.1881288540D+01 -0.1608541517D+00  0.3164239610D+00
      0.5442492580D+00  0.1143456438D+01  0.7443082909D+00
 SP   1 1.00       0.000000000000
      0.1687144782D+00  0.1000000000D+01  0.1000000000D+01
 D   1 1.00       0.000000000000
      0.8000000000D+00  0.1000000000D+01
 ****
     37 0
 S   6 1.00       0.000000000000
      0.3047524880D+04  0.1834737132D-02
      0.4573695180D+03  0.1403732281D-01
      0.1039486850D+03  0.6884262226D-01
      0.2921015530D+02  0.2321844432D+00
      0.9286662960D+01  0.4679413484D+00
      0.3163926960D+01  0.3623119853D+00
 SP   3 1.00       0.000000000000
      0.7868272350D+01 -0.1193324198D+00  0.6899906659D-01
      0.1881288540D+01 -0.1608541517D+00  0.3164239610D+00
      0.5442492580D+00  0.1143456438D+01  0.7443082909D+00
 SP   1 1.00       0.000000000000
      0.1687144782D+00  0.1000000000D+01  0.1000000000D+01
 D   1 1.00       0.000000000000
      0.8000000000D+00  0.1000000000D+01
 ****
     38 0
 S   3 1.00       0.000000000000
      0.1873113696D+02  0.3349460434D-01
      0.2825394365D+01  0.2347269535D+00
      0.6401216923D+00  0.8137573261D+00
 S   1 1.00       0.000000000000
      0.1612777588D+00  0.1000000000D+01
 ****
     39 0
 S   3 1.00       0.000000000000
      0.1873113696D+02  0.3349460434D-01
      0.2825394365D+01  0.2347269535D+00
      0.6401216923D+00  0.8137573261D+00
 S   1 1.00       0.000000000000
      0.1612777588D+00  0.1000000000D+01
 ****
     40 0
 S   3 1.00       0.000000000000
      0.1873113696D+02  0.3349460434D-01
      0.2825394365D+01  0.2347269535D+00
      0.6401216923D+00  0.8137573261D+00
 S   1 1.00       0.000000000000
      0.1612777588D+00  0.1000000000D+01
 ****
     41 0
 S   3 1.00       0.000000000000
      0.1873113696D+02  0.3349460434D-01
      0.2825394365D+01  0.2347269535D+00
      0.6401216923D+00  0.8137573261D+00
 S   1 1.00       0.000000000000
      0.1612777588D+00  0.1000000000D+01
 ****
     42 0
 S   3 1.00       0.000000000000
      0.1873113696D+02  0.3349460434D-01
      0.2825394365D+01  0.2347269535D+00
      0.6401216923D+00  0.8137573261D+00
 S   1 1.00       0.000000000000
      0.1612777588D+00  0.1000000000D+01
 ****
     43 0
 S   3 1.00       0.000000000000
      0.1873113696D+02  0.3349460434D-01
      0.2825394365D+01  0.2347269535D+00
      0.6401216923D+00  0.8137573261D+00
 S   1 1.00       0.000000000000
      0.1612777588D+00  0.1000000000D+01
 ****
     44 0
 S   3 1.00       0.000000000000
      0.1873113696D+02  0.3349460434D-01
      0.2825394365D+01  0.2347269535D+00
      0.6401216923D+00  0.8137573261D+00
 S   1 1.00       0.000000000000
      0.1612777588D+00  0.1000000000D+01
 ****
     45 0
 S   3 1.00       0.000000000000
      0.1873113696D+02  0.3349460434D-01
      0.2825394365D+01  0.2347269535D+00
      0.6401216923D+00  0.8137573261D+00
 S   1 1.00       0.000000000000
      0.1612777588D+00  0.1000000000D+01
 ****
     46 0
 S   3 1.00       0.000000000000
      0.1873113696D+02  0.3349460434D-01
      0.2825394365D+01  0.2347269535D+00
      0.6401216923D+00  0.8137573261D+00
 S   1 1.00       0.000000000000
      0.1612777588D+00  0.1000000000D+01
 ****
     47 0
 S   3 1.00       0.000000000000
      0.1873113696D+02  0.3349460434D-01
      0.2825394365D+01  0.2347269535D+00
      0.6401216923D+00  0.8137573261D+00
 S   1 1.00       0.000000000000
      0.1612777588D+00  0.1000000000D+01
 ****
     48 0
 S   3 1.00       0.000000000000
      0.1873113696D+02  0.3349460434D-01
      0.2825394365D+01  0.2347269535D+00
      0.6401216923D+00  0.8137573261D+00
 S   1 1.00       0.000000000000
      0.1612777588D+00  0.1000000000D+01
 ****
     49 0
 S   3 1.00       0.000000000000
      0.1873113696D+02  0.3349460434D-01
      0.2825394365D+01  0.2347269535D+00
      0.6401216923D+00  0.8137573261D+00
 S   1 1.00       0.000000000000
      0.1612777588D+00  0.1000000000D+01
 ****
     50 0
 S   3 1.00       0.000000000000
      0.1873113696D+02  0.3349460434D-01
      0.2825394365D+01  0.2347269535D+00
      0.6401216923D+00  0.8137573261D+00
 S   1 1.00       0.000000000000
      0.1612777588D+00  0.1000000000D+01
 ****
     51 0
 S   3 1.00       0.000000000000
      0.1873113696D+02  0.3349460434D-01
      0.2825394365D+01  0.2347269535D+00
      0.6401216923D+00  0.8137573261D+00
 S   1 1.00       0.000000000000
      0.1612777588D+00  0.1000000000D+01
 ****
     52 0
 S   3 1.00       0.000000000000
      0.1873113696D+02  0.3349460434D-01
      0.2825394365D+01  0.2347269535D+00
      0.6401216923D+00  0.8137573261D+00
 S   1 1.00       0.000000000000
      0.1612777588D+00  0.1000000000D+01
 ****
     53 0
 S   3 1.00       0.000000000000
      0.1873113696D+02  0.3349460434D-01
      0.2825394365D+01  0.2347269535D+00
      0.6401216923D+00  0.8137573261D+00
 S   1 1.00       0.000000000000
      0.1612777588D+00  0.1000000000D+01
 ****
     54 0
 S   3 1.00       0.000000000000
      0.1873113696D+02  0.3349460434D-01
      0.2825394365D+01  0.2347269535D+00
      0.6401216923D+00  0.8137573261D+00
 S   1 1.00       0.000000000000
      0.1612777588D+00  0.1000000000D+01
 ****
     55 0
 S   3 1.00       0.000000000000
      0.1873113696D+02  0.3349460434D-01
      0.2825394365D+01  0.2347269535D+00
      0.6401216923D+00  0.8137573261D+00
 S   1 1.00       0.000000000000
      0.1612777588D+00  0.1000000000D+01
 ****
     56 0
 S   3 1.00       0.000000000000
      0.1873113696D+02  0.3349460434D-01
      0.2825394365D+01  0.2347269535D+00
      0.6401216923D+00  0.8137573261D+00
 S   1 1.00       0.000000000000
      0.1612777588D+00  0.1000000000D+01
 ****
     57 0
 S   3 1.00       0.000000000000
      0.1873113696D+02  0.3349460434D-01
      0.2825394365D+01  0.2347269535D+00
      0.6401216923D+00  0.8137573261D+00
 S   1 1.00       0.000000000000
      0.1612777588D+00  0.1000000000D+01
 ****
     58 0
 S   3 1.00       0.000000000000
      0.1873113696D+02  0.3349460434D-01
      0.2825394365D+01  0.2347269535D+00
      0.6401216923D+00  0.8137573261D+00
 S   1 1.00       0.000000000000
      0.1612777588D+00  0.1000000000D+01
 ****
     59 0
 S   3 1.00       0.000000000000
      0.1873113696D+02  0.3349460434D-01
      0.2825394365D+01  0.2347269535D+00
      0.6401216923D+00  0.8137573261D+00
 S   1 1.00       0.000000000000
      0.1612777588D+00  0.1000000000D+01
 ****
     60 0
 S   3 1.00       0.000000000000
      0.1873113696D+02  0.3349460434D-01
      0.2825394365D+01  0.2347269535D+00
      0.6401216923D+00  0.8137573261D+00
 S   1 1.00       0.000000000000
      0.1612777588D+00  0.1000000000D+01
 ****
     61 0
 S   3 1.00       0.000000000000
      0.1873113696D+02  0.3349460434D-01
      0.2825394365D+01  0.2347269535D+00
      0.6401216923D+00  0.8137573261D+00
 S   1 1.00       0.000000000000
      0.1612777588D+00  0.1000000000D+01
 ****
     62 0
 S   3 1.00       0.000000000000
      0.1873113696D+02  0.3349460434D-01
      0.2825394365D+01  0.2347269535D+00
      0.6401216923D+00  0.8137573261D+00
 S   1 1.00       0.000000000000
      0.1612777588D+00  0.1000000000D+01
 ****

   605 basis functions,  1136 primitive gaussians,   605 cartesian basis functions
   129 alpha electrons      129 beta electrons
       nuclear repulsion energy      3648.0168956081 Hartrees.
 IExCor=  402 DFT=T Ex+Corr=B3LYP ExCW=0 ScaHFX=  0.200000
 ScaDFX=  0.800000  0.720000  1.000000  0.810000 ScalE2=  1.000000  1.000000
 IRadAn=      5 IRanWt=     -1 IRanGd=            0 ICorTp=0 IEmpDi=  4
 NAtoms=   62 NActive=   62 NUniq=   62 SFac= 1.00D+00 NAtFMM=   60 NAOKFM=T Big=T
 Integral buffers will be    131072 words long.
 Regular integral format.
 Two-electron integral symmetry is turned off.
 Leave Link  301 at Sat Nov  5 09:25:12 2022, MaxMem=   402653184 cpu:               1.4 elap:               0.1
 (Enter /home/wykgroup/appl/g16/l302.exe)
 NPDir=0 NMtPBC=     1 NCelOv=     1 NCel=       1 NClECP=     1 NCelD=      1
         NCelK=      1 NCelE2=     1 NClLst=     1 CellRange=     0.0.
 One-electron integrals computed using PRISM.
 NBasis=   605 RedAO= T EigKep=  3.24D-04  NBF=   605
 NBsUse=   605 1.00D-06 EigRej= -1.00D+00 NBFU=   605
 Precomputing XC quadrature grid using
 IXCGrd= 4 IRadAn=           5 IRanWt=          -1 IRanGd=           0 AccXCQ= 0.00D+00.
 Generated NRdTot=       0 NPtTot=           0 NUsed=           0 NTot=          32
 NSgBfM=   566   561   566   566   566 MxSgAt=    62 MxSgA2=    62.
 Leave Link  302 at Sat Nov  5 09:25:14 2022, MaxMem=   402653184 cpu:              16.9 elap:               1.3
 (Enter /home/wykgroup/appl/g16/l303.exe)
 DipDrv:  MaxL=1.
 Leave Link  303 at Sat Nov  5 09:25:14 2022, MaxMem=   402653184 cpu:               1.5 elap:               0.2
 (Enter /home/wykgroup/appl/g16/l308.exe)
 Leave Link  308 at Sat Nov  5 09:25:14 2022, MaxMem=   402653184 cpu:               2.5 elap:               0.3
 (Enter /home/wykgroup/appl/g16/l401.exe)
 ExpMin= 1.61D-01 ExpMax= 5.48D+03 ExpMxC= 8.25D+02 IAcc=3 IRadAn=         5 AccDes= 0.00D+00
 Harris functional with IExCor=  402 and IRadAn=       5 diagonalized for initial guess.
 HarFok:  IExCor=  402 AccDes= 0.00D+00 IRadAn=         5 IDoV= 1 UseB2=F ITyADJ=14
 ICtDFT=  3500011 ScaDFX=  1.000000  1.000000  1.000000  1.000000
 FoFCou: FMM=F IPFlag=           0 FMFlag=      100000 FMFlg1=        2001
         NFxFlg=           0 DoJE=T BraDBF=F KetDBF=T FulRan=T
         wScrn=  0.000000 ICntrl=       500 IOpCl=  0 I1Cent=   200000004 NGrid=           0
         NMat0=    1 NMatS0=      1 NMatT0=    0 NMatD0=    1 NMtDS0=    0 NMtDT0=    0
 Symmetry not used in FoFCou.
 Harris En= -1619.54901135638    
 JPrj=0 DoOrth=F DoCkMO=F.
 Leave Link  401 at Sat Nov  5 09:25:17 2022, MaxMem=   402653184 cpu:              36.1 elap:               2.7
 (Enter /home/wykgroup/appl/g16/l502.exe)
 Two-electron integral symmetry not used.
 Closed shell SCF:
 Using DIIS extrapolation, IDIIS=  1040.
 NGot=   402653184 LenX=   401907551 LenY=   401540921
 Requested convergence on RMS density matrix=1.00D-08 within  32 cycles.
 Requested convergence on MAX density matrix=1.00D-06.
 Requested convergence on             energy=1.00D-06.
 No special actions if energy rises.
 Fock matrices will be formed incrementally for  20 cycles.
 Integral accuracy reduced to 1.0D-05 until final iterations.

 Cycle   1  Pass 0  IDiag  1:
 FoFJK:  IHMeth= 1 ICntrl=       0 DoSepK=F KAlg= 0 I1Cent=           0 FoldK=F
 IRaf= 800000000 NMat=       1 IRICut=       1 DoRegI=T DoRafI=F ISym2E= 0 IDoP0=0 IntGTp=1.
 FoFCou: FMM=T IPFlag=           0 FMFlag=      100000 FMFlg1=        2001
         NFxFlg=           0 DoJE=F BraDBF=F KetDBF=F FulRan=T
         wScrn=  0.000000 ICntrl=         0 IOpCl=  0 I1Cent=           0 NGrid=           0
         NMat0=    1 NMatS0=      1 NMatT0=    0 NMatD0=    1 NMtDS0=    0 NMtDT0=    0
 Symmetry not used in FoFCou.
 FMM levels:  10  Number of levels for PrismC:   9
 E= -1618.81039090028    
 DIIS: error= 2.17D-02 at cycle   1 NSaved=   1.
 NSaved= 1 IEnMin= 1 EnMin= -1618.81039090028     IErMin= 1 ErrMin= 2.17D-02
 ErrMax= 2.17D-02  0.00D+00 EMaxC= 1.00D-01 BMatC= 8.32D-01 BMatP= 8.32D-01
 IDIUse=3 WtCom= 7.83D-01 WtEn= 2.17D-01
 Coeff-Com:  0.100D+01
 Coeff-En:   0.100D+01
 Coeff:      0.100D+01
 Gap=     0.118 Goal=   None    Shift=    0.000
 GapD=    0.118 DampG=1.000 DampE=0.500 DampFc=0.5000 IDamp=-1.
 Damping current iteration by 5.00D-01
 RMSDP=4.05D-03 MaxDP=2.22D-01              OVMax= 2.84D-01

 Cycle   2  Pass 0  IDiag  1:
 RMSU=  2.00D-03    CP:  9.76D-01
 E= -1619.03122941115     Delta-E=       -0.220838510877 Rises=F Damp=T
 DIIS: error= 1.11D-02 at cycle   2 NSaved=   2.
 NSaved= 2 IEnMin= 2 EnMin= -1619.03122941115     IErMin= 2 ErrMin= 1.11D-02
 ErrMax= 1.11D-02  0.00D+00 EMaxC= 1.00D-01 BMatC= 1.58D-01 BMatP= 8.32D-01
 IDIUse=3 WtCom= 8.89D-01 WtEn= 1.11D-01
 Coeff-Com:  0.218D+00 0.782D+00
 Coeff-En:   0.331D+00 0.669D+00
 Coeff:      0.230D+00 0.770D+00
 Gap=     0.141 Goal=   None    Shift=    0.000
 RMSDP=1.48D-03 MaxDP=1.33D-01 DE=-2.21D-01 OVMax= 2.97D-01

 Cycle   3  Pass 0  IDiag  1:
 RMSU=  1.34D-03    CP:  9.58D-01  7.26D-01
 E= -1619.45539768134     Delta-E=       -0.424168270188 Rises=F Damp=F
 DIIS: error= 1.23D-02 at cycle   3 NSaved=   3.
 NSaved= 3 IEnMin= 3 EnMin= -1619.45539768134     IErMin= 2 ErrMin= 1.11D-02
 ErrMax= 1.23D-02  0.00D+00 EMaxC= 1.00D-01 BMatC= 1.62D-01 BMatP= 1.58D-01
 IDIUse=3 WtCom= 8.77D-01 WtEn= 1.23D-01
 Coeff-Com:  0.424D-01 0.494D+00 0.463D+00
 Coeff-En:   0.000D+00 0.000D+00 0.100D+01
 Coeff:      0.372D-01 0.434D+00 0.529D+00
 Gap=     0.124 Goal=   None    Shift=    0.000
 RMSDP=9.88D-04 MaxDP=7.96D-02 DE=-4.24D-01 OVMax= 1.18D-01

 Cycle   4  Pass 0  IDiag  1:
 RMSU=  6.17D-04    CP:  9.63D-01  8.91D-01  4.84D-01
 E= -1619.56822696556     Delta-E=       -0.112829284219 Rises=F Damp=F
 DIIS: error= 5.75D-03 at cycle   4 NSaved=   4.
 NSaved= 4 IEnMin= 4 EnMin= -1619.56822696556     IErMin= 4 ErrMin= 5.75D-03
 ErrMax= 5.75D-03  0.00D+00 EMaxC= 1.00D-01 BMatC= 3.99D-02 BMatP= 1.58D-01
 IDIUse=3 WtCom= 9.42D-01 WtEn= 5.75D-02
 Coeff-Com:  0.983D-02 0.127D+00 0.342D+00 0.522D+00
 Coeff-En:   0.000D+00 0.000D+00 0.236D+00 0.764D+00
 Coeff:      0.926D-02 0.119D+00 0.336D+00 0.536D+00
 Gap=     0.122 Goal=   None    Shift=    0.000
 RMSDP=4.02D-04 MaxDP=3.27D-02 DE=-1.13D-01 OVMax= 5.19D-02

 Cycle   5  Pass 0  IDiag  1:
 RMSU=  2.10D-04    CP:  9.63D-01  8.25D-01  6.22D-01  5.85D-01
 E= -1619.60020541598     Delta-E=       -0.031978450416 Rises=F Damp=F
 DIIS: error= 1.98D-03 at cycle   5 NSaved=   5.
 NSaved= 5 IEnMin= 5 EnMin= -1619.60020541598     IErMin= 5 ErrMin= 1.98D-03
 ErrMax= 1.98D-03  0.00D+00 EMaxC= 1.00D-01 BMatC= 3.42D-03 BMatP= 3.99D-02
 IDIUse=3 WtCom= 9.80D-01 WtEn= 1.98D-02
 Coeff-Com:  0.174D-02 0.196D-01 0.154D+00 0.341D+00 0.484D+00
 Coeff-En:   0.000D+00 0.000D+00 0.000D+00 0.422D-01 0.958D+00
 Coeff:      0.170D-02 0.192D-01 0.151D+00 0.335D+00 0.493D+00
 Gap=     0.122 Goal=   None    Shift=    0.000
 RMSDP=1.39D-04 MaxDP=1.05D-02 DE=-3.20D-02 OVMax= 2.74D-02

 Cycle   6  Pass 0  IDiag  1:
 RMSU=  7.35D-05    CP:  9.62D-01  8.29D-01  6.28D-01  6.33D-01  4.61D-01
 E= -1619.60302075727     Delta-E=       -0.002815341292 Rises=F Damp=F
 DIIS: error= 8.63D-04 at cycle   6 NSaved=   6.
 NSaved= 6 IEnMin= 6 EnMin= -1619.60302075727     IErMin= 6 ErrMin= 8.63D-04
 ErrMax= 8.63D-04  0.00D+00 EMaxC= 1.00D-01 BMatC= 5.40D-04 BMatP= 3.42D-03
 IDIUse=3 WtCom= 9.91D-01 WtEn= 8.63D-03
 Coeff-Com:  0.360D-03-0.586D-03 0.631D-01 0.162D+00 0.335D+00 0.440D+00
 Coeff-En:   0.000D+00 0.000D+00 0.000D+00 0.000D+00 0.147D+00 0.853D+00
 Coeff:      0.357D-03-0.581D-03 0.625D-01 0.161D+00 0.333D+00 0.444D+00
 Gap=     0.123 Goal=   None    Shift=    0.000
 RMSDP=5.15D-05 MaxDP=2.96D-03 DE=-2.82D-03 OVMax= 1.16D-02

 Cycle   7  Pass 0  IDiag  1:
 RMSU=  2.83D-05    CP:  9.62D-01  8.31D-01  6.29D-01  6.34D-01  5.44D-01
                    CP:  4.68D-01
 E= -1619.60351859792     Delta-E=       -0.000497840654 Rises=F Damp=F
 DIIS: error= 2.49D-04 at cycle   7 NSaved=   7.
 NSaved= 7 IEnMin= 7 EnMin= -1619.60351859792     IErMin= 7 ErrMin= 2.49D-04
 ErrMax= 2.49D-04  0.00D+00 EMaxC= 1.00D-01 BMatC= 6.18D-05 BMatP= 5.40D-04
 IDIUse=3 WtCom= 9.98D-01 WtEn= 2.49D-03
 Coeff-Com:  0.386D-04-0.270D-02 0.184D-01 0.538D-01 0.148D+00 0.298D+00
 Coeff-Com:  0.485D+00
 Coeff-En:   0.000D+00 0.000D+00 0.000D+00 0.000D+00 0.000D+00 0.896D-01
 Coeff-En:   0.910D+00
 Coeff:      0.385D-04-0.269D-02 0.184D-01 0.537D-01 0.147D+00 0.297D+00
 Coeff:      0.486D+00
 Gap=     0.123 Goal=   None    Shift=    0.000
 RMSDP=1.66D-05 MaxDP=1.13D-03 DE=-4.98D-04 OVMax= 2.19D-03

 Cycle   8  Pass 0  IDiag  1:
 RMSU=  8.71D-06    CP:  9.62D-01  8.30D-01  6.29D-01  6.36D-01  5.54D-01
                    CP:  5.42D-01  5.48D-01
 E= -1619.60357733582     Delta-E=       -0.000058737899 Rises=F Damp=F
 DIIS: error= 6.25D-05 at cycle   8 NSaved=   8.
 NSaved= 8 IEnMin= 8 EnMin= -1619.60357733582     IErMin= 8 ErrMin= 6.25D-05
 ErrMax= 6.25D-05  0.00D+00 EMaxC= 1.00D-01 BMatC= 4.54D-06 BMatP= 6.18D-05
 IDIUse=1 WtCom= 1.00D+00 WtEn= 0.00D+00
 Coeff-Com:  0.382D-04-0.145D-02 0.484D-02 0.157D-01 0.555D-01 0.137D+00
 Coeff-Com:  0.284D+00 0.505D+00
 Coeff:      0.382D-04-0.145D-02 0.484D-02 0.157D-01 0.555D-01 0.137D+00
 Coeff:      0.284D+00 0.505D+00
 Gap=     0.123 Goal=   None    Shift=    0.000
 RMSDP=5.36D-06 MaxDP=3.07D-04 DE=-5.87D-05 OVMax= 7.86D-04

 Initial convergence to 1.0D-05 achieved.  Increase integral accuracy.
 Cycle   9  Pass 1  IDiag  1:
 E= -1619.60354414615     Delta-E=        0.000033189676 Rises=F Damp=F
 DIIS: error= 1.12D-04 at cycle   1 NSaved=   1.
 NSaved= 1 IEnMin= 1 EnMin= -1619.60354414615     IErMin= 1 ErrMin= 1.12D-04
 ErrMax= 1.12D-04  0.00D+00 EMaxC= 1.00D-01 BMatC= 8.54D-06 BMatP= 8.54D-06
 IDIUse=3 WtCom= 9.99D-01 WtEn= 1.12D-03
 Coeff-Com:  0.100D+01
 Coeff-En:   0.100D+01
 Coeff:      0.100D+01
 Gap=     0.123 Goal=   None    Shift=    0.000
 RMSDP=5.36D-06 MaxDP=3.07D-04 DE= 3.32D-05 OVMax= 7.85D-04

 Cycle  10  Pass 1  IDiag  1:
 RMSU=  8.08D-05    CP:  1.00D+00
 E= -1619.60354888406     Delta-E=       -0.000004737914 Rises=F Damp=F
 DIIS: error= 4.73D-05 at cycle   2 NSaved=   2.
 NSaved= 2 IEnMin= 2 EnMin= -1619.60354888406     IErMin= 2 ErrMin= 4.73D-05
 ErrMax= 4.73D-05  0.00D+00 EMaxC= 1.00D-01 BMatC= 2.57D-06 BMatP= 8.54D-06
 IDIUse=1 WtCom= 1.00D+00 WtEn= 0.00D+00
 Coeff-Com:  0.275D+00 0.725D+00
 Coeff:      0.275D+00 0.725D+00
 Gap=     0.123 Goal=   None    Shift=    0.000
 RMSDP=7.20D-06 MaxDP=3.31D-04 DE=-4.74D-06 OVMax= 1.30D-03

 Cycle  11  Pass 1  IDiag  1:
 RMSU=  7.19D-06    CP:  1.00D+00  1.00D+00
 E= -1619.60354636319     Delta-E=        0.000002520874 Rises=F Damp=F
 DIIS: error= 6.82D-05 at cycle   3 NSaved=   3.
 NSaved= 3 IEnMin= 2 EnMin= -1619.60354888406     IErMin= 2 ErrMin= 4.73D-05
 ErrMax= 6.82D-05  0.00D+00 EMaxC= 1.00D-01 BMatC= 4.96D-06 BMatP= 2.57D-06
 IDIUse=1 WtCom= 1.00D+00 WtEn= 0.00D+00
 Coeff-Com:  0.960D-03 0.582D+00 0.417D+00
 Coeff:      0.960D-03 0.582D+00 0.417D+00
 Gap=     0.123 Goal=   None    Shift=    0.000
 RMSDP=4.29D-06 MaxDP=2.06D-04 DE= 2.52D-06 OVMax= 7.59D-04

 Cycle  12  Pass 1  IDiag  1:
 RMSU=  7.74D-07    CP:  1.00D+00  1.01D+00  4.19D-01
 E= -1619.60355155863     Delta-E=       -0.000005195448 Rises=F Damp=F
 DIIS: error= 9.59D-06 at cycle   4 NSaved=   4.
 NSaved= 4 IEnMin= 4 EnMin= -1619.60355155863     IErMin= 4 ErrMin= 9.59D-06
 ErrMax= 9.59D-06  0.00D+00 EMaxC= 1.00D-01 BMatC= 8.49D-08 BMatP= 2.57D-06
 IDIUse=1 WtCom= 1.00D+00 WtEn= 0.00D+00
 Coeff-Com: -0.349D-02 0.378D+00 0.278D+00 0.347D+00
 Coeff:     -0.349D-02 0.378D+00 0.278D+00 0.347D+00
 Gap=     0.123 Goal=   None    Shift=    0.000
 RMSDP=4.91D-07 MaxDP=3.76D-05 DE=-5.20D-06 OVMax= 5.43D-05

 Cycle  13  Pass 1  IDiag  1:
 RMSU=  2.18D-07    CP:  1.00D+00  1.01D+00  4.20D-01  4.32D-01
 E= -1619.60355162934     Delta-E=       -0.000000070702 Rises=F Damp=F
 DIIS: error= 2.08D-06 at cycle   5 NSaved=   5.
 NSaved= 5 IEnMin= 5 EnMin= -1619.60355162934     IErMin= 5 ErrMin= 2.08D-06
 ErrMax= 2.08D-06  0.00D+00 EMaxC= 1.00D-01 BMatC= 2.38D-09 BMatP= 8.49D-08
 IDIUse=1 WtCom= 1.00D+00 WtEn= 0.00D+00
 Coeff-Com: -0.223D-02 0.214D+00 0.158D+00 0.221D+00 0.409D+00
 Coeff:     -0.223D-02 0.214D+00 0.158D+00 0.221D+00 0.409D+00
 Gap=     0.123 Goal=   None    Shift=    0.000
 RMSDP=1.04D-07 MaxDP=7.71D-06 DE=-7.07D-08 OVMax= 1.28D-05

 Cycle  14  Pass 1  IDiag  1:
 RMSU=  7.34D-08    CP:  1.00D+00  1.01D+00  4.24D-01  4.44D-01  6.87D-01
 E= -1619.60355163153     Delta-E=       -0.000000002196 Rises=F Damp=F
 DIIS: error= 5.56D-07 at cycle   6 NSaved=   6.
 NSaved= 6 IEnMin= 6 EnMin= -1619.60355163153     IErMin= 6 ErrMin= 5.56D-07
 ErrMax= 5.56D-07  0.00D+00 EMaxC= 1.00D-01 BMatC= 1.94D-10 BMatP= 2.38D-09
 IDIUse=1 WtCom= 1.00D+00 WtEn= 0.00D+00
 Coeff-Com: -0.105D-02 0.961D-01 0.712D-01 0.105D+00 0.259D+00 0.470D+00
 Coeff:     -0.105D-02 0.961D-01 0.712D-01 0.105D+00 0.259D+00 0.470D+00
 Gap=     0.123 Goal=   None    Shift=    0.000
 RMSDP=2.84D-08 MaxDP=2.84D-06 DE=-2.20D-09 OVMax= 3.55D-06

 Cycle  15  Pass 1  IDiag  1:
 RMSU=  2.37D-08    CP:  1.00D+00  1.01D+00  4.24D-01  4.46D-01  7.06D-01
                    CP:  8.03D-01
 E= -1619.60355163168     Delta-E=       -0.000000000147 Rises=F Damp=F
 DIIS: error= 1.41D-07 at cycle   7 NSaved=   7.
 NSaved= 7 IEnMin= 7 EnMin= -1619.60355163168     IErMin= 7 ErrMin= 1.41D-07
 ErrMax= 1.41D-07  0.00D+00 EMaxC= 1.00D-01 BMatC= 2.39D-11 BMatP= 1.94D-10
 IDIUse=1 WtCom= 1.00D+00 WtEn= 0.00D+00
 Coeff-Com: -0.367D-03 0.321D-01 0.237D-01 0.370D-01 0.109D+00 0.296D+00
 Coeff-Com:  0.503D+00
 Coeff:     -0.367D-03 0.321D-01 0.237D-01 0.370D-01 0.109D+00 0.296D+00
 Coeff:      0.503D+00
 Gap=     0.123 Goal=   None    Shift=    0.000
 RMSDP=1.04D-08 MaxDP=7.62D-07 DE=-1.47D-10 OVMax= 1.25D-06

 Cycle  16  Pass 1  IDiag  1:
 RMSU=  7.18D-09    CP:  1.00D+00  1.01D+00  4.23D-01  4.47D-01  7.17D-01
                    CP:  8.20D-01  7.15D-01
 E= -1619.60355163170     Delta-E=       -0.000000000022 Rises=F Damp=F
 DIIS: error= 4.26D-08 at cycle   8 NSaved=   8.
 NSaved= 8 IEnMin= 8 EnMin= -1619.60355163170     IErMin= 8 ErrMin= 4.26D-08
 ErrMax= 4.26D-08  0.00D+00 EMaxC= 1.00D-01 BMatC= 3.16D-12 BMatP= 2.39D-11
 IDIUse=1 WtCom= 1.00D+00 WtEn= 0.00D+00
 Coeff-Com: -0.436D-04 0.317D-02 0.233D-02 0.492D-02 0.225D-01 0.974D-01
 Coeff-Com:  0.308D+00 0.562D+00
 Coeff:     -0.436D-04 0.317D-02 0.233D-02 0.492D-02 0.225D-01 0.974D-01
 Coeff:      0.308D+00 0.562D+00
 Gap=     0.123 Goal=   None    Shift=    0.000
 RMSDP=3.72D-09 MaxDP=2.03D-07 DE=-2.18D-11 OVMax= 4.82D-07

 SCF Done:  E(RB3LYP) =  -1619.60355163     A.U. after   16 cycles
            NFock= 16  Conv=0.37D-08     -V/T= 2.0095
 KE= 1.604397443191D+03 PE=-1.105884709059D+04 EE= 4.186829200160D+03
 Leave Link  502 at Sat Nov  5 09:26:23 2022, MaxMem=   402653184 cpu:             877.1 elap:              65.3
 (Enter /home/wykgroup/appl/g16/l508.exe)
 QCSCF skips out because SCF is already converged.
 Leave Link  508 at Sat Nov  5 09:26:23 2022, MaxMem=   402653184 cpu:               0.4 elap:               0.1
 (Enter /home/wykgroup/appl/g16/l801.exe)
 DoSCS=F DFT=T ScalE2(SS,OS)=  1.000000  1.000000
 ExpMin= 1.61D-01 ExpMax= 5.48D+03 ExpMxC= 8.25D+02 IAcc=3 IRadAn=         5 AccDes= 0.00D+00
 HarFok:  IExCor=  205 AccDes= 0.00D+00 IRadAn=         5 IDoV=-2 UseB2=F ITyADJ=14
 ICtDFT= 12500011 ScaDFX=  1.000000  1.000000  1.000000  1.000000
 GSVD:  LWork=       -1665 too small for GESVD, short by        7400 words or        7400 for optimal perf.
 Largest valence mixing into a core orbital is  5.85D-05
 Largest core mixing into a valence orbital is  1.31D-05
 Range of M.O.s used for correlation:    38   605
 NBasis=   605 NAE=   129 NBE=   129 NFC=    37 NFV=     0
 NROrb=    568 NOA=    92 NOB=    92 NVA=   476 NVB=   476
 Leave Link  801 at Sat Nov  5 09:26:25 2022, MaxMem=   402653184 cpu:              11.8 elap:               1.0
 (Enter /home/wykgroup/appl/g16/l914.exe)
 RHF ground state
 Two-electron integral symmetry not used.
 MDV=   402653184 DFT=T DoStab=F Mixed=T DoRPA=T DoScal=F NonHer=T
 Making orbital integer symmetry assigments:
    16 initial guesses have been made.
 Convergence on wavefunction:    0.001000000000000
 Davidson Disk Diagonalization:  ConvIn= 1.00D-03 SkipCon=T Conv= 1.00D-03.
 Max sub-space:  2000 roots to seek:    16 dimension of matrix:        87584
 Iteration     1 Dimension    16 NMult     0 NNew     16
 CISAX will form    16 AO SS matrices at one time.
 NMat=    16 NSing=     8 JSym2X= 0.
 FoFJK:  IHMeth= 1 ICntrl=       0 DoSepK=F KAlg= 0 I1Cent=           0 FoldK=F
 IRaf= 800000000 NMat=      32 IRICut=       1 DoRegI=T DoRafI=F ISym2E= 0 IDoP0=0 IntGTp=1.
 FoFCou: FMM=T IPFlag=           0 FMFlag=      100000 FMFlg1=        2001
         NFxFlg=           0 DoJE=F BraDBF=F KetDBF=F FulRan=T
         wScrn=  0.000000 ICntrl=         0 IOpCl=  0 I1Cent=           0 NGrid=           0
         NMat0=   32 NMatS0=      8 NMatT0=    8 NMatD0=   32 NMtDS0=    0 NMtDT0=    0
 Symmetry not used in FoFCou.
 FMM levels:  10  Number of levels for PrismC:   9
 New state      1 was old state      2
 New state      2 was old state      8
 New state      3 was old state     10
 New state      4 was old state      6
 New state      5 was old state      3
 New state      6 was old state      4
 New state      7 was old state      9
 New state      8 was old state      1
 Excitation Energies [eV] at current iteration:
 Root      1 :     2.330870512297571
 Root      2 :     3.101411105571905
 Root      3 :     3.316400992422851
 Root      4 :     3.408409283836594
 Root      5 :     3.442702534252916
 Root      6 :     3.452268124982960
 Root      7 :     3.526154976468788
 Root      8 :     3.549811611153943
 Root      9 :     3.776537037191502
 Root     10 :     3.968990825588614
 Root     11 :     3.991965634374929
 Root     12 :     4.139544248885555
 Root     13 :     4.153329181761649
 Root     14 :     4.166390632665130
 Root     15 :     4.181406176231254
 Root     16 :     4.359339095551308
 Vector   3 SDiff=3.19D+00 TDiff=1.17D+02 assumed to be singlet.
 Vector   4 SDiff=4.27D+00 TDiff=1.58D+01 assumed to be singlet.
 Vector   7 SDiff=3.21D+00 TDiff=8.59D+01 assumed to be singlet.
 Vector   8 SDiff=3.59D+00 TDiff=1.10D+01 assumed to be singlet.
 Iteration     2 Dimension    24 NMult    16 NNew      8
 CISAX will form     8 AO SS matrices at one time.
 NMat=     8 NSing=     4 JSym2X= 0.
 Root      1 not converged, maximum delta is    0.130221079689872
 Root      2 not converged, maximum delta is    0.088118417422577
 New state      3 was old state      5
 Root      3 not converged, maximum delta is    0.511367561812938
 New state      4 was old state      7
 Root      4 not converged, maximum delta is    0.134654854411258
 Excitation Energies [eV] at current iteration:
 Root      1 :     2.102298661034076   Change is   -0.228571851263496
 Root      2 :     2.943833415823627   Change is   -0.157577689748278
 Root      3 :     3.159718952494248   Change is   -0.282983581758669
 Root      4 :     3.448463741101080   Change is   -0.077691235367708
 Iteration     3 Dimension    32 NMult    24 NNew      8
 CISAX will form     8 AO SS matrices at one time.
 NMat=     8 NSing=     4 JSym2X= 0.
 Root      1 not converged, maximum delta is    0.032654605017135
 Root      2 not converged, maximum delta is    0.028688445163124
 Root      3 not converged, maximum delta is    0.049106312991669
 Root      4 not converged, maximum delta is    0.105564881782965
 Excitation Energies [eV] at current iteration:
 Root      1 :     2.072312406694698   Change is   -0.029986254339378
 Root      2 :     2.923330347332247   Change is   -0.020503068491379
 Root      3 :     3.088015661691533   Change is   -0.071703290802715
 Root      4 :     3.427800739462604   Change is   -0.020663001638476
 Iteration     4 Dimension    40 NMult    32 NNew      8
 CISAX will form     8 AO SS matrices at one time.
 NMat=     8 NSing=     4 JSym2X= 0.
 Root      1 not converged, maximum delta is    0.010166332910704
 Root      2 not converged, maximum delta is    0.014394529602929
 Root      3 not converged, maximum delta is    0.024125639126529
 Root      4 not converged, maximum delta is    0.024850054940556
 Excitation Energies [eV] at current iteration:
 Root      1 :     2.069685864287361   Change is   -0.002626542407337
 Root      2 :     2.919802062275800   Change is   -0.003528285056447
 Root      3 :     3.076219573445384   Change is   -0.011796088246149
 Root      4 :     3.425598245336153   Change is   -0.002202494126452
 Iteration     5 Dimension    48 NMult    40 NNew      8
 CISAX will form     8 AO SS matrices at one time.
 NMat=     8 NSing=     4 JSym2X= 0.
 Root      1 not converged, maximum delta is    0.002244590220245
 Root      2 not converged, maximum delta is    0.008712934602562
 Root      3 not converged, maximum delta is    0.006443793758779
 Root      4 not converged, maximum delta is    0.021901908726788
 Excitation Energies [eV] at current iteration:
 Root      1 :     2.069416316091060   Change is   -0.000269548196301
 Root      2 :     2.918843160437811   Change is   -0.000958901837990
 Root      3 :     3.073922361489175   Change is   -0.002297211956209
 Root      4 :     3.424866957214100   Change is   -0.000731288122052
 Iteration     6 Dimension    56 NMult    48 NNew      8
 CISAX will form     8 AO SS matrices at one time.
 NMat=     8 NSing=     4 JSym2X= 0.
 Root      1 has converged.
 Root      2 not converged, maximum delta is    0.002074182897141
 Root      3 not converged, maximum delta is    0.001067401826107
 Root      4 not converged, maximum delta is    0.006744761409706
 Excitation Energies [eV] at current iteration:
 Root      1 :     2.069398246344554   Change is   -0.000018069746506
 Root      2 :     2.918698746190915   Change is   -0.000144414246896
 Root      3 :     3.073615095921200   Change is   -0.000307265567975
 Root      4 :     3.424767887178187   Change is   -0.000099070035914
 Iteration     7 Dimension    62 NMult    56 NNew      6
 CISAX will form     6 AO SS matrices at one time.
 NMat=     6 NSing=     4 JSym2X= 0.
 Root      1 has converged.
 Root      2 has converged.
 Root      3 has converged.
 Root      4 not converged, maximum delta is    0.002012429916853
 Excitation Energies [eV] at current iteration:
 Root      1 :     2.069397703857245   Change is   -0.000000542487308
 Root      2 :     2.918680669575297   Change is   -0.000018076615618
 Root      3 :     3.073563616622688   Change is   -0.000051479298512
 Root      4 :     3.424744794547024   Change is   -0.000023092631163
 Iteration     8 Dimension    64 NMult    62 NNew      2
 CISAX will form     2 AO SS matrices at one time.
 NMat=     2 NSing=     2 JSym2X= 0.
 Root      1 has converged.
 Root      2 has converged.
 Root      3 has converged.
 Root      4 has converged.
 Excitation Energies [eV] at current iteration:
 Root      1 :     2.069397703857285   Change is    0.000000000000040
 Root      2 :     2.918680669575240   Change is   -0.000000000000056
 Root      3 :     3.073562320569746   Change is   -0.000001296052942
 Root      4 :     3.424740708784969   Change is   -0.000004085762055
 Convergence achieved on expansion vectors.
 ***********************************************************************
 Excited states from <AA,BB:AA,BB> singles matrix:
 ***********************************************************************
 
 1PDM for each excited state written to RWF  633
 Ground to excited state transition densities written to RWF  633
 Ground to excited state transition electric dipole moments (Au):
       state          X           Y           Z        Dip. S.      Osc.
         1        -0.0000     -0.0000     -0.0000      0.0000      0.0000
         2        -0.0000     -0.0000      0.0000      0.0000      0.0000
         3        -3.1713     -0.0407     -0.0285     10.0596      0.7575
         4        -0.1277      0.0370     -0.0262      0.0184      0.0015
 Ground to excited state transition velocity dipole moments (Au):
       state          X           Y           Z        Dip. S.      Osc.
         1         0.0000      0.0000     -0.0000      0.0000      0.0000
         2         0.0000     -0.0000     -0.0000      0.0000      0.0000
         3         0.3437      0.0075      0.0063      0.1182      0.6978
         4         0.0144     -0.0077      0.0056      0.0003      0.0016
 Ground to excited state transition magnetic dipole moments (Au):
       state          X           Y           Z
         1         0.0000      0.0000     -0.0000
         2        -0.0000     -0.0000      0.0000
         3        -0.0409     -0.6235     -0.1776
         4        -0.2283     -0.0263     -0.0954
 Ground to excited state transition velocity quadrupole moments (Au):
       state          XX          YY          ZZ          XY          XZ          YZ
         1         0.0000     -0.0000     -0.0000     -0.0000     -0.0000     -0.0000
         2         0.0000     -0.0000     -0.0000     -0.0000     -0.0000      0.0000
         3         0.7211     -0.0617     -0.2813     -0.4941     -0.4966      0.0483
         4        -0.0156      0.0256     -0.0815     -0.0451     -0.0027      0.0271
 <0|del|b> * <b|rxdel|0> + <0|del|b> * <b|delr+rdel|0>
 Rotatory Strengths (R) in cgs (10**-40 erg-esu-cm/Gauss)
       state          XX          YY          ZZ    R(velocity)    E-M Angle
         1         0.0000     -0.0000      0.0000      0.0000       90.00
         2         0.0000     -0.0000     -0.0000     -0.0000       90.00
         3       -16.2815     14.2148   -122.3549    -41.4738       95.10
         4        -1.7081     -8.9441     -9.7091     -6.7871      147.31
 1/2[<0|r|b>*<b|rxdel|0> + (<0|rxdel|b>*<b|r|0>)*]
 Rotatory Strengths (R) in cgs (10**-40 erg-esu-cm/Gauss)
       state          XX          YY          ZZ     R(length)
         1         0.0000      0.0000     -0.0000      0.0000
         2        -0.0000     -0.0000     -0.0000     -0.0000
         3       -91.6518    -17.9552     -3.5748    -37.7272
         4       -20.6262      0.6871     -1.7685     -7.2359
  1/2[<0|del|b>*<b|r|0> + (<0|r|b>*<b|del|0>)*] (Au)
       state          X           Y           Z        Dip. S.   Osc.(frdel)
         1        -0.0000     -0.0000      0.0000      0.0000      0.0000
         2        -0.0000      0.0000     -0.0000      0.0000      0.0000
         3        -1.0900     -0.0003     -0.0002      1.0904      0.7270
         4        -0.0018     -0.0003     -0.0001      0.0023      0.0015

 Excitation energies and oscillator strengths:
 
 Excited state symmetry could not be determined.
 Excited State   1:      Triplet-?Sym    2.0694 eV  599.13 nm  f=0.0000  <S**2>=2.000
     124 ->130         0.13965
     129 ->130         0.66964
 This state for optimization and/or second-order correction.
 Total Energy, E(TD-HF/TD-DFT) =  -1619.52750267    
 Copying the excited state density for this state as the 1-particle RhoCI density.
 
 Excited state symmetry could not be determined.
 Excited State   2:      Triplet-?Sym    2.9187 eV  424.80 nm  f=0.0000  <S**2>=2.000
     124 ->130         0.12533
     127 ->130         0.55524
     128 ->130        -0.36843
 
 Excited state symmetry could not be determined.
 Excited State   3:      Singlet-?Sym    3.0736 eV  403.39 nm  f=0.7575  <S**2>=0.000
     129 ->130         0.69917
 
 Excited state symmetry could not be determined.
 Excited State   4:      Singlet-?Sym    3.4247 eV  362.03 nm  f=0.0015  <S**2>=0.000
     126 ->130         0.68799
     126 ->133        -0.10624
 SavETr:  write IOETrn=   770 NScale= 10 NData=  16 NLR=1 NState=    4 LETran=      82.
 Leave Link  914 at Sat Nov  5 09:33:56 2022, MaxMem=   402653184 cpu:            5740.7 elap:             450.9
 (Enter /home/wykgroup/appl/g16/l601.exe)
 Copying SCF densities to generalized density rwf, IOpCl= 0 IROHF=0.

 **********************************************************************

            Population analysis using the SCF Density.

 **********************************************************************

 Alpha  occ. eigenvalues --  -19.19631 -19.13642 -19.12661 -14.40077 -14.40046
 Alpha  occ. eigenvalues --  -14.33934 -14.33838 -14.32303 -10.31787 -10.30183
 Alpha  occ. eigenvalues --  -10.26038 -10.25272 -10.24977 -10.24579 -10.24398
 Alpha  occ. eigenvalues --  -10.23760 -10.23517 -10.23235 -10.23151 -10.23134
 Alpha  occ. eigenvalues --  -10.22662 -10.22519 -10.22412 -10.22118 -10.21767
 Alpha  occ. eigenvalues --  -10.21335 -10.21255 -10.20858 -10.19861 -10.19767
 Alpha  occ. eigenvalues --  -10.19494 -10.19468 -10.19124 -10.18881 -10.18284
 Alpha  occ. eigenvalues --  -10.18220 -10.17657  -1.10396  -1.05185  -1.01434
 Alpha  occ. eigenvalues --   -1.00450  -0.97697  -0.93531  -0.91039  -0.88826
 Alpha  occ. eigenvalues --   -0.88715  -0.86275  -0.85057  -0.82349  -0.79643
 Alpha  occ. eigenvalues --   -0.78103  -0.77742  -0.77388  -0.75649  -0.75015
 Alpha  occ. eigenvalues --   -0.73415  -0.72820  -0.71084  -0.67890  -0.66831
 Alpha  occ. eigenvalues --   -0.65642  -0.64193  -0.64099  -0.63437  -0.62068
 Alpha  occ. eigenvalues --   -0.60857  -0.58337  -0.57887  -0.57704  -0.57100
 Alpha  occ. eigenvalues --   -0.55571  -0.54032  -0.52113  -0.51174  -0.50929
 Alpha  occ. eigenvalues --   -0.50372  -0.49671  -0.49157  -0.48407  -0.48026
 Alpha  occ. eigenvalues --   -0.47989  -0.47241  -0.46932  -0.46602  -0.46224
 Alpha  occ. eigenvalues --   -0.45697  -0.45316  -0.45150  -0.44152  -0.43996
 Alpha  occ. eigenvalues --   -0.43493  -0.42811  -0.42502  -0.42335  -0.41644
 Alpha  occ. eigenvalues --   -0.41584  -0.40767  -0.40503  -0.40181  -0.39647
 Alpha  occ. eigenvalues --   -0.38971  -0.38792  -0.38450  -0.37835  -0.37689
 Alpha  occ. eigenvalues --   -0.36725  -0.36447  -0.36000  -0.35974  -0.35807
 Alpha  occ. eigenvalues --   -0.34882  -0.34637  -0.34378  -0.34109  -0.33435
 Alpha  occ. eigenvalues --   -0.33240  -0.31162  -0.30406  -0.29571  -0.28696
 Alpha  occ. eigenvalues --   -0.28135  -0.27729  -0.26715  -0.25145  -0.24548
 Alpha  occ. eigenvalues --   -0.24492  -0.23236  -0.22941  -0.20242
 Alpha virt. eigenvalues --   -0.07961  -0.05776  -0.03164  -0.02823  -0.01617
 Alpha virt. eigenvalues --   -0.00558   0.02030   0.03109   0.03373   0.06242
 Alpha virt. eigenvalues --    0.06825   0.07172   0.07612   0.08771   0.09338
 Alpha virt. eigenvalues --    0.10413   0.11124   0.11189   0.11498   0.12512
 Alpha virt. eigenvalues --    0.12791   0.12881   0.13118   0.13752   0.14047
 Alpha virt. eigenvalues --    0.14220   0.14684   0.15305   0.15645   0.15912
 Alpha virt. eigenvalues --    0.16345   0.16846   0.16901   0.17233   0.17439
 Alpha virt. eigenvalues --    0.18070   0.18119   0.18532   0.18667   0.19010
 Alpha virt. eigenvalues --    0.19230   0.19643   0.20011   0.20113   0.22214
 Alpha virt. eigenvalues --    0.22883   0.23323   0.23838   0.24972   0.25612
 Alpha virt. eigenvalues --    0.25919   0.26277   0.26611   0.27353   0.28092
 Alpha virt. eigenvalues --    0.28545   0.29459   0.29585   0.30217   0.30826
 Alpha virt. eigenvalues --    0.30891   0.32154   0.33029   0.33830   0.34260
 Alpha virt. eigenvalues --    0.35289   0.36671   0.37551   0.38510   0.39767
 Alpha virt. eigenvalues --    0.40049   0.40330   0.42156   0.43697   0.44609
 Alpha virt. eigenvalues --    0.46553   0.47186   0.48027   0.48669   0.48949
 Alpha virt. eigenvalues --    0.49228   0.50010   0.50428   0.50875   0.51020
 Alpha virt. eigenvalues --    0.51255   0.51937   0.52119   0.52817   0.53046
 Alpha virt. eigenvalues --    0.53632   0.53869   0.54085   0.54358   0.54850
 Alpha virt. eigenvalues --    0.55041   0.55249   0.56184   0.56348   0.56496
 Alpha virt. eigenvalues --    0.56881   0.57044   0.57216   0.57748   0.58250
 Alpha virt. eigenvalues --    0.58820   0.59043   0.59126   0.59446   0.59650
 Alpha virt. eigenvalues --    0.60246   0.60442   0.60643   0.61328   0.61821
 Alpha virt. eigenvalues --    0.62223   0.62474   0.62697   0.62897   0.63537
 Alpha virt. eigenvalues --    0.64516   0.64916   0.65544   0.65727   0.66255
 Alpha virt. eigenvalues --    0.66638   0.66826   0.67375   0.67715   0.68525
 Alpha virt. eigenvalues --    0.68669   0.69686   0.70596   0.70945   0.71675
 Alpha virt. eigenvalues --    0.71811   0.72609   0.72946   0.73350   0.74620
 Alpha virt. eigenvalues --    0.76085   0.76636   0.77078   0.77336   0.78055
 Alpha virt. eigenvalues --    0.78434   0.78618   0.79676   0.80615   0.81004
 Alpha virt. eigenvalues --    0.81508   0.82211   0.82803   0.83057   0.83274
 Alpha virt. eigenvalues --    0.83788   0.83948   0.84455   0.84605   0.85034
 Alpha virt. eigenvalues --    0.85093   0.85297   0.85494   0.85841   0.86280
 Alpha virt. eigenvalues --    0.86569   0.87256   0.88181   0.88728   0.89783
 Alpha virt. eigenvalues --    0.89947   0.90095   0.90532   0.90692   0.91283
 Alpha virt. eigenvalues --    0.91665   0.92557   0.92709   0.93155   0.93502
 Alpha virt. eigenvalues --    0.93724   0.94144   0.94843   0.95710   0.96458
 Alpha virt. eigenvalues --    0.96813   0.97420   0.97551   0.98224   0.98844
 Alpha virt. eigenvalues --    0.99170   0.99362   1.00514   1.00827   1.01814
 Alpha virt. eigenvalues --    1.02357   1.02439   1.03588   1.04014   1.07178
 Alpha virt. eigenvalues --    1.07673   1.08581   1.09055   1.09621   1.10732
 Alpha virt. eigenvalues --    1.11180   1.11715   1.12220   1.13226   1.14337
 Alpha virt. eigenvalues --    1.15125   1.16407   1.16640   1.17908   1.18629
 Alpha virt. eigenvalues --    1.18742   1.19877   1.20247   1.21394   1.21703
 Alpha virt. eigenvalues --    1.23191   1.23731   1.24429   1.25759   1.26041
 Alpha virt. eigenvalues --    1.26652   1.28346   1.29187   1.30148   1.30630
 Alpha virt. eigenvalues --    1.31822   1.32438   1.32676   1.33345   1.33767
 Alpha virt. eigenvalues --    1.36145   1.36829   1.37813   1.38502   1.38949
 Alpha virt. eigenvalues --    1.39226   1.39556   1.40501   1.40846   1.41686
 Alpha virt. eigenvalues --    1.41925   1.43179   1.43611   1.43844   1.45418
 Alpha virt. eigenvalues --    1.46029   1.46186   1.47330   1.47897   1.47999
 Alpha virt. eigenvalues --    1.48980   1.49252   1.50223   1.50780   1.51285
 Alpha virt. eigenvalues --    1.53358   1.53546   1.54605   1.54864   1.56202
 Alpha virt. eigenvalues --    1.57658   1.57733   1.60938   1.62134   1.64278
 Alpha virt. eigenvalues --    1.64647   1.65152   1.65708   1.66720   1.68073
 Alpha virt. eigenvalues --    1.69596   1.71142   1.71442   1.72165   1.74992
 Alpha virt. eigenvalues --    1.75287   1.75473   1.75905   1.77587   1.78151
 Alpha virt. eigenvalues --    1.79049   1.79360   1.79393   1.79987   1.80876
 Alpha virt. eigenvalues --    1.81461   1.81615   1.83063   1.83391   1.83990
 Alpha virt. eigenvalues --    1.84656   1.84834   1.85537   1.85787   1.86406
 Alpha virt. eigenvalues --    1.86827   1.87798   1.88593   1.89167   1.90235
 Alpha virt. eigenvalues --    1.91633   1.91850   1.93671   1.94268   1.94659
 Alpha virt. eigenvalues --    1.94917   1.95148   1.95452   1.95640   1.96294
 Alpha virt. eigenvalues --    1.96907   1.97187   1.97599   1.98430   1.98797
 Alpha virt. eigenvalues --    1.99797   2.00834   2.01608   2.02484   2.03741
 Alpha virt. eigenvalues --    2.04171   2.05153   2.06047   2.06416   2.07365
 Alpha virt. eigenvalues --    2.08251   2.08824   2.09141   2.09691   2.10558
 Alpha virt. eigenvalues --    2.11005   2.11757   2.12540   2.13093   2.13412
 Alpha virt. eigenvalues --    2.13694   2.14125   2.15576   2.16401   2.17157
 Alpha virt. eigenvalues --    2.18107   2.18890   2.19958   2.20504   2.21915
 Alpha virt. eigenvalues --    2.22196   2.23138   2.24053   2.24896   2.25667
 Alpha virt. eigenvalues --    2.26538   2.27036   2.27608   2.27861   2.28268
 Alpha virt. eigenvalues --    2.28699   2.30001   2.30554   2.30847   2.31560
 Alpha virt. eigenvalues --    2.32640   2.33759   2.35289   2.35709   2.37720
 Alpha virt. eigenvalues --    2.38881   2.40215   2.41852   2.43188   2.44031
 Alpha virt. eigenvalues --    2.45725   2.46328   2.47855   2.48927   2.49822
 Alpha virt. eigenvalues --    2.50059   2.51700   2.52455   2.54266   2.54700
 Alpha virt. eigenvalues --    2.55094   2.56249   2.58280   2.59230   2.60687
 Alpha virt. eigenvalues --    2.62071   2.62631   2.63221   2.63997   2.64395
 Alpha virt. eigenvalues --    2.64884   2.66226   2.67223   2.67925   2.68849
 Alpha virt. eigenvalues --    2.69511   2.70226   2.71962   2.72671   2.72934
 Alpha virt. eigenvalues --    2.73384   2.75017   2.77565   2.78316   2.79596
 Alpha virt. eigenvalues --    2.79937   2.80383   2.80711   2.81063   2.82539
 Alpha virt. eigenvalues --    2.83499   2.85534   2.86995   2.88456   2.90515
 Alpha virt. eigenvalues --    2.92006   2.94754   2.96057   2.97749   2.99768
 Alpha virt. eigenvalues --    3.00931   3.03639   3.10353   3.14027   3.14976
 Alpha virt. eigenvalues --    3.15506   3.19695   3.20965   3.24982   3.33836
 Alpha virt. eigenvalues --    3.42201   3.43269   3.47770   3.51026   3.79115
 Alpha virt. eigenvalues --    3.96685   4.02962   4.04486   4.06915   4.08142
 Alpha virt. eigenvalues --    4.08280   4.08937   4.09761   4.10849   4.12551
 Alpha virt. eigenvalues --    4.13756   4.15444   4.15772   4.20227   4.21208
 Alpha virt. eigenvalues --    4.22828   4.25648   4.28747   4.30308   4.30713
 Alpha virt. eigenvalues --    4.33486   4.34686   4.37269   4.38568   4.43074
 Alpha virt. eigenvalues --    4.43695   4.46170   4.52049   4.53335   4.55443
 Alpha virt. eigenvalues --    4.64481   4.65545   4.77081   4.77804   4.84797
 Alpha virt. eigenvalues --    4.88878
          Condensed to atoms (all electrons):
 Mulliken charges:
               1
     1  C   -0.216684
     2  O   -0.472544
     3  C    0.596126
     4  O   -0.489671
     5  C    0.050914
     6  C   -0.166205
     7  C   -0.178564
     8  C    0.284077
     9  N   -0.604595
    10  C    0.230123
    11  C   -0.005353
    12  C    0.004991
    13  N   -0.515675
    14  C   -0.235815
    15  C    0.167142
    16  C   -0.174489
    17  C   -0.135492
    18  C    0.129254
    19  C    0.239134
    20  N   -0.474299
    21  C   -0.133664
    22  C   -0.190354
    23  C    0.298214
    24  C   -0.162849
    25  C   -0.148671
    26  C   -0.137452
    27  C   -0.198440
    28  C    0.072330
    29  C    0.608923
    30  O   -0.557347
    31  N   -0.605763
    32  C    0.046865
    33  C   -0.457249
    34  C   -0.158452
    35  N   -0.726220
    36  C    0.364487
    37  C   -0.253162
    38  H    0.173354
    39  H    0.164069
    40  H    0.172257
    41  H    0.164396
    42  H    0.151463
    43  H    0.202843
    44  H    0.188714
    45  H    0.175903
    46  H    0.165323
    47  H    0.165868
    48  H    0.162854
    49  H    0.141424
    50  H    0.129792
    51  H    0.127942
    52  H    0.125875
    53  H    0.159321
    54  H    0.148307
    55  H    0.176817
    56  H    0.176128
    57  H    0.145417
    58  H    0.126017
    59  H    0.182192
    60  H    0.297321
    61  H    0.305611
    62  H    0.177221
 Sum of Mulliken charges =  -0.00000
 Mulliken charges with hydrogens summed into heavy atoms:
               1
     1  C    0.292996
     2  O   -0.472544
     3  C    0.596126
     4  O   -0.489671
     5  C    0.050914
     6  C   -0.001809
     7  C   -0.027101
     8  C    0.284077
     9  N   -0.604595
    10  C    0.230123
    11  C   -0.005353
    12  C    0.207835
    13  N   -0.515675
    14  C    0.128801
    15  C    0.167142
    16  C   -0.009166
    17  C    0.030376
    18  C    0.129254
    19  C    0.239134
    20  N   -0.474299
    21  C    0.029190
    22  C   -0.048930
    23  C    0.298214
    24  C   -0.033057
    25  C   -0.020729
    26  C   -0.011577
    27  C   -0.039119
    28  C    0.072330
    29  C    0.608923
    30  O   -0.557347
    31  N   -0.605763
    32  C    0.195172
    33  C    0.041113
    34  C    0.149757
    35  N   -0.123287
    36  C    0.364487
    37  C   -0.075941
 Electronic spatial extent (au):  <R**2>=          27202.7254
 Charge=             -0.0000 electrons
 Dipole moment (field-independent basis, Debye):
    X=              1.5301    Y=              6.0257    Z=             -0.6021  Tot=              6.2461
 Quadrupole moment (field-independent basis, Debye-Ang):
   XX=           -217.0925   YY=           -213.5419   ZZ=           -228.5698
   XY=            -18.7819   XZ=             32.8538   YZ=             10.9365
 Traceless Quadrupole moment (field-independent basis, Debye-Ang):
   XX=              2.6422   YY=              6.1929   ZZ=             -8.8351
   XY=            -18.7819   XZ=             32.8538   YZ=             10.9365
 Octapole moment (field-independent basis, Debye-Ang**2):
  XXX=            530.9477  YYY=            275.4328  ZZZ=            -13.8961  XYY=            194.8861
  XXY=            421.5859  XXZ=           -117.3900  XZZ=            139.0281  YZZ=             73.2440
  YYZ=            -23.4932  XYZ=           -147.1248
 Hexadecapole moment (field-independent basis, Debye-Ang**3):
 XXXX=         -29446.6616 YYYY=          -3261.5236 ZZZZ=          -5049.5989 XXXY=          -3559.0245
 XXXZ=           4333.1308 YYYX=          -1931.4206 YYYZ=           -143.5481 ZZZX=           2003.8854
 ZZZY=           -167.3614 XXYY=          -6428.7211 XXZZ=          -6839.6004 YYZZ=          -1553.7756
 XXYZ=            699.5411 YYXZ=           1023.8730 ZZXY=           -982.8680
 N-N= 3.648016895608D+03 E-N=-1.105884707949D+04  KE= 1.604397443191D+03
 Leave Link  601 at Sat Nov  5 09:33:57 2022, MaxMem=   402653184 cpu:               1.0 elap:               0.2
 (Enter /home/wykgroup/appl/g16/l9999.exe)
 Electronic transition elements 
                 1             2             3             4 
      1  -0.161953D+04 -0.161950D+04 -0.161949D+04 -0.161948D+04
      2   0.000000D+00  0.000000D+00 -0.317129D+01 -0.127736D+00
      3   0.000000D+00  0.000000D+00 -0.407198D-01  0.369623D-01
      4   0.000000D+00  0.000000D+00 -0.284662D-01 -0.262260D-01
      5   0.000000D+00  0.000000D+00  0.343693D+00  0.144094D-01
      6   0.000000D+00  0.000000D+00  0.754619D-02 -0.774736D-02
      7   0.000000D+00  0.000000D+00  0.631667D-02  0.563325D-02
      8   0.000000D+00  0.000000D+00 -0.408680D-01 -0.228342D+00
      9   0.000000D+00  0.000000D+00 -0.623539D+00 -0.262875D-01
     10   0.000000D+00  0.000000D+00 -0.177581D+00 -0.953559D-01
     11   0.000000D+00  0.000000D+00  0.721100D+00 -0.156327D-01
     12   0.000000D+00  0.000000D+00 -0.616811D-01  0.256166D-01
     13   0.000000D+00  0.000000D+00 -0.281260D+00 -0.815084D-01
     14   0.000000D+00  0.000000D+00 -0.494133D+00 -0.450647D-01
     15   0.000000D+00  0.000000D+00 -0.496574D+00 -0.266366D-02
     16   0.000000D+00  0.000000D+00  0.482622D-01  0.270619D-01
 1\1\GINC-NODE08\SP\RB3LYP TD-FC\6-31G(d)\C29H25N5O3\WYKGROUP\05-Nov-20
 22\0\\#p b3lyp/6-31g(d) 6D 10F nosymm GFInput td=(50-50,nstate=2) SCF=
 XQC\\Gaussian input prepared by ASE\\0,1\C,0,8.6032474132,-0.330581457
 6,-0.0658186198\O,0,7.1764056532,-0.2215097261,-0.1813675958\C,0,6.624
 7829903,-0.9278257544,-1.1976973883\O,0,7.2817199689,-1.6035356705,-1.
 9655077923\C,0,5.1443156347,-0.7806580292,-1.2628698917\C,0,4.46009054
 49,-1.4771181592,-2.2750865142\C,0,3.0856730492,-1.3813725432,-2.35026
 73482\C,0,2.3568720071,-0.5920058887,-1.4364867339\N,0,0.9904449998,-0
 .5688913832,-1.5555162951\C,0,0.2744755717,0.1052606184,-0.6917113543\
 C,0,-1.1695516115,0.09711992,-0.8272964997\C,0,-2.0968108705,0.7294614
 943,-0.0100529356\N,0,-3.3691733501,0.4965397997,-0.4585242655\C,0,-4.
 581611735,1.0014766666,0.1584014726\C,0,-5.405081084,-0.0460832446,0.8
 945562365\C,0,-4.8016489635,-1.1451786329,1.5170651723\C,0,-5.56622435
 74,-2.0660772587,2.2261487553\C,0,-6.9571069545,-1.8963337761,2.325121
 4238\C,0,-7.7499158134,-2.8423981159,3.0550674523\N,0,-8.3945797639,-3
 .6079366512,3.6480907758\C,0,-7.5690601337,-0.7970150288,1.7013902191\
 C,0,-6.7931499994,0.1132273627,0.991064808\C,0,-3.3082553385,-0.306664
 7725,-1.5959412132\C,0,-4.3473839881,-0.7965140704,-2.3905520931\C,0,-
 3.9977186695,-1.5756477613,-3.4889527851\C,0,-2.6494900368,-1.85613671
 94,-3.7759753755\C,0,-1.6202945832,-1.3683284517,-2.976574415\C,0,-1.9
 418648787,-0.5774543342,-1.8614939737\C,0,0.8991921291,0.8862028698,0.
 4235564438\O,0,0.2368005522,1.4849312597,1.2737645033\N,0,2.2873179933
 ,0.9296919652,0.4368938238\C,0,2.9433628982,1.7860313118,1.4683840674\
 C,0,2.8976492377,1.1411507472,2.8558259269\C,0,2.4232959665,3.24239400
 05,1.4583272825\N,0,3.448624396,4.094418454,2.0724908009\C,0,3.0512785
 701,0.1359606862,-0.4320538565\C,0,4.4476401295,0.0144655203,-0.351038
 366\H,0,8.8966397131,-1.3703971679,0.1009753399\H,0,8.8750038101,0.287
 2315101,0.790677673\H,0,9.0911583401,0.0334688212,-0.9739159508\H,0,5.
 0283472666,-2.0838284283,-2.9709670387\H,0,2.5189667677,-1.9144187518,
 -3.1067387138\H,0,-1.9172074785,1.3351181492,0.8630028663\H,0,-4.27936
 75999,1.7914355674,0.8557941702\H,0,-5.198707017,1.4815004732,-0.61077
 93794\H,0,-3.7280154416,-1.2862836341,1.4393858504\H,0,-5.09452104,-2.
 9184455268,2.7041929\H,0,-8.6443720172,-0.6688385987,1.7712221769\H,0,
 -7.2745976608,0.958408856,0.5046776459\H,0,-5.3876705211,-0.5893815892
 ,-2.158186948\H,0,-4.7786199304,-1.9754512305,-4.1298112415\H,0,-2.407
 7258829,-2.4694066629,-4.6398338575\H,0,-0.5834266502,-1.5864228523,-3
 .196715468\H,0,3.9846097094,1.8632039922,1.1568646953\H,0,1.8633457458
 ,1.0000585508,3.1789208471\H,0,3.4057943692,1.802689159,3.5633102504\H
 ,0,3.4045671645,0.1699655055,2.8562278049\H,0,2.1650303995,3.523704754
 1,0.4236676835\H,0,1.5106572103,3.3161355962,2.0488907779\H,0,4.179037
 4846,4.3158935014,1.3975231589\H,0,3.0399363095,4.9824489065,2.3535609
 038\H,0,5.0168703758,0.5085458533,0.4226870016\\Version=ES64L-G16RevB.
 01\HF=-1619.6035516\RMSD=3.716e-09\PG=C01 [X(C29H25N5O3)]\\@


 THE CAUTIOUS SELDOM ERR...CONFUCIUS                   
 Job cpu time:       0 days  1 hours 51 minutes 37.4 seconds.
 Elapsed time:       0 days  0 hours  8 minutes 43.0 seconds.
 File lengths (MBytes):  RWF=   2151 Int=      0 D2E=      0 Chk=     76 Scr=      1
 Normal termination of Gaussian 16 at Sat Nov  5 09:33:58 2022.
