 Entering Gaussian System, Link 0=/home/wykgroup/appl/g16/g16
 Input=calculation/no_transfer_pubchem_sampling_5_b3lyp/57613773_rwf.com
 Output=calculation/no_transfer_pubchem_sampling_5_b3lyp/57613773_rwf.log
 Initial command:
 /home/wykgroup/appl/g16/l1.exe "/userdata/scratch/wykgroup/khs/calculation/no_transfer_pubchem_sampling_5_b3lyp/57613773_rwf/Gau-31573.inp" -scrdir="/userdata/scratch/wykgroup/khs/calculation/no_transfer_pubchem_sampling_5_b3lyp/57613773_rwf/"
 Entering Link 1 = /home/wykgroup/appl/g16/l1.exe PID=     31574.
  
 Copyright (c) 1988-2017, Gaussian, Inc.  All Rights Reserved.
  
 This is part of the Gaussian(R) 16 program.  It is based on
 the Gaussian(R) 09 system (copyright 2009, Gaussian, Inc.),
 the Gaussian(R) 03 system (copyright 2003, Gaussian, Inc.),
 the Gaussian(R) 98 system (copyright 1998, Gaussian, Inc.),
 the Gaussian(R) 94 system (copyright 1995, Gaussian, Inc.),
 the Gaussian 92(TM) system (copyright 1992, Gaussian, Inc.),
 the Gaussian 90(TM) system (copyright 1990, Gaussian, Inc.),
 the Gaussian 88(TM) system (copyright 1988, Gaussian, Inc.),
 the Gaussian 86(TM) system (copyright 1986, Carnegie Mellon
 University), and the Gaussian 82(TM) system (copyright 1983,
 Carnegie Mellon University). Gaussian is a federally registered
 trademark of Gaussian, Inc.
  
 This software contains proprietary and confidential information,
 including trade secrets, belonging to Gaussian, Inc.
  
 This software is provided under written license and may be
 used, copied, transmitted, or stored only in accord with that
 written license.
  
 The following legend is applicable only to US Government
 contracts under FAR:
  
                    RESTRICTED RIGHTS LEGEND
  
 Use, reproduction and disclosure by the US Government is
 subject to restrictions as set forth in subparagraphs (a)
 and (c) of the Commercial Computer Software - Restricted
 Rights clause in FAR 52.227-19.
  
 Gaussian, Inc.
 340 Quinnipiac St., Bldg. 40, Wallingford CT 06492
  
  
 ---------------------------------------------------------------
 Warning -- This program may not be used in any manner that
 competes with the business of Gaussian, Inc. or will provide
 assistance to any competitor of Gaussian, Inc.  The licensee
 of this program is prohibited from giving any competitor of
 Gaussian, Inc. access to this program.  By using this program,
 the user acknowledges that Gaussian, Inc. is engaged in the
 business of creating and licensing software in the field of
 computational chemistry and represents and warrants to the
 licensee that it is not a competitor of Gaussian, Inc. and that
 it will not use this program in any manner prohibited above.
 ---------------------------------------------------------------
  

 Cite this work as:
 Gaussian 16, Revision B.01,
 M. J. Frisch, G. W. Trucks, H. B. Schlegel, G. E. Scuseria, 
 M. A. Robb, J. R. Cheeseman, G. Scalmani, V. Barone, 
 G. A. Petersson, H. Nakatsuji, X. Li, M. Caricato, A. V. Marenich, 
 J. Bloino, B. G. Janesko, R. Gomperts, B. Mennucci, H. P. Hratchian, 
 J. V. Ortiz, A. F. Izmaylov, J. L. Sonnenberg, D. Williams-Young, 
 F. Ding, F. Lipparini, F. Egidi, J. Goings, B. Peng, A. Petrone, 
 T. Henderson, D. Ranasinghe, V. G. Zakrzewski, J. Gao, N. Rega, 
 G. Zheng, W. Liang, M. Hada, M. Ehara, K. Toyota, R. Fukuda, 
 J. Hasegawa, M. Ishida, T. Nakajima, Y. Honda, O. Kitao, H. Nakai, 
 T. Vreven, K. Throssell, J. A. Montgomery, Jr., J. E. Peralta, 
 F. Ogliaro, M. J. Bearpark, J. J. Heyd, E. N. Brothers, K. N. Kudin, 
 V. N. Staroverov, T. A. Keith, R. Kobayashi, J. Normand, 
 K. Raghavachari, A. P. Rendell, J. C. Burant, S. S. Iyengar, 
 J. Tomasi, M. Cossi, J. M. Millam, M. Klene, C. Adamo, R. Cammi, 
 J. W. Ochterski, R. L. Martin, K. Morokuma, O. Farkas, 
 J. B. Foresman, and D. J. Fox, Gaussian, Inc., Wallingford CT, 2016.
 
 ******************************************
 Gaussian 16:  ES64L-G16RevB.01 20-Dec-2017
                 5-Nov-2022 
 ******************************************
 %chk=calculation/no_transfer_pubchem_sampling_5_b3lyp/57613773_rwf.chk
 %rwf=calculation/no_transfer_pubchem_sampling_5_b3lyp/57613773_rwf.rwf
 %nprocshared=14
 Will use up to   14 processors via shared memory.
 %mem=3GB
 -------------------------------------------------------------------
 #p b3lyp/6-31g(d) 6D 10F nosymm GFInput td=(50-50,nstate=2) SCF=XQC
 -------------------------------------------------------------------
 1/38=1,172=1/1;
 2/12=2,15=1,17=6,18=5,40=1/2;
 3/5=1,6=6,7=1,8=22,11=9,24=10,25=1,30=1,74=-5/1,2,3,8;
 4//1;
 5/5=2,8=3,13=1,38=5/2,8;
 8/6=1,10=2,108=2/1;
 9/41=2,42=1,48=2,70=2/14;
 6/7=2,8=2,9=2,10=2/1;
 99/5=1,9=1/99;
 Leave Link    1 at Sat Nov  5 09:30:28 2022, MaxMem=   402653184 cpu:               4.5 elap:               0.3
 (Enter /home/wykgroup/appl/g16/l101.exe)
 ------------------------------
 Gaussian input prepared by ASE
 ------------------------------
 Symbolic Z-matrix:
 Charge =  0 Multiplicity = 1
 C                    -2.05924  -3.28596  -0.66733 
 C                    -1.0998   -2.1969   -0.14551 
 C                    -0.53468  -2.57917   1.23698 
 C                    -1.7831   -0.85233  -0.09639 
 C                    -1.5249    0.27112  -0.81722 
 C                    -0.45612   0.49353  -1.86286 
 N                     0.89367   0.22166  -1.38383 
 C                     1.33523   1.17757  -0.3604 
 C                     2.84197   1.02527  -0.04897 
 C                     3.34585  -0.38332  -0.42027 
 C                     4.77253  -0.64197   0.03399 
 C                     5.04875  -1.66528   0.94997 
 C                     6.35187  -1.91399   1.38549 
 C                     7.40834  -1.13656   0.91113 
 C                     7.14982  -0.11138  -0.00146 
 C                     5.84647   0.13063  -0.43467 
 C                     3.15051  -0.59562  -1.94405 
 C                     1.87801   0.11263  -2.46092 
 N                    -2.48602   1.26945  -0.5781 
 C                    -2.02839   2.63248  -0.25556 
 N                    -3.33157   0.74651   0.42661 
 C                    -4.63472   1.28178   0.5839 
 C                    -5.31548   1.07847   1.7931 
 C                    -6.59761   1.59996   1.95397 
 C                    -7.20352   2.33898   0.93542 
 C                    -6.51932   2.54052  -0.26375 
 C                    -5.24365   2.00818  -0.44919 
 C                    -2.9639   -0.5858    0.72736 
 O                    -3.57956  -1.31867   1.49525 
 H                    -2.41957  -3.04796  -1.67511 
 H                    -2.9273   -3.38091  -0.00808 
 H                    -1.54905  -4.25579  -0.71054 
 H                    -0.25589  -2.10965  -0.83863 
 H                    -0.03432  -3.55384   1.18856 
 H                     0.19647  -1.83866   1.5815 
 H                    -1.33799  -2.63958   1.97742 
 H                    -0.55466   1.50973  -2.29007 
 H                    -0.65733  -0.19934  -2.68979 
 H                     1.13554   2.22033  -0.6798 
 H                     0.73912   0.999     0.54181 
 H                     3.02296   1.23116   1.01144 
 H                     3.41818   1.77163  -0.61045 
 H                     2.69989  -1.1024    0.09678 
 H                     4.23085  -2.27608   1.32623 
 H                     6.53939  -2.71558   2.09535 
 H                     8.42394  -1.3267    1.24789 
 H                     7.96532   0.50121  -0.37764 
 H                     5.66502   0.93245  -1.14685 
 H                     4.0204   -0.21627  -2.49305 
 H                     3.09516  -1.67089  -2.14789 
 H                     2.12919   1.10789  -2.87965 
 H                     1.43515  -0.46297  -3.2809 
 H                    -1.4524    2.65567   0.67878 
 H                    -2.90129   3.27982  -0.15583 
 H                    -1.41502   3.00552  -1.07644 
 H                    -4.84471   0.50153   2.57824 
 H                    -7.12252   1.43247   2.89064 
 H                    -8.19934   2.75038   1.07416 
 H                    -6.98263   3.10384  -1.06957 
 H                    -4.72396   2.13219  -1.39328 
 
 ITRead=  0  0  0  0  0  0  0  0  0  0  0  0  0  0  0  0  0  0  0  0
 ITRead=  0  0  0  0  0  0  0  0  0  0  0  0  0  0  0  0  0  0  0  0
 ITRead=  0  0  0  0  0  0  0  0  0  0  0  0  0  0  0  0  0  0  0  0
 MicOpt= -1 -1 -1 -1 -1 -1 -1 -1 -1 -1 -1 -1 -1 -1 -1 -1 -1 -1 -1 -1
 MicOpt= -1 -1 -1 -1 -1 -1 -1 -1 -1 -1 -1 -1 -1 -1 -1 -1 -1 -1 -1 -1
 MicOpt= -1 -1 -1 -1 -1 -1 -1 -1 -1 -1 -1 -1 -1 -1 -1 -1 -1 -1 -1 -1
 NAtoms=     60 NQM=       60 NQMF=       0 NMMI=      0 NMMIF=      0
                NMic=       0 NMicF=      0.
                    Isotopes and Nuclear Properties:
 (Nuclear quadrupole moments (NQMom) in fm**2, nuclear magnetic moments (NMagM)
  in nuclear magnetons)

  Atom         1           2           3           4           5           6           7           8           9          10
 IAtWgt=          12          12          12          12          12          12          14          12          12          12
 AtmWgt=  12.0000000  12.0000000  12.0000000  12.0000000  12.0000000  12.0000000  14.0030740  12.0000000  12.0000000  12.0000000
 NucSpn=           0           0           0           0           0           0           2           0           0           0
 AtZEff=  -0.0000000  -0.0000000  -0.0000000  -0.0000000  -0.0000000  -0.0000000  -0.0000000  -0.0000000  -0.0000000  -0.0000000
 NQMom=    0.0000000   0.0000000   0.0000000   0.0000000   0.0000000   0.0000000   2.0440000   0.0000000   0.0000000   0.0000000
 NMagM=    0.0000000   0.0000000   0.0000000   0.0000000   0.0000000   0.0000000   0.4037610   0.0000000   0.0000000   0.0000000
 AtZNuc=   6.0000000   6.0000000   6.0000000   6.0000000   6.0000000   6.0000000   7.0000000   6.0000000   6.0000000   6.0000000

  Atom        11          12          13          14          15          16          17          18          19          20
 IAtWgt=          12          12          12          12          12          12          12          12          14          12
 AtmWgt=  12.0000000  12.0000000  12.0000000  12.0000000  12.0000000  12.0000000  12.0000000  12.0000000  14.0030740  12.0000000
 NucSpn=           0           0           0           0           0           0           0           0           2           0
 AtZEff=  -0.0000000  -0.0000000  -0.0000000  -0.0000000  -0.0000000  -0.0000000  -0.0000000  -0.0000000  -0.0000000  -0.0000000
 NQMom=    0.0000000   0.0000000   0.0000000   0.0000000   0.0000000   0.0000000   0.0000000   0.0000000   2.0440000   0.0000000
 NMagM=    0.0000000   0.0000000   0.0000000   0.0000000   0.0000000   0.0000000   0.0000000   0.0000000   0.4037610   0.0000000
 AtZNuc=   6.0000000   6.0000000   6.0000000   6.0000000   6.0000000   6.0000000   6.0000000   6.0000000   7.0000000   6.0000000

  Atom        21          22          23          24          25          26          27          28          29          30
 IAtWgt=          14          12          12          12          12          12          12          12          16           1
 AtmWgt=  14.0030740  12.0000000  12.0000000  12.0000000  12.0000000  12.0000000  12.0000000  12.0000000  15.9949146   1.0078250
 NucSpn=           2           0           0           0           0           0           0           0           0           1
 AtZEff=  -0.0000000  -0.0000000  -0.0000000  -0.0000000  -0.0000000  -0.0000000  -0.0000000  -0.0000000  -0.0000000  -0.0000000
 NQMom=    2.0440000   0.0000000   0.0000000   0.0000000   0.0000000   0.0000000   0.0000000   0.0000000   0.0000000   0.0000000
 NMagM=    0.4037610   0.0000000   0.0000000   0.0000000   0.0000000   0.0000000   0.0000000   0.0000000   0.0000000   2.7928460
 AtZNuc=   7.0000000   6.0000000   6.0000000   6.0000000   6.0000000   6.0000000   6.0000000   6.0000000   8.0000000   1.0000000

  Atom        31          32          33          34          35          36          37          38          39          40
 IAtWgt=           1           1           1           1           1           1           1           1           1           1
 AtmWgt=   1.0078250   1.0078250   1.0078250   1.0078250   1.0078250   1.0078250   1.0078250   1.0078250   1.0078250   1.0078250
 NucSpn=           1           1           1           1           1           1           1           1           1           1
 AtZEff=  -0.0000000  -0.0000000  -0.0000000  -0.0000000  -0.0000000  -0.0000000  -0.0000000  -0.0000000  -0.0000000  -0.0000000
 NQMom=    0.0000000   0.0000000   0.0000000   0.0000000   0.0000000   0.0000000   0.0000000   0.0000000   0.0000000   0.0000000
 NMagM=    2.7928460   2.7928460   2.7928460   2.7928460   2.7928460   2.7928460   2.7928460   2.7928460   2.7928460   2.7928460
 AtZNuc=   1.0000000   1.0000000   1.0000000   1.0000000   1.0000000   1.0000000   1.0000000   1.0000000   1.0000000   1.0000000

  Atom        41          42          43          44          45          46          47          48          49          50
 IAtWgt=           1           1           1           1           1           1           1           1           1           1
 AtmWgt=   1.0078250   1.0078250   1.0078250   1.0078250   1.0078250   1.0078250   1.0078250   1.0078250   1.0078250   1.0078250
 NucSpn=           1           1           1           1           1           1           1           1           1           1
 AtZEff=  -0.0000000  -0.0000000  -0.0000000  -0.0000000  -0.0000000  -0.0000000  -0.0000000  -0.0000000  -0.0000000  -0.0000000
 NQMom=    0.0000000   0.0000000   0.0000000   0.0000000   0.0000000   0.0000000   0.0000000   0.0000000   0.0000000   0.0000000
 NMagM=    2.7928460   2.7928460   2.7928460   2.7928460   2.7928460   2.7928460   2.7928460   2.7928460   2.7928460   2.7928460
 AtZNuc=   1.0000000   1.0000000   1.0000000   1.0000000   1.0000000   1.0000000   1.0000000   1.0000000   1.0000000   1.0000000

  Atom        51          52          53          54          55          56          57          58          59          60
 IAtWgt=           1           1           1           1           1           1           1           1           1           1
 AtmWgt=   1.0078250   1.0078250   1.0078250   1.0078250   1.0078250   1.0078250   1.0078250   1.0078250   1.0078250   1.0078250
 NucSpn=           1           1           1           1           1           1           1           1           1           1
 AtZEff=  -0.0000000  -0.0000000  -0.0000000  -0.0000000  -0.0000000  -0.0000000  -0.0000000  -0.0000000  -0.0000000  -0.0000000
 NQMom=    0.0000000   0.0000000   0.0000000   0.0000000   0.0000000   0.0000000   0.0000000   0.0000000   0.0000000   0.0000000
 NMagM=    2.7928460   2.7928460   2.7928460   2.7928460   2.7928460   2.7928460   2.7928460   2.7928460   2.7928460   2.7928460
 AtZNuc=   1.0000000   1.0000000   1.0000000   1.0000000   1.0000000   1.0000000   1.0000000   1.0000000   1.0000000   1.0000000
 Leave Link  101 at Sat Nov  5 09:30:28 2022, MaxMem=   402653184 cpu:               1.4 elap:               0.1
 (Enter /home/wykgroup/appl/g16/l202.exe)
 Symmetry turned off by external request.
 Stoichiometry    C25H31N3O
 Framework group  C1[X(C25H31N3O)]
 Deg. of freedom   174
 Full point group                 C1      NOp   1
                          Input orientation:                          
 ---------------------------------------------------------------------
 Center     Atomic      Atomic             Coordinates (Angstroms)
 Number     Number       Type             X           Y           Z
 ---------------------------------------------------------------------
      1          6           0       -2.059245   -3.285956   -0.667333
      2          6           0       -1.099799   -2.196896   -0.145513
      3          6           0       -0.534677   -2.579174    1.236985
      4          6           0       -1.783095   -0.852333   -0.096387
      5          6           0       -1.524896    0.271122   -0.817217
      6          6           0       -0.456123    0.493531   -1.862865
      7          7           0        0.893669    0.221659   -1.383831
      8          6           0        1.335227    1.177568   -0.360404
      9          6           0        2.841966    1.025273   -0.048967
     10          6           0        3.345848   -0.383322   -0.420267
     11          6           0        4.772533   -0.641971    0.033994
     12          6           0        5.048747   -1.665277    0.949969
     13          6           0        6.351872   -1.913986    1.385486
     14          6           0        7.408339   -1.136562    0.911128
     15          6           0        7.149816   -0.111378   -0.001456
     16          6           0        5.846467    0.130632   -0.434669
     17          6           0        3.150508   -0.595621   -1.944046
     18          6           0        1.878006    0.112634   -2.460916
     19          7           0       -2.486022    1.269449   -0.578097
     20          6           0       -2.028394    2.632476   -0.255563
     21          7           0       -3.331565    0.746514    0.426608
     22          6           0       -4.634719    1.281782    0.583900
     23          6           0       -5.315483    1.078466    1.793099
     24          6           0       -6.597614    1.599957    1.953966
     25          6           0       -7.203520    2.338981    0.935422
     26          6           0       -6.519318    2.540523   -0.263748
     27          6           0       -5.243651    2.008182   -0.449187
     28          6           0       -2.963904   -0.585802    0.727358
     29          8           0       -3.579557   -1.318670    1.495248
     30          1           0       -2.419569   -3.047964   -1.675105
     31          1           0       -2.927304   -3.380911   -0.008079
     32          1           0       -1.549052   -4.255787   -0.710535
     33          1           0       -0.255888   -2.109652   -0.838629
     34          1           0       -0.034318   -3.553841    1.188560
     35          1           0        0.196472   -1.838657    1.581500
     36          1           0       -1.337993   -2.639585    1.977416
     37          1           0       -0.554664    1.509727   -2.290066
     38          1           0       -0.657328   -0.199339   -2.689786
     39          1           0        1.135537    2.220329   -0.679804
     40          1           0        0.739123    0.998995    0.541811
     41          1           0        3.022962    1.231161    1.011441
     42          1           0        3.418182    1.771635   -0.610447
     43          1           0        2.699886   -1.102395    0.096780
     44          1           0        4.230848   -2.276082    1.326234
     45          1           0        6.539386   -2.715576    2.095347
     46          1           0        8.423938   -1.326700    1.247885
     47          1           0        7.965323    0.501214   -0.377642
     48          1           0        5.665019    0.932454   -1.146852
     49          1           0        4.020398   -0.216267   -2.493053
     50          1           0        3.095159   -1.670891   -2.147886
     51          1           0        2.129186    1.107894   -2.879650
     52          1           0        1.435146   -0.462972   -3.280900
     53          1           0       -1.452397    2.655670    0.678783
     54          1           0       -2.901294    3.279816   -0.155831
     55          1           0       -1.415021    3.005521   -1.076439
     56          1           0       -4.844707    0.501527    2.578240
     57          1           0       -7.122518    1.432468    2.890641
     58          1           0       -8.199338    2.750379    1.074158
     59          1           0       -6.982627    3.103838   -1.069571
     60          1           0       -4.723961    2.132195   -1.393276
 ---------------------------------------------------------------------
 Rotational constants (GHZ):           0.4058996           0.0659747           0.0628027
 Leave Link  202 at Sat Nov  5 09:30:28 2022, MaxMem=   402653184 cpu:               0.1 elap:               0.0
 (Enter /home/wykgroup/appl/g16/l301.exe)
 Standard basis: 6-31G(d) (6D, 10F)
 Ernie: Thresh=  0.10000D-02 Tol=  0.10000D-05 Strict=F.
 AO basis set in the form of general basis input (Overlap normalization):
      1 0
 S   6 1.00       0.000000000000
      0.3047524880D+04  0.1834737132D-02
      0.4573695180D+03  0.1403732281D-01
      0.1039486850D+03  0.6884262226D-01
      0.2921015530D+02  0.2321844432D+00
      0.9286662960D+01  0.4679413484D+00
      0.3163926960D+01  0.3623119853D+00
 SP   3 1.00       0.000000000000
      0.7868272350D+01 -0.1193324198D+00  0.6899906659D-01
      0.1881288540D+01 -0.1608541517D+00  0.3164239610D+00
      0.5442492580D+00  0.1143456438D+01  0.7443082909D+00
 SP   1 1.00       0.000000000000
      0.1687144782D+00  0.1000000000D+01  0.1000000000D+01
 D   1 1.00       0.000000000000
      0.8000000000D+00  0.1000000000D+01
 ****
      2 0
 S   6 1.00       0.000000000000
      0.3047524880D+04  0.1834737132D-02
      0.4573695180D+03  0.1403732281D-01
      0.1039486850D+03  0.6884262226D-01
      0.2921015530D+02  0.2321844432D+00
      0.9286662960D+01  0.4679413484D+00
      0.3163926960D+01  0.3623119853D+00
 SP   3 1.00       0.000000000000
      0.7868272350D+01 -0.1193324198D+00  0.6899906659D-01
      0.1881288540D+01 -0.1608541517D+00  0.3164239610D+00
      0.5442492580D+00  0.1143456438D+01  0.7443082909D+00
 SP   1 1.00       0.000000000000
      0.1687144782D+00  0.1000000000D+01  0.1000000000D+01
 D   1 1.00       0.000000000000
      0.8000000000D+00  0.1000000000D+01
 ****
      3 0
 S   6 1.00       0.000000000000
      0.3047524880D+04  0.1834737132D-02
      0.4573695180D+03  0.1403732281D-01
      0.1039486850D+03  0.6884262226D-01
      0.2921015530D+02  0.2321844432D+00
      0.9286662960D+01  0.4679413484D+00
      0.3163926960D+01  0.3623119853D+00
 SP   3 1.00       0.000000000000
      0.7868272350D+01 -0.1193324198D+00  0.6899906659D-01
      0.1881288540D+01 -0.1608541517D+00  0.3164239610D+00
      0.5442492580D+00  0.1143456438D+01  0.7443082909D+00
 SP   1 1.00       0.000000000000
      0.1687144782D+00  0.1000000000D+01  0.1000000000D+01
 D   1 1.00       0.000000000000
      0.8000000000D+00  0.1000000000D+01
 ****
      4 0
 S   6 1.00       0.000000000000
      0.3047524880D+04  0.1834737132D-02
      0.4573695180D+03  0.1403732281D-01
      0.1039486850D+03  0.6884262226D-01
      0.2921015530D+02  0.2321844432D+00
      0.9286662960D+01  0.4679413484D+00
      0.3163926960D+01  0.3623119853D+00
 SP   3 1.00       0.000000000000
      0.7868272350D+01 -0.1193324198D+00  0.6899906659D-01
      0.1881288540D+01 -0.1608541517D+00  0.3164239610D+00
      0.5442492580D+00  0.1143456438D+01  0.7443082909D+00
 SP   1 1.00       0.000000000000
      0.1687144782D+00  0.1000000000D+01  0.1000000000D+01
 D   1 1.00       0.000000000000
      0.8000000000D+00  0.1000000000D+01
 ****
      5 0
 S   6 1.00       0.000000000000
      0.3047524880D+04  0.1834737132D-02
      0.4573695180D+03  0.1403732281D-01
      0.1039486850D+03  0.6884262226D-01
      0.2921015530D+02  0.2321844432D+00
      0.9286662960D+01  0.4679413484D+00
      0.3163926960D+01  0.3623119853D+00
 SP   3 1.00       0.000000000000
      0.7868272350D+01 -0.1193324198D+00  0.6899906659D-01
      0.1881288540D+01 -0.1608541517D+00  0.3164239610D+00
      0.5442492580D+00  0.1143456438D+01  0.7443082909D+00
 SP   1 1.00       0.000000000000
      0.1687144782D+00  0.1000000000D+01  0.1000000000D+01
 D   1 1.00       0.000000000000
      0.8000000000D+00  0.1000000000D+01
 ****
      6 0
 S   6 1.00       0.000000000000
      0.3047524880D+04  0.1834737132D-02
      0.4573695180D+03  0.1403732281D-01
      0.1039486850D+03  0.6884262226D-01
      0.2921015530D+02  0.2321844432D+00
      0.9286662960D+01  0.4679413484D+00
      0.3163926960D+01  0.3623119853D+00
 SP   3 1.00       0.000000000000
      0.7868272350D+01 -0.1193324198D+00  0.6899906659D-01
      0.1881288540D+01 -0.1608541517D+00  0.3164239610D+00
      0.5442492580D+00  0.1143456438D+01  0.7443082909D+00
 SP   1 1.00       0.000000000000
      0.1687144782D+00  0.1000000000D+01  0.1000000000D+01
 D   1 1.00       0.000000000000
      0.8000000000D+00  0.1000000000D+01
 ****
      7 0
 S   6 1.00       0.000000000000
      0.4173511460D+04  0.1834772160D-02
      0.6274579110D+03  0.1399462700D-01
      0.1429020930D+03  0.6858655181D-01
      0.4023432930D+02  0.2322408730D+00
      0.1282021290D+02  0.4690699481D+00
      0.4390437010D+01  0.3604551991D+00
 SP   3 1.00       0.000000000000
      0.1162636186D+02 -0.1149611817D+00  0.6757974388D-01
      0.2716279807D+01 -0.1691174786D+00  0.3239072959D+00
      0.7722183966D+00  0.1145851947D+01  0.7408951398D+00
 SP   1 1.00       0.000000000000
      0.2120314975D+00  0.1000000000D+01  0.1000000000D+01
 D   1 1.00       0.000000000000
      0.8000000000D+00  0.1000000000D+01
 ****
      8 0
 S   6 1.00       0.000000000000
      0.3047524880D+04  0.1834737132D-02
      0.4573695180D+03  0.1403732281D-01
      0.1039486850D+03  0.6884262226D-01
      0.2921015530D+02  0.2321844432D+00
      0.9286662960D+01  0.4679413484D+00
      0.3163926960D+01  0.3623119853D+00
 SP   3 1.00       0.000000000000
      0.7868272350D+01 -0.1193324198D+00  0.6899906659D-01
      0.1881288540D+01 -0.1608541517D+00  0.3164239610D+00
      0.5442492580D+00  0.1143456438D+01  0.7443082909D+00
 SP   1 1.00       0.000000000000
      0.1687144782D+00  0.1000000000D+01  0.1000000000D+01
 D   1 1.00       0.000000000000
      0.8000000000D+00  0.1000000000D+01
 ****
      9 0
 S   6 1.00       0.000000000000
      0.3047524880D+04  0.1834737132D-02
      0.4573695180D+03  0.1403732281D-01
      0.1039486850D+03  0.6884262226D-01
      0.2921015530D+02  0.2321844432D+00
      0.9286662960D+01  0.4679413484D+00
      0.3163926960D+01  0.3623119853D+00
 SP   3 1.00       0.000000000000
      0.7868272350D+01 -0.1193324198D+00  0.6899906659D-01
      0.1881288540D+01 -0.1608541517D+00  0.3164239610D+00
      0.5442492580D+00  0.1143456438D+01  0.7443082909D+00
 SP   1 1.00       0.000000000000
      0.1687144782D+00  0.1000000000D+01  0.1000000000D+01
 D   1 1.00       0.000000000000
      0.8000000000D+00  0.1000000000D+01
 ****
     10 0
 S   6 1.00       0.000000000000
      0.3047524880D+04  0.1834737132D-02
      0.4573695180D+03  0.1403732281D-01
      0.1039486850D+03  0.6884262226D-01
      0.2921015530D+02  0.2321844432D+00
      0.9286662960D+01  0.4679413484D+00
      0.3163926960D+01  0.3623119853D+00
 SP   3 1.00       0.000000000000
      0.7868272350D+01 -0.1193324198D+00  0.6899906659D-01
      0.1881288540D+01 -0.1608541517D+00  0.3164239610D+00
      0.5442492580D+00  0.1143456438D+01  0.7443082909D+00
 SP   1 1.00       0.000000000000
      0.1687144782D+00  0.1000000000D+01  0.1000000000D+01
 D   1 1.00       0.000000000000
      0.8000000000D+00  0.1000000000D+01
 ****
     11 0
 S   6 1.00       0.000000000000
      0.3047524880D+04  0.1834737132D-02
      0.4573695180D+03  0.1403732281D-01
      0.1039486850D+03  0.6884262226D-01
      0.2921015530D+02  0.2321844432D+00
      0.9286662960D+01  0.4679413484D+00
      0.3163926960D+01  0.3623119853D+00
 SP   3 1.00       0.000000000000
      0.7868272350D+01 -0.1193324198D+00  0.6899906659D-01
      0.1881288540D+01 -0.1608541517D+00  0.3164239610D+00
      0.5442492580D+00  0.1143456438D+01  0.7443082909D+00
 SP   1 1.00       0.000000000000
      0.1687144782D+00  0.1000000000D+01  0.1000000000D+01
 D   1 1.00       0.000000000000
      0.8000000000D+00  0.1000000000D+01
 ****
     12 0
 S   6 1.00       0.000000000000
      0.3047524880D+04  0.1834737132D-02
      0.4573695180D+03  0.1403732281D-01
      0.1039486850D+03  0.6884262226D-01
      0.2921015530D+02  0.2321844432D+00
      0.9286662960D+01  0.4679413484D+00
      0.3163926960D+01  0.3623119853D+00
 SP   3 1.00       0.000000000000
      0.7868272350D+01 -0.1193324198D+00  0.6899906659D-01
      0.1881288540D+01 -0.1608541517D+00  0.3164239610D+00
      0.5442492580D+00  0.1143456438D+01  0.7443082909D+00
 SP   1 1.00       0.000000000000
      0.1687144782D+00  0.1000000000D+01  0.1000000000D+01
 D   1 1.00       0.000000000000
      0.8000000000D+00  0.1000000000D+01
 ****
     13 0
 S   6 1.00       0.000000000000
      0.3047524880D+04  0.1834737132D-02
      0.4573695180D+03  0.1403732281D-01
      0.1039486850D+03  0.6884262226D-01
      0.2921015530D+02  0.2321844432D+00
      0.9286662960D+01  0.4679413484D+00
      0.3163926960D+01  0.3623119853D+00
 SP   3 1.00       0.000000000000
      0.7868272350D+01 -0.1193324198D+00  0.6899906659D-01
      0.1881288540D+01 -0.1608541517D+00  0.3164239610D+00
      0.5442492580D+00  0.1143456438D+01  0.7443082909D+00
 SP   1 1.00       0.000000000000
      0.1687144782D+00  0.1000000000D+01  0.1000000000D+01
 D   1 1.00       0.000000000000
      0.8000000000D+00  0.1000000000D+01
 ****
     14 0
 S   6 1.00       0.000000000000
      0.3047524880D+04  0.1834737132D-02
      0.4573695180D+03  0.1403732281D-01
      0.1039486850D+03  0.6884262226D-01
      0.2921015530D+02  0.2321844432D+00
      0.9286662960D+01  0.4679413484D+00
      0.3163926960D+01  0.3623119853D+00
 SP   3 1.00       0.000000000000
      0.7868272350D+01 -0.1193324198D+00  0.6899906659D-01
      0.1881288540D+01 -0.1608541517D+00  0.3164239610D+00
      0.5442492580D+00  0.1143456438D+01  0.7443082909D+00
 SP   1 1.00       0.000000000000
      0.1687144782D+00  0.1000000000D+01  0.1000000000D+01
 D   1 1.00       0.000000000000
      0.8000000000D+00  0.1000000000D+01
 ****
     15 0
 S   6 1.00       0.000000000000
      0.3047524880D+04  0.1834737132D-02
      0.4573695180D+03  0.1403732281D-01
      0.1039486850D+03  0.6884262226D-01
      0.2921015530D+02  0.2321844432D+00
      0.9286662960D+01  0.4679413484D+00
      0.3163926960D+01  0.3623119853D+00
 SP   3 1.00       0.000000000000
      0.7868272350D+01 -0.1193324198D+00  0.6899906659D-01
      0.1881288540D+01 -0.1608541517D+00  0.3164239610D+00
      0.5442492580D+00  0.1143456438D+01  0.7443082909D+00
 SP   1 1.00       0.000000000000
      0.1687144782D+00  0.1000000000D+01  0.1000000000D+01
 D   1 1.00       0.000000000000
      0.8000000000D+00  0.1000000000D+01
 ****
     16 0
 S   6 1.00       0.000000000000
      0.3047524880D+04  0.1834737132D-02
      0.4573695180D+03  0.1403732281D-01
      0.1039486850D+03  0.6884262226D-01
      0.2921015530D+02  0.2321844432D+00
      0.9286662960D+01  0.4679413484D+00
      0.3163926960D+01  0.3623119853D+00
 SP   3 1.00       0.000000000000
      0.7868272350D+01 -0.1193324198D+00  0.6899906659D-01
      0.1881288540D+01 -0.1608541517D+00  0.3164239610D+00
      0.5442492580D+00  0.1143456438D+01  0.7443082909D+00
 SP   1 1.00       0.000000000000
      0.1687144782D+00  0.1000000000D+01  0.1000000000D+01
 D   1 1.00       0.000000000000
      0.8000000000D+00  0.1000000000D+01
 ****
     17 0
 S   6 1.00       0.000000000000
      0.3047524880D+04  0.1834737132D-02
      0.4573695180D+03  0.1403732281D-01
      0.1039486850D+03  0.6884262226D-01
      0.2921015530D+02  0.2321844432D+00
      0.9286662960D+01  0.4679413484D+00
      0.3163926960D+01  0.3623119853D+00
 SP   3 1.00       0.000000000000
      0.7868272350D+01 -0.1193324198D+00  0.6899906659D-01
      0.1881288540D+01 -0.1608541517D+00  0.3164239610D+00
      0.5442492580D+00  0.1143456438D+01  0.7443082909D+00
 SP   1 1.00       0.000000000000
      0.1687144782D+00  0.1000000000D+01  0.1000000000D+01
 D   1 1.00       0.000000000000
      0.8000000000D+00  0.1000000000D+01
 ****
     18 0
 S   6 1.00       0.000000000000
      0.3047524880D+04  0.1834737132D-02
      0.4573695180D+03  0.1403732281D-01
      0.1039486850D+03  0.6884262226D-01
      0.2921015530D+02  0.2321844432D+00
      0.9286662960D+01  0.4679413484D+00
      0.3163926960D+01  0.3623119853D+00
 SP   3 1.00       0.000000000000
      0.7868272350D+01 -0.1193324198D+00  0.6899906659D-01
      0.1881288540D+01 -0.1608541517D+00  0.3164239610D+00
      0.5442492580D+00  0.1143456438D+01  0.7443082909D+00
 SP   1 1.00       0.000000000000
      0.1687144782D+00  0.1000000000D+01  0.1000000000D+01
 D   1 1.00       0.000000000000
      0.8000000000D+00  0.1000000000D+01
 ****
     19 0
 S   6 1.00       0.000000000000
      0.4173511460D+04  0.1834772160D-02
      0.6274579110D+03  0.1399462700D-01
      0.1429020930D+03  0.6858655181D-01
      0.4023432930D+02  0.2322408730D+00
      0.1282021290D+02  0.4690699481D+00
      0.4390437010D+01  0.3604551991D+00
 SP   3 1.00       0.000000000000
      0.1162636186D+02 -0.1149611817D+00  0.6757974388D-01
      0.2716279807D+01 -0.1691174786D+00  0.3239072959D+00
      0.7722183966D+00  0.1145851947D+01  0.7408951398D+00
 SP   1 1.00       0.000000000000
      0.2120314975D+00  0.1000000000D+01  0.1000000000D+01
 D   1 1.00       0.000000000000
      0.8000000000D+00  0.1000000000D+01
 ****
     20 0
 S   6 1.00       0.000000000000
      0.3047524880D+04  0.1834737132D-02
      0.4573695180D+03  0.1403732281D-01
      0.1039486850D+03  0.6884262226D-01
      0.2921015530D+02  0.2321844432D+00
      0.9286662960D+01  0.4679413484D+00
      0.3163926960D+01  0.3623119853D+00
 SP   3 1.00       0.000000000000
      0.7868272350D+01 -0.1193324198D+00  0.6899906659D-01
      0.1881288540D+01 -0.1608541517D+00  0.3164239610D+00
      0.5442492580D+00  0.1143456438D+01  0.7443082909D+00
 SP   1 1.00       0.000000000000
      0.1687144782D+00  0.1000000000D+01  0.1000000000D+01
 D   1 1.00       0.000000000000
      0.8000000000D+00  0.1000000000D+01
 ****
     21 0
 S   6 1.00       0.000000000000
      0.4173511460D+04  0.1834772160D-02
      0.6274579110D+03  0.1399462700D-01
      0.1429020930D+03  0.6858655181D-01
      0.4023432930D+02  0.2322408730D+00
      0.1282021290D+02  0.4690699481D+00
      0.4390437010D+01  0.3604551991D+00
 SP   3 1.00       0.000000000000
      0.1162636186D+02 -0.1149611817D+00  0.6757974388D-01
      0.2716279807D+01 -0.1691174786D+00  0.3239072959D+00
      0.7722183966D+00  0.1145851947D+01  0.7408951398D+00
 SP   1 1.00       0.000000000000
      0.2120314975D+00  0.1000000000D+01  0.1000000000D+01
 D   1 1.00       0.000000000000
      0.8000000000D+00  0.1000000000D+01
 ****
     22 0
 S   6 1.00       0.000000000000
      0.3047524880D+04  0.1834737132D-02
      0.4573695180D+03  0.1403732281D-01
      0.1039486850D+03  0.6884262226D-01
      0.2921015530D+02  0.2321844432D+00
      0.9286662960D+01  0.4679413484D+00
      0.3163926960D+01  0.3623119853D+00
 SP   3 1.00       0.000000000000
      0.7868272350D+01 -0.1193324198D+00  0.6899906659D-01
      0.1881288540D+01 -0.1608541517D+00  0.3164239610D+00
      0.5442492580D+00  0.1143456438D+01  0.7443082909D+00
 SP   1 1.00       0.000000000000
      0.1687144782D+00  0.1000000000D+01  0.1000000000D+01
 D   1 1.00       0.000000000000
      0.8000000000D+00  0.1000000000D+01
 ****
     23 0
 S   6 1.00       0.000000000000
      0.3047524880D+04  0.1834737132D-02
      0.4573695180D+03  0.1403732281D-01
      0.1039486850D+03  0.6884262226D-01
      0.2921015530D+02  0.2321844432D+00
      0.9286662960D+01  0.4679413484D+00
      0.3163926960D+01  0.3623119853D+00
 SP   3 1.00       0.000000000000
      0.7868272350D+01 -0.1193324198D+00  0.6899906659D-01
      0.1881288540D+01 -0.1608541517D+00  0.3164239610D+00
      0.5442492580D+00  0.1143456438D+01  0.7443082909D+00
 SP   1 1.00       0.000000000000
      0.1687144782D+00  0.1000000000D+01  0.1000000000D+01
 D   1 1.00       0.000000000000
      0.8000000000D+00  0.1000000000D+01
 ****
     24 0
 S   6 1.00       0.000000000000
      0.3047524880D+04  0.1834737132D-02
      0.4573695180D+03  0.1403732281D-01
      0.1039486850D+03  0.6884262226D-01
      0.2921015530D+02  0.2321844432D+00
      0.9286662960D+01  0.4679413484D+00
      0.3163926960D+01  0.3623119853D+00
 SP   3 1.00       0.000000000000
      0.7868272350D+01 -0.1193324198D+00  0.6899906659D-01
      0.1881288540D+01 -0.1608541517D+00  0.3164239610D+00
      0.5442492580D+00  0.1143456438D+01  0.7443082909D+00
 SP   1 1.00       0.000000000000
      0.1687144782D+00  0.1000000000D+01  0.1000000000D+01
 D   1 1.00       0.000000000000
      0.8000000000D+00  0.1000000000D+01
 ****
     25 0
 S   6 1.00       0.000000000000
      0.3047524880D+04  0.1834737132D-02
      0.4573695180D+03  0.1403732281D-01
      0.1039486850D+03  0.6884262226D-01
      0.2921015530D+02  0.2321844432D+00
      0.9286662960D+01  0.4679413484D+00
      0.3163926960D+01  0.3623119853D+00
 SP   3 1.00       0.000000000000
      0.7868272350D+01 -0.1193324198D+00  0.6899906659D-01
      0.1881288540D+01 -0.1608541517D+00  0.3164239610D+00
      0.5442492580D+00  0.1143456438D+01  0.7443082909D+00
 SP   1 1.00       0.000000000000
      0.1687144782D+00  0.1000000000D+01  0.1000000000D+01
 D   1 1.00       0.000000000000
      0.8000000000D+00  0.1000000000D+01
 ****
     26 0
 S   6 1.00       0.000000000000
      0.3047524880D+04  0.1834737132D-02
      0.4573695180D+03  0.1403732281D-01
      0.1039486850D+03  0.6884262226D-01
      0.2921015530D+02  0.2321844432D+00
      0.9286662960D+01  0.4679413484D+00
      0.3163926960D+01  0.3623119853D+00
 SP   3 1.00       0.000000000000
      0.7868272350D+01 -0.1193324198D+00  0.6899906659D-01
      0.1881288540D+01 -0.1608541517D+00  0.3164239610D+00
      0.5442492580D+00  0.1143456438D+01  0.7443082909D+00
 SP   1 1.00       0.000000000000
      0.1687144782D+00  0.1000000000D+01  0.1000000000D+01
 D   1 1.00       0.000000000000
      0.8000000000D+00  0.1000000000D+01
 ****
     27 0
 S   6 1.00       0.000000000000
      0.3047524880D+04  0.1834737132D-02
      0.4573695180D+03  0.1403732281D-01
      0.1039486850D+03  0.6884262226D-01
      0.2921015530D+02  0.2321844432D+00
      0.9286662960D+01  0.4679413484D+00
      0.3163926960D+01  0.3623119853D+00
 SP   3 1.00       0.000000000000
      0.7868272350D+01 -0.1193324198D+00  0.6899906659D-01
      0.1881288540D+01 -0.1608541517D+00  0.3164239610D+00
      0.5442492580D+00  0.1143456438D+01  0.7443082909D+00
 SP   1 1.00       0.000000000000
      0.1687144782D+00  0.1000000000D+01  0.1000000000D+01
 D   1 1.00       0.000000000000
      0.8000000000D+00  0.1000000000D+01
 ****
     28 0
 S   6 1.00       0.000000000000
      0.3047524880D+04  0.1834737132D-02
      0.4573695180D+03  0.1403732281D-01
      0.1039486850D+03  0.6884262226D-01
      0.2921015530D+02  0.2321844432D+00
      0.9286662960D+01  0.4679413484D+00
      0.3163926960D+01  0.3623119853D+00
 SP   3 1.00       0.000000000000
      0.7868272350D+01 -0.1193324198D+00  0.6899906659D-01
      0.1881288540D+01 -0.1608541517D+00  0.3164239610D+00
      0.5442492580D+00  0.1143456438D+01  0.7443082909D+00
 SP   1 1.00       0.000000000000
      0.1687144782D+00  0.1000000000D+01  0.1000000000D+01
 D   1 1.00       0.000000000000
      0.8000000000D+00  0.1000000000D+01
 ****
     29 0
 S   6 1.00       0.000000000000
      0.5484671660D+04  0.1831074430D-02
      0.8252349460D+03  0.1395017220D-01
      0.1880469580D+03  0.6844507810D-01
      0.5296450000D+02  0.2327143360D+00
      0.1689757040D+02  0.4701928980D+00
      0.5799635340D+01  0.3585208530D+00
 SP   3 1.00       0.000000000000
      0.1553961625D+02 -0.1107775495D+00  0.7087426823D-01
      0.3599933586D+01 -0.1480262627D+00  0.3397528391D+00
      0.1013761750D+01  0.1130767015D+01  0.7271585773D+00
 SP   1 1.00       0.000000000000
      0.2700058226D+00  0.1000000000D+01  0.1000000000D+01
 D   1 1.00       0.000000000000
      0.8000000000D+00  0.1000000000D+01
 ****
     30 0
 S   3 1.00       0.000000000000
      0.1873113696D+02  0.3349460434D-01
      0.2825394365D+01  0.2347269535D+00
      0.6401216923D+00  0.8137573261D+00
 S   1 1.00       0.000000000000
      0.1612777588D+00  0.1000000000D+01
 ****
     31 0
 S   3 1.00       0.000000000000
      0.1873113696D+02  0.3349460434D-01
      0.2825394365D+01  0.2347269535D+00
      0.6401216923D+00  0.8137573261D+00
 S   1 1.00       0.000000000000
      0.1612777588D+00  0.1000000000D+01
 ****
     32 0
 S   3 1.00       0.000000000000
      0.1873113696D+02  0.3349460434D-01
      0.2825394365D+01  0.2347269535D+00
      0.6401216923D+00  0.8137573261D+00
 S   1 1.00       0.000000000000
      0.1612777588D+00  0.1000000000D+01
 ****
     33 0
 S   3 1.00       0.000000000000
      0.1873113696D+02  0.3349460434D-01
      0.2825394365D+01  0.2347269535D+00
      0.6401216923D+00  0.8137573261D+00
 S   1 1.00       0.000000000000
      0.1612777588D+00  0.1000000000D+01
 ****
     34 0
 S   3 1.00       0.000000000000
      0.1873113696D+02  0.3349460434D-01
      0.2825394365D+01  0.2347269535D+00
      0.6401216923D+00  0.8137573261D+00
 S   1 1.00       0.000000000000
      0.1612777588D+00  0.1000000000D+01
 ****
     35 0
 S   3 1.00       0.000000000000
      0.1873113696D+02  0.3349460434D-01
      0.2825394365D+01  0.2347269535D+00
      0.6401216923D+00  0.8137573261D+00
 S   1 1.00       0.000000000000
      0.1612777588D+00  0.1000000000D+01
 ****
     36 0
 S   3 1.00       0.000000000000
      0.1873113696D+02  0.3349460434D-01
      0.2825394365D+01  0.2347269535D+00
      0.6401216923D+00  0.8137573261D+00
 S   1 1.00       0.000000000000
      0.1612777588D+00  0.1000000000D+01
 ****
     37 0
 S   3 1.00       0.000000000000
      0.1873113696D+02  0.3349460434D-01
      0.2825394365D+01  0.2347269535D+00
      0.6401216923D+00  0.8137573261D+00
 S   1 1.00       0.000000000000
      0.1612777588D+00  0.1000000000D+01
 ****
     38 0
 S   3 1.00       0.000000000000
      0.1873113696D+02  0.3349460434D-01
      0.2825394365D+01  0.2347269535D+00
      0.6401216923D+00  0.8137573261D+00
 S   1 1.00       0.000000000000
      0.1612777588D+00  0.1000000000D+01
 ****
     39 0
 S   3 1.00       0.000000000000
      0.1873113696D+02  0.3349460434D-01
      0.2825394365D+01  0.2347269535D+00
      0.6401216923D+00  0.8137573261D+00
 S   1 1.00       0.000000000000
      0.1612777588D+00  0.1000000000D+01
 ****
     40 0
 S   3 1.00       0.000000000000
      0.1873113696D+02  0.3349460434D-01
      0.2825394365D+01  0.2347269535D+00
      0.6401216923D+00  0.8137573261D+00
 S   1 1.00       0.000000000000
      0.1612777588D+00  0.1000000000D+01
 ****
     41 0
 S   3 1.00       0.000000000000
      0.1873113696D+02  0.3349460434D-01
      0.2825394365D+01  0.2347269535D+00
      0.6401216923D+00  0.8137573261D+00
 S   1 1.00       0.000000000000
      0.1612777588D+00  0.1000000000D+01
 ****
     42 0
 S   3 1.00       0.000000000000
      0.1873113696D+02  0.3349460434D-01
      0.2825394365D+01  0.2347269535D+00
      0.6401216923D+00  0.8137573261D+00
 S   1 1.00       0.000000000000
      0.1612777588D+00  0.1000000000D+01
 ****
     43 0
 S   3 1.00       0.000000000000
      0.1873113696D+02  0.3349460434D-01
      0.2825394365D+01  0.2347269535D+00
      0.6401216923D+00  0.8137573261D+00
 S   1 1.00       0.000000000000
      0.1612777588D+00  0.1000000000D+01
 ****
     44 0
 S   3 1.00       0.000000000000
      0.1873113696D+02  0.3349460434D-01
      0.2825394365D+01  0.2347269535D+00
      0.6401216923D+00  0.8137573261D+00
 S   1 1.00       0.000000000000
      0.1612777588D+00  0.1000000000D+01
 ****
     45 0
 S   3 1.00       0.000000000000
      0.1873113696D+02  0.3349460434D-01
      0.2825394365D+01  0.2347269535D+00
      0.6401216923D+00  0.8137573261D+00
 S   1 1.00       0.000000000000
      0.1612777588D+00  0.1000000000D+01
 ****
     46 0
 S   3 1.00       0.000000000000
      0.1873113696D+02  0.3349460434D-01
      0.2825394365D+01  0.2347269535D+00
      0.6401216923D+00  0.8137573261D+00
 S   1 1.00       0.000000000000
      0.1612777588D+00  0.1000000000D+01
 ****
     47 0
 S   3 1.00       0.000000000000
      0.1873113696D+02  0.3349460434D-01
      0.2825394365D+01  0.2347269535D+00
      0.6401216923D+00  0.8137573261D+00
 S   1 1.00       0.000000000000
      0.1612777588D+00  0.1000000000D+01
 ****
     48 0
 S   3 1.00       0.000000000000
      0.1873113696D+02  0.3349460434D-01
      0.2825394365D+01  0.2347269535D+00
      0.6401216923D+00  0.8137573261D+00
 S   1 1.00       0.000000000000
      0.1612777588D+00  0.1000000000D+01
 ****
     49 0
 S   3 1.00       0.000000000000
      0.1873113696D+02  0.3349460434D-01
      0.2825394365D+01  0.2347269535D+00
      0.6401216923D+00  0.8137573261D+00
 S   1 1.00       0.000000000000
      0.1612777588D+00  0.1000000000D+01
 ****
     50 0
 S   3 1.00       0.000000000000
      0.1873113696D+02  0.3349460434D-01
      0.2825394365D+01  0.2347269535D+00
      0.6401216923D+00  0.8137573261D+00
 S   1 1.00       0.000000000000
      0.1612777588D+00  0.1000000000D+01
 ****
     51 0
 S   3 1.00       0.000000000000
      0.1873113696D+02  0.3349460434D-01
      0.2825394365D+01  0.2347269535D+00
      0.6401216923D+00  0.8137573261D+00
 S   1 1.00       0.000000000000
      0.1612777588D+00  0.1000000000D+01
 ****
     52 0
 S   3 1.00       0.000000000000
      0.1873113696D+02  0.3349460434D-01
      0.2825394365D+01  0.2347269535D+00
      0.6401216923D+00  0.8137573261D+00
 S   1 1.00       0.000000000000
      0.1612777588D+00  0.1000000000D+01
 ****
     53 0
 S   3 1.00       0.000000000000
      0.1873113696D+02  0.3349460434D-01
      0.2825394365D+01  0.2347269535D+00
      0.6401216923D+00  0.8137573261D+00
 S   1 1.00       0.000000000000
      0.1612777588D+00  0.1000000000D+01
 ****
     54 0
 S   3 1.00       0.000000000000
      0.1873113696D+02  0.3349460434D-01
      0.2825394365D+01  0.2347269535D+00
      0.6401216923D+00  0.8137573261D+00
 S   1 1.00       0.000000000000
      0.1612777588D+00  0.1000000000D+01
 ****
     55 0
 S   3 1.00       0.000000000000
      0.1873113696D+02  0.3349460434D-01
      0.2825394365D+01  0.2347269535D+00
      0.6401216923D+00  0.8137573261D+00
 S   1 1.00       0.000000000000
      0.1612777588D+00  0.1000000000D+01
 ****
     56 0
 S   3 1.00       0.000000000000
      0.1873113696D+02  0.3349460434D-01
      0.2825394365D+01  0.2347269535D+00
      0.6401216923D+00  0.8137573261D+00
 S   1 1.00       0.000000000000
      0.1612777588D+00  0.1000000000D+01
 ****
     57 0
 S   3 1.00       0.000000000000
      0.1873113696D+02  0.3349460434D-01
      0.2825394365D+01  0.2347269535D+00
      0.6401216923D+00  0.8137573261D+00
 S   1 1.00       0.000000000000
      0.1612777588D+00  0.1000000000D+01
 ****
     58 0
 S   3 1.00       0.000000000000
      0.1873113696D+02  0.3349460434D-01
      0.2825394365D+01  0.2347269535D+00
      0.6401216923D+00  0.8137573261D+00
 S   1 1.00       0.000000000000
      0.1612777588D+00  0.1000000000D+01
 ****
     59 0
 S   3 1.00       0.000000000000
      0.1873113696D+02  0.3349460434D-01
      0.2825394365D+01  0.2347269535D+00
      0.6401216923D+00  0.8137573261D+00
 S   1 1.00       0.000000000000
      0.1612777588D+00  0.1000000000D+01
 ****
     60 0
 S   3 1.00       0.000000000000
      0.1873113696D+02  0.3349460434D-01
      0.2825394365D+01  0.2347269535D+00
      0.6401216923D+00  0.8137573261D+00
 S   1 1.00       0.000000000000
      0.1612777588D+00  0.1000000000D+01
 ****

   497 basis functions,   936 primitive gaussians,   497 cartesian basis functions
   105 alpha electrons      105 beta electrons
       nuclear repulsion energy      2697.6644122390 Hartrees.
 IExCor=  402 DFT=T Ex+Corr=B3LYP ExCW=0 ScaHFX=  0.200000
 ScaDFX=  0.800000  0.720000  1.000000  0.810000 ScalE2=  1.000000  1.000000
 IRadAn=      5 IRanWt=     -1 IRanGd=            0 ICorTp=0 IEmpDi=  4
 NAtoms=   60 NActive=   60 NUniq=   60 SFac= 1.00D+00 NAtFMM=   60 NAOKFM=T Big=T
 Integral buffers will be    131072 words long.
 Regular integral format.
 Two-electron integral symmetry is turned off.
 Leave Link  301 at Sat Nov  5 09:30:28 2022, MaxMem=   402653184 cpu:               1.2 elap:               0.1
 (Enter /home/wykgroup/appl/g16/l302.exe)
 NPDir=0 NMtPBC=     1 NCelOv=     1 NCel=       1 NClECP=     1 NCelD=      1
         NCelK=      1 NCelE2=     1 NClLst=     1 CellRange=     0.0.
 One-electron integrals computed using PRISM.
 NBasis=   497 RedAO= T EigKep=  4.59D-04  NBF=   497
 NBsUse=   497 1.00D-06 EigRej= -1.00D+00 NBFU=   497
 Precomputing XC quadrature grid using
 IXCGrd= 4 IRadAn=           5 IRanWt=          -1 IRanGd=           0 AccXCQ= 0.00D+00.
 Generated NRdTot=       0 NPtTot=           0 NUsed=           0 NTot=          32
 NSgBfM=   486   485   486   486   486 MxSgAt=    60 MxSgA2=    60.
 Leave Link  302 at Sat Nov  5 09:30:29 2022, MaxMem=   402653184 cpu:               9.2 elap:               0.7
 (Enter /home/wykgroup/appl/g16/l303.exe)
 DipDrv:  MaxL=1.
 Leave Link  303 at Sat Nov  5 09:30:29 2022, MaxMem=   402653184 cpu:               0.7 elap:               0.1
 (Enter /home/wykgroup/appl/g16/l308.exe)
 Leave Link  308 at Sat Nov  5 09:30:29 2022, MaxMem=   402653184 cpu:               0.8 elap:               0.1
 (Enter /home/wykgroup/appl/g16/l401.exe)
 ExpMin= 1.61D-01 ExpMax= 5.48D+03 ExpMxC= 8.25D+02 IAcc=3 IRadAn=         5 AccDes= 0.00D+00
 Harris functional with IExCor=  402 and IRadAn=       5 diagonalized for initial guess.
 HarFok:  IExCor=  402 AccDes= 0.00D+00 IRadAn=         5 IDoV= 1 UseB2=F ITyADJ=14
 ICtDFT=  3500011 ScaDFX=  1.000000  1.000000  1.000000  1.000000
 FoFCou: FMM=F IPFlag=           0 FMFlag=      100000 FMFlg1=        2001
         NFxFlg=           0 DoJE=T BraDBF=F KetDBF=T FulRan=T
         wScrn=  0.000000 ICntrl=       500 IOpCl=  0 I1Cent=   200000004 NGrid=           0
         NMat0=    1 NMatS0=      1 NMatT0=    0 NMatD0=    1 NMtDS0=    0 NMtDT0=    0
 Symmetry not used in FoFCou.
 Harris En= -1210.81197802404    
 JPrj=0 DoOrth=F DoCkMO=F.
 Leave Link  401 at Sat Nov  5 09:30:32 2022, MaxMem=   402653184 cpu:              31.1 elap:               2.2
 (Enter /home/wykgroup/appl/g16/l502.exe)
 Two-electron integral symmetry not used.
 Closed shell SCF:
 Using DIIS extrapolation, IDIIS=  1040.
 NGot=   402653184 LenX=   402147697 LenY=   401900191
 Requested convergence on RMS density matrix=1.00D-08 within  32 cycles.
 Requested convergence on MAX density matrix=1.00D-06.
 Requested convergence on             energy=1.00D-06.
 No special actions if energy rises.
 Fock matrices will be formed incrementally for  20 cycles.
 Integral accuracy reduced to 1.0D-05 until final iterations.

 Cycle   1  Pass 0  IDiag  1:
 FoFJK:  IHMeth= 1 ICntrl=       0 DoSepK=F KAlg= 0 I1Cent=           0 FoldK=F
 IRaf= 990000000 NMat=       1 IRICut=       1 DoRegI=T DoRafI=F ISym2E= 0 IDoP0=0 IntGTp=1.
 FoFCou: FMM=T IPFlag=           0 FMFlag=      100000 FMFlg1=        2001
         NFxFlg=           0 DoJE=F BraDBF=F KetDBF=F FulRan=T
         wScrn=  0.000000 ICntrl=         0 IOpCl=  0 I1Cent=           0 NGrid=           0
         NMat0=    1 NMatS0=      1 NMatT0=    0 NMatD0=    1 NMtDS0=    0 NMtDT0=    0
 Symmetry not used in FoFCou.
 FMM levels:  10  Number of levels for PrismC:   9
 E= -1210.01176552176    
 DIIS: error= 2.79D-02 at cycle   1 NSaved=   1.
 NSaved= 1 IEnMin= 1 EnMin= -1210.01176552176     IErMin= 1 ErrMin= 2.79D-02
 ErrMax= 2.79D-02  0.00D+00 EMaxC= 1.00D-01 BMatC= 7.40D-01 BMatP= 7.40D-01
 IDIUse=3 WtCom= 7.21D-01 WtEn= 2.79D-01
 Coeff-Com:  0.100D+01
 Coeff-En:   0.100D+01
 Coeff:      0.100D+01
 Gap=     0.327 Goal=   None    Shift=    0.000
 GapD=    0.327 DampG=1.000 DampE=0.500 DampFc=0.5000 IDamp=-1.
 Damping current iteration by 5.00D-01
 RMSDP=4.85D-03 MaxDP=3.44D-01              OVMax= 4.40D-01

 Cycle   2  Pass 0  IDiag  1:
 RMSU=  2.41D-03    CP:  9.79D-01
 E= -1210.22688382356     Delta-E=       -0.215118301804 Rises=F Damp=T
 DIIS: error= 1.28D-02 at cycle   2 NSaved=   2.
 NSaved= 2 IEnMin= 2 EnMin= -1210.22688382356     IErMin= 2 ErrMin= 1.28D-02
 ErrMax= 1.28D-02  0.00D+00 EMaxC= 1.00D-01 BMatC= 1.40D-01 BMatP= 7.40D-01
 IDIUse=3 WtCom= 8.72D-01 WtEn= 1.28D-01
 Coeff-Com:  0.215D+00 0.785D+00
 Coeff-En:   0.329D+00 0.671D+00
 Coeff:      0.230D+00 0.770D+00
 Gap=     0.241 Goal=   None    Shift=    0.000
 RMSDP=1.89D-03 MaxDP=2.00D-01 DE=-2.15D-01 OVMax= 3.63D-01

 Cycle   3  Pass 0  IDiag  1:
 RMSU=  1.60D-03    CP:  9.65D-01  5.92D-01
 E= -1210.61150956975     Delta-E=       -0.384625746187 Rises=F Damp=F
 DIIS: error= 1.66D-02 at cycle   3 NSaved=   3.
 NSaved= 3 IEnMin= 3 EnMin= -1210.61150956975     IErMin= 2 ErrMin= 1.28D-02
 ErrMax= 1.66D-02  0.00D+00 EMaxC= 1.00D-01 BMatC= 1.84D-01 BMatP= 1.40D-01
 IDIUse=2 WtCom= 0.00D+00 WtEn= 1.00D+00
 Coeff-En:   0.000D+00 0.000D+00 0.100D+01
 Coeff:      0.000D+00 0.000D+00 0.100D+01
 Gap=     0.219 Goal=   None    Shift=    0.000
 RMSDP=3.88D-03 MaxDP=5.13D-01 DE=-3.85D-01 OVMax= 6.23D-01

 Cycle   4  Pass 0  IDiag  1:
 RMSU=  1.86D-03    CP:  9.75D-01  1.42D+00 -7.28D-01
 E= -1209.38759708592     Delta-E=        1.223912483830 Rises=F Damp=F
 DIIS: error= 6.29D-02 at cycle   4 NSaved=   4.
 NSaved= 4 IEnMin= 3 EnMin= -1210.61150956975     IErMin= 2 ErrMin= 1.28D-02
 ErrMax= 6.29D-02  0.00D+00 EMaxC= 1.00D-01 BMatC= 1.55D+00 BMatP= 1.40D-01
 IDIUse=2 WtCom= 0.00D+00 WtEn= 1.00D+00
 Coeff-En:   0.000D+00 0.000D+00 0.836D+00 0.164D+00
 Coeff:      0.000D+00 0.000D+00 0.836D+00 0.164D+00
 Gap=     0.136 Goal=   None    Shift=    0.000
 RMSDP=2.45D-03 MaxDP=3.82D-01 DE= 1.22D+00 OVMax= 3.29D-01

 Cycle   5  Pass 0  IDiag  1:
 RMSU=  6.76D-04    CP:  9.72D-01  8.73D-01  1.78D-01  2.94D-01
 E= -1210.66221195252     Delta-E=       -1.274614866599 Rises=F Damp=F
 DIIS: error= 1.40D-02 at cycle   5 NSaved=   5.
 NSaved= 5 IEnMin= 5 EnMin= -1210.66221195252     IErMin= 2 ErrMin= 1.28D-02
 ErrMax= 1.40D-02  0.00D+00 EMaxC= 1.00D-01 BMatC= 1.34D-01 BMatP= 1.40D-01
 IDIUse=3 WtCom= 8.60D-01 WtEn= 1.40D-01
 Coeff-Com:  0.102D-01 0.425D-01 0.392D+00-0.596D-01 0.615D+00
 Coeff-En:   0.000D+00 0.000D+00 0.436D+00 0.000D+00 0.564D+00
 Coeff:      0.874D-02 0.365D-01 0.398D+00-0.512D-01 0.608D+00
 Gap=     0.204 Goal=   None    Shift=    0.000
 RMSDP=8.00D-04 MaxDP=7.55D-02 DE=-1.27D+00 OVMax= 1.42D-01

 Cycle   6  Pass 0  IDiag  1:
 RMSU=  2.08D-04    CP:  9.69D-01  7.23D-01  5.49D-01  1.56D-01  6.71D-01
 E= -1210.78104061955     Delta-E=       -0.118828667029 Rises=F Damp=F
 DIIS: error= 1.70D-03 at cycle   6 NSaved=   6.
 NSaved= 6 IEnMin= 6 EnMin= -1210.78104061955     IErMin= 6 ErrMin= 1.70D-03
 ErrMax= 1.70D-03  0.00D+00 EMaxC= 1.00D-01 BMatC= 2.65D-03 BMatP= 1.34D-01
 IDIUse=3 WtCom= 9.83D-01 WtEn= 1.70D-02
 Coeff-Com:  0.157D-02 0.165D-01 0.205D+00-0.472D-01 0.368D+00 0.455D+00
 Coeff-En:   0.000D+00 0.000D+00 0.000D+00 0.000D+00 0.000D+00 0.100D+01
 Coeff:      0.154D-02 0.162D-01 0.202D+00-0.464D-01 0.362D+00 0.465D+00
 Gap=     0.183 Goal=   None    Shift=    0.000
 RMSDP=1.36D-04 MaxDP=7.02D-03 DE=-1.19D-01 OVMax= 1.66D-02

 Cycle   7  Pass 0  IDiag  1:
 RMSU=  6.43D-05    CP:  9.70D-01  7.34D-01  5.41D-01  1.44D-01  7.05D-01
                    CP:  4.58D-01
 E= -1210.78310950234     Delta-E=       -0.002068882794 Rises=F Damp=F
 DIIS: error= 8.07D-04 at cycle   7 NSaved=   7.
 NSaved= 7 IEnMin= 7 EnMin= -1210.78310950234     IErMin= 7 ErrMin= 8.07D-04
 ErrMax= 8.07D-04  0.00D+00 EMaxC= 1.00D-01 BMatC= 3.52D-04 BMatP= 2.65D-03
 IDIUse=3 WtCom= 9.92D-01 WtEn= 8.07D-03
 Coeff-Com:  0.234D-02-0.620D-02 0.215D-01-0.387D-02 0.129D-01 0.209D+00
 Coeff-Com:  0.764D+00
 Coeff-En:   0.000D+00 0.000D+00 0.000D+00 0.000D+00 0.000D+00 0.106D+00
 Coeff-En:   0.894D+00
 Coeff:      0.232D-02-0.615D-02 0.213D-01-0.384D-02 0.128D-01 0.209D+00
 Coeff:      0.765D+00
 Gap=     0.183 Goal=   None    Shift=    0.000
 RMSDP=4.81D-05 MaxDP=2.52D-03 DE=-2.07D-03 OVMax= 7.55D-03

 Cycle   8  Pass 0  IDiag  1:
 RMSU=  1.84D-05    CP:  9.69D-01  7.24D-01  5.56D-01  1.43D-01  6.85D-01
                    CP:  5.69D-01  7.52D-01
 E= -1210.78345936313     Delta-E=       -0.000349860786 Rises=F Damp=F
 DIIS: error= 2.16D-04 at cycle   8 NSaved=   8.
 NSaved= 8 IEnMin= 8 EnMin= -1210.78345936313     IErMin= 8 ErrMin= 2.16D-04
 ErrMax= 2.16D-04  0.00D+00 EMaxC= 1.00D-01 BMatC= 2.06D-05 BMatP= 3.52D-04
 IDIUse=3 WtCom= 9.98D-01 WtEn= 2.16D-03
 Coeff-Com:  0.138D-02-0.457D-02 0.431D-02 0.134D-03-0.845D-02 0.102D+00
 Coeff-Com:  0.440D+00 0.465D+00
 Coeff-En:   0.000D+00 0.000D+00 0.000D+00 0.000D+00 0.000D+00 0.000D+00
 Coeff-En:   0.000D+00 0.100D+01
 Coeff:      0.138D-02-0.456D-02 0.430D-02 0.134D-03-0.844D-02 0.101D+00
 Coeff:      0.439D+00 0.466D+00
 Gap=     0.182 Goal=   None    Shift=    0.000
 RMSDP=1.10D-05 MaxDP=5.44D-04 DE=-3.50D-04 OVMax= 1.61D-03

 Cycle   9  Pass 0  IDiag  1:
 RMSU=  6.37D-06    CP:  9.69D-01  7.24D-01  5.56D-01  1.44D-01  6.86D-01
                    CP:  5.64D-01  7.99D-01  5.50D-01
 E= -1210.78347909291     Delta-E=       -0.000019729779 Rises=F Damp=F
 DIIS: error= 5.09D-05 at cycle   9 NSaved=   9.
 NSaved= 9 IEnMin= 9 EnMin= -1210.78347909291     IErMin= 9 ErrMin= 5.09D-05
 ErrMax= 5.09D-05  0.00D+00 EMaxC= 1.00D-01 BMatC= 1.02D-06 BMatP= 2.06D-05
 IDIUse=1 WtCom= 1.00D+00 WtEn= 0.00D+00
 Coeff-Com:  0.365D-03-0.102D-02-0.327D-03 0.367D-03-0.506D-02 0.276D-01
 Coeff-Com:  0.125D+00 0.219D+00 0.634D+00
 Coeff:      0.365D-03-0.102D-02-0.327D-03 0.367D-03-0.506D-02 0.276D-01
 Coeff:      0.125D+00 0.219D+00 0.634D+00
 Gap=     0.183 Goal=   None    Shift=    0.000
 RMSDP=3.14D-06 MaxDP=1.42D-04 DE=-1.97D-05 OVMax= 3.83D-04

 Initial convergence to 1.0D-05 achieved.  Increase integral accuracy.
 Cycle  10  Pass 1  IDiag  1:
 E= -1210.78347780088     Delta-E=        0.000001292032 Rises=F Damp=F
 DIIS: error= 9.49D-05 at cycle   1 NSaved=   1.
 NSaved= 1 IEnMin= 1 EnMin= -1210.78347780088     IErMin= 1 ErrMin= 9.49D-05
 ErrMax= 9.49D-05  0.00D+00 EMaxC= 1.00D-01 BMatC= 4.09D-06 BMatP= 4.09D-06
 IDIUse=1 WtCom= 1.00D+00 WtEn= 0.00D+00
 Coeff-Com:  0.100D+01
 Coeff:      0.100D+01
 Gap=     0.182 Goal=   None    Shift=    0.000
 RMSDP=3.14D-06 MaxDP=1.42D-04 DE= 1.29D-06 OVMax= 3.44D-04

 Cycle  11  Pass 1  IDiag  1:
 RMSU=  5.21D-05    CP:  1.00D+00
 E= -1210.78348111137     Delta-E=       -0.000003310495 Rises=F Damp=F
 DIIS: error= 2.19D-05 at cycle   2 NSaved=   2.
 NSaved= 2 IEnMin= 2 EnMin= -1210.78348111137     IErMin= 2 ErrMin= 2.19D-05
 ErrMax= 2.19D-05  0.00D+00 EMaxC= 1.00D-01 BMatC= 3.98D-07 BMatP= 4.09D-06
 IDIUse=1 WtCom= 1.00D+00 WtEn= 0.00D+00
 Coeff-Com:  0.119D+00 0.881D+00
 Coeff:      0.119D+00 0.881D+00
 Gap=     0.183 Goal=   None    Shift=    0.000
 RMSDP=3.70D-06 MaxDP=2.36D-04 DE=-3.31D-06 OVMax= 3.87D-04

 Cycle  12  Pass 1  IDiag  1:
 RMSU=  3.68D-06    CP:  1.00D+00  1.01D+00
 E= -1210.78348045265     Delta-E=        0.000000658718 Rises=F Damp=F
 DIIS: error= 3.82D-05 at cycle   3 NSaved=   3.
 NSaved= 3 IEnMin= 2 EnMin= -1210.78348111137     IErMin= 2 ErrMin= 2.19D-05
 ErrMax= 3.82D-05  0.00D+00 EMaxC= 1.00D-01 BMatC= 1.12D-06 BMatP= 3.98D-07
 IDIUse=1 WtCom= 1.00D+00 WtEn= 0.00D+00
 Coeff-Com: -0.933D-03 0.629D+00 0.372D+00
 Coeff:     -0.933D-03 0.629D+00 0.372D+00
 Gap=     0.183 Goal=   None    Shift=    0.000
 RMSDP=2.35D-06 MaxDP=1.59D-04 DE= 6.59D-07 OVMax= 2.73D-04

 Cycle  13  Pass 1  IDiag  1:
 RMSU=  6.10D-07    CP:  1.00D+00  1.01D+00  3.86D-01
 E= -1210.78348147097     Delta-E=       -0.000001018320 Rises=F Damp=F
 DIIS: error= 5.05D-06 at cycle   4 NSaved=   4.
 NSaved= 4 IEnMin= 4 EnMin= -1210.78348147097     IErMin= 4 ErrMin= 5.05D-06
 ErrMax= 5.05D-06  0.00D+00 EMaxC= 1.00D-01 BMatC= 2.97D-08 BMatP= 3.98D-07
 IDIUse=1 WtCom= 1.00D+00 WtEn= 0.00D+00
 Coeff-Com: -0.388D-02 0.396D+00 0.248D+00 0.360D+00
 Coeff:     -0.388D-02 0.396D+00 0.248D+00 0.360D+00
 Gap=     0.182 Goal=   None    Shift=    0.000
 RMSDP=3.89D-07 MaxDP=3.08D-05 DE=-1.02D-06 OVMax= 6.79D-05

 Cycle  14  Pass 1  IDiag  1:
 RMSU=  1.38D-07    CP:  1.00D+00  1.01D+00  3.93D-01  4.06D-01
 E= -1210.78348149696     Delta-E=       -0.000000025982 Rises=F Damp=F
 DIIS: error= 6.30D-07 at cycle   5 NSaved=   5.
 NSaved= 5 IEnMin= 5 EnMin= -1210.78348149696     IErMin= 5 ErrMin= 6.30D-07
 ErrMax= 6.30D-07  0.00D+00 EMaxC= 1.00D-01 BMatC= 5.07D-10 BMatP= 2.97D-08
 IDIUse=1 WtCom= 1.00D+00 WtEn= 0.00D+00
 Coeff-Com: -0.225D-02 0.215D+00 0.135D+00 0.212D+00 0.440D+00
 Coeff:     -0.225D-02 0.215D+00 0.135D+00 0.212D+00 0.440D+00
 Gap=     0.182 Goal=   None    Shift=    0.000
 RMSDP=5.74D-08 MaxDP=3.72D-06 DE=-2.60D-08 OVMax= 9.02D-06

 Cycle  15  Pass 1  IDiag  1:
 RMSU=  4.48D-08    CP:  1.00D+00  1.01D+00  3.92D-01  4.24D-01  7.55D-01
 E= -1210.78348149736     Delta-E=       -0.000000000408 Rises=F Damp=F
 DIIS: error= 1.76D-07 at cycle   6 NSaved=   6.
 NSaved= 6 IEnMin= 6 EnMin= -1210.78348149736     IErMin= 6 ErrMin= 1.76D-07
 ErrMax= 1.76D-07  0.00D+00 EMaxC= 1.00D-01 BMatC= 2.96D-11 BMatP= 5.07D-10
 IDIUse=1 WtCom= 1.00D+00 WtEn= 0.00D+00
 Coeff-Com: -0.690D-03 0.633D-01 0.396D-01 0.667D-01 0.227D+00 0.604D+00
 Coeff:     -0.690D-03 0.633D-01 0.396D-01 0.667D-01 0.227D+00 0.604D+00
 Gap=     0.182 Goal=   None    Shift=    0.000
 RMSDP=1.80D-08 MaxDP=1.05D-06 DE=-4.08D-10 OVMax= 2.62D-06

 Cycle  16  Pass 1  IDiag  1:
 RMSU=  1.40D-08    CP:  1.00D+00  1.01D+00  3.92D-01  4.23D-01  8.00D-01
                    CP:  7.96D-01
 E= -1210.78348149741     Delta-E=       -0.000000000050 Rises=F Damp=F
 DIIS: error= 9.24D-08 at cycle   7 NSaved=   7.
 NSaved= 7 IEnMin= 7 EnMin= -1210.78348149741     IErMin= 7 ErrMin= 9.24D-08
 ErrMax= 9.24D-08  0.00D+00 EMaxC= 1.00D-01 BMatC= 7.72D-12 BMatP= 2.96D-11
 IDIUse=1 WtCom= 1.00D+00 WtEn= 0.00D+00
 Coeff-Com: -0.990D-04 0.756D-02 0.459D-02 0.105D-01 0.787D-01 0.389D+00
 Coeff-Com:  0.510D+00
 Coeff:     -0.990D-04 0.756D-02 0.459D-02 0.105D-01 0.787D-01 0.389D+00
 Coeff:      0.510D+00
 Gap=     0.182 Goal=   None    Shift=    0.000
 RMSDP=6.89D-09 MaxDP=4.78D-07 DE=-5.05D-11 OVMax= 1.07D-06

 SCF Done:  E(RB3LYP) =  -1210.78348150     A.U. after   16 cycles
            NFock= 16  Conv=0.69D-08     -V/T= 2.0098
 KE= 1.199084835150D+03 PE=-8.202496429589D+03 EE= 3.094963700703D+03
 Leave Link  502 at Sat Nov  5 09:31:25 2022, MaxMem=   402653184 cpu:             717.7 elap:              53.5
 (Enter /home/wykgroup/appl/g16/l508.exe)
 QCSCF skips out because SCF is already converged.
 Leave Link  508 at Sat Nov  5 09:31:25 2022, MaxMem=   402653184 cpu:               0.0 elap:               0.0
 (Enter /home/wykgroup/appl/g16/l801.exe)
 DoSCS=F DFT=T ScalE2(SS,OS)=  1.000000  1.000000
 ExpMin= 1.61D-01 ExpMax= 5.48D+03 ExpMxC= 8.25D+02 IAcc=3 IRadAn=         5 AccDes= 0.00D+00
 HarFok:  IExCor=  205 AccDes= 0.00D+00 IRadAn=         5 IDoV=-2 UseB2=F ITyADJ=14
 ICtDFT= 12500011 ScaDFX=  1.000000  1.000000  1.000000  1.000000
 GSVD:  LWork=       -1073 too small for GESVD, short by        4640 words or        4640 for optimal perf.
 Largest valence mixing into a core orbital is  5.73D-05
 Largest core mixing into a valence orbital is  1.57D-05
 Range of M.O.s used for correlation:    30   497
 NBasis=   497 NAE=   105 NBE=   105 NFC=    29 NFV=     0
 NROrb=    468 NOA=    76 NOB=    76 NVA=   392 NVB=   392
 Leave Link  801 at Sat Nov  5 09:31:26 2022, MaxMem=   402653184 cpu:               2.3 elap:               0.2
 (Enter /home/wykgroup/appl/g16/l914.exe)
 RHF ground state
 Two-electron integral symmetry not used.
 MDV=   402653184 DFT=T DoStab=F Mixed=T DoRPA=T DoScal=F NonHer=T
 Making orbital integer symmetry assigments:
    16 initial guesses have been made.
 Convergence on wavefunction:    0.001000000000000
 Davidson Disk Diagonalization:  ConvIn= 1.00D-03 SkipCon=T Conv= 1.00D-03.
 Max sub-space:  2000 roots to seek:    16 dimension of matrix:        59584
 Iteration     1 Dimension    16 NMult     0 NNew     16
 CISAX will form    16 AO SS matrices at one time.
 NMat=    16 NSing=     8 JSym2X= 0.
 FoFJK:  IHMeth= 1 ICntrl=       0 DoSepK=F KAlg= 0 I1Cent=           0 FoldK=F
 IRaf= 990000000 NMat=      32 IRICut=       1 DoRegI=T DoRafI=F ISym2E= 0 IDoP0=0 IntGTp=1.
 FoFCou: FMM=T IPFlag=           0 FMFlag=      100000 FMFlg1=        2001
         NFxFlg=           0 DoJE=F BraDBF=F KetDBF=F FulRan=T
         wScrn=  0.000000 ICntrl=         0 IOpCl=  0 I1Cent=           0 NGrid=           0
         NMat0=   32 NMatS0=      8 NMatT0=    8 NMatD0=   32 NMtDS0=    0 NMtDT0=    0
 Symmetry not used in FoFCou.
 FMM levels:  10  Number of levels for PrismC:   9
 New state      1 was old state      2
 New state      2 was old state      6
 New state      3 was old state      4
 New state      4 was old state      3
 New state      5 was old state     10
 New state      6 was old state     16
 New state      7 was old state     15
 New state      8 was old state     14
 Excitation Energies [eV] at current iteration:
 Root      1 :     3.507951858341452
 Root      2 :     4.110436687124200
 Root      3 :     4.511498201805167
 Root      4 :     4.608256701119811
 Root      5 :     4.640286205197659
 Root      6 :     4.785114046583366
 Root      7 :     4.863641953197471
 Root      8 :     4.874120826255050
 Root      9 :     5.113048470011059
 Root     10 :     5.248339391944445
 Root     11 :     5.248629334682960
 Root     12 :     5.299829322375537
 Root     13 :     5.336990038870465
 Root     14 :     5.337503404409428
 Root     15 :     5.535276264571404
 Root     16 :     6.429822074337390
 Vector   3 SDiff=6.22D+00 TDiff=6.83D+00 assumed to be singlet.
 Vector   7 SDiff=6.28D+00 TDiff=6.63D+00 assumed to be singlet.
 Iteration     2 Dimension    24 NMult    16 NNew      8
 CISAX will form     8 AO SS matrices at one time.
 NMat=     8 NSing=     4 JSym2X= 0.
 Root      1 not converged, maximum delta is    0.116690652438169
 Root      2 not converged, maximum delta is    0.211579366596659
 New state      3 was old state      4
 Root      3 not converged, maximum delta is    0.099510124537114
 New state      4 was old state      7
 Root      4 not converged, maximum delta is    0.254721167866089
 Excitation Energies [eV] at current iteration:
 Root      1 :     3.288283863150475   Change is   -0.219667995190977
 Root      2 :     3.687875529257175   Change is   -0.422561157867025
 Root      3 :     4.520356290905539   Change is   -0.087900410214272
 Root      4 :     4.694057252370936   Change is   -0.169584700826535
 Iteration     3 Dimension    32 NMult    24 NNew      8
 CISAX will form     8 AO SS matrices at one time.
 NMat=     8 NSing=     4 JSym2X= 0.
 Root      1 not converged, maximum delta is    0.044517837152883
 Root      2 not converged, maximum delta is    0.113801556321438
 Root      3 not converged, maximum delta is    0.268768601869156
 Root      4 not converged, maximum delta is    0.278924891446363
 Excitation Energies [eV] at current iteration:
 Root      1 :     3.260979641851526   Change is   -0.027304221298950
 Root      2 :     3.595678550779864   Change is   -0.092196978477311
 Root      3 :     4.489429015441901   Change is   -0.030927275463638
 Root      4 :     4.565762028118916   Change is   -0.128295224252019
 Iteration     4 Dimension    40 NMult    32 NNew      8
 CISAX will form     8 AO SS matrices at one time.
 NMat=     8 NSing=     4 JSym2X= 0.
 Root      1 not converged, maximum delta is    0.016897160924774
 Root      2 not converged, maximum delta is    0.034960257050030
 Root      3 not converged, maximum delta is    0.106035499707854
 Root      4 not converged, maximum delta is    0.096839799416195
 Excitation Energies [eV] at current iteration:
 Root      1 :     3.256052873083265   Change is   -0.004926768768261
 Root      2 :     3.577812597727675   Change is   -0.017865953052189
 Root      3 :     4.475194890153301   Change is   -0.014234125288600
 Root      4 :     4.545100188827000   Change is   -0.020661839291916
 Iteration     5 Dimension    48 NMult    40 NNew      8
 CISAX will form     8 AO SS matrices at one time.
 NMat=     8 NSing=     4 JSym2X= 0.
 Root      1 not converged, maximum delta is    0.003515020706696
 Root      2 not converged, maximum delta is    0.006615769612474
 Root      3 not converged, maximum delta is    0.026564547515352
 Root      4 not converged, maximum delta is    0.029649885526146
 Excitation Energies [eV] at current iteration:
 Root      1 :     3.255367504580707   Change is   -0.000685368502558
 Root      2 :     3.575515242629535   Change is   -0.002297355098140
 Root      3 :     4.470612439804539   Change is   -0.004582450348762
 Root      4 :     4.540735360629592   Change is   -0.004364828197408
 Iteration     6 Dimension    56 NMult    48 NNew      8
 CISAX will form     8 AO SS matrices at one time.
 NMat=     8 NSing=     4 JSym2X= 0.
 Root      1 has converged.
 Root      2 not converged, maximum delta is    0.001441029343781
 Root      3 not converged, maximum delta is    0.005658191601424
 Root      4 not converged, maximum delta is    0.006824147696586
 Excitation Energies [eV] at current iteration:
 Root      1 :     3.255298663415555   Change is   -0.000068841165152
 Root      2 :     3.575248516173759   Change is   -0.000266726455776
 Root      3 :     4.469643821502332   Change is   -0.000968618302207
 Root      4 :     4.539795262613430   Change is   -0.000940098016161
 Iteration     7 Dimension    62 NMult    56 NNew      6
 CISAX will form     6 AO SS matrices at one time.
 NMat=     6 NSing=     4 JSym2X= 0.
 Root      1 has converged.
 Root      2 has converged.
 Root      3 not converged, maximum delta is    0.001531355578638
 Root      4 not converged, maximum delta is    0.001240374042312
 Excitation Energies [eV] at current iteration:
 Root      1 :     3.255296107767953   Change is   -0.000002555647602
 Root      2 :     3.575225367368582   Change is   -0.000023148805177
 Root      3 :     4.469468410338528   Change is   -0.000175411163804
 Root      4 :     4.539648121321494   Change is   -0.000147141291937
 Iteration     8 Dimension    66 NMult    62 NNew      4
 CISAX will form     4 AO SS matrices at one time.
 NMat=     4 NSing=     4 JSym2X= 0.
 Root      1 has converged.
 Root      2 has converged.
 Root      3 has converged.
 Root      4 has converged.
 Excitation Energies [eV] at current iteration:
 Root      1 :     3.255296107767978   Change is    0.000000000000025
 Root      2 :     3.575225367368651   Change is    0.000000000000069
 Root      3 :     4.469443077583906   Change is   -0.000025332754622
 Root      4 :     4.539627265208064   Change is   -0.000020856113430
 Convergence achieved on expansion vectors.
 ***********************************************************************
 Excited states from <AA,BB:AA,BB> singles matrix:
 ***********************************************************************
 
 1PDM for each excited state written to RWF  633
 Ground to excited state transition densities written to RWF  633
 Ground to excited state transition electric dipole moments (Au):
       state          X           Y           Z        Dip. S.      Osc.
         1         0.0000     -0.0000      0.0000      0.0000      0.0000
         2         0.0000      0.0000      0.0000      0.0000      0.0000
         3        -0.6014      0.8229     -0.0118      1.0391      0.1138
         4         0.6591     -0.6018      0.0041      0.7966      0.0886
 Ground to excited state transition velocity dipole moments (Au):
       state          X           Y           Z        Dip. S.      Osc.
         1         0.0000     -0.0000      0.0000      0.0000      0.0000
         2        -0.0000     -0.0000      0.0000      0.0000      0.0000
         3         0.1002     -0.1281      0.0012      0.0264      0.1073
         4        -0.1143      0.1016     -0.0046      0.0234      0.0935
 Ground to excited state transition magnetic dipole moments (Au):
       state          X           Y           Z
         1         0.0000      0.0000      0.0000
         2         0.0000      0.0000      0.0000
         3        -0.0223     -0.1001      0.1741
         4         0.2864      0.0259     -0.5154
 Ground to excited state transition velocity quadrupole moments (Au):
       state          XX          YY          ZZ          XY          XZ          YZ
         1         0.0000      0.0000      0.0000      0.0000     -0.0000      0.0000
         2        -0.0000      0.0000      0.0000      0.0000     -0.0000      0.0000
         3        -1.5176     -0.0670     -0.0089      1.0132      0.1077     -0.1477
         4         1.4745      0.0806      0.0209     -0.8483     -0.0651      0.1193
 <0|del|b> * <b|rxdel|0> + <0|del|b> * <b|delr+rdel|0>
 Rotatory Strengths (R) in cgs (10**-40 erg-esu-cm/Gauss)
       state          XX          YY          ZZ    R(velocity)    E-M Angle
         1        -0.0000      0.0000     -0.0000     -0.0000       90.00
         2        -0.0000     -0.0000      0.0000     -0.0000       90.00
         3        60.3476    -38.8315     24.9679     15.4947       70.82
         4        32.7434   -101.5298    -48.9503    -39.2455      107.91
 1/2[<0|r|b>*<b|rxdel|0> + (<0|rxdel|b>*<b|r|0>)*]
 Rotatory Strengths (R) in cgs (10**-40 erg-esu-cm/Gauss)
       state          XX          YY          ZZ     R(length)
         1        -0.0000      0.0000     -0.0000     -0.0000
         2        -0.0000     -0.0000     -0.0000     -0.0000
         3        -9.4842     58.2628      1.4519     16.7435
         4      -133.5047     11.0177      1.4889    -40.3327
  1/2[<0|del|b>*<b|r|0> + (<0|r|b>*<b|del|0>)*] (Au)
       state          X           Y           Z        Dip. S.   Osc.(frdel)
         1         0.0000      0.0000      0.0000     -0.0000     -0.0000
         2        -0.0000     -0.0000      0.0000      0.0000      0.0000
         3        -0.0603     -0.1054     -0.0000      0.1657      0.1104
         4        -0.0754     -0.0611     -0.0000      0.1365      0.0910

 Excitation energies and oscillator strengths:
 
 Excited state symmetry could not be determined.
 Excited State   1:      Triplet-?Sym    3.2553 eV  380.87 nm  f=0.0000  <S**2>=2.000
     103 ->106        -0.19991
     103 ->110         0.15188
     105 ->106         0.63972
 This state for optimization and/or second-order correction.
 Total Energy, E(TD-HF/TD-DFT) =  -1210.66385157    
 Copying the excited state density for this state as the 1-particle RhoCI density.
 
 Excited state symmetry could not be determined.
 Excited State   2:      Triplet-?Sym    3.5752 eV  346.79 nm  f=0.0000  <S**2>=2.000
      98 ->110         0.15837
      99 ->108        -0.24630
      99 ->109         0.10205
     102 ->108        -0.15087
     103 ->106         0.48012
     103 ->110         0.14041
     105 ->106         0.11562
     105 ->110         0.30156
 
 Excited state symmetry could not be determined.
 Excited State   3:      Singlet-?Sym    4.4694 eV  277.40 nm  f=0.1138  <S**2>=0.000
     102 ->106        -0.24856
     103 ->106        -0.14963
     104 ->106         0.28951
     105 ->106         0.55156
 
 Excited state symmetry could not be determined.
 Excited State   4:      Singlet-?Sym    4.5396 eV  273.12 nm  f=0.0886  <S**2>=0.000
     102 ->106        -0.13891
     103 ->106        -0.23262
     104 ->106         0.49303
     105 ->106        -0.39977
 SavETr:  write IOETrn=   770 NScale= 10 NData=  16 NLR=1 NState=    4 LETran=      82.
 Leave Link  914 at Sat Nov  5 09:37:55 2022, MaxMem=   402653184 cpu:            5136.6 elap:             388.8
 (Enter /home/wykgroup/appl/g16/l601.exe)
 Copying SCF densities to generalized density rwf, IOpCl= 0 IROHF=0.

 **********************************************************************

            Population analysis using the SCF Density.

 **********************************************************************

 Alpha  occ. eigenvalues --  -19.10130 -14.40253 -14.39466 -14.33668 -10.27440
 Alpha  occ. eigenvalues --  -10.23537 -10.23290 -10.23135 -10.22960 -10.21655
 Alpha  occ. eigenvalues --  -10.21603 -10.19508 -10.19358 -10.18990 -10.18972
 Alpha  occ. eigenvalues --  -10.18912 -10.18882 -10.18820 -10.18722 -10.18714
 Alpha  occ. eigenvalues --  -10.18694 -10.18676 -10.18600 -10.18596 -10.18462
 Alpha  occ. eigenvalues --  -10.18319 -10.18317 -10.16109 -10.16052  -1.05481
 Alpha  occ. eigenvalues --   -0.99818  -0.93874  -0.87920  -0.85506  -0.83291
 Alpha  occ. eigenvalues --   -0.82009  -0.80617  -0.76919  -0.75643  -0.75299
 Alpha  occ. eigenvalues --   -0.74294  -0.74149  -0.72982  -0.69709  -0.68593
 Alpha  occ. eigenvalues --   -0.66848  -0.64219  -0.63729  -0.62511  -0.60967
 Alpha  occ. eigenvalues --   -0.60301  -0.59072  -0.58350  -0.55796  -0.55040
 Alpha  occ. eigenvalues --   -0.53739  -0.52477  -0.51435  -0.50319  -0.49389
 Alpha  occ. eigenvalues --   -0.48736  -0.48102  -0.47091  -0.46680  -0.45293
 Alpha  occ. eigenvalues --   -0.44728  -0.44501  -0.43953  -0.43539  -0.43075
 Alpha  occ. eigenvalues --   -0.42468  -0.42213  -0.41810  -0.41707  -0.41502
 Alpha  occ. eigenvalues --   -0.41016  -0.40619  -0.39963  -0.39340  -0.39116
 Alpha  occ. eigenvalues --   -0.38770  -0.38157  -0.37154  -0.36661  -0.36269
 Alpha  occ. eigenvalues --   -0.35849  -0.35543  -0.35306  -0.34484  -0.34367
 Alpha  occ. eigenvalues --   -0.33962  -0.33041  -0.32588  -0.32353  -0.32218
 Alpha  occ. eigenvalues --   -0.32076  -0.31688  -0.28295  -0.25035  -0.24787
 Alpha  occ. eigenvalues --   -0.23967  -0.23944  -0.22620  -0.22104  -0.20493
 Alpha virt. eigenvalues --   -0.02244  -0.00082   0.00200   0.00252   0.01201
 Alpha virt. eigenvalues --    0.06237   0.07773   0.08278   0.08819   0.09786
 Alpha virt. eigenvalues --    0.09927   0.10561   0.11099   0.12273   0.13061
 Alpha virt. eigenvalues --    0.13345   0.13791   0.14289   0.14542   0.14781
 Alpha virt. eigenvalues --    0.15190   0.15460   0.15617   0.16136   0.16309
 Alpha virt. eigenvalues --    0.16631   0.16872   0.17327   0.17584   0.17958
 Alpha virt. eigenvalues --    0.18232   0.18610   0.18776   0.19189   0.19316
 Alpha virt. eigenvalues --    0.19705   0.20188   0.20444   0.20815   0.21070
 Alpha virt. eigenvalues --    0.21554   0.21669   0.22686   0.23713   0.23980
 Alpha virt. eigenvalues --    0.24311   0.25701   0.26506   0.26818   0.27177
 Alpha virt. eigenvalues --    0.27410   0.28090   0.29022   0.30320   0.30654
 Alpha virt. eigenvalues --    0.30924   0.31598   0.32181   0.32857   0.34018
 Alpha virt. eigenvalues --    0.35256   0.35389   0.35993   0.36572   0.38934
 Alpha virt. eigenvalues --    0.42509   0.44514   0.46785   0.48405   0.49343
 Alpha virt. eigenvalues --    0.49612   0.50339   0.50834   0.51050   0.51833
 Alpha virt. eigenvalues --    0.52626   0.53127   0.53558   0.53717   0.54083
 Alpha virt. eigenvalues --    0.54531   0.55054   0.55598   0.55836   0.55999
 Alpha virt. eigenvalues --    0.56425   0.56888   0.57468   0.57502   0.57880
 Alpha virt. eigenvalues --    0.58683   0.59498   0.59791   0.60049   0.60499
 Alpha virt. eigenvalues --    0.60817   0.60897   0.61386   0.61519   0.61717
 Alpha virt. eigenvalues --    0.62074   0.62625   0.62864   0.63021   0.63573
 Alpha virt. eigenvalues --    0.64074   0.64721   0.65720   0.66329   0.66529
 Alpha virt. eigenvalues --    0.67486   0.67721   0.69007   0.70281   0.70856
 Alpha virt. eigenvalues --    0.71788   0.72519   0.72844   0.73072   0.74457
 Alpha virt. eigenvalues --    0.76565   0.76761   0.77126   0.77549   0.77884
 Alpha virt. eigenvalues --    0.79396   0.79767   0.80146   0.80830   0.81834
 Alpha virt. eigenvalues --    0.82577   0.83248   0.83457   0.83759   0.84126
 Alpha virt. eigenvalues --    0.84285   0.84588   0.84950   0.85512   0.85760
 Alpha virt. eigenvalues --    0.86198   0.86466   0.86970   0.87412   0.87749
 Alpha virt. eigenvalues --    0.88100   0.89367   0.89894   0.90326   0.90852
 Alpha virt. eigenvalues --    0.91360   0.91623   0.91878   0.92191   0.92945
 Alpha virt. eigenvalues --    0.93411   0.93920   0.94502   0.94798   0.95173
 Alpha virt. eigenvalues --    0.95823   0.96609   0.97045   0.97364   0.97574
 Alpha virt. eigenvalues --    0.98486   0.98794   0.99506   1.00323   1.01298
 Alpha virt. eigenvalues --    1.01851   1.02407   1.03532   1.04249   1.05355
 Alpha virt. eigenvalues --    1.05995   1.07065   1.08809   1.08967   1.10295
 Alpha virt. eigenvalues --    1.11629   1.12205   1.13223   1.13349   1.14959
 Alpha virt. eigenvalues --    1.15636   1.16068   1.17561   1.18062   1.18734
 Alpha virt. eigenvalues --    1.19360   1.20636   1.22621   1.24913   1.25096
 Alpha virt. eigenvalues --    1.26147   1.26984   1.27108   1.30538   1.32647
 Alpha virt. eigenvalues --    1.34090   1.35285   1.36341   1.38489   1.39001
 Alpha virt. eigenvalues --    1.40510   1.41491   1.43302   1.43432   1.44007
 Alpha virt. eigenvalues --    1.44121   1.45649   1.46698   1.47507   1.48749
 Alpha virt. eigenvalues --    1.48827   1.49164   1.49941   1.50073   1.51458
 Alpha virt. eigenvalues --    1.51694   1.51936   1.53037   1.53627   1.56631
 Alpha virt. eigenvalues --    1.59423   1.61337   1.63173   1.64426   1.67234
 Alpha virt. eigenvalues --    1.69954   1.70505   1.71679   1.73383   1.73602
 Alpha virt. eigenvalues --    1.75109   1.76683   1.77215   1.78118   1.79000
 Alpha virt. eigenvalues --    1.79658   1.80400   1.80970   1.81873   1.82457
 Alpha virt. eigenvalues --    1.82549   1.82889   1.84003   1.86295   1.86748
 Alpha virt. eigenvalues --    1.87144   1.87295   1.88665   1.89166   1.90248
 Alpha virt. eigenvalues --    1.90738   1.92065   1.92503   1.93356   1.94601
 Alpha virt. eigenvalues --    1.95393   1.95916   1.97106   1.97519   1.98594
 Alpha virt. eigenvalues --    1.98764   1.99771   2.00984   2.01807   2.02592
 Alpha virt. eigenvalues --    2.03911   2.04286   2.04391   2.05427   2.06179
 Alpha virt. eigenvalues --    2.06661   2.07538   2.08035   2.09657   2.11180
 Alpha virt. eigenvalues --    2.11625   2.12604   2.12818   2.14114   2.14311
 Alpha virt. eigenvalues --    2.14587   2.15262   2.15831   2.16172   2.17497
 Alpha virt. eigenvalues --    2.17585   2.18323   2.19109   2.20829   2.22044
 Alpha virt. eigenvalues --    2.23938   2.25510   2.26518   2.26538   2.27053
 Alpha virt. eigenvalues --    2.28016   2.30123   2.30656   2.30933   2.31255
 Alpha virt. eigenvalues --    2.31354   2.32168   2.34295   2.35349   2.36763
 Alpha virt. eigenvalues --    2.37565   2.40025   2.41107   2.42154   2.42783
 Alpha virt. eigenvalues --    2.44646   2.46081   2.47513   2.48175   2.49231
 Alpha virt. eigenvalues --    2.50001   2.51496   2.53885   2.54692   2.56505
 Alpha virt. eigenvalues --    2.58549   2.58961   2.59160   2.60623   2.62272
 Alpha virt. eigenvalues --    2.63840   2.64733   2.64908   2.65698   2.66516
 Alpha virt. eigenvalues --    2.71916   2.72340   2.73133   2.73713   2.74491
 Alpha virt. eigenvalues --    2.75128   2.75342   2.75398   2.76466   2.77141
 Alpha virt. eigenvalues --    2.78154   2.79626   2.82444   2.82843   2.87110
 Alpha virt. eigenvalues --    2.87929   2.89250   2.93854   2.95548   2.98201
 Alpha virt. eigenvalues --    3.00792   3.07260   3.08014   3.13873   3.19683
 Alpha virt. eigenvalues --    3.30794   3.41214   3.43118   4.06102   4.08070
 Alpha virt. eigenvalues --    4.09456   4.09923   4.11868   4.12380   4.13925
 Alpha virt. eigenvalues --    4.16255   4.16553   4.21429   4.22995   4.24685
 Alpha virt. eigenvalues --    4.26057   4.29093   4.30718   4.33092   4.34176
 Alpha virt. eigenvalues --    4.34335   4.38745   4.39635   4.41455   4.44388
 Alpha virt. eigenvalues --    4.52230   4.56509   4.64910   4.68388   4.70769
 Alpha virt. eigenvalues --    4.74518   4.84631
          Condensed to atoms (all electrons):
 Mulliken charges:
               1
     1  C   -0.452592
     2  C   -0.144020
     3  C   -0.457455
     4  C    0.000034
     5  C    0.282658
     6  C   -0.196743
     7  N   -0.388876
     8  C   -0.119637
     9  C   -0.300527
    10  C   -0.174621
    11  C    0.183622
    12  C   -0.197766
    13  C   -0.126709
    14  C   -0.130786
    15  C   -0.130662
    16  C   -0.184889
    17  C   -0.268168
    18  C   -0.131169
    19  N   -0.345730
    20  C   -0.314814
    21  N   -0.429748
    22  C    0.284657
    23  C   -0.141343
    24  C   -0.146327
    25  C   -0.123652
    26  C   -0.143034
    27  C   -0.161448
    28  C    0.577530
    29  O   -0.547058
    30  H    0.132933
    31  H    0.179626
    32  H    0.134841
    33  H    0.138427
    34  H    0.133895
    35  H    0.137914
    36  H    0.177834
    37  H    0.126580
    38  H    0.169290
    39  H    0.107226
    40  H    0.154340
    41  H    0.151428
    42  H    0.139590
    43  H    0.152298
    44  H    0.127266
    45  H    0.129451
    46  H    0.128157
    47  H    0.127630
    48  H    0.121549
    49  H    0.138051
    50  H    0.146520
    51  H    0.114076
    52  H    0.142117
    53  H    0.165164
    54  H    0.181530
    55  H    0.168287
    56  H    0.167750
    57  H    0.133831
    58  H    0.127620
    59  H    0.129509
    60  H    0.144544
 Sum of Mulliken charges =  -0.00000
 Mulliken charges with hydrogens summed into heavy atoms:
               1
     1  C   -0.005192
     2  C   -0.005593
     3  C   -0.007811
     4  C    0.000034
     5  C    0.282658
     6  C    0.099128
     7  N   -0.388876
     8  C    0.141929
     9  C   -0.009509
    10  C   -0.022323
    11  C    0.183622
    12  C   -0.070499
    13  C    0.002742
    14  C   -0.002628
    15  C   -0.003032
    16  C   -0.063341
    17  C    0.016403
    18  C    0.125024
    19  N   -0.345730
    20  C    0.200167
    21  N   -0.429748
    22  C    0.284657
    23  C    0.026406
    24  C   -0.012496
    25  C    0.003968
    26  C   -0.013525
    27  C   -0.016904
    28  C    0.577530
    29  O   -0.547058
 Electronic spatial extent (au):  <R**2>=          16933.6333
 Charge=             -0.0000 electrons
 Dipole moment (field-independent basis, Debye):
    X=              2.6215    Y=              3.4378    Z=             -2.5694  Tot=              5.0291
 Quadrupole moment (field-independent basis, Debye-Ang):
   XX=           -173.9162   YY=           -169.2184   ZZ=           -169.0723
   XY=            -11.1918   XZ=              4.3205   YZ=             -1.7042
 Traceless Quadrupole moment (field-independent basis, Debye-Ang):
   XX=             -3.1805   YY=              1.5172   ZZ=              1.6633
   XY=            -11.1918   XZ=              4.3205   YZ=             -1.7042
 Octapole moment (field-independent basis, Debye-Ang**2):
  XXX=            140.7012  YYY=            -15.2019  ZZZ=              4.1978  XYY=             39.1119
  XXY=             64.5593  XXZ=              9.4812  XZZ=             28.9601  YZZ=             -3.2317
  YYZ=             -4.3999  XYZ=            -24.4155
 Hexadecapole moment (field-independent basis, Debye-Ang**3):
 XXXX=         -17675.2497 YYYY=          -2903.1087 ZZZZ=          -1562.8399 XXXY=           1098.0647
 XXXZ=            486.7776 YYYX=           1507.3329 YYYZ=             47.7712 ZZZX=            446.5031
 ZZZY=            107.2412 XXYY=          -3578.6116 XXZZ=          -3329.8847 YYZZ=           -751.2444
 XXYZ=            -80.8271 YYXZ=            259.9371 ZZXY=            458.5195
 N-N= 2.697664412239D+03 E-N=-8.202496421771D+03  KE= 1.199084835150D+03
 Leave Link  601 at Sat Nov  5 09:37:55 2022, MaxMem=   402653184 cpu:               2.1 elap:               0.2
 (Enter /home/wykgroup/appl/g16/l9999.exe)
 Electronic transition elements 
                 1             2             3             4 
      1  -0.121066D+04 -0.121065D+04 -0.121062D+04 -0.121062D+04
      2   0.000000D+00  0.000000D+00 -0.601447D+00  0.659098D+00
      3   0.000000D+00  0.000000D+00  0.822930D+00 -0.601841D+00
      4   0.000000D+00  0.000000D+00 -0.117908D-01  0.408483D-02
      5   0.000000D+00  0.000000D+00  0.100183D+00 -0.114338D+00
      6   0.000000D+00  0.000000D+00 -0.128069D+00  0.101565D+00
      7   0.000000D+00  0.000000D+00  0.119804D-02 -0.455100D-02
      8   0.000000D+00  0.000000D+00 -0.222989D-01  0.286435D+00
      9   0.000000D+00  0.000000D+00 -0.100117D+00  0.258874D-01
     10   0.000000D+00  0.000000D+00  0.174127D+00 -0.515430D+00
     11   0.000000D+00  0.000000D+00 -0.151763D+01  0.147450D+01
     12   0.000000D+00  0.000000D+00 -0.669806D-01  0.806350D-01
     13   0.000000D+00  0.000000D+00 -0.894154D-02  0.209447D-01
     14   0.000000D+00  0.000000D+00  0.101318D+01 -0.848301D+00
     15   0.000000D+00  0.000000D+00  0.107667D+00 -0.651158D-01
     16   0.000000D+00  0.000000D+00 -0.147721D+00  0.119285D+00
 1\1\GINC-NODE76\SP\RB3LYP TD-FC\6-31G(d)\C25H31N3O1\WYKGROUP\05-Nov-20
 22\0\\#p b3lyp/6-31g(d) 6D 10F nosymm GFInput td=(50-50,nstate=2) SCF=
 XQC\\Gaussian input prepared by ASE\\0,1\C,0,-2.0592446824,-3.28595633
 13,-0.6673329757\C,0,-1.0997993384,-2.1968955885,-0.145513262\C,0,-0.5
 346773824,-2.579173962,1.2369846065\C,0,-1.7830953469,-0.8523326695,-0
 .0963865038\C,0,-1.5248961334,0.2711216416,-0.8172166105\C,0,-0.456123
 2396,0.4935310055,-1.8628649264\N,0,0.8936694809,0.2216593564,-1.38383
 0681\C,0,1.3352268696,1.1775683809,-0.3604037301\C,0,2.8419659311,1.02
 52733745,-0.0489673866\C,0,3.345847885,-0.3833221471,-0.4202665745\C,0
 ,4.772532886,-0.6419705311,0.0339936754\C,0,5.0487467455,-1.6652766375
 ,0.9499694018\C,0,6.3518720135,-1.9139858551,1.3854859772\C,0,7.408339
 123,-1.1365615609,0.9111275288\C,0,7.1498159055,-0.1113775511,-0.00145
 55606\C,0,5.8464668247,0.1306324262,-0.4346692733\C,0,3.1505080046,-0.
 595621116,-1.944045825\C,0,1.8780064051,0.1126342628,-2.4609156933\N,0
 ,-2.4860217096,1.2694488815,-0.5780967529\C,0,-2.0283940893,2.63247550
 35,-0.255562884\N,0,-3.3315650211,0.7465138821,0.4266078821\C,0,-4.634
 7192727,1.281782075,0.5838998694\C,0,-5.3154826545,1.0784662358,1.7930
 994\C,0,-6.5976136227,1.5999571477,1.9539662039\C,0,-7.2035197506,2.33
 89811089,0.9354218664\C,0,-6.5193181214,2.5405225755,-0.2637477686\C,0
 ,-5.243650558,2.0081820924,-0.4491874194\C,0,-2.96390418,-0.5858016558
 ,0.7273584323\O,0,-3.5795573058,-1.3186702932,1.4952476186\H,0,-2.4195
 694649,-3.0479642989,-1.6751053138\H,0,-2.92730412,-3.3809105519,-0.00
 80789505\H,0,-1.5490521451,-4.2557867054,-0.7105350638\H,0,-0.25588775
 71,-2.1096524293,-0.8386291387\H,0,-0.034317951,-3.553841194,1.1885599
 224\H,0,0.1964716423,-1.8386571937,1.5815000554\H,0,-1.3379925039,-2.6
 39584713,1.9774163933\H,0,-0.5546638203,1.5097271327,-2.2900661118\H,0
 ,-0.6573278399,-0.1993385895,-2.6897856582\H,0,1.1355365332,2.22032907
 48,-0.6798037139\H,0,0.7391228084,0.9989951543,0.5418111152\H,0,3.0229
 618193,1.2311612751,1.0114412903\H,0,3.4181824094,1.7716349333,-0.6104
 466985\H,0,2.6998862457,-1.102395112,0.0967799714\H,0,4.2308484409,-2.
 2760824409,1.3262340691\H,0,6.5393857138,-2.7155762354,2.0953474234\H,
 0,8.4239382245,-1.3267003437,1.2478853627\H,0,7.9653232483,0.501213643
 9,-0.3776423262\H,0,5.6650190245,0.932454111,-1.1468515583\H,0,4.02039
 76887,-0.2162674214,-2.49305334\H,0,3.0951589947,-1.6708914276,-2.1478
 855558\H,0,2.1291860479,1.1078938833,-2.8796500491\H,0,1.4351459403,-0
 .4629724076,-3.2808996591\H,0,-1.4523970939,2.6556695522,0.6787832268\
 H,0,-2.9012941927,3.279815961,-0.1558310668\H,0,-1.4150212387,3.005520
 6139,-1.0764389496\H,0,-4.8447065876,0.5015270096,2.5782403191\H,0,-7.
 1225179411,1.4324677928,2.8906405726\H,0,-8.1993381365,2.7503790827,1.
 0741578808\H,0,-6.982626824,3.103837894,-1.0695711255\H,0,-4.723960830
 9,2.1321948987,-1.3932759576\\Version=ES64L-G16RevB.01\HF=-1210.783481
 5\RMSD=6.886e-09\PG=C01 [X(C25H31N3O1)]\\@


 SCIENCE IS A VERY HUMAN FORM OF KNOWLEDGE.
 WE ARE ALWAYS AT THE BRINK OF THE KNOWN,
 WE ALWAYS FEEL FORWARD FOR WHAT IS HOPED.
 EVERY JUDGEMENT IN SCIENCE STANDS ON THE EDGE OF ERROR, AND IS PERSONAL.
 SCIENCE IS A TRIBUTE TO WHAT WE CAN KNOW ALTHOUGH WE ARE FALLIBLE.

                     -- J. BRONOWSKI
 Job cpu time:       0 days  1 hours 38 minutes 30.5 seconds.
 Elapsed time:       0 days  0 hours  7 minutes 26.8 seconds.
 File lengths (MBytes):  RWF=   1507 Int=      0 D2E=      0 Chk=     52 Scr=      1
 Normal termination of Gaussian 16 at Sat Nov  5 09:37:56 2022.
