 Entering Gaussian System, Link 0=/home/wykgroup/appl/g16/g16
 Input=./calculation/no_transfer_pubchem_sampling_5_b3lyp/68470225.com
 Output=./calculation/no_transfer_pubchem_sampling_5_b3lyp/68470225.log
 Initial command:
 /home/wykgroup/appl/g16/l1.exe "/userdata/scratch/wykgroup/khs/./calculation/no_transfer_pubchem_sampling_5_b3lyp/68470225/Gau-15425.inp" -scrdir="/userdata/scratch/wykgroup/khs/./calculation/no_transfer_pubchem_sampling_5_b3lyp/68470225/"
 Entering Link 1 = /home/wykgroup/appl/g16/l1.exe PID=     15426.
  
 Copyright (c) 1988-2017, Gaussian, Inc.  All Rights Reserved.
  
 This is part of the Gaussian(R) 16 program.  It is based on
 the Gaussian(R) 09 system (copyright 2009, Gaussian, Inc.),
 the Gaussian(R) 03 system (copyright 2003, Gaussian, Inc.),
 the Gaussian(R) 98 system (copyright 1998, Gaussian, Inc.),
 the Gaussian(R) 94 system (copyright 1995, Gaussian, Inc.),
 the Gaussian 92(TM) system (copyright 1992, Gaussian, Inc.),
 the Gaussian 90(TM) system (copyright 1990, Gaussian, Inc.),
 the Gaussian 88(TM) system (copyright 1988, Gaussian, Inc.),
 the Gaussian 86(TM) system (copyright 1986, Carnegie Mellon
 University), and the Gaussian 82(TM) system (copyright 1983,
 Carnegie Mellon University). Gaussian is a federally registered
 trademark of Gaussian, Inc.
  
 This software contains proprietary and confidential information,
 including trade secrets, belonging to Gaussian, Inc.
  
 This software is provided under written license and may be
 used, copied, transmitted, or stored only in accord with that
 written license.
  
 The following legend is applicable only to US Government
 contracts under FAR:
  
                    RESTRICTED RIGHTS LEGEND
  
 Use, reproduction and disclosure by the US Government is
 subject to restrictions as set forth in subparagraphs (a)
 and (c) of the Commercial Computer Software - Restricted
 Rights clause in FAR 52.227-19.
  
 Gaussian, Inc.
 340 Quinnipiac St., Bldg. 40, Wallingford CT 06492
  
  
 ---------------------------------------------------------------
 Warning -- This program may not be used in any manner that
 competes with the business of Gaussian, Inc. or will provide
 assistance to any competitor of Gaussian, Inc.  The licensee
 of this program is prohibited from giving any competitor of
 Gaussian, Inc. access to this program.  By using this program,
 the user acknowledges that Gaussian, Inc. is engaged in the
 business of creating and licensing software in the field of
 computational chemistry and represents and warrants to the
 licensee that it is not a competitor of Gaussian, Inc. and that
 it will not use this program in any manner prohibited above.
 ---------------------------------------------------------------
  

 Cite this work as:
 Gaussian 16, Revision B.01,
 M. J. Frisch, G. W. Trucks, H. B. Schlegel, G. E. Scuseria, 
 M. A. Robb, J. R. Cheeseman, G. Scalmani, V. Barone, 
 G. A. Petersson, H. Nakatsuji, X. Li, M. Caricato, A. V. Marenich, 
 J. Bloino, B. G. Janesko, R. Gomperts, B. Mennucci, H. P. Hratchian, 
 J. V. Ortiz, A. F. Izmaylov, J. L. Sonnenberg, D. Williams-Young, 
 F. Ding, F. Lipparini, F. Egidi, J. Goings, B. Peng, A. Petrone, 
 T. Henderson, D. Ranasinghe, V. G. Zakrzewski, J. Gao, N. Rega, 
 G. Zheng, W. Liang, M. Hada, M. Ehara, K. Toyota, R. Fukuda, 
 J. Hasegawa, M. Ishida, T. Nakajima, Y. Honda, O. Kitao, H. Nakai, 
 T. Vreven, K. Throssell, J. A. Montgomery, Jr., J. E. Peralta, 
 F. Ogliaro, M. J. Bearpark, J. J. Heyd, E. N. Brothers, K. N. Kudin, 
 V. N. Staroverov, T. A. Keith, R. Kobayashi, J. Normand, 
 K. Raghavachari, A. P. Rendell, J. C. Burant, S. S. Iyengar, 
 J. Tomasi, M. Cossi, J. M. Millam, M. Klene, C. Adamo, R. Cammi, 
 J. W. Ochterski, R. L. Martin, K. Morokuma, O. Farkas, 
 J. B. Foresman, and D. J. Fox, Gaussian, Inc., Wallingford CT, 2016.
 
 ******************************************
 Gaussian 16:  ES64L-G16RevB.01 20-Dec-2017
                 4-Nov-2022 
 ******************************************
 %chk=./calculation/no_transfer_pubchem_sampling_5_b3lyp/68470225.chk
 %nprocshared=7
 Will use up to    7 processors via shared memory.
 %mem=6GB
 -----------------------------
 #p b3lyp/6-31g(d) opt SCF=XQC
 -----------------------------
 1/18=20,19=15,26=3,38=1/1,3;
 2/9=110,12=2,17=6,18=5,40=1/2;
 3/5=1,6=6,7=1,11=2,25=1,30=1,71=1,74=-5/1,2,3;
 4//1;
 5/5=2,8=3,13=1,38=5/2,8;
 6/7=2,8=2,9=2,10=2,28=1/1;
 7//1,2,3,16;
 1/18=20,19=15,26=3/3(2);
 2/9=110/2;
 99//99;
 2/9=110/2;
 3/5=1,6=6,7=1,11=2,25=1,30=1,71=1,74=-5/1,2,3;
 4/5=5,16=3,69=1/1;
 5/5=2,8=3,13=1,38=5/2,8;
 7//1,2,3,16;
 1/18=20,19=15,26=3/3(-5);
 2/9=110/2;
 6/7=2,8=2,9=2,10=2,19=2,28=1/1;
 99/9=1/99;
 Leave Link    1 at Fri Nov  4 21:48:40 2022, MaxMem=   805306368 cpu:               0.5 elap:               0.1
 (Enter /home/wykgroup/appl/g16/l101.exe)
 ------------------------------
 Gaussian input prepared by ASE
 ------------------------------
 Symbolic Z-matrix:
 Charge =  0 Multiplicity = 1
 C                     7.30455   1.81311   1.32452 
 O                     6.063     1.69591   1.97162 
 C                     5.06744   1.03062   1.32442 
 C                     5.17796   0.42103   0.09416 
 C                     4.02939  -0.20398  -0.39731 
 C                     2.83689  -0.17631   0.34883 
 N                     2.74524   0.37948   1.56106 
 C                     3.81738   0.96527   2.02766 
 O                     3.79514   1.53354   3.23999 
 C                     2.56295   1.4532    3.93728 
 C                     1.85643  -0.87681  -0.41452 
 C                     0.48221  -1.0609   -0.03693 
 C                    -0.31574  -2.1683   -0.14363 
 C                    -1.56081  -1.85012   0.45985 
 C                    -2.7722   -2.50544   0.68145 
 C                    -2.98776  -3.93877   0.229 
 O                    -2.42175  -4.19059  -1.03279 
 C                    -3.38424  -3.75842  -1.96795 
 C                    -4.7257   -3.88416  -1.20945 
 O                    -4.35071  -4.26145   0.10024 
 C                    -3.76883  -1.78934   1.32699 
 C                    -3.54175  -0.47257   1.71593 
 N                    -2.40659   0.17999   1.51661 
 C                    -1.45431  -0.5065    0.91604 
 N                    -0.20454  -0.03678   0.60709 
 S                     0.09724   1.64827   0.49021 
 O                     0.28546   2.21069   1.78758 
 O                     1.10904   1.83976  -0.50249 
 C                    -1.46628   2.1881   -0.18449 
 C                    -1.78606   1.81566  -1.47415 
 C                    -3.00517   2.1998   -2.0057 
 C                    -3.89902   2.95369  -1.25301 
 C                    -5.21437   3.38371  -1.82577 
 C                    -3.54786   3.32172   0.0433 
 C                    -2.334     2.93909   0.58265 
 C                     2.49778  -1.30392  -1.55409 
 N                     3.7988   -0.90114  -1.55089 
 C                     4.75543  -1.11967  -2.59701 
 H                     7.21272   2.34167   0.36941 
 H                     7.76462   0.83332   1.15334 
 H                     7.93424   2.39238   1.99763 
 H                     6.09832   0.42242  -0.46901 
 H                     1.74735   1.84794   3.32913 
 H                     2.3384    0.41397   4.19055 
 H                     2.69827   2.04248   4.84182 
 H                    -0.04515  -3.10999  -0.57655 
 H                    -2.53502  -4.63172   0.95047 
 H                    -3.31857  -4.4075   -2.84163 
 H                    -3.19649  -2.71784  -2.2636 
 H                    -5.37114  -4.66807  -1.61052 
 H                    -5.26758  -2.93094  -1.1989 
 H                    -4.71942  -2.26006   1.52416 
 H                    -4.31451   0.09712   2.21248 
 H                    -1.07795   1.23479  -2.0452 
 H                    -3.26641   1.91035  -3.01333 
 H                    -6.01252   3.24566  -1.09972 
 H                    -5.17854   4.44224  -2.08285 
 H                    -5.45304   2.82231  -2.72512 
 H                    -4.23778   3.90717   0.63291 
 H                    -2.0453    3.19609   1.58807 
 H                     2.09581  -1.85418  -2.38324 
 H                     5.06019  -0.17043  -3.04561 
 H                     5.64359  -1.61999  -2.20322 
 H                     4.31123  -1.74666  -3.36776 
 
 ITRead=  0  0  0  0  0  0  0  0  0  0  0  0  0  0  0  0  0  0  0  0
 ITRead=  0  0  0  0  0  0  0  0  0  0  0  0  0  0  0  0  0  0  0  0
 ITRead=  0  0  0  0  0  0  0  0  0  0  0  0  0  0  0  0  0  0  0  0
 ITRead=  0  0  0  0
 MicOpt= -1 -1 -1 -1 -1 -1 -1 -1 -1 -1 -1 -1 -1 -1 -1 -1 -1 -1 -1 -1
 MicOpt= -1 -1 -1 -1 -1 -1 -1 -1 -1 -1 -1 -1 -1 -1 -1 -1 -1 -1 -1 -1
 MicOpt= -1 -1 -1 -1 -1 -1 -1 -1 -1 -1 -1 -1 -1 -1 -1 -1 -1 -1 -1 -1
 MicOpt= -1 -1 -1 -1
 NAtoms=     64 NQM=       64 NQMF=       0 NMMI=      0 NMMIF=      0
                NMic=       0 NMicF=      0.
                    Isotopes and Nuclear Properties:
 (Nuclear quadrupole moments (NQMom) in fm**2, nuclear magnetic moments (NMagM)
  in nuclear magnetons)

  Atom         1           2           3           4           5           6           7           8           9          10
 IAtWgt=          12          16          12          12          12          12          14          12          16          12
 AtmWgt=  12.0000000  15.9949146  12.0000000  12.0000000  12.0000000  12.0000000  14.0030740  12.0000000  15.9949146  12.0000000
 NucSpn=           0           0           0           0           0           0           2           0           0           0
 AtZEff=  -0.0000000  -0.0000000  -0.0000000  -0.0000000  -0.0000000  -0.0000000  -0.0000000  -0.0000000  -0.0000000  -0.0000000
 NQMom=    0.0000000   0.0000000   0.0000000   0.0000000   0.0000000   0.0000000   2.0440000   0.0000000   0.0000000   0.0000000
 NMagM=    0.0000000   0.0000000   0.0000000   0.0000000   0.0000000   0.0000000   0.4037610   0.0000000   0.0000000   0.0000000
 AtZNuc=   6.0000000   8.0000000   6.0000000   6.0000000   6.0000000   6.0000000   7.0000000   6.0000000   8.0000000   6.0000000

  Atom        11          12          13          14          15          16          17          18          19          20
 IAtWgt=          12          12          12          12          12          12          16          12          12          16
 AtmWgt=  12.0000000  12.0000000  12.0000000  12.0000000  12.0000000  12.0000000  15.9949146  12.0000000  12.0000000  15.9949146
 NucSpn=           0           0           0           0           0           0           0           0           0           0
 AtZEff=  -0.0000000  -0.0000000  -0.0000000  -0.0000000  -0.0000000  -0.0000000  -0.0000000  -0.0000000  -0.0000000  -0.0000000
 NQMom=    0.0000000   0.0000000   0.0000000   0.0000000   0.0000000   0.0000000   0.0000000   0.0000000   0.0000000   0.0000000
 NMagM=    0.0000000   0.0000000   0.0000000   0.0000000   0.0000000   0.0000000   0.0000000   0.0000000   0.0000000   0.0000000
 AtZNuc=   6.0000000   6.0000000   6.0000000   6.0000000   6.0000000   6.0000000   8.0000000   6.0000000   6.0000000   8.0000000

  Atom        21          22          23          24          25          26          27          28          29          30
 IAtWgt=          12          12          14          12          14          32          16          16          12          12
 AtmWgt=  12.0000000  12.0000000  14.0030740  12.0000000  14.0030740  31.9720718  15.9949146  15.9949146  12.0000000  12.0000000
 NucSpn=           0           0           2           0           2           0           0           0           0           0
 AtZEff=  -0.0000000  -0.0000000  -0.0000000  -0.0000000  -0.0000000  -0.0000000  -0.0000000  -0.0000000  -0.0000000  -0.0000000
 NQMom=    0.0000000   0.0000000   2.0440000   0.0000000   2.0440000   0.0000000   0.0000000   0.0000000   0.0000000   0.0000000
 NMagM=    0.0000000   0.0000000   0.4037610   0.0000000   0.4037610   0.0000000   0.0000000   0.0000000   0.0000000   0.0000000
 AtZNuc=   6.0000000   6.0000000   7.0000000   6.0000000   7.0000000  16.0000000   8.0000000   8.0000000   6.0000000   6.0000000

  Atom        31          32          33          34          35          36          37          38          39          40
 IAtWgt=          12          12          12          12          12          12          14          12           1           1
 AtmWgt=  12.0000000  12.0000000  12.0000000  12.0000000  12.0000000  12.0000000  14.0030740  12.0000000   1.0078250   1.0078250
 NucSpn=           0           0           0           0           0           0           2           0           1           1
 AtZEff=  -0.0000000  -0.0000000  -0.0000000  -0.0000000  -0.0000000  -0.0000000  -0.0000000  -0.0000000  -0.0000000  -0.0000000
 NQMom=    0.0000000   0.0000000   0.0000000   0.0000000   0.0000000   0.0000000   2.0440000   0.0000000   0.0000000   0.0000000
 NMagM=    0.0000000   0.0000000   0.0000000   0.0000000   0.0000000   0.0000000   0.4037610   0.0000000   2.7928460   2.7928460
 AtZNuc=   6.0000000   6.0000000   6.0000000   6.0000000   6.0000000   6.0000000   7.0000000   6.0000000   1.0000000   1.0000000

  Atom        41          42          43          44          45          46          47          48          49          50
 IAtWgt=           1           1           1           1           1           1           1           1           1           1
 AtmWgt=   1.0078250   1.0078250   1.0078250   1.0078250   1.0078250   1.0078250   1.0078250   1.0078250   1.0078250   1.0078250
 NucSpn=           1           1           1           1           1           1           1           1           1           1
 AtZEff=  -0.0000000  -0.0000000  -0.0000000  -0.0000000  -0.0000000  -0.0000000  -0.0000000  -0.0000000  -0.0000000  -0.0000000
 NQMom=    0.0000000   0.0000000   0.0000000   0.0000000   0.0000000   0.0000000   0.0000000   0.0000000   0.0000000   0.0000000
 NMagM=    2.7928460   2.7928460   2.7928460   2.7928460   2.7928460   2.7928460   2.7928460   2.7928460   2.7928460   2.7928460
 AtZNuc=   1.0000000   1.0000000   1.0000000   1.0000000   1.0000000   1.0000000   1.0000000   1.0000000   1.0000000   1.0000000

  Atom        51          52          53          54          55          56          57          58          59          60
 IAtWgt=           1           1           1           1           1           1           1           1           1           1
 AtmWgt=   1.0078250   1.0078250   1.0078250   1.0078250   1.0078250   1.0078250   1.0078250   1.0078250   1.0078250   1.0078250
 NucSpn=           1           1           1           1           1           1           1           1           1           1
 AtZEff=  -0.0000000  -0.0000000  -0.0000000  -0.0000000  -0.0000000  -0.0000000  -0.0000000  -0.0000000  -0.0000000  -0.0000000
 NQMom=    0.0000000   0.0000000   0.0000000   0.0000000   0.0000000   0.0000000   0.0000000   0.0000000   0.0000000   0.0000000
 NMagM=    2.7928460   2.7928460   2.7928460   2.7928460   2.7928460   2.7928460   2.7928460   2.7928460   2.7928460   2.7928460
 AtZNuc=   1.0000000   1.0000000   1.0000000   1.0000000   1.0000000   1.0000000   1.0000000   1.0000000   1.0000000   1.0000000

  Atom        61          62          63          64
 IAtWgt=           1           1           1           1
 AtmWgt=   1.0078250   1.0078250   1.0078250   1.0078250
 NucSpn=           1           1           1           1
 AtZEff=  -0.0000000  -0.0000000  -0.0000000  -0.0000000
 NQMom=    0.0000000   0.0000000   0.0000000   0.0000000
 NMagM=    2.7928460   2.7928460   2.7928460   2.7928460
 AtZNuc=   1.0000000   1.0000000   1.0000000   1.0000000
 Leave Link  101 at Fri Nov  4 21:48:40 2022, MaxMem=   805306368 cpu:               1.3 elap:               0.2
 (Enter /home/wykgroup/appl/g16/l103.exe)

 GradGradGradGradGradGradGradGradGradGradGradGradGradGradGradGradGradGrad
 Berny optimization.
 Initialization pass.
                           ----------------------------
                           !    Initial Parameters    !
                           ! (Angstroms and Degrees)  !
 --------------------------                            --------------------------
 ! Name  Definition              Value          Derivative Info.                !
 --------------------------------------------------------------------------------
 ! R1    R(1,2)                  1.405          estimate D2E/DX2                !
 ! R2    R(1,39)                 1.0955         estimate D2E/DX2                !
 ! R3    R(1,40)                 1.0959         estimate D2E/DX2                !
 ! R4    R(1,41)                 1.0886         estimate D2E/DX2                !
 ! R5    R(2,3)                  1.3611         estimate D2E/DX2                !
 ! R6    R(3,4)                  1.3774         estimate D2E/DX2                !
 ! R7    R(3,8)                  1.4358         estimate D2E/DX2                !
 ! R8    R(4,5)                  1.3969         estimate D2E/DX2                !
 ! R9    R(4,42)                 1.079          estimate D2E/DX2                !
 ! R10   R(5,6)                  1.407          estimate D2E/DX2                !
 ! R11   R(5,37)                 1.3675         estimate D2E/DX2                !
 ! R12   R(6,7)                  1.3367         estimate D2E/DX2                !
 ! R13   R(6,11)                 1.4264         estimate D2E/DX2                !
 ! R14   R(7,8)                  1.3078         estimate D2E/DX2                !
 ! R15   R(8,9)                  1.3391         estimate D2E/DX2                !
 ! R16   R(9,10)                 1.4181         estimate D2E/DX2                !
 ! R17   R(10,43)                1.0913         estimate D2E/DX2                !
 ! R18   R(10,44)                1.093          estimate D2E/DX2                !
 ! R19   R(10,45)                1.088          estimate D2E/DX2                !
 ! R20   R(11,12)                1.437          estimate D2E/DX2                !
 ! R21   R(11,36)                1.3756         estimate D2E/DX2                !
 ! R22   R(12,13)                1.3691         estimate D2E/DX2                !
 ! R23   R(12,25)                1.3911         estimate D2E/DX2                !
 ! R24   R(13,14)                1.4197         estimate D2E/DX2                !
 ! R25   R(13,46)                1.0712         estimate D2E/DX2                !
 ! R26   R(14,15)                1.395          estimate D2E/DX2                !
 ! R27   R(14,24)                1.4229         estimate D2E/DX2                !
 ! R28   R(15,16)                1.5184         estimate D2E/DX2                !
 ! R29   R(15,21)                1.3866         estimate D2E/DX2                !
 ! R30   R(16,17)                1.4057         estimate D2E/DX2                !
 ! R31   R(16,20)                1.4065         estimate D2E/DX2                !
 ! R32   R(16,47)                1.098          estimate D2E/DX2                !
 ! R33   R(17,18)                1.4098         estimate D2E/DX2                !
 ! R34   R(18,19)                1.5462         estimate D2E/DX2                !
 ! R35   R(18,48)                1.0904         estimate D2E/DX2                !
 ! R36   R(18,49)                1.0979         estimate D2E/DX2                !
 ! R37   R(19,20)                1.4136         estimate D2E/DX2                !
 ! R38   R(19,50)                1.0918         estimate D2E/DX2                !
 ! R39   R(19,51)                1.0965         estimate D2E/DX2                !
 ! R40   R(21,22)                1.3917         estimate D2E/DX2                !
 ! R41   R(21,52)                1.0789         estimate D2E/DX2                !
 ! R42   R(22,23)                1.3244         estimate D2E/DX2                !
 ! R43   R(22,53)                1.0809         estimate D2E/DX2                !
 ! R44   R(23,24)                1.3186         estimate D2E/DX2                !
 ! R45   R(24,25)                1.3704         estimate D2E/DX2                !
 ! R46   R(25,26)                1.7158         estimate D2E/DX2                !
 ! R47   R(26,27)                1.4265         estimate D2E/DX2                !
 ! R48   R(26,28)                1.4303         estimate D2E/DX2                !
 ! R49   R(26,29)                1.7864         estimate D2E/DX2                !
 ! R50   R(29,30)                1.3799         estimate D2E/DX2                !
 ! R51   R(29,35)                1.3804         estimate D2E/DX2                !
 ! R52   R(30,31)                1.3843         estimate D2E/DX2                !
 ! R53   R(30,54)                1.0793         estimate D2E/DX2                !
 ! R54   R(31,32)                1.3906         estimate D2E/DX2                !
 ! R55   R(31,55)                1.0804         estimate D2E/DX2                !
 ! R56   R(32,33)                1.4977         estimate D2E/DX2                !
 ! R57   R(32,34)                1.3925         estimate D2E/DX2                !
 ! R58   R(33,56)                1.0878         estimate D2E/DX2                !
 ! R59   R(33,57)                1.0899         estimate D2E/DX2                !
 ! R60   R(33,58)                1.0867         estimate D2E/DX2                !
 ! R61   R(34,35)                1.3823         estimate D2E/DX2                !
 ! R62   R(34,59)                1.08           estimate D2E/DX2                !
 ! R63   R(35,60)                1.0772         estimate D2E/DX2                !
 ! R64   R(36,37)                1.3619         estimate D2E/DX2                !
 ! R65   R(36,61)                1.0733         estimate D2E/DX2                !
 ! R66   R(37,38)                1.4343         estimate D2E/DX2                !
 ! R67   R(38,62)                1.0932         estimate D2E/DX2                !
 ! R68   R(38,63)                1.0928         estimate D2E/DX2                !
 ! R69   R(38,64)                1.0883         estimate D2E/DX2                !
 ! A1    A(2,1,39)             111.5763         estimate D2E/DX2                !
 ! A2    A(2,1,40)             111.6143         estimate D2E/DX2                !
 ! A3    A(2,1,41)             105.7092         estimate D2E/DX2                !
 ! A4    A(39,1,40)            109.2921         estimate D2E/DX2                !
 ! A5    A(39,1,41)            109.3189         estimate D2E/DX2                !
 ! A6    A(40,1,41)            109.2375         estimate D2E/DX2                !
 ! A7    A(1,2,3)              117.913          estimate D2E/DX2                !
 ! A8    A(2,3,4)              125.6135         estimate D2E/DX2                !
 ! A9    A(2,3,8)              115.225          estimate D2E/DX2                !
 ! A10   A(4,3,8)              119.1547         estimate D2E/DX2                !
 ! A11   A(3,4,5)              116.5043         estimate D2E/DX2                !
 ! A12   A(3,4,42)             122.2785         estimate D2E/DX2                !
 ! A13   A(5,4,42)             121.217          estimate D2E/DX2                !
 ! A14   A(4,5,6)              120.1001         estimate D2E/DX2                !
 ! A15   A(4,5,37)             131.5704         estimate D2E/DX2                !
 ! A16   A(6,5,37)             108.3293         estimate D2E/DX2                !
 ! A17   A(5,6,7)              123.1763         estimate D2E/DX2                !
 ! A18   A(5,6,11)             106.8057         estimate D2E/DX2                !
 ! A19   A(7,6,11)             129.9689         estimate D2E/DX2                !
 ! A20   A(6,7,8)              116.9743         estimate D2E/DX2                !
 ! A21   A(3,8,7)              124.014          estimate D2E/DX2                !
 ! A22   A(3,8,9)              116.0129         estimate D2E/DX2                !
 ! A23   A(7,8,9)              119.9655         estimate D2E/DX2                !
 ! A24   A(8,9,10)             115.8205         estimate D2E/DX2                !
 ! A25   A(9,10,43)            110.7876         estimate D2E/DX2                !
 ! A26   A(9,10,44)            110.2631         estimate D2E/DX2                !
 ! A27   A(9,10,45)            105.6668         estimate D2E/DX2                !
 ! A28   A(43,10,44)           108.6344         estimate D2E/DX2                !
 ! A29   A(43,10,45)           111.1219         estimate D2E/DX2                !
 ! A30   A(44,10,45)           110.3578         estimate D2E/DX2                !
 ! A31   A(6,11,12)            125.4241         estimate D2E/DX2                !
 ! A32   A(6,11,36)            105.9814         estimate D2E/DX2                !
 ! A33   A(12,11,36)           128.5907         estimate D2E/DX2                !
 ! A34   A(11,12,13)           129.83           estimate D2E/DX2                !
 ! A35   A(11,12,25)           119.9629         estimate D2E/DX2                !
 ! A36   A(13,12,25)           110.1096         estimate D2E/DX2                !
 ! A37   A(12,13,14)           107.261          estimate D2E/DX2                !
 ! A38   A(12,13,46)           126.5368         estimate D2E/DX2                !
 ! A39   A(14,13,46)           126.1822         estimate D2E/DX2                !
 ! A40   A(13,14,15)           136.3687         estimate D2E/DX2                !
 ! A41   A(13,14,24)           106.3953         estimate D2E/DX2                !
 ! A42   A(15,14,24)           117.2348         estimate D2E/DX2                !
 ! A43   A(14,15,16)           121.2904         estimate D2E/DX2                !
 ! A44   A(14,15,21)           117.0968         estimate D2E/DX2                !
 ! A45   A(16,15,21)           121.6124         estimate D2E/DX2                !
 ! A46   A(15,16,17)           112.2978         estimate D2E/DX2                !
 ! A47   A(15,16,20)           112.4201         estimate D2E/DX2                !
 ! A48   A(15,16,47)           109.9623         estimate D2E/DX2                !
 ! A49   A(17,16,20)           105.4805         estimate D2E/DX2                !
 ! A50   A(17,16,47)           108.103          estimate D2E/DX2                !
 ! A51   A(20,16,47)           108.3555         estimate D2E/DX2                !
 ! A52   A(16,17,18)           105.4026         estimate D2E/DX2                !
 ! A53   A(17,18,19)           104.0039         estimate D2E/DX2                !
 ! A54   A(17,18,48)           107.932          estimate D2E/DX2                !
 ! A55   A(17,18,49)           110.6337         estimate D2E/DX2                !
 ! A56   A(19,18,48)           113.3852         estimate D2E/DX2                !
 ! A57   A(19,18,49)           110.9491         estimate D2E/DX2                !
 ! A58   A(48,18,49)           109.762          estimate D2E/DX2                !
 ! A59   A(18,19,20)           104.2439         estimate D2E/DX2                !
 ! A60   A(18,19,50)           113.0228         estimate D2E/DX2                !
 ! A61   A(18,19,51)           111.2705         estimate D2E/DX2                !
 ! A62   A(20,19,50)           107.7908         estimate D2E/DX2                !
 ! A63   A(20,19,51)           110.7441         estimate D2E/DX2                !
 ! A64   A(50,19,51)           109.6072         estimate D2E/DX2                !
 ! A65   A(16,20,19)           106.2988         estimate D2E/DX2                !
 ! A66   A(15,21,22)           120.0969         estimate D2E/DX2                !
 ! A67   A(15,21,52)           119.5389         estimate D2E/DX2                !
 ! A68   A(22,21,52)           120.3642         estimate D2E/DX2                !
 ! A69   A(21,22,23)           124.3318         estimate D2E/DX2                !
 ! A70   A(21,22,53)           120.6929         estimate D2E/DX2                !
 ! A71   A(23,22,53)           114.9746         estimate D2E/DX2                !
 ! A72   A(22,23,24)           115.5309         estimate D2E/DX2                !
 ! A73   A(14,24,23)           125.7008         estimate D2E/DX2                !
 ! A74   A(14,24,25)           108.6403         estimate D2E/DX2                !
 ! A75   A(23,24,25)           125.6504         estimate D2E/DX2                !
 ! A76   A(12,25,24)           107.5928         estimate D2E/DX2                !
 ! A77   A(12,25,26)           127.2011         estimate D2E/DX2                !
 ! A78   A(24,25,26)           120.8211         estimate D2E/DX2                !
 ! A79   A(25,26,27)           110.3922         estimate D2E/DX2                !
 ! A80   A(25,26,28)           107.6476         estimate D2E/DX2                !
 ! A81   A(25,26,29)            99.7039         estimate D2E/DX2                !
 ! A82   A(27,26,28)           119.018          estimate D2E/DX2                !
 ! A83   A(27,26,29)           109.8672         estimate D2E/DX2                !
 ! A84   A(28,26,29)           108.4542         estimate D2E/DX2                !
 ! A85   A(26,29,30)           118.3103         estimate D2E/DX2                !
 ! A86   A(26,29,35)           120.3108         estimate D2E/DX2                !
 ! A87   A(30,29,35)           121.3697         estimate D2E/DX2                !
 ! A88   A(29,30,31)           119.2125         estimate D2E/DX2                !
 ! A89   A(29,30,54)           119.1889         estimate D2E/DX2                !
 ! A90   A(31,30,54)           121.5983         estimate D2E/DX2                !
 ! A91   A(30,31,32)           120.5744         estimate D2E/DX2                !
 ! A92   A(30,31,55)           119.7822         estimate D2E/DX2                !
 ! A93   A(32,31,55)           119.6433         estimate D2E/DX2                !
 ! A94   A(31,32,33)           120.8749         estimate D2E/DX2                !
 ! A95   A(31,32,34)           119.0153         estimate D2E/DX2                !
 ! A96   A(33,32,34)           120.1048         estimate D2E/DX2                !
 ! A97   A(32,33,56)           110.6531         estimate D2E/DX2                !
 ! A98   A(32,33,57)           109.8885         estimate D2E/DX2                !
 ! A99   A(32,33,58)           111.1645         estimate D2E/DX2                !
 ! A100  A(56,33,57)           107.7473         estimate D2E/DX2                !
 ! A101  A(56,33,58)           109.006          estimate D2E/DX2                !
 ! A102  A(57,33,58)           108.2859         estimate D2E/DX2                !
 ! A103  A(32,34,35)           120.7641         estimate D2E/DX2                !
 ! A104  A(32,34,59)           119.366          estimate D2E/DX2                !
 ! A105  A(35,34,59)           119.8686         estimate D2E/DX2                !
 ! A106  A(29,35,34)           119.0626         estimate D2E/DX2                !
 ! A107  A(29,35,60)           118.6893         estimate D2E/DX2                !
 ! A108  A(34,35,60)           122.2433         estimate D2E/DX2                !
 ! A109  A(11,36,37)           110.5852         estimate D2E/DX2                !
 ! A110  A(11,36,61)           128.6497         estimate D2E/DX2                !
 ! A111  A(37,36,61)           120.7453         estimate D2E/DX2                !
 ! A112  A(5,37,36)            108.2904         estimate D2E/DX2                !
 ! A113  A(5,37,38)            125.4852         estimate D2E/DX2                !
 ! A114  A(36,37,38)           126.1816         estimate D2E/DX2                !
 ! A115  A(37,38,62)           110.6657         estimate D2E/DX2                !
 ! A116  A(37,38,63)           110.4255         estimate D2E/DX2                !
 ! A117  A(37,38,64)           109.3952         estimate D2E/DX2                !
 ! A118  A(62,38,63)           108.5917         estimate D2E/DX2                !
 ! A119  A(62,38,64)           108.8681         estimate D2E/DX2                !
 ! A120  A(63,38,64)           108.8544         estimate D2E/DX2                !
 ! D1    D(39,1,2,3)            59.8934         estimate D2E/DX2                !
 ! D2    D(40,1,2,3)           -62.7109         estimate D2E/DX2                !
 ! D3    D(41,1,2,3)           178.63           estimate D2E/DX2                !
 ! D4    D(1,2,3,4)              1.9944         estimate D2E/DX2                !
 ! D5    D(1,2,3,8)           -178.9675         estimate D2E/DX2                !
 ! D6    D(2,3,4,5)           -179.6652         estimate D2E/DX2                !
 ! D7    D(2,3,4,42)             0.214          estimate D2E/DX2                !
 ! D8    D(8,3,4,5)              1.3311         estimate D2E/DX2                !
 ! D9    D(8,3,4,42)          -178.7897         estimate D2E/DX2                !
 ! D10   D(2,3,8,7)            179.3837         estimate D2E/DX2                !
 ! D11   D(2,3,8,9)             -1.6273         estimate D2E/DX2                !
 ! D12   D(4,3,8,7)             -1.5117         estimate D2E/DX2                !
 ! D13   D(4,3,8,9)            177.4773         estimate D2E/DX2                !
 ! D14   D(3,4,5,6)              0.7196         estimate D2E/DX2                !
 ! D15   D(3,4,5,37)          -179.1094         estimate D2E/DX2                !
 ! D16   D(42,4,5,6)          -179.1609         estimate D2E/DX2                !
 ! D17   D(42,4,5,37)            1.01           estimate D2E/DX2                !
 ! D18   D(4,5,6,7)             -2.9676         estimate D2E/DX2                !
 ! D19   D(4,5,6,11)           179.3529         estimate D2E/DX2                !
 ! D20   D(37,5,6,7)           176.8977         estimate D2E/DX2                !
 ! D21   D(37,5,6,11)           -0.7819         estimate D2E/DX2                !
 ! D22   D(4,5,37,36)         -179.8034         estimate D2E/DX2                !
 ! D23   D(4,5,37,38)           -2.0653         estimate D2E/DX2                !
 ! D24   D(6,5,37,36)            0.3524         estimate D2E/DX2                !
 ! D25   D(6,5,37,38)          178.0905         estimate D2E/DX2                !
 ! D26   D(5,6,7,8)              2.8124         estimate D2E/DX2                !
 ! D27   D(11,6,7,8)           179.9135         estimate D2E/DX2                !
 ! D28   D(5,6,11,12)         -178.438          estimate D2E/DX2                !
 ! D29   D(5,6,11,36)            0.9032         estimate D2E/DX2                !
 ! D30   D(7,6,11,12)            4.0963         estimate D2E/DX2                !
 ! D31   D(7,6,11,36)         -176.5625         estimate D2E/DX2                !
 ! D32   D(6,7,8,3)             -0.5858         estimate D2E/DX2                !
 ! D33   D(6,7,8,9)           -179.537          estimate D2E/DX2                !
 ! D34   D(3,8,9,10)          -179.304          estimate D2E/DX2                !
 ! D35   D(7,8,9,10)            -0.2713         estimate D2E/DX2                !
 ! D36   D(8,9,10,43)          -54.1234         estimate D2E/DX2                !
 ! D37   D(8,9,10,44)           66.1727         estimate D2E/DX2                !
 ! D38   D(8,9,10,45)         -174.5734         estimate D2E/DX2                !
 ! D39   D(6,11,12,13)        -138.443          estimate D2E/DX2                !
 ! D40   D(6,11,12,25)          37.5867         estimate D2E/DX2                !
 ! D41   D(36,11,12,13)         42.3673         estimate D2E/DX2                !
 ! D42   D(36,11,12,25)       -141.603          estimate D2E/DX2                !
 ! D43   D(6,11,36,37)          -0.7157         estimate D2E/DX2                !
 ! D44   D(6,11,36,61)        -179.0813         estimate D2E/DX2                !
 ! D45   D(12,11,36,37)        178.5975         estimate D2E/DX2                !
 ! D46   D(12,11,36,61)          0.2319         estimate D2E/DX2                !
 ! D47   D(11,12,13,14)        176.021          estimate D2E/DX2                !
 ! D48   D(11,12,13,46)         -2.4222         estimate D2E/DX2                !
 ! D49   D(25,12,13,14)         -0.3165         estimate D2E/DX2                !
 ! D50   D(25,12,13,46)       -178.7596         estimate D2E/DX2                !
 ! D51   D(11,12,25,24)       -176.5452         estimate D2E/DX2                !
 ! D52   D(11,12,25,26)         27.1787         estimate D2E/DX2                !
 ! D53   D(13,12,25,24)          0.2087         estimate D2E/DX2                !
 ! D54   D(13,12,25,26)       -156.0674         estimate D2E/DX2                !
 ! D55   D(12,13,14,15)        179.8714         estimate D2E/DX2                !
 ! D56   D(12,13,14,24)          0.2974         estimate D2E/DX2                !
 ! D57   D(46,13,14,15)         -1.6784         estimate D2E/DX2                !
 ! D58   D(46,13,14,24)        178.7476         estimate D2E/DX2                !
 ! D59   D(13,14,15,16)          0.2708         estimate D2E/DX2                !
 ! D60   D(13,14,15,21)       -179.4968         estimate D2E/DX2                !
 ! D61   D(24,14,15,16)        179.8112         estimate D2E/DX2                !
 ! D62   D(24,14,15,21)          0.0435         estimate D2E/DX2                !
 ! D63   D(13,14,24,23)        178.8145         estimate D2E/DX2                !
 ! D64   D(13,14,24,25)         -0.1744         estimate D2E/DX2                !
 ! D65   D(15,14,24,23)         -0.8549         estimate D2E/DX2                !
 ! D66   D(15,14,24,25)       -179.8438         estimate D2E/DX2                !
 ! D67   D(14,15,16,17)        -40.0571         estimate D2E/DX2                !
 ! D68   D(14,15,16,20)       -158.8249         estimate D2E/DX2                !
 ! D69   D(14,15,16,47)         80.358          estimate D2E/DX2                !
 ! D70   D(21,15,16,17)        139.7001         estimate D2E/DX2                !
 ! D71   D(21,15,16,20)         20.9322         estimate D2E/DX2                !
 ! D72   D(21,15,16,47)        -99.8849         estimate D2E/DX2                !
 ! D73   D(14,15,21,22)          0.4254         estimate D2E/DX2                !
 ! D74   D(14,15,21,52)       -179.6107         estimate D2E/DX2                !
 ! D75   D(16,15,21,22)       -179.3415         estimate D2E/DX2                !
 ! D76   D(16,15,21,52)          0.6224         estimate D2E/DX2                !
 ! D77   D(15,16,17,18)        -83.8491         estimate D2E/DX2                !
 ! D78   D(20,16,17,18)         38.9239         estimate D2E/DX2                !
 ! D79   D(47,16,17,18)        154.6662         estimate D2E/DX2                !
 ! D80   D(15,16,20,19)         87.0765         estimate D2E/DX2                !
 ! D81   D(17,16,20,19)        -35.6182         estimate D2E/DX2                !
 ! D82   D(47,16,20,19)       -151.1874         estimate D2E/DX2                !
 ! D83   D(16,17,18,19)        -26.1885         estimate D2E/DX2                !
 ! D84   D(16,17,18,48)       -146.8965         estimate D2E/DX2                !
 ! D85   D(16,17,18,49)         92.9983         estimate D2E/DX2                !
 ! D86   D(17,18,19,20)          4.9068         estimate D2E/DX2                !
 ! D87   D(17,18,19,50)       -111.8618         estimate D2E/DX2                !
 ! D88   D(17,18,19,51)        124.3109         estimate D2E/DX2                !
 ! D89   D(48,18,19,20)        121.8795         estimate D2E/DX2                !
 ! D90   D(48,18,19,50)          5.1109         estimate D2E/DX2                !
 ! D91   D(48,18,19,51)       -118.7164         estimate D2E/DX2                !
 ! D92   D(49,18,19,20)       -114.0647         estimate D2E/DX2                !
 ! D93   D(49,18,19,50)        129.1667         estimate D2E/DX2                !
 ! D94   D(49,18,19,51)          5.3394         estimate D2E/DX2                !
 ! D95   D(18,19,20,16)         18.2477         estimate D2E/DX2                !
 ! D96   D(50,19,20,16)        138.5941         estimate D2E/DX2                !
 ! D97   D(51,19,20,16)       -101.5125         estimate D2E/DX2                !
 ! D98   D(15,21,22,23)         -0.1931         estimate D2E/DX2                !
 ! D99   D(15,21,22,53)        179.498          estimate D2E/DX2                !
 ! D100  D(52,21,22,23)        179.8433         estimate D2E/DX2                !
 ! D101  D(52,21,22,53)         -0.4655         estimate D2E/DX2                !
 ! D102  D(21,22,23,24)         -0.541          estimate D2E/DX2                !
 ! D103  D(53,22,23,24)        179.752          estimate D2E/DX2                !
 ! D104  D(22,23,24,14)          1.0803         estimate D2E/DX2                !
 ! D105  D(22,23,24,25)        179.9013         estimate D2E/DX2                !
 ! D106  D(14,24,25,12)         -0.0142         estimate D2E/DX2                !
 ! D107  D(14,24,25,26)        158.0749         estimate D2E/DX2                !
 ! D108  D(23,24,25,12)       -179.0038         estimate D2E/DX2                !
 ! D109  D(23,24,25,26)        -20.9147         estimate D2E/DX2                !
 ! D110  D(12,25,26,27)       -125.6814         estimate D2E/DX2                !
 ! D111  D(12,25,26,28)          5.7206         estimate D2E/DX2                !
 ! D112  D(12,25,26,29)        118.7624         estimate D2E/DX2                !
 ! D113  D(24,25,26,27)         80.8431         estimate D2E/DX2                !
 ! D114  D(24,25,26,28)       -147.7549         estimate D2E/DX2                !
 ! D115  D(24,25,26,29)        -34.713          estimate D2E/DX2                !
 ! D116  D(25,26,29,30)        -68.2129         estimate D2E/DX2                !
 ! D117  D(25,26,29,35)        110.7008         estimate D2E/DX2                !
 ! D118  D(27,26,29,30)        175.8321         estimate D2E/DX2                !
 ! D119  D(27,26,29,35)         -5.2542         estimate D2E/DX2                !
 ! D120  D(28,26,29,30)         44.2014         estimate D2E/DX2                !
 ! D121  D(28,26,29,35)       -136.8849         estimate D2E/DX2                !
 ! D122  D(26,29,30,31)        178.6433         estimate D2E/DX2                !
 ! D123  D(26,29,30,54)         -1.5715         estimate D2E/DX2                !
 ! D124  D(35,29,30,31)         -0.2583         estimate D2E/DX2                !
 ! D125  D(35,29,30,54)        179.5269         estimate D2E/DX2                !
 ! D126  D(26,29,35,34)       -178.7941         estimate D2E/DX2                !
 ! D127  D(26,29,35,60)          0.4259         estimate D2E/DX2                !
 ! D128  D(30,29,35,34)          0.0858         estimate D2E/DX2                !
 ! D129  D(30,29,35,60)        179.3058         estimate D2E/DX2                !
 ! D130  D(29,30,31,32)          0.0904         estimate D2E/DX2                !
 ! D131  D(29,30,31,55)       -179.79           estimate D2E/DX2                !
 ! D132  D(54,30,31,32)       -179.6894         estimate D2E/DX2                !
 ! D133  D(54,30,31,55)          0.4302         estimate D2E/DX2                !
 ! D134  D(30,31,32,33)        179.4292         estimate D2E/DX2                !
 ! D135  D(30,31,32,34)          0.2417         estimate D2E/DX2                !
 ! D136  D(55,31,32,33)         -0.6902         estimate D2E/DX2                !
 ! D137  D(55,31,32,34)       -179.8777         estimate D2E/DX2                !
 ! D138  D(31,32,33,56)        136.5543         estimate D2E/DX2                !
 ! D139  D(31,32,33,57)       -104.5787         estimate D2E/DX2                !
 ! D140  D(31,32,33,58)         15.2795         estimate D2E/DX2                !
 ! D141  D(34,32,33,56)        -44.2671         estimate D2E/DX2                !
 ! D142  D(34,32,33,57)         74.5999         estimate D2E/DX2                !
 ! D143  D(34,32,33,58)       -165.5418         estimate D2E/DX2                !
 ! D144  D(31,32,34,35)         -0.4179         estimate D2E/DX2                !
 ! D145  D(31,32,34,59)       -179.997          estimate D2E/DX2                !
 ! D146  D(33,32,34,35)       -179.6118         estimate D2E/DX2                !
 ! D147  D(33,32,34,59)          0.8092         estimate D2E/DX2                !
 ! D148  D(32,34,35,29)          0.2567         estimate D2E/DX2                !
 ! D149  D(32,34,35,60)       -178.9342         estimate D2E/DX2                !
 ! D150  D(59,34,35,29)        179.8337         estimate D2E/DX2                !
 ! D151  D(59,34,35,60)          0.6427         estimate D2E/DX2                !
 ! D152  D(11,36,37,5)           0.2389         estimate D2E/DX2                !
 ! D153  D(11,36,37,38)       -177.4792         estimate D2E/DX2                !
 ! D154  D(61,36,37,5)         178.7538         estimate D2E/DX2                !
 ! D155  D(61,36,37,38)          1.0357         estimate D2E/DX2                !
 ! D156  D(5,37,38,62)         -62.7894         estimate D2E/DX2                !
 ! D157  D(5,37,38,63)          57.4804         estimate D2E/DX2                !
 ! D158  D(5,37,38,64)         177.2625         estimate D2E/DX2                !
 ! D159  D(36,37,38,62)        114.5495         estimate D2E/DX2                !
 ! D160  D(36,37,38,63)       -125.1806         estimate D2E/DX2                !
 ! D161  D(36,37,38,64)         -5.3986         estimate D2E/DX2                !
 --------------------------------------------------------------------------------
 Trust Radius=3.00D-01 FncErr=1.00D-07 GrdErr=1.00D-06 EigMax=2.50D+02 EigMin=1.00D-04
 Number of steps in this run=    360 maximum allowed number of steps=    384.
 GradGradGradGradGradGradGradGradGradGradGradGradGradGradGradGradGradGrad

 Leave Link  103 at Fri Nov  4 21:48:40 2022, MaxMem=   805306368 cpu:               0.1 elap:               0.0
 (Enter /home/wykgroup/appl/g16/l202.exe)
 Stoichiometry    C27H26N4O6S
 Framework group  C1[X(C27H26N4O6S)]
 Deg. of freedom   186
 Full point group                 C1      NOp   1
 Largest Abelian subgroup         C1      NOp   1
 Largest concise Abelian subgroup C1      NOp   1
                         Standard orientation:                         
 ---------------------------------------------------------------------
 Center     Atomic      Atomic             Coordinates (Angstroms)
 Number     Number       Type             X           Y           Z
 ---------------------------------------------------------------------
      1          6           0       -7.498999    0.011332    0.099888
      2          8           0       -6.385535    0.329316   -0.695715
      3          6           0       -5.171134   -0.152361   -0.313834
      4          6           0       -4.936264   -0.964755    0.773460
      5          6           0       -3.609673   -1.342591    0.994348
      6          6           0       -2.593049   -0.883112    0.137091
      7          7           0       -2.830536   -0.129783   -0.941293
      8          6           0       -4.070665    0.226461   -1.154636
      9          8           0       -4.377636    0.973652   -2.222642
     10          6           0       -3.289850    1.332591   -3.058602
     11          6           0       -1.366171   -1.421439    0.626640
     12          6           0       -0.066388   -1.177284    0.064590
     13          6           0        0.974617   -2.041379   -0.145417
     14          6           0        1.996797   -1.315481   -0.811621
     15          6           0        3.275679   -1.587757   -1.297777
     16          6           0        3.890142   -2.970408   -1.169952
     17          8           0        3.609775   -3.565892    0.072099
     18          6           0        4.582582   -3.059703    0.958157
     19          6           0        5.775882   -2.705457    0.040990
     20          8           0        5.293169   -2.944883   -1.265883
     21          6           0        3.959916   -0.540818   -1.896534
     22          6           0        3.371870    0.717426   -1.984637
     23          7           0        2.163140    1.010564   -1.529462
     24          6           0        1.507256    0.010750   -0.973609
     25          7           0        0.249022    0.082017   -0.435302
     26         16           0       -0.415076    1.587487    0.051187
     27          8           0       -0.936205    2.288555   -1.076572
     28          8           0       -1.269853    1.342596    1.171569
     29          6           0        1.066865    2.395265    0.636455
     30          6           0        1.668522    1.910373    1.779736
     31          6           0        2.833501    2.504323    2.234031
     32          6           0        3.393074    3.578289    1.550406
     33          6           0        4.646269    4.234050    2.042953
     34          6           0        2.761291    4.051940    0.403368
     35          6           0        1.599735    3.462082   -0.058814
     36          6           0       -1.697554   -2.183008    1.723255
     37          7           0       -3.039653   -2.137039    1.950313
     38          6           0       -3.737134   -2.766554    3.034059
     39          1           0       -7.380336    0.379887    1.124654
     40          1           0       -7.683678   -1.068636    0.122638
     41          1           0       -8.346676    0.510443   -0.366462
     42          1           0       -5.728245   -1.295629    1.427308
     43          1           0       -2.501894    1.819185   -2.481342
     44          1           0       -2.872650    0.444095   -3.539337
     45          1           0       -3.703158    2.007894   -3.804856
     46          1           0        1.004942   -3.079250    0.117872
     47          1           0        3.501507   -3.627742   -1.958956
     48          1           0        4.812158   -3.838975    1.685465
     49          1           0        4.207190   -2.167394    1.476163
     50          1           0        6.642566   -3.350121    0.199795
     51          1           0        6.071111   -1.656127    0.159801
     52          1           0        4.949542   -0.709220   -2.291940
     53          1           0        3.899683    1.542285   -2.442125
     54          1           0        1.217335    1.079325    2.300033
     55          1           0        3.314144    2.129903    3.126288
     56          1           0        5.326714    4.430153    1.217238
     57          1           0        4.406138    5.189272    2.509587
     58          1           0        5.151328    3.612957    2.777884
     59          1           0        3.190978    4.885690   -0.131987
     60          1           0        1.100701    3.798135   -0.952287
     61          1           0       -1.049839   -2.739484    2.373387
     62          1           0       -4.178716   -2.016847    3.695976
     63          1           0       -4.535421   -3.407922    2.652489
     64          1           0       -3.040427   -3.375388    3.607126
 ---------------------------------------------------------------------
 Rotational constants (GHZ):           0.1472712           0.0658279           0.0557641
 Leave Link  202 at Fri Nov  4 21:48:40 2022, MaxMem=   805306368 cpu:               0.1 elap:               0.0
 (Enter /home/wykgroup/appl/g16/l301.exe)
 Standard basis: 6-31G(d) (6D, 7F)
 Ernie: Thresh=  0.10000D-02 Tol=  0.10000D-05 Strict=F.
 There are   626 symmetry adapted cartesian basis functions of A   symmetry.
 There are   626 symmetry adapted basis functions of A   symmetry.
   626 basis functions,  1192 primitive gaussians,   626 cartesian basis functions
   140 alpha electrons      140 beta electrons
       nuclear repulsion energy      4662.6880311157 Hartrees.
 IExCor=  402 DFT=T Ex+Corr=B3LYP ExCW=0 ScaHFX=  0.200000
 ScaDFX=  0.800000  0.720000  1.000000  0.810000 ScalE2=  1.000000  1.000000
 IRadAn=      5 IRanWt=     -1 IRanGd=            0 ICorTp=0 IEmpDi=  4
 NAtoms=   64 NActive=   64 NUniq=   64 SFac= 1.00D+00 NAtFMM=   60 NAOKFM=T Big=T
 Integral buffers will be    131072 words long.
 Raffenetti 2 integral format.
 Two-electron integral symmetry is turned on.
 Leave Link  301 at Fri Nov  4 21:48:40 2022, MaxMem=   805306368 cpu:               0.3 elap:               0.1
 (Enter /home/wykgroup/appl/g16/l302.exe)
 NPDir=0 NMtPBC=     1 NCelOv=     1 NCel=       1 NClECP=     1 NCelD=      1
         NCelK=      1 NCelE2=     1 NClLst=     1 CellRange=     0.0.
 One-electron integrals computed using PRISM.
 One-electron integral symmetry used in STVInt
 NBasis=   626 RedAO= T EigKep=  3.65D-04  NBF=   626
 NBsUse=   626 1.00D-06 EigRej= -1.00D+00 NBFU=   626
 Precomputing XC quadrature grid using
 IXCGrd= 4 IRadAn=           5 IRanWt=          -1 IRanGd=           0 AccXCQ= 0.00D+00.
 Generated NRdTot=       0 NPtTot=           0 NUsed=           0 NTot=          32
 NSgBfM=   615   615   615   615   615 MxSgAt=    64 MxSgA2=    64.
 Leave Link  302 at Fri Nov  4 21:48:42 2022, MaxMem=   805306368 cpu:               9.9 elap:               1.4
 (Enter /home/wykgroup/appl/g16/l303.exe)
 DipDrv:  MaxL=1.
 Leave Link  303 at Fri Nov  4 21:48:42 2022, MaxMem=   805306368 cpu:               0.5 elap:               0.1
 (Enter /home/wykgroup/appl/g16/l401.exe)
 ExpMin= 1.17D-01 ExpMax= 2.19D+04 ExpMxC= 3.30D+03 IAcc=3 IRadAn=         5 AccDes= 0.00D+00
 Harris functional with IExCor=  402 and IRadAn=       5 diagonalized for initial guess.
 HarFok:  IExCor=  402 AccDes= 0.00D+00 IRadAn=         5 IDoV= 1 UseB2=F ITyADJ=14
 ICtDFT=  3500011 ScaDFX=  1.000000  1.000000  1.000000  1.000000
 FoFCou: FMM=F IPFlag=           0 FMFlag=      100000 FMFlg1=        2001
         NFxFlg=           0 DoJE=T BraDBF=F KetDBF=T FulRan=T
         wScrn=  0.000000 ICntrl=       500 IOpCl=  0 I1Cent=   200000004 NGrid=           0
         NMat0=    1 NMatS0=      1 NMatT0=    0 NMatD0=    1 NMtDS0=    0 NMtDT0=    0
 Petite list used in FoFCou.
 Harris En= -2112.92260185101    
 JPrj=0 DoOrth=F DoCkMO=F.
 Leave Link  401 at Fri Nov  4 21:48:48 2022, MaxMem=   805306368 cpu:              43.2 elap:               6.2
 (Enter /home/wykgroup/appl/g16/l502.exe)
 Integral symmetry usage will be decided dynamically.
 Closed shell SCF:
 Using DIIS extrapolation, IDIIS=  1040.
 NGot=   805306368 LenX=   804511497 LenY=   804118995
 Requested convergence on RMS density matrix=1.00D-08 within  32 cycles.
 Requested convergence on MAX density matrix=1.00D-06.
 Requested convergence on             energy=1.00D-06.
 No special actions if energy rises.
 Fock matrices will be formed incrementally for  20 cycles.
 Integral accuracy reduced to 1.0D-05 until final iterations.

 Cycle   1  Pass 0  IDiag  1:
 FoFJK:  IHMeth= 1 ICntrl=       0 DoSepK=F KAlg= 0 I1Cent=           0 FoldK=F
 IRaf= 900000000 NMat=       1 IRICut=       1 DoRegI=T DoRafI=F ISym2E= 0 IDoP0=0 IntGTp=1.
 FoFCou: FMM=T IPFlag=           0 FMFlag=      100000 FMFlg1=        2001
         NFxFlg=           0 DoJE=F BraDBF=F KetDBF=F FulRan=T
         wScrn=  0.000000 ICntrl=         0 IOpCl=  0 I1Cent=           0 NGrid=           0
         NMat0=    1 NMatS0=      1 NMatT0=    0 NMatD0=    1 NMtDS0=    0 NMtDT0=    0
 Symmetry not used in FoFCou.
 FMM levels:  10  Number of levels for PrismC:   9
 E= -2112.01697193738    
 DIIS: error= 2.24D-02 at cycle   1 NSaved=   1.
 NSaved= 1 IEnMin= 1 EnMin= -2112.01697193738     IErMin= 1 ErrMin= 2.24D-02
 ErrMax= 2.24D-02  0.00D+00 EMaxC= 1.00D-01 BMatC= 1.01D+00 BMatP= 1.01D+00
 IDIUse=3 WtCom= 7.76D-01 WtEn= 2.24D-01
 Coeff-Com:  0.100D+01
 Coeff-En:   0.100D+01
 Coeff:      0.100D+01
 Gap=     0.171 Goal=   None    Shift=    0.000
 GapD=    0.171 DampG=1.000 DampE=0.500 DampFc=0.5000 IDamp=-1.
 Damping current iteration by 5.00D-01
 RMSDP=4.40D-03 MaxDP=6.14D-01              OVMax= 2.48D-01

 Cycle   2  Pass 0  IDiag  1:
 RMSU=  2.19D-03    CP:  9.84D-01
 E= -2112.26544484790     Delta-E=       -0.248472910521 Rises=F Damp=T
 DIIS: error= 1.18D-02 at cycle   2 NSaved=   2.
 NSaved= 2 IEnMin= 2 EnMin= -2112.26544484790     IErMin= 2 ErrMin= 1.18D-02
 ErrMax= 1.18D-02  0.00D+00 EMaxC= 1.00D-01 BMatC= 1.76D-01 BMatP= 1.01D+00
 IDIUse=3 WtCom= 8.82D-01 WtEn= 1.18D-01
 Coeff-Com:  0.216D+00 0.784D+00
 Coeff-En:   0.341D+00 0.659D+00
 Coeff:      0.231D+00 0.769D+00
 Gap=     0.224 Goal=   None    Shift=    0.000
 RMSDP=1.63D-03 MaxDP=1.76D-01 DE=-2.48D-01 OVMax= 2.68D-01

 Cycle   3  Pass 0  IDiag  1:
 RMSU=  1.44D-03    CP:  9.67D-01  6.65D-01
 E= -2112.78111381227     Delta-E=       -0.515668964371 Rises=F Damp=F
 DIIS: error= 1.29D-02 at cycle   3 NSaved=   3.
 NSaved= 3 IEnMin= 3 EnMin= -2112.78111381227     IErMin= 2 ErrMin= 1.18D-02
 ErrMax= 1.29D-02  0.00D+00 EMaxC= 1.00D-01 BMatC= 1.72D-01 BMatP= 1.76D-01
 IDIUse=3 WtCom= 8.71D-01 WtEn= 1.29D-01
 Coeff-Com:  0.534D-01 0.489D+00 0.458D+00
 Coeff-En:   0.000D+00 0.000D+00 0.100D+01
 Coeff:      0.465D-01 0.426D+00 0.528D+00
 Gap=     0.152 Goal=   None    Shift=    0.000
 RMSDP=1.11D-03 MaxDP=9.30D-02 DE=-5.16D-01 OVMax= 1.04D-01

 Cycle   4  Pass 0  IDiag  1:
 RMSU=  6.78D-04    CP:  9.73D-01  8.20D-01  4.36D-01
 E= -2112.89569461274     Delta-E=       -0.114580800469 Rises=F Damp=F
 DIIS: error= 8.96D-03 at cycle   4 NSaved=   4.
 NSaved= 4 IEnMin= 4 EnMin= -2112.89569461274     IErMin= 4 ErrMin= 8.96D-03
 ErrMax= 8.96D-03  0.00D+00 EMaxC= 1.00D-01 BMatC= 4.78D-02 BMatP= 1.72D-01
 IDIUse=3 WtCom= 9.10D-01 WtEn= 8.96D-02
 Coeff-Com:  0.104D-01 0.145D+00 0.351D+00 0.493D+00
 Coeff-En:   0.000D+00 0.000D+00 0.265D+00 0.735D+00
 Coeff:      0.943D-02 0.132D+00 0.344D+00 0.515D+00
 Gap=     0.156 Goal=   None    Shift=    0.000
 RMSDP=4.80D-04 MaxDP=3.65D-02 DE=-1.15D-01 OVMax= 6.38D-02

 Cycle   5  Pass 0  IDiag  1:
 RMSU=  2.27D-04    CP:  9.72D-01  7.68D-01  6.20D-01  5.44D-01
 E= -2112.93546955087     Delta-E=       -0.039774938130 Rises=F Damp=F
 DIIS: error= 2.38D-03 at cycle   5 NSaved=   5.
 NSaved= 5 IEnMin= 5 EnMin= -2112.93546955087     IErMin= 5 ErrMin= 2.38D-03
 ErrMax= 2.38D-03  0.00D+00 EMaxC= 1.00D-01 BMatC= 5.72D-03 BMatP= 4.78D-02
 IDIUse=3 WtCom= 9.76D-01 WtEn= 2.38D-02
 Coeff-Com: -0.283D-05 0.266D-01 0.164D+00 0.346D+00 0.464D+00
 Coeff-En:   0.000D+00 0.000D+00 0.000D+00 0.111D+00 0.889D+00
 Coeff:     -0.276D-05 0.260D-01 0.160D+00 0.341D+00 0.474D+00
 Gap=     0.150 Goal=   None    Shift=    0.000
 RMSDP=1.67D-04 MaxDP=7.24D-03 DE=-3.98D-02 OVMax= 2.87D-02

 Cycle   6  Pass 0  IDiag  1:
 RMSU=  7.95D-05    CP:  9.72D-01  7.73D-01  6.02D-01  6.31D-01  4.24D-01
 E= -2112.94074880831     Delta-E=       -0.005279257443 Rises=F Damp=F
 DIIS: error= 6.17D-04 at cycle   6 NSaved=   6.
 NSaved= 6 IEnMin= 6 EnMin= -2112.94074880831     IErMin= 6 ErrMin= 6.17D-04
 ErrMax= 6.17D-04  0.00D+00 EMaxC= 1.00D-01 BMatC= 5.44D-04 BMatP= 5.72D-03
 IDIUse=3 WtCom= 9.94D-01 WtEn= 6.17D-03
 Coeff-Com: -0.772D-03 0.917D-03 0.558D-01 0.142D+00 0.293D+00 0.509D+00
 Coeff-En:   0.000D+00 0.000D+00 0.000D+00 0.000D+00 0.769D-01 0.923D+00
 Coeff:     -0.767D-03 0.912D-03 0.554D-01 0.141D+00 0.291D+00 0.512D+00
 Gap=     0.149 Goal=   None    Shift=    0.000
 RMSDP=5.61D-05 MaxDP=3.34D-03 DE=-5.28D-03 OVMax= 9.38D-03

 Cycle   7  Pass 0  IDiag  1:
 RMSU=  2.91D-05    CP:  9.72D-01  7.73D-01  6.08D-01  6.23D-01  5.29D-01
                    CP:  4.94D-01
 E= -2112.94124970573     Delta-E=       -0.000500897413 Rises=F Damp=F
 DIIS: error= 2.29D-04 at cycle   7 NSaved=   7.
 NSaved= 7 IEnMin= 7 EnMin= -2112.94124970573     IErMin= 7 ErrMin= 2.29D-04
 ErrMax= 2.29D-04  0.00D+00 EMaxC= 1.00D-01 BMatC= 5.51D-05 BMatP= 5.44D-04
 IDIUse=3 WtCom= 9.98D-01 WtEn= 2.29D-03
 Coeff-Com: -0.335D-03-0.221D-02 0.159D-01 0.468D-01 0.123D+00 0.313D+00
 Coeff-Com:  0.504D+00
 Coeff-En:   0.000D+00 0.000D+00 0.000D+00 0.000D+00 0.000D+00 0.525D-01
 Coeff-En:   0.947D+00
 Coeff:     -0.334D-03-0.221D-02 0.159D-01 0.467D-01 0.123D+00 0.313D+00
 Coeff:      0.505D+00
 Gap=     0.149 Goal=   None    Shift=    0.000
 RMSDP=1.72D-05 MaxDP=1.16D-03 DE=-5.01D-04 OVMax= 2.35D-03

 Cycle   8  Pass 0  IDiag  1:
 RMSU=  9.21D-06    CP:  9.72D-01  7.72D-01  6.09D-01  6.26D-01  5.27D-01
                    CP:  5.75D-01  5.65D-01
 E= -2112.94130082643     Delta-E=       -0.000051120706 Rises=F Damp=F
 DIIS: error= 8.47D-05 at cycle   8 NSaved=   8.
 NSaved= 8 IEnMin= 8 EnMin= -2112.94130082643     IErMin= 8 ErrMin= 8.47D-05
 ErrMax= 8.47D-05  0.00D+00 EMaxC= 1.00D-01 BMatC= 6.24D-06 BMatP= 5.51D-05
 IDIUse=1 WtCom= 1.00D+00 WtEn= 0.00D+00
 Coeff-Com: -0.596D-04-0.151D-02 0.323D-02 0.119D-01 0.415D-01 0.138D+00
 Coeff-Com:  0.312D+00 0.494D+00
 Coeff:     -0.596D-04-0.151D-02 0.323D-02 0.119D-01 0.415D-01 0.138D+00
 Coeff:      0.312D+00 0.494D+00
 Gap=     0.150 Goal=   None    Shift=    0.000
 RMSDP=5.55D-06 MaxDP=3.19D-04 DE=-5.11D-05 OVMax= 5.85D-04

 Initial convergence to 1.0D-05 achieved.  Increase integral accuracy.
 Cycle   9  Pass 1  IDiag  1:
 E= -2112.94128611946     Delta-E=        0.000014706979 Rises=F Damp=F
 DIIS: error= 2.41D-04 at cycle   1 NSaved=   1.
 NSaved= 1 IEnMin= 1 EnMin= -2112.94128611946     IErMin= 1 ErrMin= 2.41D-04
 ErrMax= 2.41D-04  0.00D+00 EMaxC= 1.00D-01 BMatC= 1.52D-05 BMatP= 1.52D-05
 IDIUse=3 WtCom= 9.98D-01 WtEn= 2.41D-03
 Coeff-Com:  0.100D+01
 Coeff-En:   0.100D+01
 Coeff:      0.100D+01
 Gap=     0.150 Goal=   None    Shift=    0.000
 RMSDP=5.55D-06 MaxDP=3.19D-04 DE= 1.47D-05 OVMax= 5.36D-04

 Cycle  10  Pass 1  IDiag  1:
 RMSU=  1.19D-04    CP:  1.00D+00
 E= -2112.94129731154     Delta-E=       -0.000011192089 Rises=F Damp=F
 DIIS: error= 3.89D-05 at cycle   2 NSaved=   2.
 NSaved= 2 IEnMin= 2 EnMin= -2112.94129731154     IErMin= 2 ErrMin= 3.89D-05
 ErrMax= 3.89D-05  0.00D+00 EMaxC= 1.00D-01 BMatC= 2.01D-06 BMatP= 1.52D-05
 IDIUse=1 WtCom= 1.00D+00 WtEn= 0.00D+00
 Coeff-Com:  0.149D+00 0.851D+00
 Coeff:      0.149D+00 0.851D+00
 Gap=     0.150 Goal=   None    Shift=    0.000
 RMSDP=7.06D-06 MaxDP=5.22D-04 DE=-1.12D-05 OVMax= 9.22D-04

 Cycle  11  Pass 1  IDiag  1:
 RMSU=  6.99D-06    CP:  1.00D+00  1.01D+00
 E= -2112.94129318774     Delta-E=        0.000004123800 Rises=F Damp=F
 DIIS: error= 6.89D-05 at cycle   3 NSaved=   3.
 NSaved= 3 IEnMin= 2 EnMin= -2112.94129731154     IErMin= 2 ErrMin= 3.89D-05
 ErrMax= 6.89D-05  0.00D+00 EMaxC= 1.00D-01 BMatC= 6.15D-06 BMatP= 2.01D-06
 IDIUse=1 WtCom= 1.00D+00 WtEn= 0.00D+00
 Coeff-Com: -0.216D-02 0.638D+00 0.364D+00
 Coeff:     -0.216D-02 0.638D+00 0.364D+00
 Gap=     0.150 Goal=   None    Shift=    0.000
 RMSDP=4.64D-06 MaxDP=3.38D-04 DE= 4.12D-06 OVMax= 6.19D-04

 Cycle  12  Pass 1  IDiag  1:
 RMSU=  7.93D-07    CP:  1.00D+00  1.01D+00  3.48D-01
 E= -2112.94129923438     Delta-E=       -0.000006046635 Rises=F Damp=F
 DIIS: error= 4.16D-06 at cycle   4 NSaved=   4.
 NSaved= 4 IEnMin= 4 EnMin= -2112.94129923438     IErMin= 4 ErrMin= 4.16D-06
 ErrMax= 4.16D-06  0.00D+00 EMaxC= 1.00D-01 BMatC= 5.60D-08 BMatP= 2.01D-06
 IDIUse=1 WtCom= 1.00D+00 WtEn= 0.00D+00
 Coeff-Com: -0.337D-02 0.388D+00 0.228D+00 0.388D+00
 Coeff:     -0.337D-02 0.388D+00 0.228D+00 0.388D+00
 Gap=     0.150 Goal=   None    Shift=    0.000
 RMSDP=4.63D-07 MaxDP=3.52D-05 DE=-6.05D-06 OVMax= 4.40D-05

 Cycle  13  Pass 1  IDiag  1:
 RMSU=  1.99D-07    CP:  1.00D+00  1.01D+00  3.65D-01  4.95D-01
 E= -2112.94129928456     Delta-E=       -0.000000050181 Rises=F Damp=F
 DIIS: error= 9.50D-07 at cycle   5 NSaved=   5.
 NSaved= 5 IEnMin= 5 EnMin= -2112.94129928456     IErMin= 5 ErrMin= 9.50D-07
 ErrMax= 9.50D-07  0.00D+00 EMaxC= 1.00D-01 BMatC= 1.39D-09 BMatP= 5.60D-08
 IDIUse=1 WtCom= 1.00D+00 WtEn= 0.00D+00
 Coeff-Com: -0.184D-02 0.196D+00 0.116D+00 0.222D+00 0.468D+00
 Coeff:     -0.184D-02 0.196D+00 0.116D+00 0.222D+00 0.468D+00
 Gap=     0.150 Goal=   None    Shift=    0.000
 RMSDP=7.87D-08 MaxDP=6.11D-06 DE=-5.02D-08 OVMax= 5.80D-06

 Cycle  14  Pass 1  IDiag  1:
 RMSU=  6.71D-08    CP:  1.00D+00  1.01D+00  3.65D-01  5.00D-01  7.99D-01
 E= -2112.94129928566     Delta-E=       -0.000000001097 Rises=F Damp=F
 DIIS: error= 2.61D-07 at cycle   6 NSaved=   6.
 NSaved= 6 IEnMin= 6 EnMin= -2112.94129928566     IErMin= 6 ErrMin= 2.61D-07
 ErrMax= 2.61D-07  0.00D+00 EMaxC= 1.00D-01 BMatC= 1.20D-10 BMatP= 1.39D-09
 IDIUse=1 WtCom= 1.00D+00 WtEn= 0.00D+00
 Coeff-Com: -0.780D-03 0.802D-01 0.472D-01 0.952D-01 0.271D+00 0.507D+00
 Coeff:     -0.780D-03 0.802D-01 0.472D-01 0.952D-01 0.271D+00 0.507D+00
 Gap=     0.150 Goal=   None    Shift=    0.000
 RMSDP=2.48D-08 MaxDP=1.85D-06 DE=-1.10D-09 OVMax= 3.25D-06

 Cycle  15  Pass 1  IDiag  1:
 RMSU=  1.88D-08    CP:  1.00D+00  1.01D+00  3.65D-01  5.02D-01  8.29D-01
                    CP:  7.80D-01
 E= -2112.94129928578     Delta-E=       -0.000000000119 Rises=F Damp=F
 DIIS: error= 9.86D-08 at cycle   7 NSaved=   7.
 NSaved= 7 IEnMin= 7 EnMin= -2112.94129928578     IErMin= 7 ErrMin= 9.86D-08
 ErrMax= 9.86D-08  0.00D+00 EMaxC= 1.00D-01 BMatC= 2.13D-11 BMatP= 1.20D-10
 IDIUse=1 WtCom= 1.00D+00 WtEn= 0.00D+00
 Coeff-Com: -0.208D-03 0.205D-01 0.120D-01 0.266D-01 0.996D-01 0.327D+00
 Coeff-Com:  0.515D+00
 Coeff:     -0.208D-03 0.205D-01 0.120D-01 0.266D-01 0.996D-01 0.327D+00
 Coeff:      0.515D+00
 Gap=     0.150 Goal=   None    Shift=    0.000
 RMSDP=1.11D-08 MaxDP=6.38D-07 DE=-1.19D-10 OVMax= 1.83D-06

 Cycle  16  Pass 1  IDiag  1:
 RMSU=  7.00D-09    CP:  1.00D+00  1.01D+00  3.65D-01  5.02D-01  8.33D-01
                    CP:  8.35D-01  5.94D-01
 E= -2112.94129928575     Delta-E=        0.000000000027 Rises=F Damp=F
 DIIS: error= 5.54D-08 at cycle   8 NSaved=   8.
 NSaved= 8 IEnMin= 7 EnMin= -2112.94129928578     IErMin= 8 ErrMin= 5.54D-08
 ErrMax= 5.54D-08  0.00D+00 EMaxC= 1.00D-01 BMatC= 3.89D-12 BMatP= 2.13D-11
 IDIUse=1 WtCom= 1.00D+00 WtEn= 0.00D+00
 Coeff-Com: -0.221D-04 0.163D-02 0.942D-03 0.337D-02 0.249D-01 0.144D+00
 Coeff-Com:  0.350D+00 0.475D+00
 Coeff:     -0.221D-04 0.163D-02 0.942D-03 0.337D-02 0.249D-01 0.144D+00
 Coeff:      0.350D+00 0.475D+00
 Gap=     0.150 Goal=   None    Shift=    0.000
 RMSDP=4.28D-09 MaxDP=1.85D-07 DE= 2.73D-11 OVMax= 6.60D-07

 SCF Done:  E(RB3LYP) =  -2112.94129929     A.U. after   16 cycles
            NFock= 16  Conv=0.43D-08     -V/T= 2.0075
 KE= 2.097203126571D+03 PE=-1.426550041858D+04 EE= 5.392667961609D+03
 Leave Link  502 at Fri Nov  4 21:51:35 2022, MaxMem=   805306368 cpu:            1167.7 elap:             166.9
 (Enter /home/wykgroup/appl/g16/l508.exe)
 QCSCF skips out because SCF is already converged.
 Leave Link  508 at Fri Nov  4 21:51:35 2022, MaxMem=   805306368 cpu:               0.0 elap:               0.0
 (Enter /home/wykgroup/appl/g16/l601.exe)
 Copying SCF densities to generalized density rwf, IOpCl= 0 IROHF=0.

 **********************************************************************

            Population analysis using the SCF Density.

 **********************************************************************

 Orbital symmetries:
       Occupied  (A) (A) (A) (A) (A) (A) (A) (A) (A) (A) (A) (A)
                 (A) (A) (A) (A) (A) (A) (A) (A) (A) (A) (A) (A)
                 (A) (A) (A) (A) (A) (A) (A) (A) (A) (A) (A) (A)
                 (A) (A) (A) (A) (A) (A) (A) (A) (A) (A) (A) (A)
                 (A) (A) (A) (A) (A) (A) (A) (A) (A) (A) (A) (A)
                 (A) (A) (A) (A) (A) (A) (A) (A) (A) (A) (A) (A)
                 (A) (A) (A) (A) (A) (A) (A) (A) (A) (A) (A) (A)
                 (A) (A) (A) (A) (A) (A) (A) (A) (A) (A) (A) (A)
                 (A) (A) (A) (A) (A) (A) (A) (A) (A) (A) (A) (A)
                 (A) (A) (A) (A) (A) (A) (A) (A) (A) (A) (A) (A)
                 (A) (A) (A) (A) (A) (A) (A) (A) (A) (A) (A) (A)
                 (A) (A) (A) (A) (A) (A) (A) (A)
       Virtual   (A) (A) (A) (A) (A) (A) (A) (A) (A) (A) (A) (A)
                 (A) (A) (A) (A) (A) (A) (A) (A) (A) (A) (A) (A)
                 (A) (A) (A) (A) (A) (A) (A) (A) (A) (A) (A) (A)
                 (A) (A) (A) (A) (A) (A) (A) (A) (A) (A) (A) (A)
                 (A) (A) (A) (A) (A) (A) (A) (A) (A) (A) (A) (A)
                 (A) (A) (A) (A) (A) (A) (A) (A) (A) (A) (A) (A)
                 (A) (A) (A) (A) (A) (A) (A) (A) (A) (A) (A) (A)
                 (A) (A) (A) (A) (A) (A) (A) (A) (A) (A) (A) (A)
                 (A) (A) (A) (A) (A) (A) (A) (A) (A) (A) (A) (A)
                 (A) (A) (A) (A) (A) (A) (A) (A) (A) (A) (A) (A)
                 (A) (A) (A) (A) (A) (A) (A) (A) (A) (A) (A) (A)
                 (A) (A) (A) (A) (A) (A) (A) (A) (A) (A) (A) (A)
                 (A) (A) (A) (A) (A) (A) (A) (A) (A) (A) (A) (A)
                 (A) (A) (A) (A) (A) (A) (A) (A) (A) (A) (A) (A)
                 (A) (A) (A) (A) (A) (A) (A) (A) (A) (A) (A) (A)
                 (A) (A) (A) (A) (A) (A) (A) (A) (A) (A) (A) (A)
                 (A) (A) (A) (A) (A) (A) (A) (A) (A) (A) (A) (A)
                 (A) (A) (A) (A) (A) (A) (A) (A) (A) (A) (A) (A)
                 (A) (A) (A) (A) (A) (A) (A) (A) (A) (A) (A) (A)
                 (A) (A) (A) (A) (A) (A) (A) (A) (A) (A) (A) (A)
                 (A) (A) (A) (A) (A) (A) (A) (A) (A) (A) (A) (A)
                 (A) (A) (A) (A) (A) (A) (A) (A) (A) (A) (A) (A)
                 (A) (A) (A) (A) (A) (A) (A) (A) (A) (A) (A) (A)
                 (A) (A) (A) (A) (A) (A) (A) (A) (A) (A) (A) (A)
                 (A) (A) (A) (A) (A) (A) (A) (A) (A) (A) (A) (A)
                 (A) (A) (A) (A) (A) (A) (A) (A) (A) (A) (A) (A)
                 (A) (A) (A) (A) (A) (A) (A) (A) (A) (A) (A) (A)
                 (A) (A) (A) (A) (A) (A) (A) (A) (A) (A) (A) (A)
                 (A) (A) (A) (A) (A) (A) (A) (A) (A) (A) (A) (A)
                 (A) (A) (A) (A) (A) (A) (A) (A) (A) (A) (A) (A)
                 (A) (A) (A) (A) (A) (A) (A) (A) (A) (A) (A) (A)
                 (A) (A) (A) (A) (A) (A) (A) (A) (A) (A) (A) (A)
                 (A) (A) (A) (A) (A) (A) (A) (A) (A) (A) (A) (A)
                 (A) (A) (A) (A) (A) (A) (A) (A) (A) (A) (A) (A)
                 (A) (A) (A) (A) (A) (A) (A) (A) (A) (A) (A) (A)
                 (A) (A) (A) (A) (A) (A) (A) (A) (A) (A) (A) (A)
                 (A) (A) (A) (A) (A) (A) (A) (A) (A) (A) (A) (A)
                 (A) (A) (A) (A) (A) (A) (A) (A) (A) (A) (A) (A)
                 (A) (A) (A) (A) (A) (A) (A) (A) (A) (A) (A) (A)
                 (A) (A) (A) (A) (A) (A) (A) (A) (A) (A) (A) (A)
                 (A) (A) (A) (A) (A) (A)
 The electronic state is 1-A.
 Alpha  occ. eigenvalues --  -89.11123 -19.17086 -19.16184 -19.16000 -19.15376
 Alpha  occ. eigenvalues --  -19.13921 -19.13516 -14.38660 -14.38474 -14.32217
 Alpha  occ. eigenvalues --  -14.30471 -10.28947 -10.25588 -10.24381 -10.24147
 Alpha  occ. eigenvalues --  -10.24071 -10.24035 -10.23600 -10.23503 -10.22946
 Alpha  occ. eigenvalues --  -10.21365 -10.21255 -10.20959 -10.20631 -10.20515
 Alpha  occ. eigenvalues --  -10.20170 -10.19808 -10.19798 -10.19727 -10.19502
 Alpha  occ. eigenvalues --  -10.19462 -10.19246 -10.19185 -10.18963 -10.18873
 Alpha  occ. eigenvalues --  -10.18213 -10.17496 -10.17356  -8.13718  -6.10274
 Alpha  occ. eigenvalues --   -6.10114  -6.09972  -1.12773  -1.10382  -1.06915
 Alpha  occ. eigenvalues --   -1.04806  -1.01223  -1.00572  -1.00360  -0.99766
 Alpha  occ. eigenvalues --   -0.92913  -0.91834  -0.87555  -0.83111  -0.81323
 Alpha  occ. eigenvalues --   -0.79810  -0.79433  -0.78140  -0.76118  -0.75804
 Alpha  occ. eigenvalues --   -0.75347  -0.74194  -0.71387  -0.70213  -0.69300
 Alpha  occ. eigenvalues --   -0.68295  -0.66648  -0.65558  -0.63848  -0.62358
 Alpha  occ. eigenvalues --   -0.62255  -0.61502  -0.60438  -0.59607  -0.58962
 Alpha  occ. eigenvalues --   -0.57082  -0.56110  -0.54985  -0.53624  -0.52777
 Alpha  occ. eigenvalues --   -0.51728  -0.50951  -0.50776  -0.49752  -0.48988
 Alpha  occ. eigenvalues --   -0.48139  -0.47826  -0.47660  -0.47410  -0.46744
 Alpha  occ. eigenvalues --   -0.46682  -0.46477  -0.45936  -0.45660  -0.45198
 Alpha  occ. eigenvalues --   -0.44774  -0.44047  -0.43868  -0.43613  -0.43244
 Alpha  occ. eigenvalues --   -0.43112  -0.42961  -0.42130  -0.41557  -0.41348
 Alpha  occ. eigenvalues --   -0.41171  -0.40988  -0.40130  -0.39807  -0.39646
 Alpha  occ. eigenvalues --   -0.39112  -0.38513  -0.37126  -0.36899  -0.36725
 Alpha  occ. eigenvalues --   -0.36132  -0.35585  -0.35083  -0.34687  -0.34369
 Alpha  occ. eigenvalues --   -0.34184  -0.33585  -0.32711  -0.32112  -0.31218
 Alpha  occ. eigenvalues --   -0.30758  -0.30494  -0.29762  -0.28187  -0.27741
 Alpha  occ. eigenvalues --   -0.27269  -0.27018  -0.26371  -0.25536  -0.25027
 Alpha  occ. eigenvalues --   -0.24061  -0.23663  -0.22921  -0.18795  -0.18125
 Alpha virt. eigenvalues --   -0.03168  -0.02681  -0.00628  -0.00368   0.00844
 Alpha virt. eigenvalues --    0.04074   0.04621   0.06658   0.08272   0.09102
 Alpha virt. eigenvalues --    0.09206   0.10114   0.10583   0.10869   0.11385
 Alpha virt. eigenvalues --    0.11417   0.11953   0.12043   0.12283   0.12543
 Alpha virt. eigenvalues --    0.13048   0.13250   0.13887   0.14311   0.14500
 Alpha virt. eigenvalues --    0.15230   0.15359   0.15407   0.15583   0.15984
 Alpha virt. eigenvalues --    0.16226   0.16412   0.16588   0.17365   0.17410
 Alpha virt. eigenvalues --    0.17781   0.18300   0.18448   0.18857   0.19271
 Alpha virt. eigenvalues --    0.19438   0.19900   0.20553   0.20646   0.21944
 Alpha virt. eigenvalues --    0.22768   0.23115   0.23854   0.24381   0.24733
 Alpha virt. eigenvalues --    0.25258   0.26122   0.26851   0.27215   0.28289
 Alpha virt. eigenvalues --    0.28731   0.29546   0.30012   0.30544   0.31272
 Alpha virt. eigenvalues --    0.31741   0.32113   0.33127   0.34030   0.34812
 Alpha virt. eigenvalues --    0.35222   0.36480   0.37316   0.38422   0.39279
 Alpha virt. eigenvalues --    0.40631   0.40882   0.41651   0.42128   0.43331
 Alpha virt. eigenvalues --    0.44191   0.46228   0.46554   0.47319   0.48282
 Alpha virt. eigenvalues --    0.48854   0.49377   0.49505   0.49612   0.50314
 Alpha virt. eigenvalues --    0.50731   0.51050   0.51699   0.52404   0.52722
 Alpha virt. eigenvalues --    0.53013   0.53087   0.53495   0.53884   0.54187
 Alpha virt. eigenvalues --    0.54688   0.55066   0.55319   0.55917   0.56115
 Alpha virt. eigenvalues --    0.56626   0.56925   0.57617   0.58094   0.58300
 Alpha virt. eigenvalues --    0.58422   0.58701   0.59228   0.59489   0.59772
 Alpha virt. eigenvalues --    0.60304   0.60465   0.60821   0.61187   0.62307
 Alpha virt. eigenvalues --    0.62510   0.63021   0.63780   0.64065   0.64869
 Alpha virt. eigenvalues --    0.65308   0.65410   0.66453   0.66983   0.67685
 Alpha virt. eigenvalues --    0.68012   0.68384   0.68650   0.69667   0.70708
 Alpha virt. eigenvalues --    0.70841   0.71413   0.72409   0.72944   0.73020
 Alpha virt. eigenvalues --    0.73349   0.73846   0.74678   0.75190   0.75416
 Alpha virt. eigenvalues --    0.76274   0.77023   0.77401   0.78723   0.79588
 Alpha virt. eigenvalues --    0.80086   0.80338   0.80881   0.81000   0.81498
 Alpha virt. eigenvalues --    0.82249   0.82580   0.82800   0.83307   0.83400
 Alpha virt. eigenvalues --    0.84232   0.84379   0.85176   0.85207   0.85591
 Alpha virt. eigenvalues --    0.85814   0.86307   0.86539   0.86614   0.86884
 Alpha virt. eigenvalues --    0.87124   0.87917   0.88150   0.88895   0.89211
 Alpha virt. eigenvalues --    0.89481   0.89826   0.90360   0.90731   0.91216
 Alpha virt. eigenvalues --    0.91641   0.91932   0.92122   0.92341   0.93258
 Alpha virt. eigenvalues --    0.94002   0.94239   0.94892   0.95623   0.95928
 Alpha virt. eigenvalues --    0.96125   0.96806   0.97589   0.98312   0.98693
 Alpha virt. eigenvalues --    0.99731   1.00359   1.00485   1.02069   1.03030
 Alpha virt. eigenvalues --    1.03194   1.04025   1.04967   1.05388   1.06284
 Alpha virt. eigenvalues --    1.06800   1.07584   1.08190   1.08509   1.09283
 Alpha virt. eigenvalues --    1.10112   1.10387   1.10991   1.12179   1.12627
 Alpha virt. eigenvalues --    1.13087   1.13366   1.14092   1.14542   1.15765
 Alpha virt. eigenvalues --    1.16777   1.17002   1.18397   1.18655   1.20055
 Alpha virt. eigenvalues --    1.20906   1.21777   1.22279   1.22358   1.24614
 Alpha virt. eigenvalues --    1.25217   1.26023   1.26872   1.27741   1.28390
 Alpha virt. eigenvalues --    1.29322   1.30397   1.31050   1.32170   1.32578
 Alpha virt. eigenvalues --    1.33502   1.34263   1.34542   1.34842   1.35727
 Alpha virt. eigenvalues --    1.36740   1.37085   1.38149   1.38502   1.38950
 Alpha virt. eigenvalues --    1.39059   1.40693   1.41293   1.41678   1.42701
 Alpha virt. eigenvalues --    1.43505   1.44849   1.45087   1.45776   1.46405
 Alpha virt. eigenvalues --    1.46901   1.47590   1.48337   1.48623   1.48922
 Alpha virt. eigenvalues --    1.49357   1.50059   1.50560   1.51578   1.52395
 Alpha virt. eigenvalues --    1.53451   1.53821   1.54788   1.55110   1.57238
 Alpha virt. eigenvalues --    1.59161   1.60724   1.62097   1.62451   1.63284
 Alpha virt. eigenvalues --    1.65071   1.66661   1.67671   1.69393   1.70100
 Alpha virt. eigenvalues --    1.70867   1.72243   1.72766   1.75506   1.75804
 Alpha virt. eigenvalues --    1.76414   1.77468   1.78052   1.79430   1.80053
 Alpha virt. eigenvalues --    1.80283   1.80777   1.81646   1.82134   1.83421
 Alpha virt. eigenvalues --    1.83730   1.84211   1.84602   1.84675   1.85386
 Alpha virt. eigenvalues --    1.85882   1.86335   1.86851   1.87295   1.88272
 Alpha virt. eigenvalues --    1.88952   1.89390   1.89845   1.90057   1.90347
 Alpha virt. eigenvalues --    1.91002   1.92160   1.93048   1.93703   1.94657
 Alpha virt. eigenvalues --    1.95680   1.95969   1.96789   1.98041   1.98275
 Alpha virt. eigenvalues --    1.98617   1.99124   1.99638   2.00727   2.00936
 Alpha virt. eigenvalues --    2.02803   2.03207   2.04166   2.04509   2.05792
 Alpha virt. eigenvalues --    2.06972   2.08416   2.08687   2.09207   2.09431
 Alpha virt. eigenvalues --    2.10602   2.10661   2.11597   2.12674   2.12846
 Alpha virt. eigenvalues --    2.13145   2.13916   2.14543   2.15425   2.16056
 Alpha virt. eigenvalues --    2.16457   2.17133   2.17782   2.18100   2.18613
 Alpha virt. eigenvalues --    2.19662   2.20295   2.20554   2.21463   2.22163
 Alpha virt. eigenvalues --    2.22634   2.23160   2.23936   2.24741   2.25323
 Alpha virt. eigenvalues --    2.25865   2.27080   2.27617   2.27964   2.29103
 Alpha virt. eigenvalues --    2.29486   2.29804   2.30410   2.31280   2.31487
 Alpha virt. eigenvalues --    2.31877   2.32652   2.33374   2.34672   2.35384
 Alpha virt. eigenvalues --    2.35505   2.36189   2.37347   2.38735   2.39421
 Alpha virt. eigenvalues --    2.41149   2.41664   2.42347   2.44442   2.45549
 Alpha virt. eigenvalues --    2.46269   2.47885   2.47951   2.49715   2.50795
 Alpha virt. eigenvalues --    2.51316   2.52360   2.53717   2.54814   2.56909
 Alpha virt. eigenvalues --    2.59018   2.59365   2.60004   2.60387   2.62268
 Alpha virt. eigenvalues --    2.62772   2.64589   2.65354   2.66911   2.67091
 Alpha virt. eigenvalues --    2.67414   2.69250   2.70421   2.71196   2.72565
 Alpha virt. eigenvalues --    2.73944   2.74130   2.74321   2.75095   2.76343
 Alpha virt. eigenvalues --    2.77776   2.78485   2.78533   2.79640   2.80321
 Alpha virt. eigenvalues --    2.81787   2.82790   2.85105   2.86322   2.87102
 Alpha virt. eigenvalues --    2.88345   2.89770   2.90584   2.91584   2.92999
 Alpha virt. eigenvalues --    2.94217   2.96148   2.96509   2.97888   3.01709
 Alpha virt. eigenvalues --    3.03329   3.04084   3.07948   3.08680   3.11172
 Alpha virt. eigenvalues --    3.14014   3.25723   3.27869   3.30572   3.41256
 Alpha virt. eigenvalues --    3.42032   3.48213   3.54595   3.91000   4.01227
 Alpha virt. eigenvalues --    4.03147   4.06465   4.09666   4.09949   4.10328
 Alpha virt. eigenvalues --    4.11683   4.12486   4.14169   4.16079   4.17166
 Alpha virt. eigenvalues --    4.19051   4.19890   4.20982   4.22699   4.23625
 Alpha virt. eigenvalues --    4.26668   4.29784   4.31464   4.32963   4.34959
 Alpha virt. eigenvalues --    4.36143   4.39595   4.41440   4.42342   4.45266
 Alpha virt. eigenvalues --    4.46813   4.47653   4.51791   4.54286   4.58720
 Alpha virt. eigenvalues --    4.63274   4.67112   4.71781   4.77962   4.82811
 Alpha virt. eigenvalues --    4.99000
          Condensed to atoms (all electrons):
 Mulliken charges:
               1
     1  C   -0.210982
     2  O   -0.494246
[...]
                 (A) (A) (A) (A) (A) (A) (A) (A) (A) (A) (A) (A)
                 (A) (A) (A) (A) (A) (A) (A) (A) (A) (A) (A) (A)
                 (A) (A) (A) (A) (A) (A) (A) (A) (A) (A) (A) (A)
                 (A) (A) (A) (A) (A) (A) (A) (A) (A) (A) (A) (A)
                 (A) (A) (A) (A) (A) (A) (A) (A) (A) (A) (A) (A)
                 (A) (A) (A) (A) (A) (A) (A) (A) (A) (A) (A) (A)
                 (A) (A) (A) (A) (A) (A) (A) (A) (A) (A) (A) (A)
                 (A) (A) (A) (A) (A) (A) (A) (A) (A) (A) (A) (A)
                 (A) (A) (A) (A) (A) (A) (A) (A) (A) (A) (A) (A)
                 (A) (A) (A) (A) (A) (A) (A) (A) (A) (A) (A) (A)
                 (A) (A) (A) (A) (A) (A) (A) (A) (A) (A) (A) (A)
                 (A) (A) (A) (A) (A) (A) (A) (A) (A) (A) (A) (A)
                 (A) (A) (A) (A) (A) (A) (A) (A) (A) (A) (A) (A)
                 (A) (A) (A) (A) (A) (A) (A) (A) (A) (A) (A) (A)
                 (A) (A) (A) (A) (A) (A) (A) (A) (A) (A) (A) (A)
                 (A) (A) (A) (A) (A) (A) (A) (A) (A) (A) (A) (A)
                 (A) (A) (A) (A) (A) (A) (A) (A) (A) (A) (A) (A)
                 (A) (A) (A) (A) (A) (A) (A) (A) (A) (A) (A) (A)
                 (A) (A) (A) (A) (A) (A) (A) (A) (A) (A) (A) (A)
                 (A) (A) (A) (A) (A) (A) (A) (A) (A) (A) (A) (A)
                 (A) (A) (A) (A) (A) (A) (A) (A) (A) (A) (A) (A)
                 (A) (A) (A) (A) (A) (A) (A) (A) (A) (A) (A) (A)
                 (A) (A) (A) (A) (A) (A) (A) (A) (A) (A) (A) (A)
                 (A) (A) (A) (A) (A) (A) (A) (A) (A) (A) (A) (A)
                 (A) (A) (A) (A) (A) (A) (A) (A) (A) (A) (A) (A)
                 (A) (A) (A) (A) (A) (A) (A) (A) (A) (A) (A) (A)
                 (A) (A) (A) (A) (A) (A) (A) (A) (A) (A) (A) (A)
                 (A) (A) (A) (A) (A) (A) (A) (A) (A) (A) (A) (A)
                 (A) (A) (A) (A) (A) (A) (A) (A) (A) (A) (A) (A)
                 (A) (A) (A) (A) (A) (A) (A) (A) (A) (A) (A) (A)
                 (A) (A) (A) (A) (A) (A)
 The electronic state is 1-A.
 Alpha  occ. eigenvalues --  -89.11226 -19.17285 -19.16444 -19.15849 -19.15612
 Alpha  occ. eigenvalues --  -19.13967 -19.13826 -14.38653 -14.38384 -14.32578
 Alpha  occ. eigenvalues --  -14.30763 -10.29102 -10.25785 -10.24664 -10.24479
 Alpha  occ. eigenvalues --  -10.24353 -10.24292 -10.23781 -10.23713 -10.23254
 Alpha  occ. eigenvalues --  -10.22036 -10.21548 -10.21322 -10.21220 -10.20896
 Alpha  occ. eigenvalues --  -10.20683 -10.20602 -10.20299 -10.20126 -10.19870
 Alpha  occ. eigenvalues --  -10.19858 -10.19686 -10.19504 -10.19312 -10.19132
 Alpha  occ. eigenvalues --  -10.18399 -10.18057 -10.17579  -8.13662  -6.10229
 Alpha  occ. eigenvalues --   -6.10051  -6.09942  -1.10716  -1.09354  -1.06623
 Alpha  occ. eigenvalues --   -1.04362  -0.99911  -0.99845  -0.98838  -0.98392
 Alpha  occ. eigenvalues --   -0.91988  -0.91300  -0.87051  -0.82562  -0.80788
 Alpha  occ. eigenvalues --   -0.79377  -0.79068  -0.77784  -0.75719  -0.75604
 Alpha  occ. eigenvalues --   -0.75011  -0.73660  -0.71156  -0.69936  -0.69174
 Alpha  occ. eigenvalues --   -0.68083  -0.66264  -0.65272  -0.63865  -0.61924
 Alpha  occ. eigenvalues --   -0.61906  -0.60814  -0.60443  -0.59322  -0.58644
 Alpha  occ. eigenvalues --   -0.56891  -0.55770  -0.54466  -0.53218  -0.52305
 Alpha  occ. eigenvalues --   -0.51495  -0.50722  -0.50484  -0.50067  -0.48447
 Alpha  occ. eigenvalues --   -0.47725  -0.47516  -0.47210  -0.47114  -0.46572
 Alpha  occ. eigenvalues --   -0.46471  -0.46095  -0.45559  -0.44969  -0.44549
 Alpha  occ. eigenvalues --   -0.44155  -0.43957  -0.43385  -0.43088  -0.43057
 Alpha  occ. eigenvalues --   -0.43025  -0.42801  -0.41914  -0.41825  -0.41125
 Alpha  occ. eigenvalues --   -0.40954  -0.40545  -0.39921  -0.39653  -0.39502
 Alpha  occ. eigenvalues --   -0.38995  -0.38489  -0.37017  -0.36958  -0.36628
 Alpha  occ. eigenvalues --   -0.36005  -0.35141  -0.35018  -0.34712  -0.34026
 Alpha  occ. eigenvalues --   -0.33745  -0.33547  -0.32488  -0.31719  -0.31192
 Alpha  occ. eigenvalues --   -0.30362  -0.30067  -0.29426  -0.28457  -0.27875
 Alpha  occ. eigenvalues --   -0.26901  -0.26800  -0.26063  -0.25641  -0.24989
 Alpha  occ. eigenvalues --   -0.24743  -0.23490  -0.22556  -0.19075  -0.18359
 Alpha virt. eigenvalues --   -0.03513  -0.02952  -0.00895  -0.00638   0.01026
 Alpha virt. eigenvalues --    0.03911   0.04712   0.05170   0.08204   0.08830
 Alpha virt. eigenvalues --    0.09024   0.09525   0.09941   0.10433   0.10839
 Alpha virt. eigenvalues --    0.11224   0.11527   0.11768   0.12005   0.12148
 Alpha virt. eigenvalues --    0.12830   0.13104   0.13533   0.13833   0.14318
 Alpha virt. eigenvalues --    0.14762   0.14989   0.15225   0.15312   0.15414
 Alpha virt. eigenvalues --    0.15672   0.15980   0.16728   0.16767   0.16874
 Alpha virt. eigenvalues --    0.17131   0.17729   0.17762   0.18177   0.18777
 Alpha virt. eigenvalues --    0.19033   0.19504   0.20118   0.20468   0.20683
 Alpha virt. eigenvalues --    0.21176   0.21660   0.22427   0.23154   0.23917
 Alpha virt. eigenvalues --    0.24294   0.24938   0.25393   0.26537   0.27286
 Alpha virt. eigenvalues --    0.28107   0.28672   0.29161   0.30265   0.30544
 Alpha virt. eigenvalues --    0.31186   0.31622   0.32565   0.32727   0.33790
 Alpha virt. eigenvalues --    0.34568   0.35770   0.36674   0.38238   0.38854
 Alpha virt. eigenvalues --    0.39322   0.39970   0.41221   0.41298   0.42453
 Alpha virt. eigenvalues --    0.43848   0.45325   0.45574   0.46887   0.48095
 Alpha virt. eigenvalues --    0.48724   0.49364   0.49887   0.50234   0.50274
 Alpha virt. eigenvalues --    0.50725   0.51053   0.51886   0.52286   0.52645
 Alpha virt. eigenvalues --    0.52925   0.53329   0.53570   0.53893   0.54506
 Alpha virt. eigenvalues --    0.54755   0.55135   0.55514   0.55654   0.55958
 Alpha virt. eigenvalues --    0.56348   0.56963   0.57389   0.57825   0.57966
 Alpha virt. eigenvalues --    0.58169   0.58272   0.58474   0.58975   0.59271
 Alpha virt. eigenvalues --    0.59650   0.60114   0.60183   0.60526   0.61474
 Alpha virt. eigenvalues --    0.62042   0.62344   0.62952   0.63273   0.63725
 Alpha virt. eigenvalues --    0.64208   0.64676   0.65700   0.66067   0.66324
 Alpha virt. eigenvalues --    0.67147   0.67799   0.68044   0.68380   0.69358
 Alpha virt. eigenvalues --    0.70459   0.70885   0.71538   0.72077   0.72584
 Alpha virt. eigenvalues --    0.72701   0.73187   0.73230   0.74252   0.74476
 Alpha virt. eigenvalues --    0.74740   0.75562   0.75816   0.76716   0.77048
 Alpha virt. eigenvalues --    0.77601   0.79385   0.80220   0.80676   0.81083
 Alpha virt. eigenvalues --    0.81382   0.81997   0.82161   0.82817   0.83069
 Alpha virt. eigenvalues --    0.83844   0.84133   0.84457   0.84768   0.84991
 Alpha virt. eigenvalues --    0.85221   0.85474   0.85693   0.86081   0.86175
 Alpha virt. eigenvalues --    0.86762   0.87168   0.87495   0.87856   0.88398
 Alpha virt. eigenvalues --    0.88980   0.89072   0.89563   0.89853   0.90508
 Alpha virt. eigenvalues --    0.91095   0.91322   0.91935   0.92222   0.92943
 Alpha virt. eigenvalues --    0.93018   0.94048   0.94387   0.94857   0.95011
 Alpha virt. eigenvalues --    0.95702   0.96078   0.96680   0.97895   0.98385
 Alpha virt. eigenvalues --    0.98611   0.99240   0.99497   1.00768   1.02076
 Alpha virt. eigenvalues --    1.02300   1.02458   1.03589   1.04388   1.05008
 Alpha virt. eigenvalues --    1.05529   1.06476   1.06817   1.07702   1.08178
 Alpha virt. eigenvalues --    1.08587   1.08965   1.09948   1.10722   1.11345
 Alpha virt. eigenvalues --    1.12011   1.12666   1.13549   1.13967   1.14311
 Alpha virt. eigenvalues --    1.14987   1.15540   1.16525   1.17104   1.17873
 Alpha virt. eigenvalues --    1.20034   1.20714   1.21321   1.21869   1.22606
 Alpha virt. eigenvalues --    1.23460   1.24828   1.25308   1.26387   1.26513
 Alpha virt. eigenvalues --    1.27627   1.28349   1.29398   1.30335   1.31120
 Alpha virt. eigenvalues --    1.31283   1.32727   1.33393   1.34125   1.34857
 Alpha virt. eigenvalues --    1.35709   1.36452   1.36956   1.38342   1.38989
 Alpha virt. eigenvalues --    1.39437   1.39819   1.40714   1.40832   1.41229
 Alpha virt. eigenvalues --    1.42825   1.43086   1.44475   1.44856   1.45069
 Alpha virt. eigenvalues --    1.46129   1.46548   1.46954   1.47998   1.48616
 Alpha virt. eigenvalues --    1.49070   1.49366   1.50035   1.50260   1.51582
 Alpha virt. eigenvalues --    1.52639   1.52881   1.54565   1.54985   1.55296
 Alpha virt. eigenvalues --    1.56602   1.60014   1.60505   1.60754   1.62507
 Alpha virt. eigenvalues --    1.63881   1.64187   1.65617   1.66922   1.68352
 Alpha virt. eigenvalues --    1.68570   1.69471   1.70402   1.71640   1.73581
 Alpha virt. eigenvalues --    1.75053   1.75616   1.76773   1.77395   1.78502
 Alpha virt. eigenvalues --    1.78734   1.79373   1.80663   1.81587   1.82081
 Alpha virt. eigenvalues --    1.82482   1.82943   1.83321   1.84096   1.84578
 Alpha virt. eigenvalues --    1.84989   1.85921   1.86538   1.87127   1.87447
 Alpha virt. eigenvalues --    1.88111   1.88459   1.88973   1.89391   1.89497
 Alpha virt. eigenvalues --    1.90117   1.90490   1.92028   1.93226   1.93536
 Alpha virt. eigenvalues --    1.95086   1.95185   1.95490   1.96423   1.96553
 Alpha virt. eigenvalues --    1.96973   1.97846   1.97917   1.98907   1.99533
 Alpha virt. eigenvalues --    2.00159   2.01352   2.02456   2.03528   2.05215
 Alpha virt. eigenvalues --    2.05456   2.06004   2.06374   2.07320   2.07694
 Alpha virt. eigenvalues --    2.08389   2.08658   2.09204   2.09617   2.11124
 Alpha virt. eigenvalues --    2.11563   2.11886   2.12155   2.12960   2.13432
 Alpha virt. eigenvalues --    2.14611   2.15194   2.15999   2.16947   2.17193
 Alpha virt. eigenvalues --    2.17555   2.17919   2.18638   2.18896   2.19633
 Alpha virt. eigenvalues --    2.20391   2.21091   2.22191   2.22484   2.22935
 Alpha virt. eigenvalues --    2.25235   2.25404   2.25860   2.26061   2.26875
 Alpha virt. eigenvalues --    2.27270   2.28329   2.28366   2.28867   2.29127
 Alpha virt. eigenvalues --    2.30062   2.30982   2.32083   2.32757   2.32936
 Alpha virt. eigenvalues --    2.34020   2.34857   2.35596   2.37143   2.38267
 Alpha virt. eigenvalues --    2.39649   2.40207   2.41127   2.41821   2.43069
 Alpha virt. eigenvalues --    2.45044   2.46006   2.46940   2.47800   2.48261
 Alpha virt. eigenvalues --    2.49044   2.50665   2.51644   2.52102   2.54640
 Alpha virt. eigenvalues --    2.56931   2.57482   2.58021   2.58624   2.60708
 Alpha virt. eigenvalues --    2.61382   2.61615   2.62230   2.64465   2.64992
 Alpha virt. eigenvalues --    2.65529   2.67101   2.67931   2.68746   2.70983
 Alpha virt. eigenvalues --    2.71788   2.72578   2.73487   2.75159   2.75715
 Alpha virt. eigenvalues --    2.76599   2.76942   2.77130   2.77342   2.78622
 Alpha virt. eigenvalues --    2.79495   2.80640   2.82983   2.84080   2.84758
 Alpha virt. eigenvalues --    2.86719   2.87445   2.87649   2.88578   2.91097
 Alpha virt. eigenvalues --    2.91530   2.93150   2.94850   2.95847   2.99300
 Alpha virt. eigenvalues --    3.01968   3.03294   3.05779   3.06188   3.08721
 Alpha virt. eigenvalues --    3.10206   3.21390   3.23988   3.27159   3.37854
 Alpha virt. eigenvalues --    3.38213   3.44862   3.51430   3.84277   3.93701
 Alpha virt. eigenvalues --    3.99790   4.04718   4.06544   4.08623   4.09405
 Alpha virt. eigenvalues --    4.10477   4.10979   4.11507   4.14905   4.16057
 Alpha virt. eigenvalues --    4.16725   4.18339   4.19875   4.21437   4.22320
 Alpha virt. eigenvalues --    4.24020   4.25951   4.29595   4.30134   4.31799
 Alpha virt. eigenvalues --    4.33571   4.35420   4.38502   4.41190   4.43538
 Alpha virt. eigenvalues --    4.45064   4.45747   4.46624   4.50571   4.54909
 Alpha virt. eigenvalues --    4.57049   4.63123   4.69234   4.76068   4.80782
 Alpha virt. eigenvalues --    4.95646
          Condensed to atoms (all electrons):
 Mulliken charges:
               1
     1  C   -0.212106
     2  O   -0.495407
     3  C    0.305886
     4  C   -0.200157
     5  C    0.317806
     6  C    0.235683
     7  N   -0.618685
     8  C    0.521080
     9  O   -0.494310
    10  C   -0.216115
    11  C    0.053438
    12  C    0.276896
    13  C   -0.266805
    14  C    0.082938
    15  C    0.056888
    16  C    0.298329
    17  O   -0.474363
    18  C   -0.072694
    19  C   -0.032312
    20  O   -0.503616
    21  C   -0.203356
    22  C    0.029630
    23  N   -0.509304
    24  C    0.512510
    25  N   -0.745903
    26  S    1.301147
    27  O   -0.517529
    28  O   -0.533226
    29  C   -0.174760
    30  C   -0.133190
    31  C   -0.179704
    32  C    0.183519
    33  C   -0.530468
    34  C   -0.184124
    35  C   -0.101071
    36  C   -0.017246
    37  N   -0.521938
    38  C   -0.322213
    39  H    0.147897
    40  H    0.145719
    41  H    0.173122
    42  H    0.134076
    43  H    0.192930
    44  H    0.156422
    45  H    0.150330
    46  H    0.145794
    47  H    0.159199
    48  H    0.158977
    49  H    0.150405
    50  H    0.146577
    51  H    0.149143
    52  H    0.147048
    53  H    0.133920
    54  H    0.173494
    55  H    0.131935
    56  H    0.162788
    57  H    0.174072
    58  H    0.160603
    59  H    0.134479
    60  H    0.190274
    61  H    0.152076
    62  H    0.172708
    63  H    0.170089
    64  H    0.170775
 Sum of Mulliken charges =  -0.00000
 Mulliken charges with hydrogens summed into heavy atoms:
               1
     1  C    0.254632
     2  O   -0.495407
     3  C    0.305886
     4  C   -0.066080
     5  C    0.317806
     6  C    0.235683
     7  N   -0.618685
     8  C    0.521080
     9  O   -0.494310
    10  C    0.283568
    11  C    0.053438
    12  C    0.276896
    13  C   -0.121011
    14  C    0.082938
    15  C    0.056888
    16  C    0.457528
    17  O   -0.474363
    18  C    0.236688
    19  C    0.263408
    20  O   -0.503616
    21  C   -0.056308
    22  C    0.163550
    23  N   -0.509304
    24  C    0.512510
    25  N   -0.745903
    26  S    1.301147
    27  O   -0.517529
    28  O   -0.533226
    29  C   -0.174760
    30  C    0.040304
    31  C   -0.047770
    32  C    0.183519
    33  C   -0.033005
    34  C   -0.049645
    35  C    0.089204
    36  C    0.134830
    37  N   -0.521938
    38  C    0.191359
 Electronic spatial extent (au):  <R**2>=          21574.7366
 Charge=             -0.0000 electrons
 Dipole moment (field-independent basis, Debye):
    X=              2.5098    Y=             -1.6017    Z=              7.1524  Tot=              7.7473
 Quadrupole moment (field-independent basis, Debye-Ang):
   XX=           -180.5356   YY=           -212.4021   ZZ=           -207.5599
   XY=             16.2660   XZ=             -9.1637   YZ=             -5.4742
 Traceless Quadrupole moment (field-independent basis, Debye-Ang):
   XX=             19.6303   YY=            -12.2363   ZZ=             -7.3940
   XY=             16.2660   XZ=             -9.1637   YZ=             -5.4742
 Octapole moment (field-independent basis, Debye-Ang**2):
  XXX=            -84.4777  YYY=             27.8783  ZZZ=             39.0476  XYY=             67.4613
  XXY=            -44.6706  XXZ=            131.7987  XZZ=            -27.1863  YZZ=            -15.6538
  YYZ=             40.0372  XYZ=              8.0651
 Hexadecapole moment (field-independent basis, Debye-Ang**3):
 XXXX=         -14610.3535 YYYY=          -7626.9035 ZZZZ=          -3131.1207 XXXY=             19.0545
 XXXZ=           -300.9938 YYYX=            115.4235 YYYZ=            -34.7862 ZZZX=              1.6787
 ZZZY=           -108.7745 XXYY=          -3760.6928 XXZZ=          -3241.8557 YYZZ=          -1783.5166
 XXYZ=           -255.5924 YYXZ=            158.5510 ZZXY=             68.6151
 N-N= 4.524002879427D+03 E-N=-1.398724258865D+04  KE= 2.095665664806D+03
 No NMR shielding tensors so no spin-rotation constants.
 Leave Link  601 at Fri Nov  4 23:39:11 2022, MaxMem=   805306368 cpu:               2.0 elap:               0.3
 (Enter /home/wykgroup/appl/g16/l9999.exe)
 1\1\GINC-NODE103\FOpt\RB3LYP\6-31G(d)\C27H26N4O6S1\WYKGROUP\04-Nov-202
 2\0\\#p b3lyp/6-31g(d) opt SCF=XQC\\Gaussian input prepared by ASE\\0,
 1\C,7.5328769936,1.2879912977,1.3310118356\O,6.2947961021,1.2851157399
 ,2.0173382219\C,5.205541582,0.8108159387,1.3509507164\C,5.2077855812,0
 .3148358152,0.0565006233\C,3.9726478664,-0.1219231191,-0.4518930686\C,
 2.812285421,-0.0439102565,0.3390565841\N,2.8192683736,0.4228666319,1.6
 048560857\C,3.9679092372,0.8400029857,2.0856282607\O,4.0466946293,1.33
 63928632,3.3389139032\C,2.8183741278,1.3954962731,4.0729679279\C,1.719
 099196,-0.5529532405,-0.4479744457\C,0.3436895196,-0.7953553194,-0.033
 542379\C,-0.330863593,-1.9902413903,-0.1130900873\C,-1.605591487,-1.83
 93176117,0.5163210952\C,-2.7054082517,-2.6721287062,0.7874158215\C,-2.
 6822304467,-4.1424008642,0.395837753\O,-2.2653503836,-4.3379767165,-0.
 9463062866\C,-3.4678304766,-4.3168844295,-1.7137098692\C,-4.4483827665
 ,-5.0465008161,-0.7917459467\O,-3.9708921756,-4.7337624139,0.520702444
 8\C,-3.7766304523,-2.1028227758,1.4739789435\C,-3.7300766225,-0.755587
 3216,1.8623152093\N,-2.6927130498,0.0587640494,1.6315640974\C,-1.67950
 72364,-0.5016811069,0.9845374965\N,-0.4842784258,0.1429781064,0.636405
 2326\S,-0.2968519858,1.8793329704,0.7050052922\O,-0.4163358985,2.27578
 91009,2.1031128599\O,0.8870153083,2.1859793224,-0.0897340146\C,-1.7167
 635305,2.4968543825,-0.1976129373\C,-1.6398801925,2.5779751545,-1.5895
 228063\C,-2.7184403967,3.1054612093,-2.2948458578\C,-3.8640353188,3.56
 5952759,-1.6292458994\C,-5.0124249167,4.1724235316,-2.399882089\C,-3.9
 062199473,3.4781076882,-0.2307777964\C,-2.8419120064,2.9455181003,0.49
 37088852\C,2.2675269627,-0.9244685038,-1.6585183399\N,3.6241554565,-0.
 6687490184,-1.6736239471\C,4.516476939,-0.8707023074,-2.7950103454\H,7
 .4926460174,1.912870385,0.427747422\H,7.8420984172,0.2712693446,1.0499
 314972\H,8.2615646702,1.7066542692,2.0274276678\H,6.1163052504,0.27125
 29847,-0.5327816075\H,2.0657443707,1.9848054721,3.5419476985\H,2.41581
 82719,0.3912412777,4.2409552273\H,3.0787431509,1.8639317057,5.02392596
 53\H,0.0871911142,-2.8983793413,-0.5220400705\H,-1.9723792763,-4.69185
 27509,1.0272816925\H,-3.2764929477,-4.8284660308,-2.6595796867\H,-3.78
 97312432,-3.2847066133,-1.91204873\H,-4.4163905421,-6.1331093629,-0.94
 44822322\H,-5.4816517271,-4.6994056841,-0.8936055471\H,-4.6442514661,-
 2.708263384,1.7098863037\H,-4.571190883,-0.3138366015,2.3925248515\H,-
 0.7451328898,2.2455724872,-2.1050820693\H,-2.6667162075,3.1691450099,-
 3.379059692\H,-5.9669951235,4.0146048876,-1.8873930479\H,-4.8795254706
 ,5.2565065754,-2.5142356906\H,-5.0902809579,3.7468018975,-3.4057242659
 \H,-4.7868567382,3.8303564022,0.3007674095\H,-2.8759682706,2.865898170
 1,1.5730215868\H,1.7822987675,-1.3447112622,-2.5286662245\H,4.90261140
 5,0.0835778233,-3.1744406139\H,5.364803742,-1.5036530199,-2.5087262638
 \H,3.9702108306,-1.3693946444,-3.5986477537\\Version=ES64L-G16RevB.01\
 State=1-A\HF=-2112.9618482\RMSD=5.058e-09\RMSF=3.101e-06\Dipole=-0.379
 2539,-0.7788293,-2.9223362\Quadrupole=20.4283495,-13.2714482,-7.156901
 3,-5.8731614,-3.6607338,1.4120238\PG=C01 [X(C27H26N4O6S1)]\\@


 THE SCIENTIFIC THEORIST IS NOT TO BE ENVIED. FOR NATURE, OR MORE
 PRECISELY EXPERIMENT, IS AN INEXORABLE AND NOT VERY FRIENDLY JUDGE OF HIS
 WORK.  IT NEVER SAYS "YES" TO A THEORY. IN THE MOST FAVORABLE CASES
 IT SAYS "MAYBE", AND IN THE GREAT MAJORITY OF CASES SIMPLY "NO"...
 PROBABLY EVERY THEORY WILL SOME DAY EXPERIENCE ITS "NO" - MOST
 THEORIES, SOON AFTER CONCEPTION.  -- A.EINSTEIN, NOV 11, 1922.
 Job cpu time:       0 days 12 hours 51 minutes 35.9 seconds.
 Elapsed time:       0 days  1 hours 50 minutes 26.1 seconds.
 File lengths (MBytes):  RWF=    247 Int=      0 D2E=      0 Chk=     32 Scr=      1
 Normal termination of Gaussian 16 at Fri Nov  4 23:39:11 2022.
