 Entering Gaussian System, Link 0=/home/wykgroup/appl/g16/g16
 Input=calculation/no_transfer_pubchem_sampling_5_b3lyp/97840923_rwf.com
 Output=calculation/no_transfer_pubchem_sampling_5_b3lyp/97840923_rwf.log
 Initial command:
 /home/wykgroup/appl/g16/l1.exe "/userdata/scratch/wykgroup/khs/calculation/no_transfer_pubchem_sampling_5_b3lyp/97840923_rwf/Gau-27590.inp" -scrdir="/userdata/scratch/wykgroup/khs/calculation/no_transfer_pubchem_sampling_5_b3lyp/97840923_rwf/"
 Entering Link 1 = /home/wykgroup/appl/g16/l1.exe PID=     27594.
  
 Copyright (c) 1988-2017, Gaussian, Inc.  All Rights Reserved.
  
 This is part of the Gaussian(R) 16 program.  It is based on
 the Gaussian(R) 09 system (copyright 2009, Gaussian, Inc.),
 the Gaussian(R) 03 system (copyright 2003, Gaussian, Inc.),
 the Gaussian(R) 98 system (copyright 1998, Gaussian, Inc.),
 the Gaussian(R) 94 system (copyright 1995, Gaussian, Inc.),
 the Gaussian 92(TM) system (copyright 1992, Gaussian, Inc.),
 the Gaussian 90(TM) system (copyright 1990, Gaussian, Inc.),
 the Gaussian 88(TM) system (copyright 1988, Gaussian, Inc.),
 the Gaussian 86(TM) system (copyright 1986, Carnegie Mellon
 University), and the Gaussian 82(TM) system (copyright 1983,
 Carnegie Mellon University). Gaussian is a federally registered
 trademark of Gaussian, Inc.
  
 This software contains proprietary and confidential information,
 including trade secrets, belonging to Gaussian, Inc.
  
 This software is provided under written license and may be
 used, copied, transmitted, or stored only in accord with that
 written license.
  
 The following legend is applicable only to US Government
 contracts under FAR:
  
                    RESTRICTED RIGHTS LEGEND
  
 Use, reproduction and disclosure by the US Government is
 subject to restrictions as set forth in subparagraphs (a)
 and (c) of the Commercial Computer Software - Restricted
 Rights clause in FAR 52.227-19.
  
 Gaussian, Inc.
 340 Quinnipiac St., Bldg. 40, Wallingford CT 06492
  
  
 ---------------------------------------------------------------
 Warning -- This program may not be used in any manner that
 competes with the business of Gaussian, Inc. or will provide
 assistance to any competitor of Gaussian, Inc.  The licensee
 of this program is prohibited from giving any competitor of
 Gaussian, Inc. access to this program.  By using this program,
 the user acknowledges that Gaussian, Inc. is engaged in the
 business of creating and licensing software in the field of
 computational chemistry and represents and warrants to the
 licensee that it is not a competitor of Gaussian, Inc. and that
 it will not use this program in any manner prohibited above.
 ---------------------------------------------------------------
  

 Cite this work as:
 Gaussian 16, Revision B.01,
 M. J. Frisch, G. W. Trucks, H. B. Schlegel, G. E. Scuseria, 
 M. A. Robb, J. R. Cheeseman, G. Scalmani, V. Barone, 
 G. A. Petersson, H. Nakatsuji, X. Li, M. Caricato, A. V. Marenich, 
 J. Bloino, B. G. Janesko, R. Gomperts, B. Mennucci, H. P. Hratchian, 
 J. V. Ortiz, A. F. Izmaylov, J. L. Sonnenberg, D. Williams-Young, 
 F. Ding, F. Lipparini, F. Egidi, J. Goings, B. Peng, A. Petrone, 
 T. Henderson, D. Ranasinghe, V. G. Zakrzewski, J. Gao, N. Rega, 
 G. Zheng, W. Liang, M. Hada, M. Ehara, K. Toyota, R. Fukuda, 
 J. Hasegawa, M. Ishida, T. Nakajima, Y. Honda, O. Kitao, H. Nakai, 
 T. Vreven, K. Throssell, J. A. Montgomery, Jr., J. E. Peralta, 
 F. Ogliaro, M. J. Bearpark, J. J. Heyd, E. N. Brothers, K. N. Kudin, 
 V. N. Staroverov, T. A. Keith, R. Kobayashi, J. Normand, 
 K. Raghavachari, A. P. Rendell, J. C. Burant, S. S. Iyengar, 
 J. Tomasi, M. Cossi, J. M. Millam, M. Klene, C. Adamo, R. Cammi, 
 J. W. Ochterski, R. L. Martin, K. Morokuma, O. Farkas, 
 J. B. Foresman, and D. J. Fox, Gaussian, Inc., Wallingford CT, 2016.
 
 ******************************************
 Gaussian 16:  ES64L-G16RevB.01 20-Dec-2017
                 5-Nov-2022 
 ******************************************
 %chk=calculation/no_transfer_pubchem_sampling_5_b3lyp/97840923_rwf.chk
 %rwf=calculation/no_transfer_pubchem_sampling_5_b3lyp/97840923_rwf.rwf
 %nprocshared=14
 Will use up to   14 processors via shared memory.
 %mem=3GB
 -------------------------------------------------------------------
 #p b3lyp/6-31g(d) 6D 10F nosymm GFInput td=(50-50,nstate=2) SCF=XQC
 -------------------------------------------------------------------
 1/38=1,172=1/1;
 2/12=2,15=1,17=6,18=5,40=1/2;
 3/5=1,6=6,7=1,8=22,11=9,24=10,25=1,30=1,74=-5/1,2,3,8;
 4//1;
 5/5=2,8=3,13=1,38=5/2,8;
 8/6=1,10=2,108=2/1;
 9/41=2,42=1,48=2,70=2/14;
 6/7=2,8=2,9=2,10=2/1;
 99/5=1,9=1/99;
 Leave Link    1 at Sat Nov  5 09:28:24 2022, MaxMem=   402653184 cpu:              10.1 elap:               1.0
 (Enter /home/wykgroup/appl/g16/l101.exe)
 ------------------------------
 Gaussian input prepared by ASE
 ------------------------------
 Symbolic Z-matrix:
 Charge =  0 Multiplicity = 1
 C                     7.72813   0.12101   0.2145 
 C                     6.36931  -0.46923   0.35159 
 C                     5.87308  -1.54785   1.03203 
 C                     4.47431  -1.59324   0.76194 
 C                     4.20487  -0.53461  -0.0695 
 C                     2.9947   -0.04686  -0.68766 
 N                     2.92016   0.99623  -1.47401 
 C                     1.63026   1.1991   -1.88833 
 C                     0.6756    0.32245  -1.4464 
 C                    -0.79793   0.34111  -1.77781 
 N                    -1.71244   0.46357  -0.65138 
 C                    -1.67411   1.7234    0.09552 
 C                    -2.83841   2.66379  -0.22628 
 C                    -4.19014   1.93103  -0.20706 
 C                    -4.31702   0.86782   0.89016 
 O                    -3.89874   1.47777   2.12629 
 C                    -3.6131   -0.46188   0.61227 
 C                    -4.25577  -1.60456   1.10947 
 C                    -3.79503  -2.8982    0.87722 
 C                    -2.64779  -3.05929   0.10344 
 C                    -1.97196  -1.94907  -0.39207 
 C                    -2.41657  -0.63079  -0.14539 
 S                     1.44518  -0.85833  -0.40726 
 O                     5.36146   0.15491  -0.3226 
 H                     8.05568   0.12987  -0.83227 
 H                     7.75117   1.15718   0.57349 
 H                     8.44799  -0.4612    0.79593 
 H                     6.44148  -2.22753   1.65163 
 H                     3.75973  -2.31481   1.1339 
 H                     1.41871   2.03626  -2.54672 
 H                    -0.94913   1.20255  -2.44396 
 H                    -1.08228  -0.54114  -2.35922 
 H                    -1.69346   1.49524   1.16447 
 H                    -0.71393   2.20868  -0.11215 
 H                    -2.69855   3.13558  -1.20807 
 H                    -2.83529   3.46852   0.51807 
 H                    -4.99685   2.66188  -0.0766 
 H                    -4.3655    1.43538  -1.1691 
 H                    -5.38623   0.61929   0.97495 
 H                    -3.86795   0.77306   2.79265 
 H                    -5.17907  -1.46601   1.67057 
 H                    -4.3303   -3.75619   1.27264 
 H                    -2.26073  -4.05261  -0.10925 
 H                    -1.06353  -2.1123   -0.96147 
 
 ITRead=  0  0  0  0  0  0  0  0  0  0  0  0  0  0  0  0  0  0  0  0
 ITRead=  0  0  0  0  0  0  0  0  0  0  0  0  0  0  0  0  0  0  0  0
 ITRead=  0  0  0  0
 MicOpt= -1 -1 -1 -1 -1 -1 -1 -1 -1 -1 -1 -1 -1 -1 -1 -1 -1 -1 -1 -1
 MicOpt= -1 -1 -1 -1 -1 -1 -1 -1 -1 -1 -1 -1 -1 -1 -1 -1 -1 -1 -1 -1
 MicOpt= -1 -1 -1 -1
 NAtoms=     44 NQM=       44 NQMF=       0 NMMI=      0 NMMIF=      0
                NMic=       0 NMicF=      0.
                    Isotopes and Nuclear Properties:
 (Nuclear quadrupole moments (NQMom) in fm**2, nuclear magnetic moments (NMagM)
  in nuclear magnetons)

  Atom         1           2           3           4           5           6           7           8           9          10
 IAtWgt=          12          12          12          12          12          12          14          12          12          12
 AtmWgt=  12.0000000  12.0000000  12.0000000  12.0000000  12.0000000  12.0000000  14.0030740  12.0000000  12.0000000  12.0000000
 NucSpn=           0           0           0           0           0           0           2           0           0           0
 AtZEff=  -0.0000000  -0.0000000  -0.0000000  -0.0000000  -0.0000000  -0.0000000  -0.0000000  -0.0000000  -0.0000000  -0.0000000
 NQMom=    0.0000000   0.0000000   0.0000000   0.0000000   0.0000000   0.0000000   2.0440000   0.0000000   0.0000000   0.0000000
 NMagM=    0.0000000   0.0000000   0.0000000   0.0000000   0.0000000   0.0000000   0.4037610   0.0000000   0.0000000   0.0000000
 AtZNuc=   6.0000000   6.0000000   6.0000000   6.0000000   6.0000000   6.0000000   7.0000000   6.0000000   6.0000000   6.0000000

  Atom        11          12          13          14          15          16          17          18          19          20
 IAtWgt=          14          12          12          12          12          16          12          12          12          12
 AtmWgt=  14.0030740  12.0000000  12.0000000  12.0000000  12.0000000  15.9949146  12.0000000  12.0000000  12.0000000  12.0000000
 NucSpn=           2           0           0           0           0           0           0           0           0           0
 AtZEff=  -0.0000000  -0.0000000  -0.0000000  -0.0000000  -0.0000000  -0.0000000  -0.0000000  -0.0000000  -0.0000000  -0.0000000
 NQMom=    2.0440000   0.0000000   0.0000000   0.0000000   0.0000000   0.0000000   0.0000000   0.0000000   0.0000000   0.0000000
 NMagM=    0.4037610   0.0000000   0.0000000   0.0000000   0.0000000   0.0000000   0.0000000   0.0000000   0.0000000   0.0000000
 AtZNuc=   7.0000000   6.0000000   6.0000000   6.0000000   6.0000000   8.0000000   6.0000000   6.0000000   6.0000000   6.0000000

  Atom        21          22          23          24          25          26          27          28          29          30
 IAtWgt=          12          12          32          16           1           1           1           1           1           1
 AtmWgt=  12.0000000  12.0000000  31.9720718  15.9949146   1.0078250   1.0078250   1.0078250   1.0078250   1.0078250   1.0078250
 NucSpn=           0           0           0           0           1           1           1           1           1           1
 AtZEff=  -0.0000000  -0.0000000  -0.0000000  -0.0000000  -0.0000000  -0.0000000  -0.0000000  -0.0000000  -0.0000000  -0.0000000
 NQMom=    0.0000000   0.0000000   0.0000000   0.0000000   0.0000000   0.0000000   0.0000000   0.0000000   0.0000000   0.0000000
 NMagM=    0.0000000   0.0000000   0.0000000   0.0000000   2.7928460   2.7928460   2.7928460   2.7928460   2.7928460   2.7928460
 AtZNuc=   6.0000000   6.0000000  16.0000000   8.0000000   1.0000000   1.0000000   1.0000000   1.0000000   1.0000000   1.0000000

  Atom        31          32          33          34          35          36          37          38          39          40
 IAtWgt=           1           1           1           1           1           1           1           1           1           1
 AtmWgt=   1.0078250   1.0078250   1.0078250   1.0078250   1.0078250   1.0078250   1.0078250   1.0078250   1.0078250   1.0078250
 NucSpn=           1           1           1           1           1           1           1           1           1           1
 AtZEff=  -0.0000000  -0.0000000  -0.0000000  -0.0000000  -0.0000000  -0.0000000  -0.0000000  -0.0000000  -0.0000000  -0.0000000
 NQMom=    0.0000000   0.0000000   0.0000000   0.0000000   0.0000000   0.0000000   0.0000000   0.0000000   0.0000000   0.0000000
 NMagM=    2.7928460   2.7928460   2.7928460   2.7928460   2.7928460   2.7928460   2.7928460   2.7928460   2.7928460   2.7928460
 AtZNuc=   1.0000000   1.0000000   1.0000000   1.0000000   1.0000000   1.0000000   1.0000000   1.0000000   1.0000000   1.0000000

  Atom        41          42          43          44
 IAtWgt=           1           1           1           1
 AtmWgt=   1.0078250   1.0078250   1.0078250   1.0078250
 NucSpn=           1           1           1           1
 AtZEff=  -0.0000000  -0.0000000  -0.0000000  -0.0000000
 NQMom=    0.0000000   0.0000000   0.0000000   0.0000000
 NMagM=    2.7928460   2.7928460   2.7928460   2.7928460
 AtZNuc=   1.0000000   1.0000000   1.0000000   1.0000000
 Leave Link  101 at Sat Nov  5 09:28:24 2022, MaxMem=   402653184 cpu:               1.4 elap:               0.2
 (Enter /home/wykgroup/appl/g16/l202.exe)
                          Input orientation:                          
 ---------------------------------------------------------------------
 Center     Atomic      Atomic             Coordinates (Angstroms)
 Number     Number       Type             X           Y           Z
 ---------------------------------------------------------------------
      1          6           0        7.728134    0.121008    0.214502
      2          6           0        6.369309   -0.469233    0.351589
      3          6           0        5.873078   -1.547848    1.032034
      4          6           0        4.474308   -1.593243    0.761945
      5          6           0        4.204869   -0.534613   -0.069500
      6          6           0        2.994705   -0.046857   -0.687657
      7          7           0        2.920156    0.996233   -1.474014
      8          6           0        1.630258    1.199098   -1.888327
      9          6           0        0.675595    0.322452   -1.446404
     10          6           0       -0.797926    0.341106   -1.777808
     11          7           0       -1.712439    0.463567   -0.651376
     12          6           0       -1.674111    1.723395    0.095516
     13          6           0       -2.838410    2.663794   -0.226282
     14          6           0       -4.190138    1.931032   -0.207061
     15          6           0       -4.317023    0.867818    0.890164
     16          8           0       -3.898739    1.477766    2.126291
     17          6           0       -3.613098   -0.461876    0.612274
     18          6           0       -4.255771   -1.604559    1.109470
     19          6           0       -3.795027   -2.898202    0.877220
     20          6           0       -2.647790   -3.059291    0.103435
     21          6           0       -1.971958   -1.949065   -0.392066
     22          6           0       -2.416571   -0.630786   -0.145391
     23         16           0        1.445178   -0.858326   -0.407257
     24          8           0        5.361456    0.154911   -0.322599
     25          1           0        8.055675    0.129874   -0.832265
     26          1           0        7.751172    1.157185    0.573492
     27          1           0        8.447994   -0.461196    0.795926
     28          1           0        6.441484   -2.227535    1.651632
     29          1           0        3.759734   -2.314812    1.133895
     30          1           0        1.418710    2.036263   -2.546723
     31          1           0       -0.949131    1.202547   -2.443963
     32          1           0       -1.082282   -0.541138   -2.359222
     33          1           0       -1.693460    1.495243    1.164473
     34          1           0       -0.713929    2.208682   -0.112147
     35          1           0       -2.698553    3.135582   -1.208071
     36          1           0       -2.835294    3.468522    0.518070
     37          1           0       -4.996853    2.661876   -0.076597
     38          1           0       -4.365498    1.435381   -1.169102
     39          1           0       -5.386232    0.619294    0.974953
     40          1           0       -3.867949    0.773056    2.792651
     41          1           0       -5.179065   -1.466011    1.670573
     42          1           0       -4.330304   -3.756189    1.272635
     43          1           0       -2.260731   -4.052608   -0.109252
     44          1           0       -1.063532   -2.112296   -0.961467
 ---------------------------------------------------------------------
                    Distance matrix (angstroms):
                    1          2          3          4          5
     1  C    0.000000
     2  C    1.487812   0.000000
     3  C    2.625771   1.368452   0.000000
     4  C    3.718297   2.241164   1.425330   0.000000
     5  C    3.594982   2.205990   2.241192   1.372805   0.000000
     6  C    4.821558   3.556176   3.673601   2.584933   1.443787
     7  N    5.170470   4.168582   4.633829   3.757697   2.442670
     8  C    6.539745   5.500832   5.837443   4.786410   3.597569
     9  C    7.248275   6.023115   6.054296   4.793423   3.884095
    10  C    8.758507   7.520654   7.481020   6.163481   5.358466
    11  N    9.486386   8.196994   8.026190   6.671115   6.029053
    12  C    9.538555   8.340851   8.278778   7.017640   6.299860
    13  C   10.877128   9.743300   9.757628   8.519084   7.737065
    14  C   12.062301  10.843213  10.719434   9.403834   8.750683
    15  C   12.087185  10.783109  10.473477   9.130211   8.689672
    16  O   11.860856  10.600622  10.287864   9.022220   8.633634
    17  C   11.363166   9.985813   9.557357   8.167529   7.847975
    18  C   12.140533  10.712407  10.129303   8.737000   8.609133
    19  C   11.930552  10.463743   9.763180   8.372461   8.395306
    20  C   10.852946   9.384991   8.703559   7.301179   7.304987
    21  C    9.937047   8.504096   7.983334   6.558406   6.344912
    22  C   10.178888   8.801407   8.422921   7.016679   6.622573
    23  S    6.389149   4.997430   4.706729   3.329079   2.799065
    24  O    2.427095   1.363764   2.235212   2.240381   1.370109
    25  H    1.096852   2.145757   3.324770   4.282153   3.981465
    26  H    1.096844   2.145698   3.324861   4.282313   3.981443
    27  H    1.093258   2.125661   2.804774   4.131933   4.331105
    28  H    3.039155   2.187909   1.081185   2.250256   3.291007
    29  H    4.746231   3.290600   2.250518   1.081492   2.194405
    30  H    7.148525   6.259885   6.744980   5.784226   4.528655
    31  H    9.139590   8.010588   8.135709   6.892603   5.934603
    32  H    9.202496   7.929683   7.803275   6.459434   5.761669
    33  H    9.568563   8.338356   8.156619   6.909568   6.358717
    34  H    8.702500   7.586734   7.668724   6.491261   5.632234
    35  H   10.946560   9.881971  10.021250   8.814345   7.900880
    36  H   11.085306  10.012908  10.062994   8.894448   8.119989
    37  H   12.979447  11.797323  11.709237  10.416913   9.741113
    38  H   12.243279  11.008003  10.889127   9.541680   8.862346
    39  H   13.145843  11.822276  11.466116  10.107964   9.716563
    40  H   11.897108  10.597336  10.167299   8.905975   8.664428
    41  H   13.085663  11.666114  11.070876   9.696876   9.589243
    42  H   12.710556  11.230945  10.442397   9.080767   9.221120
    43  H   10.830574   9.355776   8.586921   7.222757   7.360832
    44  H    9.146800   7.724694   7.239420   5.822992   5.571421
                    6          7          8          9         10
     6  C    0.000000
     7  N    1.308415   0.000000
     8  C    2.203571   1.369907   0.000000
     9  C    2.467864   2.343672   1.369374   0.000000
    10  C    3.965223   3.787561   2.577682   1.510445   0.000000
    11  N    4.734876   4.735125   3.639324   2.520851   1.456084
    12  C    5.054206   4.909123   3.889650   3.140268   2.487523
    13  C    6.448699   6.123617   4.987657   4.395317   3.459146
    14  C    7.467595   7.282533   6.102408   5.272462   4.062291
    15  C    7.535748   7.614629   6.572663   5.539242   4.447419
    16  O    7.600154   7.726021   6.838467   5.918060   5.113612
    17  C    6.747231   7.011568   6.041906   4.821433   3.779215
    18  C    7.630564   8.058067   7.175836   5.879136   4.907003
    19  C    7.528577   8.111018   7.339608   5.979825   5.150234
    20  C    6.445024   7.066658   6.356311   4.988294   4.303926
    21  C    5.326679   5.811899   5.012553   3.644304   2.922929
    22  C    5.469637   5.735249   4.771071   3.487519   2.495870
    23  S    1.771480   2.598639   2.541814   1.751091   2.889388
    24  O    2.403225   2.827283   4.178956   4.821649   6.331690
    25  H    5.066120   5.247473   6.598825   7.408092   8.906455
    26  H    5.065984   5.249466   6.597567   7.405440   8.904026
    27  H    5.666662   6.150912   7.512876   8.127258   9.630932
    28  H    4.701906   5.706321   6.886292   7.024652   8.412374
    29  H    3.007814   4.297569   5.100593   4.808847   6.025295
    30  H    3.206131   2.118185   1.085856   2.167964   2.894523
    31  H    4.494381   3.994340   2.638559   2.099864   1.099412
    32  H    4.433990   4.377969   3.256998   2.160823   1.094191
    33  H    5.271370   5.338171   4.522653   3.715446   3.284971
    34  H    4.378656   4.065868   3.109548   2.696087   2.503862
    35  H    6.543083   6.018092   4.790754   4.399475   3.427255
    36  H    6.913794   6.573113   5.557174   5.107177   4.382083
    37  H    8.460238   8.210126   7.024293   6.286967   5.090293
    38  H    7.523390   7.305243   6.043360   5.169925   3.780943
    39  H    8.570188   8.668080   7.600374   6.534282   5.357950
    40  H    7.738270   8.020761   7.233488   6.230283   5.522746
    41  H    8.624718   9.030419   8.132371   6.869585   5.861006
    42  H    8.441425   9.093887   8.371072   7.006248   6.210533
    43  H    6.633265   7.361723   6.773871   5.436096   4.922256
    44  H    4.561831   5.078920   4.368170   3.031126   2.599258
                   11         12         13         14         15
    11  N    0.000000
    12  C    1.465089   0.000000
    13  C    2.507891   1.530848   0.000000
    14  C    2.913736   2.542647   1.537685   0.000000
    15  C    3.053460   2.889369   2.580363   1.533110   0.000000
    16  O    3.677491   3.022143   2.839994   2.394765   1.440489
    17  C    2.462876   2.966836   3.327632   2.594281   1.529974
    18  C    3.721056   4.332245   4.691693   3.773323   2.482840
    19  C    4.239725   5.144755   5.750533   4.965207   3.802046
    20  C    3.722251   4.880799   5.735744   5.232453   4.339063
    21  C    2.440365   3.716640   4.696456   4.473220   3.883075
    22  C    1.396219   2.480211   3.322461   3.116449   2.632471
    23  S    3.431842   4.080200   5.548622   6.291055   6.153521
    24  O    7.088255   7.220400   8.575639   9.716013   9.780183
    25  H    9.775486   9.902971  11.201298  12.393344  12.513792
    26  H    9.567724   9.454365  10.726078  11.991787  12.075816
    27  H   10.304575  10.378826  11.755569  12.901593  12.834361
    28  H    8.890013   9.159380  10.656834  11.566322  11.220807
    29  H    6.391499   6.849235   8.376879   9.111850   8.684615
    30  H    3.983693   4.079811   4.888897   6.078179   6.787936
    31  H    2.083770   2.691808   3.259252   4.004814   4.750909
    32  H    2.079247   3.391771   4.231431   4.516878   4.796583
    33  H    2.088546   1.093204   2.147236   2.881739   2.711455
    34  H    2.081639   1.095709   2.175678   3.488571   3.973013
    35  H    2.902068   2.177865   1.098205   2.162819   3.487805
    36  H    3.414405   2.138308   1.096201   2.173774   3.016229
    37  H    3.993784   3.457019   2.163628   1.096332   2.148357
    38  H    2.872487   2.987603   2.174835   1.096332   2.136598
    39  H    4.020690   3.971434   3.480566   2.132711   1.100982
    40  H    4.074719   3.604248   3.707937   3.231561   1.957066
    41  H    4.596979   4.993778   5.111949   4.005420   2.607473
    42  H    5.325540   6.202162   6.759340   5.878233   4.639817
    43  H    4.581523   5.809326   6.742215   6.287776   5.425658
    44  H    2.674380   4.025239   5.147983   5.166555   4.784853
                   16         17         18         19         20
    16  O    0.000000
    17  C    2.477105   0.000000
    18  C    3.265290   1.402126   0.000000
    19  C    4.551926   2.457433   1.392744   0.000000
    20  C    5.122666   2.817322   2.390388   1.393142   0.000000
    21  C    4.668809   2.431825   2.754832   2.415684   1.390997
    22  C    3.435601   1.426277   2.430138   2.843775   2.452145
    23  S    6.358745   5.175207   5.946271   5.768078   4.675194
    24  O    9.669448   9.044172   9.881175   9.726369   8.640638
    25  H   12.388620  11.772729  12.583732  12.350334  11.207608
    26  H   11.757312  11.479089  12.332119  12.241451  11.231119
    27  H   12.568662  12.062491  12.758967  12.483477  11.416921
    28  H   10.994306  10.261211  10.729087  10.287647   9.257626
    29  H    8.603528   7.619981   8.046948   7.581599   6.532416
    30  H    7.101003   6.445080   7.669619   7.953326   7.037360
    31  H    5.446389   4.382648   5.607191   5.995459   5.247661
    32  H    5.668177   3.903985   4.820137   4.836248   3.854425
    33  H    2.405963   2.796471   4.022094   4.878674   4.772875
    34  H    3.960791   4.007724   5.345821   6.045849   5.615857
    35  H    3.912388   4.134218   5.501351   6.477441   6.332384
    36  H    2.771354   4.007728   5.301288   6.448663   6.543655
    37  H    2.731426   3.485276   4.489813   5.767895   6.187266
    38  H    3.328555   2.709057   3.800679   4.826262   4.977142
    39  H    2.067653   2.108191   2.498312   3.861899   4.668040
    40  H    0.970360   2.518741   2.938802   4.141538   4.838136
    41  H    3.242335   2.140219   1.089268   2.143861   3.376658
    42  H    5.320644   3.435543   2.159095   1.085825   2.164151
    43  H    6.185932   3.904209   3.385027   2.158667   1.087073
    44  H    5.519166   3.420648   3.838876   3.385186   2.130889
                   21         22         23         24         25
    21  C    0.000000
    22  C    1.412937   0.000000
    23  S    3.587026   3.877299   0.000000
    24  O    7.629581   7.819618   4.046116   0.000000
    25  H   10.250326  10.522278   6.697451   2.742116   0.000000
    26  H   10.252821  10.348749   6.692512   2.741946   1.767553
    27  H   10.592473  10.906586   7.116516   3.340269   1.776030
    28  H    8.662578   9.178455   5.574660   3.277208   3.785860
    29  H    5.942610   6.528342   3.139056   3.284269   5.319529
    30  H    5.658800   5.252515   3.599536   4.902190   7.114984
    31  H    3.897321   3.286019   3.758734   6.739529   9.210577
    32  H    2.577495   2.586389   3.209178   6.793680   9.288924
    33  H    3.789939   2.599737   4.226188   7.333466  10.044742
    34  H    4.352914   3.310993   3.762363   6.416586   9.041348
    35  H    5.200715   3.923561   5.810603   8.638994  11.172687
    36  H    5.560930   4.173707   6.156320   8.881073  11.470971
    37  H    5.523612   4.183803   7.348532  10.660205  13.317303
    38  H    4.217498   3.019163   6.293286   9.847325  12.494133
    39  H    4.485809   3.411270   7.124747  10.835686  13.571678
    40  H    4.598604   3.565020   6.413278   9.760575  12.479044
    41  H    3.843613   3.409796   6.969021  10.849088  13.563532
    42  H    3.405690   3.929545   6.676514  10.572213  13.150840
    43  H    2.142024   3.425560   4.901633   8.708988  11.155454
    44  H    1.084481   2.166002   2.858883   6.843161   9.391697
                   26         27         28         29         30
    26  H    0.000000
    27  H    1.776006   0.000000
    28  H    3.786026   2.806826   0.000000
    29  H    5.319811   5.052713   2.732665   0.000000
    30  H    7.113972   8.174438   7.812453   6.161104   0.000000
    31  H    9.208820  10.078238   9.119241   6.880864   2.512432
    32  H    9.461237  10.039298   8.691257   6.228395   3.596264
    33  H    9.469139  10.335017   8.959560   6.652426   4.873528
    34  H    8.557667   9.586119   8.601795   6.482922   3.241147
    35  H   10.783542  11.882691  10.976393   8.769326   4.466805
    36  H   10.835986  11.951254  10.944799   8.793212   5.435151
    37  H   12.852970  13.830358  12.559008  10.144482   6.903069
    38  H   12.244497  13.101294  11.754333   9.240515   5.976283
    39  H   13.154538  13.877512  12.184302   9.606400   7.792126
    40  H   11.835379  12.537654  10.797680   8.394519   7.619276
    41  H   13.239176  13.692020  11.645490   8.995032   8.578004
    42  H   13.061091  13.204891  10.886315   8.218609   9.010614
    43  H   11.306913  11.331125   9.064224   6.388376   7.520233
    44  H    9.525996   9.812426   7.947757   5.262646   5.087741
                   31         32         33         34         35
    31  H    0.000000
    32  H    1.750814   0.000000
    33  H    3.696012   4.115436   0.000000
    34  H    2.550489   3.570230   1.760180   0.000000
    35  H    2.885226   4.178008   3.054487   2.449271   0.000000
    36  H    4.179221   5.237293   2.369694   2.546480   1.763267
    37  H    4.911020   5.549193   3.716678   4.306982   2.605152
    38  H    3.653908   4.012794   3.548090   3.879318   2.381367
    39  H    5.631788   5.566625   3.799970   5.053549   4.280294
    40  H    6.010498   6.002404   2.810858   4.521805   4.791117
    41  H    6.476338   5.820505   4.601588   6.051356   5.967763
    42  H    7.059355   5.837515   5.877260   7.111644   7.504200
    43  H    5.898121   4.333766   5.720387   6.449524   7.284859
    44  H    3.633052   2.103000   4.234474   4.417513   5.502212
                   36         37         38         39         40
    36  H    0.000000
    37  H    2.382571   0.000000
    38  H    3.053152   1.759678   0.000000
    39  H    3.851510   2.330131   2.510949   0.000000
    40  H    3.675001   3.615888   4.047434   2.373363   0.000000
    41  H    5.583113   4.486118   4.140498   2.208010   2.826926
    42  H    7.416257   6.592137   5.737221   4.510926   4.799821
    43  H    7.569085   7.250636   5.972549   5.724590   5.855871
    44  H    6.039346   6.248738   4.850990   5.467819   5.503037
                   41         42         43         44
    41  H    0.000000
    42  H    2.474603   0.000000
    43  H    4.286599   2.506114   0.000000
    44  H    4.927772   4.285487   2.434002   0.000000
 Symmetry turned off by external request.
 Stoichiometry    C19H20N2O2S
 Framework group  C1[X(C19H20N2O2S)]
 Deg. of freedom   126
 Full point group                 C1      NOp   1
 Rotational constants (GHZ):           0.4912552           0.0979137           0.0898504
 Leave Link  202 at Sat Nov  5 09:28:24 2022, MaxMem=   402653184 cpu:               0.2 elap:               0.0
 (Enter /home/wykgroup/appl/g16/l301.exe)
 Standard basis: 6-31G(d) (6D, 10F)
 Ernie: Thresh=  0.10000D-02 Tol=  0.10000D-05 Strict=F.
 AO basis set in the form of general basis input (Overlap normalization):
      1 0
 S   6 1.00       0.000000000000
      0.3047524880D+04  0.1834737132D-02
      0.4573695180D+03  0.1403732281D-01
      0.1039486850D+03  0.6884262226D-01
      0.2921015530D+02  0.2321844432D+00
      0.9286662960D+01  0.4679413484D+00
      0.3163926960D+01  0.3623119853D+00
 SP   3 1.00       0.000000000000
      0.7868272350D+01 -0.1193324198D+00  0.6899906659D-01
      0.1881288540D+01 -0.1608541517D+00  0.3164239610D+00
      0.5442492580D+00  0.1143456438D+01  0.7443082909D+00
 SP   1 1.00       0.000000000000
      0.1687144782D+00  0.1000000000D+01  0.1000000000D+01
 D   1 1.00       0.000000000000
      0.8000000000D+00  0.1000000000D+01
 ****
      2 0
 S   6 1.00       0.000000000000
      0.3047524880D+04  0.1834737132D-02
      0.4573695180D+03  0.1403732281D-01
      0.1039486850D+03  0.6884262226D-01
      0.2921015530D+02  0.2321844432D+00
      0.9286662960D+01  0.4679413484D+00
      0.3163926960D+01  0.3623119853D+00
 SP   3 1.00       0.000000000000
      0.7868272350D+01 -0.1193324198D+00  0.6899906659D-01
      0.1881288540D+01 -0.1608541517D+00  0.3164239610D+00
      0.5442492580D+00  0.1143456438D+01  0.7443082909D+00
 SP   1 1.00       0.000000000000
      0.1687144782D+00  0.1000000000D+01  0.1000000000D+01
 D   1 1.00       0.000000000000
      0.8000000000D+00  0.1000000000D+01
 ****
      3 0
 S   6 1.00       0.000000000000
      0.3047524880D+04  0.1834737132D-02
      0.4573695180D+03  0.1403732281D-01
      0.1039486850D+03  0.6884262226D-01
      0.2921015530D+02  0.2321844432D+00
      0.9286662960D+01  0.4679413484D+00
      0.3163926960D+01  0.3623119853D+00
 SP   3 1.00       0.000000000000
      0.7868272350D+01 -0.1193324198D+00  0.6899906659D-01
      0.1881288540D+01 -0.1608541517D+00  0.3164239610D+00
      0.5442492580D+00  0.1143456438D+01  0.7443082909D+00
 SP   1 1.00       0.000000000000
      0.1687144782D+00  0.1000000000D+01  0.1000000000D+01
 D   1 1.00       0.000000000000
      0.8000000000D+00  0.1000000000D+01
 ****
      4 0
 S   6 1.00       0.000000000000
      0.3047524880D+04  0.1834737132D-02
      0.4573695180D+03  0.1403732281D-01
      0.1039486850D+03  0.6884262226D-01
      0.2921015530D+02  0.2321844432D+00
      0.9286662960D+01  0.4679413484D+00
      0.3163926960D+01  0.3623119853D+00
 SP   3 1.00       0.000000000000
      0.7868272350D+01 -0.1193324198D+00  0.6899906659D-01
      0.1881288540D+01 -0.1608541517D+00  0.3164239610D+00
      0.5442492580D+00  0.1143456438D+01  0.7443082909D+00
 SP   1 1.00       0.000000000000
      0.1687144782D+00  0.1000000000D+01  0.1000000000D+01
 D   1 1.00       0.000000000000
      0.8000000000D+00  0.1000000000D+01
 ****
      5 0
 S   6 1.00       0.000000000000
      0.3047524880D+04  0.1834737132D-02
      0.4573695180D+03  0.1403732281D-01
      0.1039486850D+03  0.6884262226D-01
      0.2921015530D+02  0.2321844432D+00
      0.9286662960D+01  0.4679413484D+00
      0.3163926960D+01  0.3623119853D+00
 SP   3 1.00       0.000000000000
      0.7868272350D+01 -0.1193324198D+00  0.6899906659D-01
      0.1881288540D+01 -0.1608541517D+00  0.3164239610D+00
      0.5442492580D+00  0.1143456438D+01  0.7443082909D+00
 SP   1 1.00       0.000000000000
      0.1687144782D+00  0.1000000000D+01  0.1000000000D+01
 D   1 1.00       0.000000000000
      0.8000000000D+00  0.1000000000D+01
 ****
      6 0
 S   6 1.00       0.000000000000
      0.3047524880D+04  0.1834737132D-02
      0.4573695180D+03  0.1403732281D-01
      0.1039486850D+03  0.6884262226D-01
      0.2921015530D+02  0.2321844432D+00
      0.9286662960D+01  0.4679413484D+00
      0.3163926960D+01  0.3623119853D+00
 SP   3 1.00       0.000000000000
      0.7868272350D+01 -0.1193324198D+00  0.6899906659D-01
      0.1881288540D+01 -0.1608541517D+00  0.3164239610D+00
      0.5442492580D+00  0.1143456438D+01  0.7443082909D+00
 SP   1 1.00       0.000000000000
      0.1687144782D+00  0.1000000000D+01  0.1000000000D+01
 D   1 1.00       0.000000000000
      0.8000000000D+00  0.1000000000D+01
 ****
      7 0
 S   6 1.00       0.000000000000
      0.4173511460D+04  0.1834772160D-02
      0.6274579110D+03  0.1399462700D-01
      0.1429020930D+03  0.6858655181D-01
      0.4023432930D+02  0.2322408730D+00
      0.1282021290D+02  0.4690699481D+00
      0.4390437010D+01  0.3604551991D+00
 SP   3 1.00       0.000000000000
      0.1162636186D+02 -0.1149611817D+00  0.6757974388D-01
      0.2716279807D+01 -0.1691174786D+00  0.3239072959D+00
      0.7722183966D+00  0.1145851947D+01  0.7408951398D+00
 SP   1 1.00       0.000000000000
      0.2120314975D+00  0.1000000000D+01  0.1000000000D+01
 D   1 1.00       0.000000000000
      0.8000000000D+00  0.1000000000D+01
 ****
      8 0
 S   6 1.00       0.000000000000
      0.3047524880D+04  0.1834737132D-02
      0.4573695180D+03  0.1403732281D-01
      0.1039486850D+03  0.6884262226D-01
      0.2921015530D+02  0.2321844432D+00
      0.9286662960D+01  0.4679413484D+00
      0.3163926960D+01  0.3623119853D+00
 SP   3 1.00       0.000000000000
      0.7868272350D+01 -0.1193324198D+00  0.6899906659D-01
      0.1881288540D+01 -0.1608541517D+00  0.3164239610D+00
      0.5442492580D+00  0.1143456438D+01  0.7443082909D+00
 SP   1 1.00       0.000000000000
      0.1687144782D+00  0.1000000000D+01  0.1000000000D+01
 D   1 1.00       0.000000000000
      0.8000000000D+00  0.1000000000D+01
 ****
      9 0
 S   6 1.00       0.000000000000
      0.3047524880D+04  0.1834737132D-02
      0.4573695180D+03  0.1403732281D-01
      0.1039486850D+03  0.6884262226D-01
      0.2921015530D+02  0.2321844432D+00
      0.9286662960D+01  0.4679413484D+00
      0.3163926960D+01  0.3623119853D+00
 SP   3 1.00       0.000000000000
      0.7868272350D+01 -0.1193324198D+00  0.6899906659D-01
      0.1881288540D+01 -0.1608541517D+00  0.3164239610D+00
      0.5442492580D+00  0.1143456438D+01  0.7443082909D+00
 SP   1 1.00       0.000000000000
      0.1687144782D+00  0.1000000000D+01  0.1000000000D+01
 D   1 1.00       0.000000000000
      0.8000000000D+00  0.1000000000D+01
 ****
     10 0
 S   6 1.00       0.000000000000
      0.3047524880D+04  0.1834737132D-02
      0.4573695180D+03  0.1403732281D-01
      0.1039486850D+03  0.6884262226D-01
      0.2921015530D+02  0.2321844432D+00
      0.9286662960D+01  0.4679413484D+00
      0.3163926960D+01  0.3623119853D+00
 SP   3 1.00       0.000000000000
      0.7868272350D+01 -0.1193324198D+00  0.6899906659D-01
      0.1881288540D+01 -0.1608541517D+00  0.3164239610D+00
      0.5442492580D+00  0.1143456438D+01  0.7443082909D+00
 SP   1 1.00       0.000000000000
      0.1687144782D+00  0.1000000000D+01  0.1000000000D+01
 D   1 1.00       0.000000000000
      0.8000000000D+00  0.1000000000D+01
 ****
     11 0
 S   6 1.00       0.000000000000
      0.4173511460D+04  0.1834772160D-02
      0.6274579110D+03  0.1399462700D-01
      0.1429020930D+03  0.6858655181D-01
      0.4023432930D+02  0.2322408730D+00
      0.1282021290D+02  0.4690699481D+00
      0.4390437010D+01  0.3604551991D+00
 SP   3 1.00       0.000000000000
      0.1162636186D+02 -0.1149611817D+00  0.6757974388D-01
      0.2716279807D+01 -0.1691174786D+00  0.3239072959D+00
      0.7722183966D+00  0.1145851947D+01  0.7408951398D+00
 SP   1 1.00       0.000000000000
      0.2120314975D+00  0.1000000000D+01  0.1000000000D+01
 D   1 1.00       0.000000000000
      0.8000000000D+00  0.1000000000D+01
 ****
     12 0
 S   6 1.00       0.000000000000
      0.3047524880D+04  0.1834737132D-02
      0.4573695180D+03  0.1403732281D-01
      0.1039486850D+03  0.6884262226D-01
      0.2921015530D+02  0.2321844432D+00
      0.9286662960D+01  0.4679413484D+00
      0.3163926960D+01  0.3623119853D+00
 SP   3 1.00       0.000000000000
      0.7868272350D+01 -0.1193324198D+00  0.6899906659D-01
      0.1881288540D+01 -0.1608541517D+00  0.3164239610D+00
      0.5442492580D+00  0.1143456438D+01  0.7443082909D+00
 SP   1 1.00       0.000000000000
      0.1687144782D+00  0.1000000000D+01  0.1000000000D+01
 D   1 1.00       0.000000000000
      0.8000000000D+00  0.1000000000D+01
 ****
     13 0
 S   6 1.00       0.000000000000
      0.3047524880D+04  0.1834737132D-02
      0.4573695180D+03  0.1403732281D-01
      0.1039486850D+03  0.6884262226D-01
      0.2921015530D+02  0.2321844432D+00
      0.9286662960D+01  0.4679413484D+00
      0.3163926960D+01  0.3623119853D+00
 SP   3 1.00       0.000000000000
      0.7868272350D+01 -0.1193324198D+00  0.6899906659D-01
      0.1881288540D+01 -0.1608541517D+00  0.3164239610D+00
      0.5442492580D+00  0.1143456438D+01  0.7443082909D+00
 SP   1 1.00       0.000000000000
      0.1687144782D+00  0.1000000000D+01  0.1000000000D+01
 D   1 1.00       0.000000000000
      0.8000000000D+00  0.1000000000D+01
 ****
     14 0
 S   6 1.00       0.000000000000
      0.3047524880D+04  0.1834737132D-02
      0.4573695180D+03  0.1403732281D-01
      0.1039486850D+03  0.6884262226D-01
      0.2921015530D+02  0.2321844432D+00
      0.9286662960D+01  0.4679413484D+00
      0.3163926960D+01  0.3623119853D+00
 SP   3 1.00       0.000000000000
      0.7868272350D+01 -0.1193324198D+00  0.6899906659D-01
      0.1881288540D+01 -0.1608541517D+00  0.3164239610D+00
      0.5442492580D+00  0.1143456438D+01  0.7443082909D+00
 SP   1 1.00       0.000000000000
      0.1687144782D+00  0.1000000000D+01  0.1000000000D+01
 D   1 1.00       0.000000000000
      0.8000000000D+00  0.1000000000D+01
 ****
     15 0
 S   6 1.00       0.000000000000
      0.3047524880D+04  0.1834737132D-02
      0.4573695180D+03  0.1403732281D-01
      0.1039486850D+03  0.6884262226D-01
      0.2921015530D+02  0.2321844432D+00
      0.9286662960D+01  0.4679413484D+00
      0.3163926960D+01  0.3623119853D+00
 SP   3 1.00       0.000000000000
      0.7868272350D+01 -0.1193324198D+00  0.6899906659D-01
      0.1881288540D+01 -0.1608541517D+00  0.3164239610D+00
      0.5442492580D+00  0.1143456438D+01  0.7443082909D+00
 SP   1 1.00       0.000000000000
      0.1687144782D+00  0.1000000000D+01  0.1000000000D+01
 D   1 1.00       0.000000000000
      0.8000000000D+00  0.1000000000D+01
 ****
     16 0
 S   6 1.00       0.000000000000
      0.5484671660D+04  0.1831074430D-02
      0.8252349460D+03  0.1395017220D-01
      0.1880469580D+03  0.6844507810D-01
      0.5296450000D+02  0.2327143360D+00
      0.1689757040D+02  0.4701928980D+00
      0.5799635340D+01  0.3585208530D+00
 SP   3 1.00       0.000000000000
      0.1553961625D+02 -0.1107775495D+00  0.7087426823D-01
      0.3599933586D+01 -0.1480262627D+00  0.3397528391D+00
      0.1013761750D+01  0.1130767015D+01  0.7271585773D+00
 SP   1 1.00       0.000000000000
      0.2700058226D+00  0.1000000000D+01  0.1000000000D+01
 D   1 1.00       0.000000000000
      0.8000000000D+00  0.1000000000D+01
 ****
     17 0
 S   6 1.00       0.000000000000
      0.3047524880D+04  0.1834737132D-02
      0.4573695180D+03  0.1403732281D-01
      0.1039486850D+03  0.6884262226D-01
      0.2921015530D+02  0.2321844432D+00
      0.9286662960D+01  0.4679413484D+00
      0.3163926960D+01  0.3623119853D+00
 SP   3 1.00       0.000000000000
      0.7868272350D+01 -0.1193324198D+00  0.6899906659D-01
      0.1881288540D+01 -0.1608541517D+00  0.3164239610D+00
      0.5442492580D+00  0.1143456438D+01  0.7443082909D+00
 SP   1 1.00       0.000000000000
      0.1687144782D+00  0.1000000000D+01  0.1000000000D+01
 D   1 1.00       0.000000000000
      0.8000000000D+00  0.1000000000D+01
 ****
     18 0
 S   6 1.00       0.000000000000
      0.3047524880D+04  0.1834737132D-02
      0.4573695180D+03  0.1403732281D-01
      0.1039486850D+03  0.6884262226D-01
      0.2921015530D+02  0.2321844432D+00
      0.9286662960D+01  0.4679413484D+00
      0.3163926960D+01  0.3623119853D+00
 SP   3 1.00       0.000000000000
      0.7868272350D+01 -0.1193324198D+00  0.6899906659D-01
      0.1881288540D+01 -0.1608541517D+00  0.3164239610D+00
      0.5442492580D+00  0.1143456438D+01  0.7443082909D+00
 SP   1 1.00       0.000000000000
      0.1687144782D+00  0.1000000000D+01  0.1000000000D+01
 D   1 1.00       0.000000000000
      0.8000000000D+00  0.1000000000D+01
 ****
     19 0
 S   6 1.00       0.000000000000
      0.3047524880D+04  0.1834737132D-02
      0.4573695180D+03  0.1403732281D-01
      0.1039486850D+03  0.6884262226D-01
      0.2921015530D+02  0.2321844432D+00
      0.9286662960D+01  0.4679413484D+00
      0.3163926960D+01  0.3623119853D+00
 SP   3 1.00       0.000000000000
      0.7868272350D+01 -0.1193324198D+00  0.6899906659D-01
      0.1881288540D+01 -0.1608541517D+00  0.3164239610D+00
      0.5442492580D+00  0.1143456438D+01  0.7443082909D+00
 SP   1 1.00       0.000000000000
      0.1687144782D+00  0.1000000000D+01  0.1000000000D+01
 D   1 1.00       0.000000000000
      0.8000000000D+00  0.1000000000D+01
 ****
     20 0
 S   6 1.00       0.000000000000
      0.3047524880D+04  0.1834737132D-02
      0.4573695180D+03  0.1403732281D-01
      0.1039486850D+03  0.6884262226D-01
      0.2921015530D+02  0.2321844432D+00
      0.9286662960D+01  0.4679413484D+00
      0.3163926960D+01  0.3623119853D+00
 SP   3 1.00       0.000000000000
      0.7868272350D+01 -0.1193324198D+00  0.6899906659D-01
      0.1881288540D+01 -0.1608541517D+00  0.3164239610D+00
      0.5442492580D+00  0.1143456438D+01  0.7443082909D+00
 SP   1 1.00       0.000000000000
      0.1687144782D+00  0.1000000000D+01  0.1000000000D+01
 D   1 1.00       0.000000000000
      0.8000000000D+00  0.1000000000D+01
 ****
     21 0
 S   6 1.00       0.000000000000
      0.3047524880D+04  0.1834737132D-02
      0.4573695180D+03  0.1403732281D-01
      0.1039486850D+03  0.6884262226D-01
      0.2921015530D+02  0.2321844432D+00
      0.9286662960D+01  0.4679413484D+00
      0.3163926960D+01  0.3623119853D+00
 SP   3 1.00       0.000000000000
      0.7868272350D+01 -0.1193324198D+00  0.6899906659D-01
      0.1881288540D+01 -0.1608541517D+00  0.3164239610D+00
      0.5442492580D+00  0.1143456438D+01  0.7443082909D+00
 SP   1 1.00       0.000000000000
      0.1687144782D+00  0.1000000000D+01  0.1000000000D+01
 D   1 1.00       0.000000000000
      0.8000000000D+00  0.1000000000D+01
 ****
     22 0
 S   6 1.00       0.000000000000
      0.3047524880D+04  0.1834737132D-02
      0.4573695180D+03  0.1403732281D-01
      0.1039486850D+03  0.6884262226D-01
      0.2921015530D+02  0.2321844432D+00
      0.9286662960D+01  0.4679413484D+00
      0.3163926960D+01  0.3623119853D+00
 SP   3 1.00       0.000000000000
      0.7868272350D+01 -0.1193324198D+00  0.6899906659D-01
      0.1881288540D+01 -0.1608541517D+00  0.3164239610D+00
      0.5442492580D+00  0.1143456438D+01  0.7443082909D+00
 SP   1 1.00       0.000000000000
      0.1687144782D+00  0.1000000000D+01  0.1000000000D+01
 D   1 1.00       0.000000000000
      0.8000000000D+00  0.1000000000D+01
 ****
     23 0
 S   6 1.00       0.000000000000
      0.2191710000D+05  0.1869240849D-02
      0.3301490000D+04  0.1423030646D-01
      0.7541460000D+03  0.6969623166D-01
      0.2127110000D+03  0.2384871083D+00
      0.6798960000D+02  0.4833072195D+00
      0.2305150000D+02  0.3380741536D+00
 SP   6 1.00       0.000000000000
      0.4237350000D+03 -0.2376770499D-02  0.4061009982D-02
      0.1007100000D+03 -0.3169300665D-01  0.3068129986D-01
      0.3215990000D+02 -0.1133170238D+00  0.1304519994D+00
      0.1180790000D+02  0.5609001177D-01  0.3272049985D+00
      0.4631100000D+01  0.5922551243D+00  0.4528509980D+00
      0.1870250000D+01  0.4550060955D+00  0.2560419989D+00
 SP   3 1.00       0.000000000000
      0.2615840000D+01 -0.2503731142D+00 -0.1451048955D-01
      0.9221670000D+00  0.6695676310D-01  0.3102627765D+00
      0.3412870000D+00  0.1054506269D+01  0.7544824565D+00
 SP   1 1.00       0.000000000000
      0.1171670000D+00  0.1000000000D+01  0.1000000000D+01
 D   1 1.00       0.000000000000
      0.6500000000D+00  0.1000000000D+01
 ****
     24 0
 S   6 1.00       0.000000000000
      0.5484671660D+04  0.1831074430D-02
      0.8252349460D+03  0.1395017220D-01
      0.1880469580D+03  0.6844507810D-01
      0.5296450000D+02  0.2327143360D+00
      0.1689757040D+02  0.4701928980D+00
      0.5799635340D+01  0.3585208530D+00
 SP   3 1.00       0.000000000000
      0.1553961625D+02 -0.1107775495D+00  0.7087426823D-01
      0.3599933586D+01 -0.1480262627D+00  0.3397528391D+00
      0.1013761750D+01  0.1130767015D+01  0.7271585773D+00
 SP   1 1.00       0.000000000000
      0.2700058226D+00  0.1000000000D+01  0.1000000000D+01
 D   1 1.00       0.000000000000
      0.8000000000D+00  0.1000000000D+01
 ****
     25 0
 S   3 1.00       0.000000000000
      0.1873113696D+02  0.3349460434D-01
      0.2825394365D+01  0.2347269535D+00
      0.6401216923D+00  0.8137573261D+00
 S   1 1.00       0.000000000000
      0.1612777588D+00  0.1000000000D+01
 ****
     26 0
 S   3 1.00       0.000000000000
      0.1873113696D+02  0.3349460434D-01
      0.2825394365D+01  0.2347269535D+00
      0.6401216923D+00  0.8137573261D+00
 S   1 1.00       0.000000000000
      0.1612777588D+00  0.1000000000D+01
 ****
     27 0
 S   3 1.00       0.000000000000
      0.1873113696D+02  0.3349460434D-01
      0.2825394365D+01  0.2347269535D+00
      0.6401216923D+00  0.8137573261D+00
 S   1 1.00       0.000000000000
      0.1612777588D+00  0.1000000000D+01
 ****
     28 0
 S   3 1.00       0.000000000000
      0.1873113696D+02  0.3349460434D-01
      0.2825394365D+01  0.2347269535D+00
      0.6401216923D+00  0.8137573261D+00
 S   1 1.00       0.000000000000
      0.1612777588D+00  0.1000000000D+01
 ****
     29 0
 S   3 1.00       0.000000000000
      0.1873113696D+02  0.3349460434D-01
      0.2825394365D+01  0.2347269535D+00
      0.6401216923D+00  0.8137573261D+00
 S   1 1.00       0.000000000000
      0.1612777588D+00  0.1000000000D+01
 ****
     30 0
 S   3 1.00       0.000000000000
      0.1873113696D+02  0.3349460434D-01
      0.2825394365D+01  0.2347269535D+00
      0.6401216923D+00  0.8137573261D+00
 S   1 1.00       0.000000000000
      0.1612777588D+00  0.1000000000D+01
 ****
     31 0
 S   3 1.00       0.000000000000
      0.1873113696D+02  0.3349460434D-01
      0.2825394365D+01  0.2347269535D+00
      0.6401216923D+00  0.8137573261D+00
 S   1 1.00       0.000000000000
      0.1612777588D+00  0.1000000000D+01
 ****
     32 0
 S   3 1.00       0.000000000000
      0.1873113696D+02  0.3349460434D-01
      0.2825394365D+01  0.2347269535D+00
      0.6401216923D+00  0.8137573261D+00
 S   1 1.00       0.000000000000
      0.1612777588D+00  0.1000000000D+01
 ****
     33 0
 S   3 1.00       0.000000000000
      0.1873113696D+02  0.3349460434D-01
      0.2825394365D+01  0.2347269535D+00
      0.6401216923D+00  0.8137573261D+00
 S   1 1.00       0.000000000000
      0.1612777588D+00  0.1000000000D+01
 ****
     34 0
 S   3 1.00       0.000000000000
      0.1873113696D+02  0.3349460434D-01
      0.2825394365D+01  0.2347269535D+00
      0.6401216923D+00  0.8137573261D+00
 S   1 1.00       0.000000000000
      0.1612777588D+00  0.1000000000D+01
 ****
     35 0
 S   3 1.00       0.000000000000
      0.1873113696D+02  0.3349460434D-01
      0.2825394365D+01  0.2347269535D+00
      0.6401216923D+00  0.8137573261D+00
 S   1 1.00       0.000000000000
      0.1612777588D+00  0.1000000000D+01
 ****
     36 0
 S   3 1.00       0.000000000000
      0.1873113696D+02  0.3349460434D-01
      0.2825394365D+01  0.2347269535D+00
      0.6401216923D+00  0.8137573261D+00
 S   1 1.00       0.000000000000
      0.1612777588D+00  0.1000000000D+01
 ****
     37 0
 S   3 1.00       0.000000000000
      0.1873113696D+02  0.3349460434D-01
      0.2825394365D+01  0.2347269535D+00
      0.6401216923D+00  0.8137573261D+00
 S   1 1.00       0.000000000000
      0.1612777588D+00  0.1000000000D+01
 ****
     38 0
 S   3 1.00       0.000000000000
      0.1873113696D+02  0.3349460434D-01
      0.2825394365D+01  0.2347269535D+00
      0.6401216923D+00  0.8137573261D+00
 S   1 1.00       0.000000000000
      0.1612777588D+00  0.1000000000D+01
 ****
     39 0
 S   3 1.00       0.000000000000
      0.1873113696D+02  0.3349460434D-01
      0.2825394365D+01  0.2347269535D+00
      0.6401216923D+00  0.8137573261D+00
 S   1 1.00       0.000000000000
      0.1612777588D+00  0.1000000000D+01
 ****
     40 0
 S   3 1.00       0.000000000000
      0.1873113696D+02  0.3349460434D-01
      0.2825394365D+01  0.2347269535D+00
      0.6401216923D+00  0.8137573261D+00
 S   1 1.00       0.000000000000
      0.1612777588D+00  0.1000000000D+01
 ****
     41 0
 S   3 1.00       0.000000000000
      0.1873113696D+02  0.3349460434D-01
      0.2825394365D+01  0.2347269535D+00
      0.6401216923D+00  0.8137573261D+00
 S   1 1.00       0.000000000000
      0.1612777588D+00  0.1000000000D+01
 ****
     42 0
 S   3 1.00       0.000000000000
      0.1873113696D+02  0.3349460434D-01
      0.2825394365D+01  0.2347269535D+00
      0.6401216923D+00  0.8137573261D+00
 S   1 1.00       0.000000000000
      0.1612777588D+00  0.1000000000D+01
 ****
     43 0
 S   3 1.00       0.000000000000
      0.1873113696D+02  0.3349460434D-01
      0.2825394365D+01  0.2347269535D+00
      0.6401216923D+00  0.8137573261D+00
 S   1 1.00       0.000000000000
      0.1612777588D+00  0.1000000000D+01
 ****
     44 0
 S   3 1.00       0.000000000000
      0.1873113696D+02  0.3349460434D-01
      0.2825394365D+01  0.2347269535D+00
      0.6401216923D+00  0.8137573261D+00
 S   1 1.00       0.000000000000
      0.1612777588D+00  0.1000000000D+01
 ****

   404 basis functions,   776 primitive gaussians,   404 cartesian basis functions
    90 alpha electrons       90 beta electrons
       nuclear repulsion energy      2116.1559506342 Hartrees.
 IExCor=  402 DFT=T Ex+Corr=B3LYP ExCW=0 ScaHFX=  0.200000
 ScaDFX=  0.800000  0.720000  1.000000  0.810000 ScalE2=  1.000000  1.000000
 IRadAn=      5 IRanWt=     -1 IRanGd=            0 ICorTp=0 IEmpDi=  4
 NAtoms=   44 NActive=   44 NUniq=   44 SFac= 1.00D+00 NAtFMM=   60 NAOKFM=F Big=F
 Integral buffers will be    131072 words long.
 Regular integral format.
 Two-electron integral symmetry is turned off.
 Leave Link  301 at Sat Nov  5 09:28:25 2022, MaxMem=   402653184 cpu:               0.5 elap:               0.2
 (Enter /home/wykgroup/appl/g16/l302.exe)
 NPDir=0 NMtPBC=     1 NCelOv=     1 NCel=       1 NClECP=     1 NCelD=      1
         NCelK=      1 NCelE2=     1 NClLst=     1 CellRange=     0.0.
 One-electron integrals computed using PRISM.
 NBasis=   404 RedAO= T EigKep=  3.79D-04  NBF=   404
 NBsUse=   404 1.00D-06 EigRej= -1.00D+00 NBFU=   404
 Precomputing XC quadrature grid using
 IXCGrd= 4 IRadAn=           5 IRanWt=          -1 IRanGd=           0 AccXCQ= 0.00D+00.
 Generated NRdTot=       0 NPtTot=           0 NUsed=           0 NTot=          32
 NSgBfM=   394   394   394   394   394 MxSgAt=    44 MxSgA2=    44.
 Leave Link  302 at Sat Nov  5 09:28:26 2022, MaxMem=   402653184 cpu:              13.4 elap:               1.6
 (Enter /home/wykgroup/appl/g16/l303.exe)
 DipDrv:  MaxL=1.
 Leave Link  303 at Sat Nov  5 09:28:27 2022, MaxMem=   402653184 cpu:               3.1 elap:               0.3
 (Enter /home/wykgroup/appl/g16/l308.exe)
 Leave Link  308 at Sat Nov  5 09:28:27 2022, MaxMem=   402653184 cpu:               0.9 elap:               0.2
 (Enter /home/wykgroup/appl/g16/l401.exe)
 ExpMin= 1.17D-01 ExpMax= 2.19D+04 ExpMxC= 3.30D+03 IAcc=3 IRadAn=         5 AccDes= 0.00D+00
 Harris functional with IExCor=  402 and IRadAn=       5 diagonalized for initial guess.
 HarFok:  IExCor=  402 AccDes= 0.00D+00 IRadAn=         5 IDoV= 1 UseB2=F ITyADJ=14
 ICtDFT=  3500011 ScaDFX=  1.000000  1.000000  1.000000  1.000000
 FoFCou: FMM=F IPFlag=           0 FMFlag=      100000 FMFlg1=           0
         NFxFlg=           0 DoJE=T BraDBF=F KetDBF=T FulRan=T
         wScrn=  0.000000 ICntrl=       500 IOpCl=  0 I1Cent=   200000004 NGrid=           0
         NMat0=    1 NMatS0=      1 NMatT0=    0 NMatD0=    1 NMtDS0=    0 NMtDT0=    0
 Symmetry not used in FoFCou.
 Harris En= -1394.11766819390    
 JPrj=0 DoOrth=F DoCkMO=F.
 Leave Link  401 at Sat Nov  5 09:28:31 2022, MaxMem=   402653184 cpu:              30.2 elap:               4.1
 (Enter /home/wykgroup/appl/g16/l502.exe)
 Two-electron integral symmetry not used.
 Closed shell SCF:
 Using DIIS extrapolation, IDIIS=  1040.
 NGot=   402653184 LenX=   402317546 LenY=   402153889
 Requested convergence on RMS density matrix=1.00D-08 within  32 cycles.
 Requested convergence on MAX density matrix=1.00D-06.
 Requested convergence on             energy=1.00D-06.
 No special actions if energy rises.
 Fock matrices will be formed incrementally for  20 cycles.
 Integral accuracy reduced to 1.0D-05 until final iterations.

 Cycle   1  Pass 0  IDiag  1:
 FoFJK:  IHMeth= 1 ICntrl=       0 DoSepK=F KAlg= 0 I1Cent=           0 FoldK=F
 IRaf= 680000000 NMat=       1 IRICut=       1 DoRegI=T DoRafI=F ISym2E= 0 IDoP0=0 IntGTp=1.
 FoFCou: FMM=F IPFlag=           0 FMFlag=      100000 FMFlg1=           0
         NFxFlg=           0 DoJE=F BraDBF=F KetDBF=F FulRan=T
         wScrn=  0.000000 ICntrl=         0 IOpCl=  0 I1Cent=           0 NGrid=           0
         NMat0=    1 NMatS0=      1 NMatT0=    0 NMatD0=    1 NMtDS0=    0 NMtDT0=    0
 Symmetry not used in FoFCou.
 E= -1393.56920488538    
 DIIS: error= 2.35D-02 at cycle   1 NSaved=   1.
 NSaved= 1 IEnMin= 1 EnMin= -1393.56920488538     IErMin= 1 ErrMin= 2.35D-02
 ErrMax= 2.35D-02  0.00D+00 EMaxC= 1.00D-01 BMatC= 5.74D-01 BMatP= 5.74D-01
 IDIUse=3 WtCom= 7.65D-01 WtEn= 2.35D-01
 Coeff-Com:  0.100D+01
 Coeff-En:   0.100D+01
 Coeff:      0.100D+01
 Gap=     0.249 Goal=   None    Shift=    0.000
 GapD=    0.249 DampG=1.000 DampE=0.500 DampFc=0.5000 IDamp=-1.
 Damping current iteration by 5.00D-01
 RMSDP=5.02D-03 MaxDP=2.35D-01              OVMax= 3.29D-01

 Cycle   2  Pass 0  IDiag  1:
 RMSU=  2.48D-03    CP:  9.80D-01
 E= -1393.77323308297     Delta-E=       -0.204028197582 Rises=F Damp=T
 DIIS: error= 7.98D-03 at cycle   2 NSaved=   2.
 NSaved= 2 IEnMin= 2 EnMin= -1393.77323308297     IErMin= 2 ErrMin= 7.98D-03
 ErrMax= 7.98D-03  0.00D+00 EMaxC= 1.00D-01 BMatC= 6.81D-02 BMatP= 5.74D-01
 IDIUse=3 WtCom= 9.20D-01 WtEn= 7.98D-02
 Coeff-Com:  0.149D+00 0.851D+00
 Coeff-En:   0.269D+00 0.731D+00
 Coeff:      0.158D+00 0.842D+00
 Gap=     0.199 Goal=   None    Shift=    0.000
 RMSDP=1.77D-03 MaxDP=1.00D-01 DE=-2.04D-01 OVMax= 2.62D-01

 Cycle   3  Pass 0  IDiag  1:
 RMSU=  1.56D-03    CP:  9.71D-01  6.64D-01
 E= -1394.07640953746     Delta-E=       -0.303176454490 Rises=F Damp=F
 DIIS: error= 1.18D-02 at cycle   3 NSaved=   3.
 NSaved= 3 IEnMin= 3 EnMin= -1394.07640953746     IErMin= 2 ErrMin= 7.98D-03
 ErrMax= 1.18D-02  0.00D+00 EMaxC= 1.00D-01 BMatC= 8.76D-02 BMatP= 6.81D-02
 IDIUse=2 WtCom= 0.00D+00 WtEn= 1.00D+00
 Coeff-En:   0.000D+00 0.000D+00 0.100D+01
 Coeff:      0.000D+00 0.000D+00 0.100D+01
 Gap=     0.164 Goal=   None    Shift=    0.000
 RMSDP=3.01D-03 MaxDP=1.55D-01 DE=-3.03D-01 OVMax= 3.15D-01

 Cycle   4  Pass 0  IDiag  1:
 RMSU=  1.53D-03    CP:  9.73D-01  1.25D+00 -3.82D-01
 E= -1393.58002311802     Delta-E=        0.496386419437 Rises=F Damp=F
 DIIS: error= 2.95D-02 at cycle   4 NSaved=   4.
 NSaved= 4 IEnMin= 3 EnMin= -1394.07640953746     IErMin= 2 ErrMin= 7.98D-03
 ErrMax= 2.95D-02  0.00D+00 EMaxC= 1.00D-01 BMatC= 5.66D-01 BMatP= 6.81D-02
 IDIUse=2 WtCom= 0.00D+00 WtEn= 1.00D+00
 Coeff-En:   0.000D+00 0.000D+00 0.813D+00 0.187D+00
 Coeff:      0.000D+00 0.000D+00 0.813D+00 0.187D+00
 Gap=     0.171 Goal=   None    Shift=    0.000
 RMSDP=1.78D-03 MaxDP=8.58D-02 DE= 4.96D-01 OVMax= 2.16D-01

 Cycle   5  Pass 0  IDiag  1:
 RMSU=  5.02D-04    CP:  9.74D-01  8.76D-01  3.51D-01  4.39D-01
 E= -1394.12009406644     Delta-E=       -0.540070948425 Rises=F Damp=F
 DIIS: error= 8.22D-03 at cycle   5 NSaved=   5.
 NSaved= 5 IEnMin= 5 EnMin= -1394.12009406644     IErMin= 2 ErrMin= 7.98D-03
 ErrMax= 8.22D-03  0.00D+00 EMaxC= 1.00D-01 BMatC= 4.63D-02 BMatP= 6.81D-02
 IDIUse=3 WtCom= 9.18D-01 WtEn= 8.22D-02
 Coeff-Com:  0.474D-02 0.123D-01 0.355D+00-0.630D-01 0.691D+00
 Coeff-En:   0.000D+00 0.000D+00 0.379D+00 0.000D+00 0.621D+00
 Coeff:      0.435D-02 0.113D-01 0.357D+00-0.578D-01 0.685D+00
 Gap=     0.141 Goal=   None    Shift=    0.000
 RMSDP=5.89D-04 MaxDP=3.10D-02 DE=-5.40D-01 OVMax= 4.77D-02

 Cycle   6  Pass 0  IDiag  1:
 RMSU=  1.47D-04    CP:  9.73D-01  7.81D-01  6.12D-01  2.49D-01  7.19D-01
 E= -1394.16607416558     Delta-E=       -0.045980099132 Rises=F Damp=F
 DIIS: error= 1.61D-03 at cycle   6 NSaved=   6.
 NSaved= 6 IEnMin= 6 EnMin= -1394.16607416558     IErMin= 6 ErrMin= 1.61D-03
 ErrMax= 1.61D-03  0.00D+00 EMaxC= 1.00D-01 BMatC= 9.33D-04 BMatP= 4.63D-02
 IDIUse=3 WtCom= 9.84D-01 WtEn= 1.61D-02
 Coeff-Com:  0.110D-02 0.961D-02 0.193D+00-0.585D-01 0.449D+00 0.406D+00
 Coeff-En:   0.000D+00 0.000D+00 0.000D+00 0.000D+00 0.000D+00 0.100D+01
 Coeff:      0.108D-02 0.946D-02 0.190D+00-0.575D-01 0.441D+00 0.416D+00
 Gap=     0.140 Goal=   None    Shift=    0.000
 RMSDP=9.40D-05 MaxDP=3.99D-03 DE=-4.60D-02 OVMax= 9.26D-03

 Cycle   7  Pass 0  IDiag  1:
 RMSU=  4.02D-05    CP:  9.73D-01  7.78D-01  6.17D-01  2.48D-01  7.65D-01
                    CP:  4.47D-01
 E= -1394.16697313073     Delta-E=       -0.000898965158 Rises=F Damp=F
 DIIS: error= 2.62D-04 at cycle   7 NSaved=   7.
 NSaved= 7 IEnMin= 7 EnMin= -1394.16697313073     IErMin= 7 ErrMin= 2.62D-04
 ErrMax= 2.62D-04  0.00D+00 EMaxC= 1.00D-01 BMatC= 5.08D-05 BMatP= 9.33D-04
 IDIUse=3 WtCom= 9.97D-01 WtEn= 2.62D-03
 Coeff-Com:  0.879D-03-0.883D-04 0.525D-01-0.168D-01 0.113D+00 0.182D+00
 Coeff-Com:  0.668D+00
 Coeff-En:   0.000D+00 0.000D+00 0.000D+00 0.000D+00 0.000D+00 0.000D+00
 Coeff-En:   0.100D+01
 Coeff:      0.877D-03-0.881D-04 0.524D-01-0.168D-01 0.113D+00 0.182D+00
 Coeff:      0.669D+00
 Gap=     0.140 Goal=   None    Shift=    0.000
 RMSDP=2.30D-05 MaxDP=8.31D-04 DE=-8.99D-04 OVMax= 2.46D-03

 Cycle   8  Pass 0  IDiag  1:
 RMSU=  1.51D-05    CP:  9.73D-01  7.75D-01  6.22D-01  2.45D-01  7.60D-01
                    CP:  4.97D-01  7.46D-01
 E= -1394.16701600284     Delta-E=       -0.000042872108 Rises=F Damp=F
 DIIS: error= 1.01D-04 at cycle   8 NSaved=   8.
 NSaved= 8 IEnMin= 8 EnMin= -1394.16701600284     IErMin= 8 ErrMin= 1.01D-04
 ErrMax= 1.01D-04  0.00D+00 EMaxC= 1.00D-01 BMatC= 9.45D-06 BMatP= 5.08D-05
 IDIUse=3 WtCom= 9.99D-01 WtEn= 1.01D-03
 Coeff-Com:  0.647D-03-0.209D-02 0.980D-02-0.236D-02 0.124D-01 0.567D-01
 Coeff-Com:  0.401D+00 0.524D+00
 Coeff-En:   0.000D+00 0.000D+00 0.000D+00 0.000D+00 0.000D+00 0.000D+00
 Coeff-En:   0.465D-01 0.953D+00
 Coeff:      0.646D-03-0.209D-02 0.979D-02-0.236D-02 0.124D-01 0.567D-01
 Coeff:      0.401D+00 0.524D+00
 Gap=     0.140 Goal=   None    Shift=    0.000
 RMSDP=9.01D-06 MaxDP=4.68D-04 DE=-4.29D-05 OVMax= 8.45D-04

 Initial convergence to 1.0D-05 achieved.  Increase integral accuracy.
 Cycle   9  Pass 1  IDiag  1:
 E= -1394.16703318319     Delta-E=       -0.000017180347 Rises=F Damp=F
 DIIS: error= 5.19D-05 at cycle   1 NSaved=   1.
 NSaved= 1 IEnMin= 1 EnMin= -1394.16703318319     IErMin= 1 ErrMin= 5.19D-05
 ErrMax= 5.19D-05  0.00D+00 EMaxC= 1.00D-01 BMatC= 8.91D-07 BMatP= 8.91D-07
 IDIUse=1 WtCom= 1.00D+00 WtEn= 0.00D+00
 Coeff-Com:  0.100D+01
 Coeff:      0.100D+01
 Gap=     0.140 Goal=   None    Shift=    0.000
 RMSDP=9.01D-06 MaxDP=4.68D-04 DE=-1.72D-05 OVMax= 5.36D-04

 Cycle  10  Pass 1  IDiag  1:
 RMSU=  2.40D-05    CP:  1.00D+00
 E= -1394.16703287568     Delta-E=        0.000000307507 Rises=F Damp=F
 DIIS: error= 3.73D-05 at cycle   2 NSaved=   2.
 NSaved= 2 IEnMin= 1 EnMin= -1394.16703318319     IErMin= 2 ErrMin= 3.73D-05
 ErrMax= 3.73D-05  0.00D+00 EMaxC= 1.00D-01 BMatC= 1.11D-06 BMatP= 8.91D-07
 IDIUse=1 WtCom= 1.00D+00 WtEn= 0.00D+00
 Coeff-Com:  0.536D+00 0.464D+00
 Coeff:      0.536D+00 0.464D+00
 Gap=     0.140 Goal=   None    Shift=    0.000
 RMSDP=4.44D-06 MaxDP=1.46D-04 DE= 3.08D-07 OVMax= 5.74D-04

 Cycle  11  Pass 1  IDiag  1:
 RMSU=  4.40D-06    CP:  1.00D+00  9.74D-01
 E= -1394.16703377167     Delta-E=       -0.000000895988 Rises=F Damp=F
 DIIS: error= 1.73D-05 at cycle   3 NSaved=   3.
 NSaved= 3 IEnMin= 3 EnMin= -1394.16703377167     IErMin= 3 ErrMin= 1.73D-05
 ErrMax= 1.73D-05  0.00D+00 EMaxC= 1.00D-01 BMatC= 2.55D-07 BMatP= 8.91D-07
 IDIUse=1 WtCom= 1.00D+00 WtEn= 0.00D+00
 Coeff-Com:  0.499D-01 0.319D+00 0.631D+00
 Coeff:      0.499D-01 0.319D+00 0.631D+00
 Gap=     0.140 Goal=   None    Shift=    0.000
 RMSDP=1.83D-06 MaxDP=6.77D-05 DE=-8.96D-07 OVMax= 2.13D-04

 Cycle  12  Pass 1  IDiag  1:
 RMSU=  8.22D-07    CP:  1.00D+00  9.91D-01  6.39D-01
 E= -1394.16703402524     Delta-E=       -0.000000253573 Rises=F Damp=F
 DIIS: error= 4.68D-06 at cycle   4 NSaved=   4.
 NSaved= 4 IEnMin= 4 EnMin= -1394.16703402524     IErMin= 4 ErrMin= 4.68D-06
 ErrMax= 4.68D-06  0.00D+00 EMaxC= 1.00D-01 BMatC= 3.28D-08 BMatP= 2.55D-07
 IDIUse=1 WtCom= 1.00D+00 WtEn= 0.00D+00
 Coeff-Com:  0.238D-02 0.183D+00 0.415D+00 0.400D+00
 Coeff:      0.238D-02 0.183D+00 0.415D+00 0.400D+00
 Gap=     0.140 Goal=   None    Shift=    0.000
 RMSDP=4.96D-07 MaxDP=2.45D-05 DE=-2.54D-07 OVMax= 5.28D-05

 Cycle  13  Pass 1  IDiag  1:
 RMSU=  1.79D-07    CP:  1.00D+00  9.91D-01  6.73D-01  4.68D-01
 E= -1394.16703405546     Delta-E=       -0.000000030223 Rises=F Damp=F
 DIIS: error= 8.29D-07 at cycle   5 NSaved=   5.
 NSaved= 5 IEnMin= 5 EnMin= -1394.16703405546     IErMin= 5 ErrMin= 8.29D-07
 ErrMax= 8.29D-07  0.00D+00 EMaxC= 1.00D-01 BMatC= 9.71D-10 BMatP= 3.28D-08
 IDIUse=1 WtCom= 1.00D+00 WtEn= 0.00D+00
 Coeff-Com: -0.155D-02 0.883D-01 0.207D+00 0.225D+00 0.481D+00
 Coeff:     -0.155D-02 0.883D-01 0.207D+00 0.225D+00 0.481D+00
 Gap=     0.140 Goal=   None    Shift=    0.000
 RMSDP=1.08D-07 MaxDP=6.15D-06 DE=-3.02D-08 OVMax= 1.04D-05

 Cycle  14  Pass 1  IDiag  1:
 RMSU=  7.00D-08    CP:  1.00D+00  9.91D-01  6.75D-01  4.93D-01  5.60D-01
 E= -1394.16703405633     Delta-E=       -0.000000000865 Rises=F Damp=F
 DIIS: error= 4.51D-07 at cycle   6 NSaved=   6.
 NSaved= 6 IEnMin= 6 EnMin= -1394.16703405633     IErMin= 6 ErrMin= 4.51D-07
 ErrMax= 4.51D-07  0.00D+00 EMaxC= 1.00D-01 BMatC= 1.31D-10 BMatP= 9.71D-10
 IDIUse=1 WtCom= 1.00D+00 WtEn= 0.00D+00
 Coeff-Com: -0.113D-02 0.383D-01 0.917D-01 0.104D+00 0.317D+00 0.450D+00
 Coeff:     -0.113D-02 0.383D-01 0.917D-01 0.104D+00 0.317D+00 0.450D+00
 Gap=     0.140 Goal=   None    Shift=    0.000
 RMSDP=3.82D-08 MaxDP=1.49D-06 DE=-8.65D-10 OVMax= 3.11D-06

 Cycle  15  Pass 1  IDiag  1:
 RMSU=  1.93D-08    CP:  1.00D+00  9.92D-01  6.75D-01  4.78D-01  6.03D-01
                    CP:  5.76D-01
 E= -1394.16703405645     Delta-E=       -0.000000000121 Rises=F Damp=F
 DIIS: error= 6.29D-08 at cycle   7 NSaved=   7.
 NSaved= 7 IEnMin= 7 EnMin= -1394.16703405645     IErMin= 7 ErrMin= 6.29D-08
 ErrMax= 6.29D-08  0.00D+00 EMaxC= 1.00D-01 BMatC= 3.57D-12 BMatP= 1.31D-10
 IDIUse=1 WtCom= 1.00D+00 WtEn= 0.00D+00
 Coeff-Com: -0.501D-03 0.151D-01 0.360D-01 0.413D-01 0.137D+00 0.224D+00
 Coeff-Com:  0.547D+00
 Coeff:     -0.501D-03 0.151D-01 0.360D-01 0.413D-01 0.137D+00 0.224D+00
 Coeff:      0.547D+00
 Gap=     0.140 Goal=   None    Shift=    0.000
 RMSDP=6.18D-09 MaxDP=2.60D-07 DE=-1.21D-10 OVMax= 6.44D-07

 SCF Done:  E(RB3LYP) =  -1394.16703406     A.U. after   15 cycles
            NFock= 15  Conv=0.62D-08     -V/T= 2.0077
 KE= 1.383469582433D+03 PE=-7.492209978627D+03 EE= 2.598417411503D+03
 Leave Link  502 at Sat Nov  5 09:29:51 2022, MaxMem=   402653184 cpu:             638.7 elap:              80.0
 (Enter /home/wykgroup/appl/g16/l508.exe)
 QCSCF skips out because SCF is already converged.
 Leave Link  508 at Sat Nov  5 09:29:51 2022, MaxMem=   402653184 cpu:               0.3 elap:               0.1
 (Enter /home/wykgroup/appl/g16/l801.exe)
 DoSCS=F DFT=T ScalE2(SS,OS)=  1.000000  1.000000
 ExpMin= 1.17D-01 ExpMax= 2.19D+04 ExpMxC= 3.30D+03 IAcc=3 IRadAn=         5 AccDes= 0.00D+00
 HarFok:  IExCor=  205 AccDes= 0.00D+00 IRadAn=         5 IDoV=-2 UseB2=F ITyADJ=14
 ICtDFT= 12500011 ScaDFX=  1.000000  1.000000  1.000000  1.000000
 GSVD:  LWork=       -1008 too small for GESVD, short by        4340 words or        4340 for optimal perf.
 Largest valence mixing into a core orbital is  1.07D-04
 Largest core mixing into a valence orbital is  2.13D-05
 Range of M.O.s used for correlation:    29   404
 NBasis=   404 NAE=    90 NBE=    90 NFC=    28 NFV=     0
 NROrb=    376 NOA=    62 NOB=    62 NVA=   314 NVB=   314
 Leave Link  801 at Sat Nov  5 09:29:52 2022, MaxMem=   402653184 cpu:               2.6 elap:               0.5
 (Enter /home/wykgroup/appl/g16/l914.exe)
 RHF ground state
 Two-electron integral symmetry not used.
 MDV=   402653184 DFT=T DoStab=F Mixed=T DoRPA=T DoScal=F NonHer=T
 Making orbital integer symmetry assigments:
    16 initial guesses have been made.
 Convergence on wavefunction:    0.001000000000000
 Davidson Disk Diagonalization:  ConvIn= 1.00D-03 SkipCon=T Conv= 1.00D-03.
 Max sub-space:  2000 roots to seek:    16 dimension of matrix:        38936
 Iteration     1 Dimension    16 NMult     0 NNew     16
 CISAX will form    16 AO SS matrices at one time.
 NMat=    16 NSing=     8 JSym2X= 0.
 FoFJK:  IHMeth= 1 ICntrl=       0 DoSepK=F KAlg= 0 I1Cent=           0 FoldK=F
 IRaf= 680000000 NMat=      32 IRICut=       1 DoRegI=T DoRafI=F ISym2E= 0 IDoP0=0 IntGTp=1.
 FoFCou: FMM=F IPFlag=           0 FMFlag=      100000 FMFlg1=           0
         NFxFlg=           0 DoJE=F BraDBF=F KetDBF=F FulRan=T
         wScrn=  0.000000 ICntrl=         0 IOpCl=  0 I1Cent=           0 NGrid=           0
         NMat0=   32 NMatS0=      8 NMatT0=    8 NMatD0=   32 NMtDS0=    0 NMtDT0=    0
 Symmetry not used in FoFCou.
 New state      1 was old state      4
 New state      3 was old state      1
 New state      4 was old state      6
 New state      5 was old state     10
 New state      6 was old state      3
 New state      7 was old state      5
 Excitation Energies [eV] at current iteration:
 Root      1 :     2.756104747313968
 Root      2 :     3.248517326351776
 Root      3 :     3.287682088983583
 Root      4 :     3.764722786692537
 Root      5 :     3.930744743522775
 Root      6 :     4.566935922215407
 Root      7 :     4.750058304400073
 Root      8 :     4.822980128134580
 Root      9 :     4.847148699081790
 Root     10 :     4.888585746468572
 Root     11 :     4.979421676670754
 Root     12 :     5.015062238888858
 Root     13 :     5.241189750346384
 Root     14 :     5.384104261006279
 Root     15 :     5.433205659612826
 Root     16 :     6.002771493516472
 Vector   4 SDiff=1.06D+01 TDiff=2.02D+01 assumed to be singlet.
 Vector   8 SDiff=1.02D+01 TDiff=9.39D+00 assumed to be triplet.
 Iteration     2 Dimension    24 NMult    16 NNew      8
 CISAX will form     8 AO SS matrices at one time.
 NMat=     8 NSing=     3 JSym2X= 0.
 Root      1 not converged, maximum delta is    0.147132877639139
 Root      2 not converged, maximum delta is    0.055347471634512
 Root      3 not converged, maximum delta is    0.038631823827508
 New state      4 was old state      6
 Root      4 not converged, maximum delta is    0.098024589987849
 Excitation Energies [eV] at current iteration:
 Root      1 :     2.434016895082697   Change is   -0.322087852231271
 Root      2 :     3.208800900186222   Change is   -0.039716426165553
 Root      3 :     3.254885306873639   Change is   -0.032796782109944
 Root      4 :     4.029193919180100   Change is   -0.537742003035307
 Iteration     3 Dimension    32 NMult    24 NNew      8
 CISAX will form     8 AO SS matrices at one time.
 NMat=     8 NSing=     4 JSym2X= 0.
 Root      1 not converged, maximum delta is    0.017242111156487
 Root      2 not converged, maximum delta is    0.015064649082230
 Root      3 not converged, maximum delta is    0.004298508708370
 Root      4 not converged, maximum delta is    0.019701295283211
 Excitation Energies [eV] at current iteration:
 Root      1 :     2.414978838043777   Change is   -0.019038057038920
 Root      2 :     3.205081964373724   Change is   -0.003718935812499
 Root      3 :     3.251506090597807   Change is   -0.003379216275833
 Root      4 :     3.984956438955714   Change is   -0.044237480224386
 Iteration     4 Dimension    40 NMult    32 NNew      8
 CISAX will form     8 AO SS matrices at one time.
 NMat=     8 NSing=     4 JSym2X= 0.
 Root      1 not converged, maximum delta is    0.003236061402852
 Root      2 not converged, maximum delta is    0.013941703321883
 Root      3 not converged, maximum delta is    0.001861142017855
 Root      4 not converged, maximum delta is    0.020823060386452
 Excitation Energies [eV] at current iteration:
 Root      1 :     2.414311168798794   Change is   -0.000667669244983
 Root      2 :     3.203674255932607   Change is   -0.001407708441117
 Root      3 :     3.250883945273816   Change is   -0.000622145323991
 Root      4 :     3.975422629554502   Change is   -0.009533809401212
 Iteration     5 Dimension    48 NMult    40 NNew      8
 CISAX will form     8 AO SS matrices at one time.
 NMat=     8 NSing=     4 JSym2X= 0.
 Root      1 has converged.
 Root      2 not converged, maximum delta is    0.007799569774485
 Root      3 has converged.
 Root      4 not converged, maximum delta is    0.008552851247943
 Excitation Energies [eV] at current iteration:
 Root      1 :     2.414282799076884   Change is   -0.000028369721910
 Root      2 :     3.203325952242760   Change is   -0.000348303689846
 Root      3 :     3.250809575038769   Change is   -0.000074370235047
 Root      4 :     3.973323655368433   Change is   -0.002098974186070
 Iteration     6 Dimension    52 NMult    48 NNew      4
 CISAX will form     4 AO SS matrices at one time.
 NMat=     4 NSing=     2 JSym2X= 0.
 Root      1 has converged.
 Root      2 not converged, maximum delta is    0.002687038970354
 Root      3 has converged.
 Root      4 not converged, maximum delta is    0.001083538962322
 Excitation Energies [eV] at current iteration:
 Root      1 :     2.414282770089496   Change is   -0.000000028987388
 Root      2 :     3.203257206775378   Change is   -0.000068745467382
 Root      3 :     3.250808400333537   Change is   -0.000001174705232
 Root      4 :     3.973073517376935   Change is   -0.000250137991498
 Iteration     7 Dimension    56 NMult    52 NNew      4
 CISAX will form     4 AO SS matrices at one time.
 NMat=     4 NSing=     2 JSym2X= 0.
 Root      1 has converged.
 Root      2 not converged, maximum delta is    0.001379984204434
 Root      3 has converged.
 Root      4 has converged.
 Excitation Energies [eV] at current iteration:
 Root      1 :     2.414282566078588   Change is   -0.000000204010909
 Root      2 :     3.203242978210588   Change is   -0.000014228564791
 Root      3 :     3.250807890180103   Change is   -0.000000510153433
 Root      4 :     3.973026609303779   Change is   -0.000046908073156
 Iteration     8 Dimension    58 NMult    56 NNew      2
 CISAX will form     2 AO SS matrices at one time.
 NMat=     2 NSing=     0 JSym2X= 0.
 Root      1 has converged.
 Root      2 has converged.
 Root      3 has converged.
 Root      4 has converged.
 Excitation Energies [eV] at current iteration:
 Root      1 :     2.414282367296830   Change is   -0.000000198781757
 Root      2 :     3.203237446776248   Change is   -0.000005531434340
 Root      3 :     3.250807890180230   Change is    0.000000000000127
 Root      4 :     3.973026609303924   Change is    0.000000000000145
 Convergence achieved on expansion vectors.
 ***********************************************************************
 Excited states from <AA,BB:AA,BB> singles matrix:
 ***********************************************************************
 
 1PDM for each excited state written to RWF  633
 Ground to excited state transition densities written to RWF  633
 Ground to excited state transition electric dipole moments (Au):
       state          X           Y           Z        Dip. S.      Osc.
         1        -0.0000      0.0000     -0.0000      0.0000      0.0000
         2         0.0000      0.0000     -0.0000      0.0000      0.0000
         3        -0.6637      0.0410      0.0169      0.4425      0.0352
         4        -2.6125      0.2531     -0.5650      7.2084      0.7017
 Ground to excited state transition velocity dipole moments (Au):
       state          X           Y           Z        Dip. S.      Osc.
         1         0.0000     -0.0000      0.0000      0.0000      0.0000
         2        -0.0000     -0.0000      0.0000      0.0000      0.0000
         3         0.0793     -0.0102     -0.0024      0.0064      0.0357
         4         0.3736     -0.0393      0.0845      0.1482      0.6769
 Ground to excited state transition magnetic dipole moments (Au):
       state          X           Y           Z
         1        -0.0000     -0.0000      0.0000
         2        -0.0000     -0.0000     -0.0000
         3         0.0175     -0.3591     -0.0363
         4        -0.0098     -1.3528     -0.5159
 Ground to excited state transition velocity quadrupole moments (Au):
       state          XX          YY          ZZ          XY          XZ          YZ
         1         0.0000      0.0000     -0.0000      0.0000      0.0000      0.0000
         2        -0.0000     -0.0000     -0.0000     -0.0000      0.0000     -0.0000
         3         0.3395     -0.0664      0.0095     -0.1164      0.0740      0.0233
         4         3.9517     -0.0778     -0.1876     -0.5988      0.5833     -0.0354
 <0|del|b> * <b|rxdel|0> + <0|del|b> * <b|delr+rdel|0>
 Rotatory Strengths (R) in cgs (10**-40 erg-esu-cm/Gauss)
       state          XX          YY          ZZ    R(velocity)    E-M Angle
         1         0.0000      0.0000     -0.0000      0.0000       90.00
         2         0.0000      0.0000     -0.0000      0.0000       90.00
         3        14.0969      9.0045      7.2247     10.1087       79.79
         4       -43.8537    -23.9573     96.4271      9.5387       89.39
 1/2[<0|r|b>*<b|rxdel|0> + (<0|rxdel|b>*<b|r|0>)*]
 Rotatory Strengths (R) in cgs (10**-40 erg-esu-cm/Gauss)
       state          XX          YY          ZZ     R(length)
         1        -0.0000      0.0000      0.0000      0.0000
         2         0.0000      0.0000     -0.0000      0.0000
         3         8.2254     10.3993      0.4328      6.3525
         4       -18.0849    242.1653   -206.1151      5.9884
  1/2[<0|del|b>*<b|r|0> + (<0|r|b>*<b|del|0>)*] (Au)
       state          X           Y           Z        Dip. S.   Osc.(frdel)
         1        -0.0000     -0.0000     -0.0000      0.0000      0.0000
         2        -0.0000     -0.0000     -0.0000      0.0000      0.0000
         3        -0.0526     -0.0004     -0.0000      0.0531      0.0354
         4        -0.9760     -0.0099     -0.0477      1.0337      0.6891

 Excitation energies and oscillator strengths:
 
 Excited state symmetry could not be determined.
 Excited State   1:      Triplet-?Sym    2.4143 eV  513.54 nm  f=0.0000  <S**2>=2.000
      86 -> 95         0.10365
      89 -> 91         0.65777
      90 -> 91         0.21692
 This state for optimization and/or second-order correction.
 Total Energy, E(TD-HF/TD-DFT) =  -1394.07831081    
 Copying the excited state density for this state as the 1-particle RhoCI density.
 
 Excited state symmetry could not be determined.
 Excited State   2:      Triplet-?Sym    3.2032 eV  387.06 nm  f=0.0000  <S**2>=2.000
      89 -> 91        -0.21528
      90 -> 91         0.65573
 
 Excited state symmetry could not be determined.
 Excited State   3:      Singlet-?Sym    3.2508 eV  381.40 nm  f=0.0352  <S**2>=0.000
      90 -> 91         0.70207
 
 Excited state symmetry could not be determined.
 Excited State   4:      Singlet-?Sym    3.9730 eV  312.06 nm  f=0.7017  <S**2>=0.000
      89 -> 91         0.69961
 SavETr:  write IOETrn=   770 NScale= 10 NData=  16 NLR=1 NState=    4 LETran=      82.
 Leave Link  914 at Sat Nov  5 09:35:24 2022, MaxMem=   402653184 cpu:            3395.2 elap:             331.3
 (Enter /home/wykgroup/appl/g16/l601.exe)
 Copying SCF densities to generalized density rwf, IOpCl= 0 IROHF=0.

 **********************************************************************

            Population analysis using the SCF Density.

 **********************************************************************

 Alpha  occ. eigenvalues --  -88.91115 -19.21374 -19.13907 -14.34620 -14.33035
 Alpha  occ. eigenvalues --  -10.25909 -10.24924 -10.24916 -10.23798 -10.23526
 Alpha  occ. eigenvalues --  -10.22931 -10.22291 -10.21771 -10.20566 -10.19844
 Alpha  occ. eigenvalues --  -10.19598 -10.18959 -10.18720 -10.18643 -10.18629
 Alpha  occ. eigenvalues --  -10.18126 -10.17805 -10.17732 -10.17613  -7.97235
 Alpha  occ. eigenvalues --   -5.93632  -5.93288  -5.92925  -1.11141  -1.01062
 Alpha  occ. eigenvalues --   -0.96072  -0.94388  -0.84277  -0.80947  -0.80588
 Alpha  occ. eigenvalues --   -0.79676  -0.78797  -0.75663  -0.75280  -0.73702
 Alpha  occ. eigenvalues --   -0.71935  -0.68678  -0.66440  -0.64990  -0.61431
 Alpha  occ. eigenvalues --   -0.59682  -0.58748  -0.57476  -0.56663  -0.55472
 Alpha  occ. eigenvalues --   -0.54954  -0.52223  -0.50609  -0.50293  -0.48306
 Alpha  occ. eigenvalues --   -0.47389  -0.46734  -0.46396  -0.45769  -0.44637
 Alpha  occ. eigenvalues --   -0.43698  -0.43369  -0.42895  -0.42114  -0.41742
[...]
    36  H   -0.000000  -0.000000   0.000005   0.000005  -0.000000   0.000000
    37  H    0.000002   0.000000   0.000005   0.000129  -0.000000   0.000000
    38  H    0.000006  -0.000016  -0.000095   0.000219   0.000000  -0.000000
    39  H    0.000568  -0.000031  -0.000152   0.006162   0.000000   0.000000
    40  H   -0.000193  -0.000018  -0.000019  -0.000214  -0.000000   0.000000
    41  H   -0.042719   0.004901   0.000727   0.004357  -0.000000   0.000000
    42  H    0.357356  -0.042539   0.004754   0.000859   0.000000  -0.000000
    43  H   -0.042294   0.354327  -0.038119   0.003493   0.000007  -0.000000
    44  H    0.004704  -0.039457   0.343415  -0.040596   0.006851  -0.000000
              25         26         27         28         29         30
     1  C    0.359550   0.359691   0.364229  -0.001784  -0.000117  -0.000000
     2  C   -0.025464  -0.025527  -0.024449  -0.035318   0.003949  -0.000000
     3  C    0.001229   0.001223  -0.000374   0.360073  -0.032223  -0.000000
     4  C   -0.000150  -0.000146  -0.000054  -0.033799   0.357402   0.000001
     5  C    0.000344   0.000335  -0.000016   0.003777  -0.033444  -0.000147
     6  C    0.000005   0.000004   0.000005  -0.000103  -0.003012   0.007193
     7  N   -0.000001  -0.000001   0.000000   0.000001   0.000008  -0.044466
     8  C    0.000000   0.000000   0.000000  -0.000000  -0.000001   0.374700
     9  C    0.000000   0.000000  -0.000000   0.000000   0.000017  -0.064558
    10  C    0.000000  -0.000000  -0.000000  -0.000000   0.000000  -0.002289
    11  N    0.000000  -0.000000   0.000000   0.000000  -0.000000  -0.000000
    12  C    0.000000  -0.000000   0.000000   0.000000   0.000000   0.000014
    13  C   -0.000000   0.000000   0.000000   0.000000   0.000000  -0.000001
    14  C    0.000000  -0.000000  -0.000000   0.000000  -0.000000   0.000000
    15  C    0.000000  -0.000000   0.000000   0.000000   0.000000   0.000000
    16  O    0.000000  -0.000000   0.000000   0.000000  -0.000000   0.000000
    17  C    0.000000   0.000000  -0.000000   0.000000   0.000000  -0.000000
    18  C   -0.000000   0.000000  -0.000000  -0.000000  -0.000000  -0.000000
    19  C    0.000000  -0.000000   0.000000   0.000000   0.000000  -0.000000
    20  C    0.000000   0.000000   0.000000   0.000000   0.000000   0.000000
    21  C    0.000000  -0.000000  -0.000000  -0.000000  -0.000000  -0.000000
    22  C   -0.000000   0.000000   0.000000   0.000000   0.000000  -0.000002
    23  S   -0.000000  -0.000000  -0.000000   0.000002   0.003267   0.005481
    24  O   -0.000166  -0.000161   0.002459   0.003735   0.003391  -0.000000
    25  H    0.545443  -0.033475  -0.025870   0.000005   0.000002   0.000000
    26  H   -0.033475   0.545141  -0.025861   0.000005   0.000002   0.000000
    27  H   -0.025870  -0.025861   0.540950   0.001744  -0.000006   0.000000
    28  H    0.000005   0.000005   0.001744   0.561483  -0.001408   0.000000
    29  H    0.000002   0.000002  -0.000006  -0.001408   0.546130  -0.000000
    30  H    0.000000   0.000000   0.000000   0.000000  -0.000000   0.572028
    31  H    0.000000  -0.000000   0.000000   0.000000  -0.000000   0.004835
    32  H   -0.000000   0.000000  -0.000000   0.000000   0.000000  -0.000006
    33  H    0.000000  -0.000000  -0.000000  -0.000000   0.000000  -0.000002
    34  H   -0.000000   0.000000  -0.000000   0.000000   0.000000   0.000171
    35  H   -0.000000   0.000000  -0.000000  -0.000000   0.000000   0.000003
    36  H   -0.000000   0.000000  -0.000000  -0.000000   0.000000  -0.000000
    37  H    0.000000   0.000000   0.000000  -0.000000  -0.000000  -0.000000
    38  H   -0.000000   0.000000   0.000000  -0.000000   0.000000   0.000000
    39  H    0.000000  -0.000000   0.000000   0.000000  -0.000000   0.000000
    40  H   -0.000000   0.000000  -0.000000  -0.000000  -0.000000  -0.000000
    41  H    0.000000  -0.000000   0.000000   0.000000  -0.000000   0.000000
    42  H   -0.000000   0.000000   0.000000  -0.000000   0.000000   0.000000
    43  H   -0.000000   0.000000  -0.000000  -0.000000  -0.000000  -0.000000
    44  H   -0.000000   0.000000   0.000000   0.000000   0.000000  -0.000002
              31         32         33         34         35         36
     1  C   -0.000000   0.000000   0.000000  -0.000000   0.000000  -0.000000
     2  C    0.000000   0.000000   0.000000  -0.000000  -0.000000  -0.000000
     3  C   -0.000000  -0.000000  -0.000000  -0.000000  -0.000000  -0.000000
     4  C   -0.000000  -0.000000  -0.000000   0.000000   0.000000   0.000000
     5  C    0.000002   0.000000   0.000000  -0.000001   0.000000   0.000000
     6  C    0.000015   0.000015   0.000005  -0.000122   0.000000   0.000000
     7  N    0.000079  -0.000116   0.000000  -0.000058  -0.000000  -0.000000
     8  C   -0.003453   0.000614  -0.000035   0.003487  -0.000001   0.000000
     9  C   -0.063427  -0.042095   0.000895   0.009192   0.000113   0.000023
    10  C    0.377289   0.365255   0.003763  -0.004387   0.000658  -0.000096
    11  N   -0.045615  -0.039760  -0.041441  -0.040571  -0.000762   0.004823
    12  C   -0.000780   0.005149   0.361842   0.361931  -0.034633  -0.030152
    13  C    0.002617  -0.000094  -0.046658  -0.042263   0.366493   0.358730
    14  C   -0.000093  -0.000003  -0.009292   0.004981  -0.035718  -0.028273
    15  C    0.000012   0.000006   0.001214  -0.000211   0.004558  -0.005098
    16  O    0.000000   0.000000   0.018692   0.000289   0.000142   0.003913
    17  C   -0.000024   0.000080   0.001468   0.000243   0.000074   0.000084
    18  C    0.000001  -0.000028  -0.000167   0.000008   0.000000   0.000002
    19  C    0.000000  -0.000021  -0.000008  -0.000000  -0.000000  -0.000000
    20  C    0.000001   0.000313  -0.000053   0.000001  -0.000000  -0.000000
    21  C    0.000512   0.006934   0.000685  -0.000195   0.000002   0.000005
    22  C    0.002648  -0.004786   0.002252   0.003174  -0.000109   0.000005
    23  S    0.004785  -0.002250  -0.000001  -0.000616  -0.000001  -0.000000
    24  O   -0.000000  -0.000000  -0.000000   0.000000  -0.000000   0.000000
    25  H    0.000000  -0.000000   0.000000  -0.000000  -0.000000  -0.000000
    26  H   -0.000000   0.000000  -0.000000   0.000000   0.000000   0.000000
    27  H    0.000000  -0.000000  -0.000000  -0.000000  -0.000000  -0.000000
    28  H    0.000000   0.000000  -0.000000   0.000000  -0.000000  -0.000000
    29  H   -0.000000   0.000000   0.000000   0.000000   0.000000   0.000000
    30  H    0.004835  -0.000006  -0.000002   0.000171   0.000003  -0.000000
    31  H    0.583013  -0.026425  -0.000193  -0.002345   0.000915  -0.000147
    32  H   -0.026425   0.558110  -0.000285   0.000513  -0.000068   0.000002
    33  H   -0.000193  -0.000285   0.555184  -0.024149   0.005302  -0.002729
    34  H   -0.002345   0.000513  -0.024149   0.586597  -0.004744   0.002023
    35  H    0.000915  -0.000068   0.005302  -0.004744   0.614201  -0.036199
    36  H   -0.000147   0.000002  -0.002729   0.002023  -0.036199   0.585196
    37  H   -0.000003  -0.000000  -0.000012  -0.000143   0.001137  -0.006620
    38  H   -0.000066   0.000005   0.000089  -0.000040  -0.007114   0.005095
    39  H   -0.000000   0.000000   0.000572   0.000004  -0.000116  -0.000055
    40  H   -0.000000  -0.000000   0.000117   0.000011   0.000003  -0.000087
    41  H   -0.000000   0.000000  -0.000000  -0.000000   0.000000  -0.000000
    42  H   -0.000000  -0.000000   0.000000   0.000000   0.000000  -0.000000
    43  H   -0.000000   0.000002   0.000000  -0.000000  -0.000000   0.000000
    44  H    0.000068   0.001523   0.000026  -0.000008  -0.000000   0.000000
              37         38         39         40         41         42
     1  C    0.000000   0.000000   0.000000  -0.000000   0.000000  -0.000000
     2  C   -0.000000   0.000000   0.000000  -0.000000   0.000000  -0.000000
     3  C   -0.000000  -0.000000   0.000000  -0.000000   0.000000  -0.000000
     4  C    0.000000   0.000000  -0.000000  -0.000000  -0.000000  -0.000000
     5  C   -0.000000   0.000000   0.000000  -0.000000  -0.000000   0.000000
     6  C    0.000000   0.000000   0.000000  -0.000000   0.000000  -0.000000
     7  N    0.000000  -0.000000  -0.000000   0.000000  -0.000000   0.000000
     8  C    0.000000  -0.000000  -0.000000  -0.000000   0.000000   0.000000
     9  C    0.000000   0.000013   0.000000   0.000000  -0.000000   0.000000
    10  C    0.000002   0.000115   0.000004   0.000002   0.000002  -0.000000
    11  N    0.000151   0.004541  -0.000062  -0.000023  -0.000111   0.000005
    12  C    0.004860  -0.005008  -0.000434   0.000426  -0.000002  -0.000000
    13  C   -0.033196  -0.030607   0.006265  -0.000419  -0.000003   0.000000
    14  C    0.361510   0.366990  -0.057299   0.008542   0.000369   0.000002
    15  C   -0.025504  -0.036589   0.370802  -0.023176  -0.009361  -0.000143
    16  O    0.000849   0.003158  -0.043497   0.223963   0.000207   0.000001
    17  C    0.004961  -0.003326  -0.057891  -0.000136  -0.048991   0.003951
    18  C   -0.000159   0.000275  -0.012119   0.005716   0.352178  -0.040093
    19  C    0.000002   0.000006   0.000568  -0.000193  -0.042719   0.357356
    20  C    0.000000  -0.000016  -0.000031  -0.000018   0.004901  -0.042539
    21  C    0.000005  -0.000095  -0.000152  -0.000019   0.000727   0.004754
    22  C    0.000129   0.000219   0.006162  -0.000214   0.004357   0.000859
    23  S   -0.000000   0.000000   0.000000  -0.000000  -0.000000   0.000000
    24  O    0.000000  -0.000000   0.000000   0.000000   0.000000  -0.000000
    25  H    0.000000  -0.000000   0.000000  -0.000000   0.000000  -0.000000
    26  H    0.000000   0.000000  -0.000000   0.000000  -0.000000   0.000000
    27  H    0.000000   0.000000   0.000000  -0.000000   0.000000   0.000000
    28  H   -0.000000  -0.000000   0.000000  -0.000000   0.000000  -0.000000
    29  H   -0.000000   0.000000  -0.000000  -0.000000  -0.000000   0.000000
    30  H   -0.000000   0.000000   0.000000  -0.000000   0.000000   0.000000
    31  H   -0.000003  -0.000066  -0.000000  -0.000000  -0.000000  -0.000000
    32  H   -0.000000   0.000005   0.000000  -0.000000   0.000000  -0.000000
    33  H   -0.000012   0.000089   0.000572   0.000117  -0.000000   0.000000
    34  H   -0.000143  -0.000040   0.000004   0.000011  -0.000000   0.000000
    35  H    0.001137  -0.007114  -0.000116   0.000003   0.000000   0.000000
    36  H   -0.006620   0.005095  -0.000055  -0.000087  -0.000000  -0.000000
    37  H    0.593002  -0.035027  -0.008428  -0.000256  -0.000025  -0.000000
    38  H   -0.035027   0.591130   0.001574  -0.000289   0.000004   0.000000
    39  H   -0.008428   0.001574   0.667410  -0.002262   0.007368  -0.000007
    40  H   -0.000256  -0.000289  -0.002262   0.400194   0.000946   0.000002
    41  H   -0.000025   0.000004   0.007368   0.000946   0.613584  -0.005530
    42  H   -0.000000   0.000000  -0.000007   0.000002  -0.005530   0.604290
    43  H    0.000000   0.000000  -0.000000  -0.000000  -0.000219  -0.005077
    44  H   -0.000000   0.000004   0.000004   0.000000   0.000018  -0.000194
              43         44
     1  C    0.000000  -0.000000
     2  C    0.000000  -0.000000
     3  C    0.000000   0.000000
     4  C   -0.000000   0.000000
     5  C   -0.000000  -0.000001
     6  C    0.000000  -0.000037
     7  N    0.000000   0.000001
     8  C   -0.000000   0.000010
     9  C   -0.000001  -0.001630
    10  C    0.000007   0.005638
    11  N   -0.000120  -0.011561
    12  C    0.000001  -0.000018
    13  C   -0.000000  -0.000006
    14  C   -0.000000   0.000002
    15  C    0.000006  -0.000118
    16  O   -0.000000   0.000001
    17  C    0.000928   0.004450
    18  C    0.004782   0.000652
    19  C   -0.042294   0.004704
    20  C    0.354327  -0.039457
    21  C   -0.038119   0.343415
    22  C    0.003493  -0.040596
    23  S    0.000007   0.006851
    24  O   -0.000000  -0.000000
    25  H   -0.000000  -0.000000
    26  H    0.000000   0.000000
    27  H   -0.000000   0.000000
    28  H   -0.000000   0.000000
    29  H   -0.000000   0.000000
    30  H   -0.000000  -0.000002
    31  H   -0.000000   0.000068
    32  H    0.000002   0.001523
    33  H    0.000000   0.000026
    34  H   -0.000000  -0.000008
    35  H   -0.000000  -0.000000
    36  H    0.000000   0.000000
    37  H    0.000000  -0.000000
    38  H    0.000000   0.000004
    39  H   -0.000000   0.000004
    40  H   -0.000000   0.000000
    41  H   -0.000219   0.000018
    42  H   -0.005077  -0.000194
    43  H    0.600975  -0.006102
    44  H   -0.006102   0.600352
 Mulliken charges:
               1
     1  C   -0.533317
     2  C    0.369081
     3  C   -0.217929
     4  C   -0.203535
     5  C    0.351215
     6  C    0.007326
     7  N   -0.428675
     8  C    0.028245
     9  C   -0.108441
    10  C   -0.234870
    11  N   -0.480769
    12  C   -0.168027
    13  C   -0.247328
    14  C   -0.275377
    15  C    0.056468
    16  O   -0.623588
    17  C    0.098155
    18  C   -0.212436
    19  C   -0.130852
    20  C   -0.140228
    21  C   -0.190822
    22  C    0.298423
    23  S    0.237531
    24  O   -0.458833
    25  H    0.178548
    26  H    0.178768
    27  H    0.167244
    28  H    0.141585
    29  H    0.156042
    30  H    0.147047
    31  H    0.165780
    32  H    0.177412
    33  H    0.172918
    34  H    0.147229
    35  H    0.125865
    36  H    0.149555
    37  H    0.142765
    38  H    0.144959
    39  H    0.121621
    40  H    0.387171
    41  H    0.122301
    42  H    0.122363
    43  H    0.127403
    44  H    0.132009
 Sum of Mulliken charges =  -0.00000
 Mulliken charges with hydrogens summed into heavy atoms:
               1
     1  C   -0.008757
     2  C    0.369081
     3  C   -0.076343
     4  C   -0.047492
     5  C    0.351215
     6  C    0.007326
     7  N   -0.428675
     8  C    0.175292
     9  C   -0.108441
    10  C    0.108322
    11  N   -0.480769
    12  C    0.152120
    13  C    0.028091
    14  C    0.012346
    15  C    0.178089
    16  O   -0.236418
    17  C    0.098155
    18  C   -0.090135
    19  C   -0.008489
    20  C   -0.012825
    21  C   -0.058813
    22  C    0.298423
    23  S    0.237531
    24  O   -0.458833
 Electronic spatial extent (au):  <R**2>=          11897.2655
 Charge=              0.0000 electrons
 Dipole moment (field-independent basis, Debye):
    X=              0.6940    Y=             -1.5065    Z=              0.3876  Tot=              1.7034
 Quadrupole moment (field-independent basis, Debye-Ang):
   XX=           -127.7554   YY=           -144.0412   ZZ=           -143.9234
   XY=             -3.5887   XZ=              6.7818   YZ=             -5.8614
 Traceless Quadrupole moment (field-independent basis, Debye-Ang):
   XX=             10.8179   YY=             -5.4679   ZZ=             -5.3501
   XY=             -3.5887   XZ=              6.7818   YZ=             -5.8614
 Octapole moment (field-independent basis, Debye-Ang**2):
  XXX=             69.0210  YYY=             44.5901  ZZZ=             36.4082  XYY=            -30.4680
  XXY=            -21.5983  XXZ=             70.0568  XZZ=            -48.8111  YZZ=             17.5372
  YYZ=              7.9428  XYZ=             13.1520
 Hexadecapole moment (field-independent basis, Debye-Ang**3):
 XXXX=         -11009.3410 YYYY=          -2056.6749 ZZZZ=           -966.1868 XXXY=            192.6245
 XXXZ=            445.9357 YYYX=            313.0337 YYYZ=            119.6616 ZZZX=            263.4909
 ZZZY=            139.6648 XXYY=          -2504.4701 XXZZ=          -2301.5442 YYZZ=           -535.4628
 XXYZ=            -73.7280 YYXZ=            154.4389 ZZXY=             99.1336
 N-N= 2.116155950634D+03 E-N=-7.492209989960D+03  KE= 1.383469582433D+03
 Leave Link  601 at Sat Nov  5 09:35:24 2022, MaxMem=   402653184 cpu:               3.8 elap:               0.5
 (Enter /home/wykgroup/appl/g16/l9999.exe)
 Electronic transition elements 
                 1             2             3             4 
      1  -0.139408D+04 -0.139405D+04 -0.139405D+04 -0.139402D+04
      2   0.000000D+00  0.000000D+00 -0.663713D+00 -0.261250D+01
      3   0.000000D+00  0.000000D+00  0.409512D-01  0.253133D+00
      4   0.000000D+00  0.000000D+00  0.168757D-01 -0.564989D+00
      5   0.000000D+00  0.000000D+00  0.792726D-01  0.373579D+00
      6   0.000000D+00  0.000000D+00 -0.101572D-01 -0.392915D-01
      7   0.000000D+00  0.000000D+00 -0.238332D-02  0.844953D-01
      8   0.000000D+00  0.000000D+00  0.175249D-01 -0.978901D-02
      9   0.000000D+00  0.000000D+00 -0.359103D+00 -0.135283D+01
     10   0.000000D+00  0.000000D+00 -0.362649D-01 -0.515880D+00
     11   0.000000D+00  0.000000D+00  0.339486D+00  0.395171D+01
     12   0.000000D+00  0.000000D+00 -0.664272D-01 -0.778220D-01
     13   0.000000D+00  0.000000D+00  0.945748D-02 -0.187607D+00
     14   0.000000D+00  0.000000D+00 -0.116361D+00 -0.598782D+00
     15   0.000000D+00  0.000000D+00  0.740070D-01  0.583342D+00
     16   0.000000D+00  0.000000D+00  0.232616D-01 -0.354426D-01
 1\1\GINC-NODE68\SP\RB3LYP TD-FC\6-31G(d)\C19H20N2O2S1\WYKGROUP\05-Nov-
 2022\0\\#p b3lyp/6-31g(d) 6D 10F nosymm GFInput td=(50-50,nstate=2) SC
 F=XQC\\Gaussian input prepared by ASE\\0,1\C,0,7.7281342317,0.12100794
 18,0.2145023248\C,0,6.3693087426,-0.4692332685,0.3515892195\C,0,5.8730
 775607,-1.547848018,1.0320343022\C,0,4.4743077072,-1.5932427215,0.7619
 447891\C,0,4.2048686859,-0.5346134677,-0.0695003391\C,0,2.9947046542,-
 0.0468565309,-0.6876569116\N,0,2.9201560916,0.9962331915,-1.4740137336
 \C,0,1.6302582236,1.1990979981,-1.8883265421\C,0,0.6755953835,0.322451
 9712,-1.4464037635\C,0,-0.7979263239,0.3411056844,-1.7778083767\N,0,-1
 .7124391405,0.4635665296,-0.6513759048\C,0,-1.6741114661,1.7233950138,
 0.0955164755\C,0,-2.8384102921,2.6637941499,-0.2262821912\C,0,-4.19013
 75468,1.9310318356,-0.2070613661\C,0,-4.3170227392,0.8678181697,0.8901
 635881\O,0,-3.8987392361,1.4777655403,2.1262912747\C,0,-3.6130983407,-
 0.4618762087,0.6122737762\C,0,-4.2557710239,-1.6045589164,1.1094700491
 \C,0,-3.7950274726,-2.8982020327,0.877220064\C,0,-2.6477901753,-3.0592
 913906,0.1034354358\C,0,-1.9719576666,-1.9490650611,-0.3920659658\C,0,
 -2.4165706266,-0.6307856976,-0.1453911607\S,0,1.4451775152,-0.85832626
 04,-0.4072570916\O,0,5.3614564477,0.1549105179,-0.3225986226\H,0,8.055
 675349,0.1298739903,-0.8322654659\H,0,7.7511715342,1.1571849175,0.5734
 917474\H,0,8.4479942993,-0.4611960928,0.795925632\H,0,6.4414841907,-2.
 2275349369,1.6516321929\H,0,3.7597335165,-2.3148121478,1.1338951072\H,
 0,1.4187096867,2.0362630961,-2.5467229064\H,0,-0.9491312372,1.20254728
 22,-2.4439625716\H,0,-1.0822819581,-0.5411382823,-2.3592217634\H,0,-1.
 693459752,1.4952431511,1.1644730502\H,0,-0.7139286503,2.2086824507,-0.
 1121469243\H,0,-2.6985531728,3.1355819711,-1.2080714932\H,0,-2.8352935
 33,3.4685218681,0.5180701593\H,0,-4.9968531494,2.6618759063,-0.0765966
 503\H,0,-4.3654978246,1.4353805278,-1.1691019756\H,0,-5.3862320373,0.6
 192944705,0.9749530046\H,0,-3.8679493192,0.7730563659,2.7926514705\H,0
 ,-5.1790652235,-1.4660113962,1.6705734601\H,0,-4.3303044434,-3.7561887
 854,1.2726351164\H,0,-2.2607313506,-4.0526080295,-0.1092518735\H,0,-1.
 0635321187,-2.1122962962,-0.9614666459\\Version=ES64L-G16RevB.01\HF=-1
 394.1670341\RMSD=6.176e-09\PG=C01 [X(C19H20N2O2S1)]\\@


 TIME IS IN FACT THE HERO OF THE PLOT. THE TIME
 WITH WHICH WE HAVE TO DEAL IS OF THE ORDER OF TWO
 BILLION YEARS...GIVEN SO MUCH TIME, THE "IMPOSSIBLE"
 BECOMES POSSIBLE, THE POSSIBLE PROBABLE, THE PROBABLE
 VIRTUALLY CERTAIN.  ONE HAS ONLY TO WAIT, TIME
 ITSELF PERFORMS THE MIRACLES.
 "ORIGIN OF LIFE" LECTURES, GEORGE WALD, 1954
 Job cpu time:       0 days  1 hours  8 minutes 26.5 seconds.
 Elapsed time:       0 days  0 hours  7 minutes  0.6 seconds.
 File lengths (MBytes):  RWF=    986 Int=      0 D2E=      0 Chk=     35 Scr=      1
 Normal termination of Gaussian 16 at Sat Nov  5 09:35:25 2022.
