 Entering Gaussian System, Link 0=/home/wykgroup/appl/g16/g16
 Input=calculation/no_transfer_pubchem_sampling_4_b3lyp/10555723_rwf.com
 Output=calculation/no_transfer_pubchem_sampling_4_b3lyp/10555723_rwf.log
 Initial command:
 /home/wykgroup/appl/g16/l1.exe "/userdata/scratch/wykgroup/khs/calculation/no_transfer_pubchem_sampling_4_b3lyp/10555723_rwf/Gau-28021.inp" -scrdir="/userdata/scratch/wykgroup/khs/calculation/no_transfer_pubchem_sampling_4_b3lyp/10555723_rwf/"
 Entering Link 1 = /home/wykgroup/appl/g16/l1.exe PID=     28022.
  
 Copyright (c) 1988-2017, Gaussian, Inc.  All Rights Reserved.
  
 This is part of the Gaussian(R) 16 program.  It is based on
 the Gaussian(R) 09 system (copyright 2009, Gaussian, Inc.),
 the Gaussian(R) 03 system (copyright 2003, Gaussian, Inc.),
 the Gaussian(R) 98 system (copyright 1998, Gaussian, Inc.),
 the Gaussian(R) 94 system (copyright 1995, Gaussian, Inc.),
 the Gaussian 92(TM) system (copyright 1992, Gaussian, Inc.),
 the Gaussian 90(TM) system (copyright 1990, Gaussian, Inc.),
 the Gaussian 88(TM) system (copyright 1988, Gaussian, Inc.),
 the Gaussian 86(TM) system (copyright 1986, Carnegie Mellon
 University), and the Gaussian 82(TM) system (copyright 1983,
 Carnegie Mellon University). Gaussian is a federally registered
 trademark of Gaussian, Inc.
  
 This software contains proprietary and confidential information,
 including trade secrets, belonging to Gaussian, Inc.
  
 This software is provided under written license and may be
 used, copied, transmitted, or stored only in accord with that
 written license.
  
 The following legend is applicable only to US Government
 contracts under FAR:
  
                    RESTRICTED RIGHTS LEGEND
  
 Use, reproduction and disclosure by the US Government is
 subject to restrictions as set forth in subparagraphs (a)
 and (c) of the Commercial Computer Software - Restricted
 Rights clause in FAR 52.227-19.
  
 Gaussian, Inc.
 340 Quinnipiac St., Bldg. 40, Wallingford CT 06492
  
  
 ---------------------------------------------------------------
 Warning -- This program may not be used in any manner that
 competes with the business of Gaussian, Inc. or will provide
 assistance to any competitor of Gaussian, Inc.  The licensee
 of this program is prohibited from giving any competitor of
 Gaussian, Inc. access to this program.  By using this program,
 the user acknowledges that Gaussian, Inc. is engaged in the
 business of creating and licensing software in the field of
 computational chemistry and represents and warrants to the
 licensee that it is not a competitor of Gaussian, Inc. and that
 it will not use this program in any manner prohibited above.
 ---------------------------------------------------------------
  

 Cite this work as:
 Gaussian 16, Revision B.01,
 M. J. Frisch, G. W. Trucks, H. B. Schlegel, G. E. Scuseria, 
 M. A. Robb, J. R. Cheeseman, G. Scalmani, V. Barone, 
 G. A. Petersson, H. Nakatsuji, X. Li, M. Caricato, A. V. Marenich, 
 J. Bloino, B. G. Janesko, R. Gomperts, B. Mennucci, H. P. Hratchian, 
 J. V. Ortiz, A. F. Izmaylov, J. L. Sonnenberg, D. Williams-Young, 
 F. Ding, F. Lipparini, F. Egidi, J. Goings, B. Peng, A. Petrone, 
 T. Henderson, D. Ranasinghe, V. G. Zakrzewski, J. Gao, N. Rega, 
 G. Zheng, W. Liang, M. Hada, M. Ehara, K. Toyota, R. Fukuda, 
 J. Hasegawa, M. Ishida, T. Nakajima, Y. Honda, O. Kitao, H. Nakai, 
 T. Vreven, K. Throssell, J. A. Montgomery, Jr., J. E. Peralta, 
 F. Ogliaro, M. J. Bearpark, J. J. Heyd, E. N. Brothers, K. N. Kudin, 
 V. N. Staroverov, T. A. Keith, R. Kobayashi, J. Normand, 
 K. Raghavachari, A. P. Rendell, J. C. Burant, S. S. Iyengar, 
 J. Tomasi, M. Cossi, J. M. Millam, M. Klene, C. Adamo, R. Cammi, 
 J. W. Ochterski, R. L. Martin, K. Morokuma, O. Farkas, 
 J. B. Foresman, and D. J. Fox, Gaussian, Inc., Wallingford CT, 2016.
 
 ******************************************
 Gaussian 16:  ES64L-G16RevB.01 20-Dec-2017
                 5-Nov-2022 
 ******************************************
 %chk=calculation/no_transfer_pubchem_sampling_4_b3lyp/10555723_rwf.chk
 %rwf=calculation/no_transfer_pubchem_sampling_4_b3lyp/10555723_rwf.rwf
 %nprocshared=14
 Will use up to   14 processors via shared memory.
 %mem=3GB
 -------------------------------------------------------------------
 #p b3lyp/6-31g(d) 6D 10F nosymm GFInput td=(50-50,nstate=2) SCF=XQC
 -------------------------------------------------------------------
 1/38=1,172=1/1;
 2/12=2,15=1,17=6,18=5,40=1/2;
 3/5=1,6=6,7=1,8=22,11=9,24=10,25=1,30=1,74=-5/1,2,3,8;
 4//1;
 5/5=2,8=3,13=1,38=5/2,8;
 8/6=1,10=2,108=2/1;
 9/41=2,42=1,48=2,70=2/14;
 6/7=2,8=2,9=2,10=2/1;
 99/5=1,9=1/99;
 Leave Link    1 at Sat Nov  5 12:05:27 2022, MaxMem=   402653184 cpu:               3.1 elap:               0.3
 (Enter /home/wykgroup/appl/g16/l101.exe)
 ------------------------------
 Gaussian input prepared by ASE
 ------------------------------
 Symbolic Z-matrix:
 Charge =  0 Multiplicity = 1
 C                     0.85575  -2.86308  -1.92466 
 C                     0.18784  -2.48693  -0.59836 
 C                    -0.32324  -3.69963   0.16645 
 O                    -0.90817  -1.59379  -0.80439 
 C                    -0.35385  -0.27985  -0.80347 
 C                    -1.46777   0.81267  -0.63235 
 O                    -2.77392   0.26296  -0.63444 
 C                    -3.26864  -0.08552  -1.93418 
 C                    -4.60143  -0.77239  -1.7764 
 C                    -5.784    -0.15959  -2.20027 
 C                    -7.00067  -0.82658  -2.03906 
 C                    -7.04804  -2.0886   -1.45543 
 C                    -5.86537  -2.71356  -1.01986 
 N                    -5.89854  -4.00716  -0.4864 
 C                    -4.64659  -2.0415   -1.19151 
 C                    -1.43817   1.79716   0.5792 
 C                    -2.24815   1.38612   1.84209 
 C                    -1.83377   0.19211   2.67781 
 C                    -0.9652    0.33977   3.76982 
 C                    -0.64447  -0.74697   4.5851 
 C                    -1.20227  -2.00088   4.33214 
 C                    -2.07525  -2.15888   3.2537 
 C                    -2.38289  -1.07465   2.42997 
 S                     0.19925   2.52162   1.14091 
 C                     1.54552   2.04993  -0.03633 
 C                     1.37476   2.58256  -1.48307 
 C                     1.40377   4.09332  -1.58185 
 C                     2.62272   4.78358  -1.51989 
 C                     2.66672   6.17513  -1.60297 
 C                     1.48593   6.90438  -1.75684 
 C                     0.26612   6.23063  -1.82698 
 C                     0.22881   4.83813  -1.73959 
 C                     1.94195   0.53942   0.08527 
 O                     2.6797    0.0964   -1.04898 
 C                     4.07177   0.40248  -1.04423 
 C                     4.89122  -0.32844   0.00536 
 C                     6.08668   0.23675   0.46705 
 C                     6.86992  -0.46625   1.38317 
 C                     6.46651  -1.7114    1.85964 
 C                     5.25995  -2.27738   1.41493 
 N                     4.85257  -3.54163   1.85481 
 C                     4.48639  -1.57796   0.47435 
 C                     0.73276  -0.38939   0.27287 
 O                     1.12221  -1.76557   0.21968 
 H                     1.70011  -3.53494  -1.73971 
 H                     0.14078  -3.37193  -2.57976 
 H                     1.24246  -1.97467  -2.42971 
 H                     0.50278  -4.38736   0.37344 
 H                    -0.76506  -3.3766    1.11133 
 H                    -1.07536  -4.23227  -0.42512 
 H                     0.13388  -0.10312  -1.7719 
 H                    -1.37539   1.45709  -1.51832 
 H                    -3.37195   0.82618  -2.54331 
 H                    -2.555    -0.75374  -2.43103 
 H                    -5.75437   0.82919  -2.65013 
 H                    -7.9242   -0.35637  -2.36715 
 H                    -8.00011  -2.60179  -1.33768 
 H                    -6.77741  -4.2632   -0.05306 
 H                    -5.11566  -4.23432   0.11457 
 H                    -3.71786  -2.50707  -0.86884 
 H                    -1.9813    2.66909   0.20081 
 H                    -3.27339   1.23492   1.49219 
 H                    -2.26831   2.27376   2.48735 
 H                    -0.54218   1.31714   3.98463 
 H                     0.03059  -0.60918   5.42595 
 H                    -0.96605  -2.84543   4.97443 
 H                    -2.52607  -3.12913   3.05815 
 H                    -3.05562  -1.20062   1.58695 
 H                     2.36674   2.62845   0.40473 
 H                     2.19032   2.16194  -2.07984 
 H                     0.45309   2.20367  -1.93174 
 H                     3.55018   4.22353  -1.41279 
 H                     3.62321   6.68934  -1.55548 
 H                     1.51752   7.98843  -1.82597 
 H                    -0.65862   6.78839  -1.95036 
 H                    -0.72674   4.32187  -1.79753 
 H                     2.56169   0.4359    0.98451 
 H                     4.41037   0.11755  -2.04761 
 H                     4.23744   1.48743  -0.94878 
 H                     6.40271   1.21566   0.11399 
 H                     7.79981  -0.03371   1.74407 
 H                     7.07953  -2.24681   2.58153 
 H                     5.21423  -3.81014   2.76199 
 H                     3.85274  -3.69631   1.79888 
 H                     3.5429   -1.99319   0.13309 
 H                     0.3092   -0.19518   1.2603 
 
 ITRead=  0  0  0  0  0  0  0  0  0  0  0  0  0  0  0  0  0  0  0  0
 ITRead=  0  0  0  0  0  0  0  0  0  0  0  0  0  0  0  0  0  0  0  0
 ITRead=  0  0  0  0  0  0  0  0  0  0  0  0  0  0  0  0  0  0  0  0
 ITRead=  0  0  0  0  0  0  0  0  0  0  0  0  0  0  0  0  0  0  0  0
 ITRead=  0  0  0  0  0  0
 MicOpt= -1 -1 -1 -1 -1 -1 -1 -1 -1 -1 -1 -1 -1 -1 -1 -1 -1 -1 -1 -1
 MicOpt= -1 -1 -1 -1 -1 -1 -1 -1 -1 -1 -1 -1 -1 -1 -1 -1 -1 -1 -1 -1
 MicOpt= -1 -1 -1 -1 -1 -1 -1 -1 -1 -1 -1 -1 -1 -1 -1 -1 -1 -1 -1 -1
 MicOpt= -1 -1 -1 -1 -1 -1 -1 -1 -1 -1 -1 -1 -1 -1 -1 -1 -1 -1 -1 -1
 MicOpt= -1 -1 -1 -1 -1 -1
 NAtoms=     86 NQM=       86 NQMF=       0 NMMI=      0 NMMIF=      0
                NMic=       0 NMicF=      0.
                    Isotopes and Nuclear Properties:
 (Nuclear quadrupole moments (NQMom) in fm**2, nuclear magnetic moments (NMagM)
  in nuclear magnetons)

  Atom         1           2           3           4           5           6           7           8           9          10
 IAtWgt=          12          12          12          16          12          12          16          12          12          12
 AtmWgt=  12.0000000  12.0000000  12.0000000  15.9949146  12.0000000  12.0000000  15.9949146  12.0000000  12.0000000  12.0000000
 NucSpn=           0           0           0           0           0           0           0           0           0           0
 AtZEff=  -0.0000000  -0.0000000  -0.0000000  -0.0000000  -0.0000000  -0.0000000  -0.0000000  -0.0000000  -0.0000000  -0.0000000
 NQMom=    0.0000000   0.0000000   0.0000000   0.0000000   0.0000000   0.0000000   0.0000000   0.0000000   0.0000000   0.0000000
 NMagM=    0.0000000   0.0000000   0.0000000   0.0000000   0.0000000   0.0000000   0.0000000   0.0000000   0.0000000   0.0000000
 AtZNuc=   6.0000000   6.0000000   6.0000000   8.0000000   6.0000000   6.0000000   8.0000000   6.0000000   6.0000000   6.0000000

  Atom        11          12          13          14          15          16          17          18          19          20
 IAtWgt=          12          12          12          14          12          12          12          12          12          12
 AtmWgt=  12.0000000  12.0000000  12.0000000  14.0030740  12.0000000  12.0000000  12.0000000  12.0000000  12.0000000  12.0000000
 NucSpn=           0           0           0           2           0           0           0           0           0           0
 AtZEff=  -0.0000000  -0.0000000  -0.0000000  -0.0000000  -0.0000000  -0.0000000  -0.0000000  -0.0000000  -0.0000000  -0.0000000
 NQMom=    0.0000000   0.0000000   0.0000000   2.0440000   0.0000000   0.0000000   0.0000000   0.0000000   0.0000000   0.0000000
 NMagM=    0.0000000   0.0000000   0.0000000   0.4037610   0.0000000   0.0000000   0.0000000   0.0000000   0.0000000   0.0000000
 AtZNuc=   6.0000000   6.0000000   6.0000000   7.0000000   6.0000000   6.0000000   6.0000000   6.0000000   6.0000000   6.0000000

  Atom        21          22          23          24          25          26          27          28          29          30
 IAtWgt=          12          12          12          32          12          12          12          12          12          12
 AtmWgt=  12.0000000  12.0000000  12.0000000  31.9720718  12.0000000  12.0000000  12.0000000  12.0000000  12.0000000  12.0000000
 NucSpn=           0           0           0           0           0           0           0           0           0           0
 AtZEff=  -0.0000000  -0.0000000  -0.0000000  -0.0000000  -0.0000000  -0.0000000  -0.0000000  -0.0000000  -0.0000000  -0.0000000
 NQMom=    0.0000000   0.0000000   0.0000000   0.0000000   0.0000000   0.0000000   0.0000000   0.0000000   0.0000000   0.0000000
 NMagM=    0.0000000   0.0000000   0.0000000   0.0000000   0.0000000   0.0000000   0.0000000   0.0000000   0.0000000   0.0000000
 AtZNuc=   6.0000000   6.0000000   6.0000000  16.0000000   6.0000000   6.0000000   6.0000000   6.0000000   6.0000000   6.0000000

  Atom        31          32          33          34          35          36          37          38          39          40
 IAtWgt=          12          12          12          16          12          12          12          12          12          12
 AtmWgt=  12.0000000  12.0000000  12.0000000  15.9949146  12.0000000  12.0000000  12.0000000  12.0000000  12.0000000  12.0000000
 NucSpn=           0           0           0           0           0           0           0           0           0           0
 AtZEff=  -0.0000000  -0.0000000  -0.0000000  -0.0000000  -0.0000000  -0.0000000  -0.0000000  -0.0000000  -0.0000000  -0.0000000
 NQMom=    0.0000000   0.0000000   0.0000000   0.0000000   0.0000000   0.0000000   0.0000000   0.0000000   0.0000000   0.0000000
 NMagM=    0.0000000   0.0000000   0.0000000   0.0000000   0.0000000   0.0000000   0.0000000   0.0000000   0.0000000   0.0000000
 AtZNuc=   6.0000000   6.0000000   6.0000000   8.0000000   6.0000000   6.0000000   6.0000000   6.0000000   6.0000000   6.0000000

  Atom        41          42          43          44          45          46          47          48          49          50
 IAtWgt=          14          12          12          16           1           1           1           1           1           1
 AtmWgt=  14.0030740  12.0000000  12.0000000  15.9949146   1.0078250   1.0078250   1.0078250   1.0078250   1.0078250   1.0078250
 NucSpn=           2           0           0           0           1           1           1           1           1           1
 AtZEff=  -0.0000000  -0.0000000  -0.0000000  -0.0000000  -0.0000000  -0.0000000  -0.0000000  -0.0000000  -0.0000000  -0.0000000
 NQMom=    2.0440000   0.0000000   0.0000000   0.0000000   0.0000000   0.0000000   0.0000000   0.0000000   0.0000000   0.0000000
 NMagM=    0.4037610   0.0000000   0.0000000   0.0000000   2.7928460   2.7928460   2.7928460   2.7928460   2.7928460   2.7928460
 AtZNuc=   7.0000000   6.0000000   6.0000000   8.0000000   1.0000000   1.0000000   1.0000000   1.0000000   1.0000000   1.0000000

  Atom        51          52          53          54          55          56          57          58          59          60
 IAtWgt=           1           1           1           1           1           1           1           1           1           1
 AtmWgt=   1.0078250   1.0078250   1.0078250   1.0078250   1.0078250   1.0078250   1.0078250   1.0078250   1.0078250   1.0078250
 NucSpn=           1           1           1           1           1           1           1           1           1           1
 AtZEff=  -0.0000000  -0.0000000  -0.0000000  -0.0000000  -0.0000000  -0.0000000  -0.0000000  -0.0000000  -0.0000000  -0.0000000
 NQMom=    0.0000000   0.0000000   0.0000000   0.0000000   0.0000000   0.0000000   0.0000000   0.0000000   0.0000000   0.0000000
 NMagM=    2.7928460   2.7928460   2.7928460   2.7928460   2.7928460   2.7928460   2.7928460   2.7928460   2.7928460   2.7928460
 AtZNuc=   1.0000000   1.0000000   1.0000000   1.0000000   1.0000000   1.0000000   1.0000000   1.0000000   1.0000000   1.0000000

  Atom        61          62          63          64          65          66          67          68          69          70
 IAtWgt=           1           1           1           1           1           1           1           1           1           1
 AtmWgt=   1.0078250   1.0078250   1.0078250   1.0078250   1.0078250   1.0078250   1.0078250   1.0078250   1.0078250   1.0078250
 NucSpn=           1           1           1           1           1           1           1           1           1           1
 AtZEff=  -0.0000000  -0.0000000  -0.0000000  -0.0000000  -0.0000000  -0.0000000  -0.0000000  -0.0000000  -0.0000000  -0.0000000
 NQMom=    0.0000000   0.0000000   0.0000000   0.0000000   0.0000000   0.0000000   0.0000000   0.0000000   0.0000000   0.0000000
 NMagM=    2.7928460   2.7928460   2.7928460   2.7928460   2.7928460   2.7928460   2.7928460   2.7928460   2.7928460   2.7928460
 AtZNuc=   1.0000000   1.0000000   1.0000000   1.0000000   1.0000000   1.0000000   1.0000000   1.0000000   1.0000000   1.0000000

  Atom        71          72          73          74          75          76          77          78          79          80
 IAtWgt=           1           1           1           1           1           1           1           1           1           1
 AtmWgt=   1.0078250   1.0078250   1.0078250   1.0078250   1.0078250   1.0078250   1.0078250   1.0078250   1.0078250   1.0078250
 NucSpn=           1           1           1           1           1           1           1           1           1           1
 AtZEff=  -0.0000000  -0.0000000  -0.0000000  -0.0000000  -0.0000000  -0.0000000  -0.0000000  -0.0000000  -0.0000000  -0.0000000
 NQMom=    0.0000000   0.0000000   0.0000000   0.0000000   0.0000000   0.0000000   0.0000000   0.0000000   0.0000000   0.0000000
 NMagM=    2.7928460   2.7928460   2.7928460   2.7928460   2.7928460   2.7928460   2.7928460   2.7928460   2.7928460   2.7928460
 AtZNuc=   1.0000000   1.0000000   1.0000000   1.0000000   1.0000000   1.0000000   1.0000000   1.0000000   1.0000000   1.0000000

  Atom        81          82          83          84          85          86
 IAtWgt=           1           1           1           1           1           1
 AtmWgt=   1.0078250   1.0078250   1.0078250   1.0078250   1.0078250   1.0078250
 NucSpn=           1           1           1           1           1           1
 AtZEff=  -0.0000000  -0.0000000  -0.0000000  -0.0000000  -0.0000000  -0.0000000
 NQMom=    0.0000000   0.0000000   0.0000000   0.0000000   0.0000000   0.0000000
 NMagM=    2.7928460   2.7928460   2.7928460   2.7928460   2.7928460   2.7928460
 AtZNuc=   1.0000000   1.0000000   1.0000000   1.0000000   1.0000000   1.0000000
 Leave Link  101 at Sat Nov  5 12:05:27 2022, MaxMem=   402653184 cpu:               3.0 elap:               0.3
 (Enter /home/wykgroup/appl/g16/l202.exe)
 Symmetry turned off by external request.
 Stoichiometry    C37H42N2O4S
 Framework group  C1[X(C37H42N2O4S)]
 Deg. of freedom   252
 Full point group                 C1      NOp   1
                          Input orientation:                          
 ---------------------------------------------------------------------
 Center     Atomic      Atomic             Coordinates (Angstroms)
 Number     Number       Type             X           Y           Z
 ---------------------------------------------------------------------
      1          6           0        0.855746   -2.863076   -1.924663
      2          6           0        0.187838   -2.486927   -0.598359
      3          6           0       -0.323245   -3.699631    0.166452
      4          8           0       -0.908167   -1.593789   -0.804385
      5          6           0       -0.353846   -0.279853   -0.803471
      6          6           0       -1.467774    0.812668   -0.632346
      7          8           0       -2.773918    0.262958   -0.634436
      8          6           0       -3.268636   -0.085519   -1.934179
      9          6           0       -4.601434   -0.772386   -1.776396
     10          6           0       -5.783998   -0.159592   -2.200267
     11          6           0       -7.000674   -0.826576   -2.039057
     12          6           0       -7.048043   -2.088598   -1.455428
     13          6           0       -5.865372   -2.713561   -1.019856
     14          7           0       -5.898536   -4.007162   -0.486396
     15          6           0       -4.646595   -2.041502   -1.191507
     16          6           0       -1.438167    1.797158    0.579199
     17          6           0       -2.248150    1.386120    1.842087
     18          6           0       -1.833774    0.192112    2.677812
     19          6           0       -0.965202    0.339766    3.769817
     20          6           0       -0.644471   -0.746968    4.585103
     21          6           0       -1.202274   -2.000881    4.332143
     22          6           0       -2.075246   -2.158882    3.253703
     23          6           0       -2.382888   -1.074645    2.429972
     24         16           0        0.199254    2.521617    1.140909
     25          6           0        1.545517    2.049932   -0.036329
     26          6           0        1.374756    2.582562   -1.483072
     27          6           0        1.403771    4.093322   -1.581848
     28          6           0        2.622721    4.783583   -1.519892
     29          6           0        2.666717    6.175129   -1.602966
     30          6           0        1.485930    6.904376   -1.756836
     31          6           0        0.266117    6.230634   -1.826975
     32          6           0        0.228812    4.838129   -1.739590
     33          6           0        1.941952    0.539415    0.085267
     34          8           0        2.679698    0.096405   -1.048985
     35          6           0        4.071773    0.402476   -1.044226
     36          6           0        4.891218   -0.328438    0.005360
     37          6           0        6.086680    0.236749    0.467053
     38          6           0        6.869923   -0.466248    1.383173
     39          6           0        6.466508   -1.711403    1.859639
     40          6           0        5.259948   -2.277379    1.414934
     41          7           0        4.852570   -3.541632    1.854807
     42          6           0        4.486392   -1.577956    0.474350
     43          6           0        0.732763   -0.389393    0.272875
     44          8           0        1.122205   -1.765568    0.219684
     45          1           0        1.700113   -3.534938   -1.739707
     46          1           0        0.140778   -3.371926   -2.579760
     47          1           0        1.242462   -1.974672   -2.429707
     48          1           0        0.502783   -4.387356    0.373440
     49          1           0       -0.765061   -3.376604    1.111335
     50          1           0       -1.075364   -4.232273   -0.425118
     51          1           0        0.133877   -0.103123   -1.771903
     52          1           0       -1.375385    1.457088   -1.518325
     53          1           0       -3.371946    0.826181   -2.543313
     54          1           0       -2.555001   -0.753740   -2.431027
     55          1           0       -5.754373    0.829192   -2.650133
     56          1           0       -7.924199   -0.356368   -2.367154
     57          1           0       -8.000113   -2.601791   -1.337676
     58          1           0       -6.777413   -4.263200   -0.053062
     59          1           0       -5.115664   -4.234320    0.114570
     60          1           0       -3.717861   -2.507065   -0.868841
     61          1           0       -1.981301    2.669088    0.200815
     62          1           0       -3.273392    1.234917    1.492188
     63          1           0       -2.268312    2.273756    2.487350
     64          1           0       -0.542183    1.317139    3.984627
     65          1           0        0.030588   -0.609180    5.425953
     66          1           0       -0.966052   -2.845435    4.974432
     67          1           0       -2.526075   -3.129126    3.058150
     68          1           0       -3.055619   -1.200624    1.586951
     69          1           0        2.366739    2.628454    0.404734
     70          1           0        2.190318    2.161937   -2.079836
     71          1           0        0.453095    2.203671   -1.931745
     72          1           0        3.550183    4.223534   -1.412787
     73          1           0        3.623214    6.689342   -1.555475
     74          1           0        1.517516    7.988430   -1.825967
     75          1           0       -0.658624    6.788393   -1.950356
     76          1           0       -0.726735    4.321866   -1.797528
     77          1           0        2.561686    0.435902    0.984515
     78          1           0        4.410370    0.117553   -2.047613
     79          1           0        4.237436    1.487426   -0.948777
     80          1           0        6.402712    1.215662    0.113994
     81          1           0        7.799809   -0.033707    1.744074
     82          1           0        7.079532   -2.246812    2.581534
     83          1           0        5.214225   -3.810138    2.761994
     84          1           0        3.852740   -3.696313    1.798883
     85          1           0        3.542898   -1.993186    0.133094
     86          1           0        0.309197   -0.195182    1.260304
 ---------------------------------------------------------------------
 Rotational constants (GHZ):           0.0850880           0.0537273           0.0409065
 Leave Link  202 at Sat Nov  5 12:05:27 2022, MaxMem=   402653184 cpu:               1.1 elap:               0.1
 (Enter /home/wykgroup/appl/g16/l301.exe)
 Standard basis: 6-31G(d) (6D, 10F)
 Ernie: Thresh=  0.10000D-02 Tol=  0.10000D-05 Strict=F.
 AO basis set in the form of general basis input (Overlap normalization):
      1 0
 S   6 1.00       0.000000000000
      0.3047524880D+04  0.1834737132D-02
      0.4573695180D+03  0.1403732281D-01
      0.1039486850D+03  0.6884262226D-01
      0.2921015530D+02  0.2321844432D+00
      0.9286662960D+01  0.4679413484D+00
      0.3163926960D+01  0.3623119853D+00
 SP   3 1.00       0.000000000000
      0.7868272350D+01 -0.1193324198D+00  0.6899906659D-01
      0.1881288540D+01 -0.1608541517D+00  0.3164239610D+00
      0.5442492580D+00  0.1143456438D+01  0.7443082909D+00
 SP   1 1.00       0.000000000000
      0.1687144782D+00  0.1000000000D+01  0.1000000000D+01
 D   1 1.00       0.000000000000
      0.8000000000D+00  0.1000000000D+01
 ****
      2 0
 S   6 1.00       0.000000000000
      0.3047524880D+04  0.1834737132D-02
      0.4573695180D+03  0.1403732281D-01
      0.1039486850D+03  0.6884262226D-01
      0.2921015530D+02  0.2321844432D+00
      0.9286662960D+01  0.4679413484D+00
      0.3163926960D+01  0.3623119853D+00
 SP   3 1.00       0.000000000000
      0.7868272350D+01 -0.1193324198D+00  0.6899906659D-01
      0.1881288540D+01 -0.1608541517D+00  0.3164239610D+00
      0.5442492580D+00  0.1143456438D+01  0.7443082909D+00
 SP   1 1.00       0.000000000000
      0.1687144782D+00  0.1000000000D+01  0.1000000000D+01
 D   1 1.00       0.000000000000
      0.8000000000D+00  0.1000000000D+01
 ****
      3 0
 S   6 1.00       0.000000000000
      0.3047524880D+04  0.1834737132D-02
      0.4573695180D+03  0.1403732281D-01
      0.1039486850D+03  0.6884262226D-01
      0.2921015530D+02  0.2321844432D+00
      0.9286662960D+01  0.4679413484D+00
      0.3163926960D+01  0.3623119853D+00
 SP   3 1.00       0.000000000000
      0.7868272350D+01 -0.1193324198D+00  0.6899906659D-01
      0.1881288540D+01 -0.1608541517D+00  0.3164239610D+00
      0.5442492580D+00  0.1143456438D+01  0.7443082909D+00
 SP   1 1.00       0.000000000000
      0.1687144782D+00  0.1000000000D+01  0.1000000000D+01
 D   1 1.00       0.000000000000
      0.8000000000D+00  0.1000000000D+01
 ****
      4 0
 S   6 1.00       0.000000000000
      0.5484671660D+04  0.1831074430D-02
      0.8252349460D+03  0.1395017220D-01
      0.1880469580D+03  0.6844507810D-01
      0.5296450000D+02  0.2327143360D+00
      0.1689757040D+02  0.4701928980D+00
      0.5799635340D+01  0.3585208530D+00
 SP   3 1.00       0.000000000000
      0.1553961625D+02 -0.1107775495D+00  0.7087426823D-01
      0.3599933586D+01 -0.1480262627D+00  0.3397528391D+00
      0.1013761750D+01  0.1130767015D+01  0.7271585773D+00
 SP   1 1.00       0.000000000000
      0.2700058226D+00  0.1000000000D+01  0.1000000000D+01
 D   1 1.00       0.000000000000
      0.8000000000D+00  0.1000000000D+01
 ****
      5 0
 S   6 1.00       0.000000000000
      0.3047524880D+04  0.1834737132D-02
      0.4573695180D+03  0.1403732281D-01
      0.1039486850D+03  0.6884262226D-01
      0.2921015530D+02  0.2321844432D+00
      0.9286662960D+01  0.4679413484D+00
      0.3163926960D+01  0.3623119853D+00
 SP   3 1.00       0.000000000000
      0.7868272350D+01 -0.1193324198D+00  0.6899906659D-01
      0.1881288540D+01 -0.1608541517D+00  0.3164239610D+00
      0.5442492580D+00  0.1143456438D+01  0.7443082909D+00
 SP   1 1.00       0.000000000000
      0.1687144782D+00  0.1000000000D+01  0.1000000000D+01
 D   1 1.00       0.000000000000
      0.8000000000D+00  0.1000000000D+01
 ****
      6 0
 S   6 1.00       0.000000000000
      0.3047524880D+04  0.1834737132D-02
      0.4573695180D+03  0.1403732281D-01
      0.1039486850D+03  0.6884262226D-01
      0.2921015530D+02  0.2321844432D+00
      0.9286662960D+01  0.4679413484D+00
      0.3163926960D+01  0.3623119853D+00
 SP   3 1.00       0.000000000000
      0.7868272350D+01 -0.1193324198D+00  0.6899906659D-01
      0.1881288540D+01 -0.1608541517D+00  0.3164239610D+00
      0.5442492580D+00  0.1143456438D+01  0.7443082909D+00
 SP   1 1.00       0.000000000000
      0.1687144782D+00  0.1000000000D+01  0.1000000000D+01
 D   1 1.00       0.000000000000
      0.8000000000D+00  0.1000000000D+01
 ****
      7 0
 S   6 1.00       0.000000000000
      0.5484671660D+04  0.1831074430D-02
      0.8252349460D+03  0.1395017220D-01
      0.1880469580D+03  0.6844507810D-01
      0.5296450000D+02  0.2327143360D+00
      0.1689757040D+02  0.4701928980D+00
      0.5799635340D+01  0.3585208530D+00
 SP   3 1.00       0.000000000000
      0.1553961625D+02 -0.1107775495D+00  0.7087426823D-01
      0.3599933586D+01 -0.1480262627D+00  0.3397528391D+00
      0.1013761750D+01  0.1130767015D+01  0.7271585773D+00
 SP   1 1.00       0.000000000000
      0.2700058226D+00  0.1000000000D+01  0.1000000000D+01
 D   1 1.00       0.000000000000
      0.8000000000D+00  0.1000000000D+01
 ****
      8 0
 S   6 1.00       0.000000000000
      0.3047524880D+04  0.1834737132D-02
      0.4573695180D+03  0.1403732281D-01
      0.1039486850D+03  0.6884262226D-01
      0.2921015530D+02  0.2321844432D+00
      0.9286662960D+01  0.4679413484D+00
      0.3163926960D+01  0.3623119853D+00
 SP   3 1.00       0.000000000000
      0.7868272350D+01 -0.1193324198D+00  0.6899906659D-01
      0.1881288540D+01 -0.1608541517D+00  0.3164239610D+00
      0.5442492580D+00  0.1143456438D+01  0.7443082909D+00
 SP   1 1.00       0.000000000000
      0.1687144782D+00  0.1000000000D+01  0.1000000000D+01
 D   1 1.00       0.000000000000
      0.8000000000D+00  0.1000000000D+01
 ****
      9 0
 S   6 1.00       0.000000000000
      0.3047524880D+04  0.1834737132D-02
      0.4573695180D+03  0.1403732281D-01
      0.1039486850D+03  0.6884262226D-01
      0.2921015530D+02  0.2321844432D+00
      0.9286662960D+01  0.4679413484D+00
      0.3163926960D+01  0.3623119853D+00
 SP   3 1.00       0.000000000000
      0.7868272350D+01 -0.1193324198D+00  0.6899906659D-01
      0.1881288540D+01 -0.1608541517D+00  0.3164239610D+00
      0.5442492580D+00  0.1143456438D+01  0.7443082909D+00
 SP   1 1.00       0.000000000000
      0.1687144782D+00  0.1000000000D+01  0.1000000000D+01
 D   1 1.00       0.000000000000
      0.8000000000D+00  0.1000000000D+01
 ****
     10 0
 S   6 1.00       0.000000000000
      0.3047524880D+04  0.1834737132D-02
      0.4573695180D+03  0.1403732281D-01
      0.1039486850D+03  0.6884262226D-01
      0.2921015530D+02  0.2321844432D+00
      0.9286662960D+01  0.4679413484D+00
      0.3163926960D+01  0.3623119853D+00
 SP   3 1.00       0.000000000000
      0.7868272350D+01 -0.1193324198D+00  0.6899906659D-01
      0.1881288540D+01 -0.1608541517D+00  0.3164239610D+00
      0.5442492580D+00  0.1143456438D+01  0.7443082909D+00
 SP   1 1.00       0.000000000000
      0.1687144782D+00  0.1000000000D+01  0.1000000000D+01
 D   1 1.00       0.000000000000
      0.8000000000D+00  0.1000000000D+01
 ****
     11 0
 S   6 1.00       0.000000000000
      0.3047524880D+04  0.1834737132D-02
      0.4573695180D+03  0.1403732281D-01
      0.1039486850D+03  0.6884262226D-01
      0.2921015530D+02  0.2321844432D+00
      0.9286662960D+01  0.4679413484D+00
      0.3163926960D+01  0.3623119853D+00
 SP   3 1.00       0.000000000000
      0.7868272350D+01 -0.1193324198D+00  0.6899906659D-01
      0.1881288540D+01 -0.1608541517D+00  0.3164239610D+00
      0.5442492580D+00  0.1143456438D+01  0.7443082909D+00
 SP   1 1.00       0.000000000000
      0.1687144782D+00  0.1000000000D+01  0.1000000000D+01
 D   1 1.00       0.000000000000
      0.8000000000D+00  0.1000000000D+01
 ****
     12 0
 S   6 1.00       0.000000000000
      0.3047524880D+04  0.1834737132D-02
      0.4573695180D+03  0.1403732281D-01
      0.1039486850D+03  0.6884262226D-01
      0.2921015530D+02  0.2321844432D+00
      0.9286662960D+01  0.4679413484D+00
      0.3163926960D+01  0.3623119853D+00
 SP   3 1.00       0.000000000000
      0.7868272350D+01 -0.1193324198D+00  0.6899906659D-01
      0.1881288540D+01 -0.1608541517D+00  0.3164239610D+00
      0.5442492580D+00  0.1143456438D+01  0.7443082909D+00
 SP   1 1.00       0.000000000000
      0.1687144782D+00  0.1000000000D+01  0.1000000000D+01
 D   1 1.00       0.000000000000
      0.8000000000D+00  0.1000000000D+01
 ****
     13 0
 S   6 1.00       0.000000000000
      0.3047524880D+04  0.1834737132D-02
      0.4573695180D+03  0.1403732281D-01
      0.1039486850D+03  0.6884262226D-01
      0.2921015530D+02  0.2321844432D+00
      0.9286662960D+01  0.4679413484D+00
      0.3163926960D+01  0.3623119853D+00
 SP   3 1.00       0.000000000000
      0.7868272350D+01 -0.1193324198D+00  0.6899906659D-01
      0.1881288540D+01 -0.1608541517D+00  0.3164239610D+00
      0.5442492580D+00  0.1143456438D+01  0.7443082909D+00
 SP   1 1.00       0.000000000000
      0.1687144782D+00  0.1000000000D+01  0.1000000000D+01
 D   1 1.00       0.000000000000
      0.8000000000D+00  0.1000000000D+01
 ****
     14 0
 S   6 1.00       0.000000000000
      0.4173511460D+04  0.1834772160D-02
      0.6274579110D+03  0.1399462700D-01
      0.1429020930D+03  0.6858655181D-01
      0.4023432930D+02  0.2322408730D+00
      0.1282021290D+02  0.4690699481D+00
      0.4390437010D+01  0.3604551991D+00
 SP   3 1.00       0.000000000000
      0.1162636186D+02 -0.1149611817D+00  0.6757974388D-01
      0.2716279807D+01 -0.1691174786D+00  0.3239072959D+00
      0.7722183966D+00  0.1145851947D+01  0.7408951398D+00
 SP   1 1.00       0.000000000000
      0.2120314975D+00  0.1000000000D+01  0.1000000000D+01
 D   1 1.00       0.000000000000
      0.8000000000D+00  0.1000000000D+01
 ****
     15 0
 S   6 1.00       0.000000000000
      0.3047524880D+04  0.1834737132D-02
      0.4573695180D+03  0.1403732281D-01
      0.1039486850D+03  0.6884262226D-01
      0.2921015530D+02  0.2321844432D+00
      0.9286662960D+01  0.4679413484D+00
      0.3163926960D+01  0.3623119853D+00
 SP   3 1.00       0.000000000000
      0.7868272350D+01 -0.1193324198D+00  0.6899906659D-01
      0.1881288540D+01 -0.1608541517D+00  0.3164239610D+00
      0.5442492580D+00  0.1143456438D+01  0.7443082909D+00
 SP   1 1.00       0.000000000000
      0.1687144782D+00  0.1000000000D+01  0.1000000000D+01
 D   1 1.00       0.000000000000
      0.8000000000D+00  0.1000000000D+01
 ****
     16 0
 S   6 1.00       0.000000000000
      0.3047524880D+04  0.1834737132D-02
      0.4573695180D+03  0.1403732281D-01
      0.1039486850D+03  0.6884262226D-01
      0.2921015530D+02  0.2321844432D+00
      0.9286662960D+01  0.4679413484D+00
      0.3163926960D+01  0.3623119853D+00
 SP   3 1.00       0.000000000000
      0.7868272350D+01 -0.1193324198D+00  0.6899906659D-01
      0.1881288540D+01 -0.1608541517D+00  0.3164239610D+00
      0.5442492580D+00  0.1143456438D+01  0.7443082909D+00
 SP   1 1.00       0.000000000000
      0.1687144782D+00  0.1000000000D+01  0.1000000000D+01
 D   1 1.00       0.000000000000
      0.8000000000D+00  0.1000000000D+01
 ****
     17 0
 S   6 1.00       0.000000000000
      0.3047524880D+04  0.1834737132D-02
      0.4573695180D+03  0.1403732281D-01
      0.1039486850D+03  0.6884262226D-01
      0.2921015530D+02  0.2321844432D+00
      0.9286662960D+01  0.4679413484D+00
      0.3163926960D+01  0.3623119853D+00
 SP   3 1.00       0.000000000000
      0.7868272350D+01 -0.1193324198D+00  0.6899906659D-01
      0.1881288540D+01 -0.1608541517D+00  0.3164239610D+00
      0.5442492580D+00  0.1143456438D+01  0.7443082909D+00
 SP   1 1.00       0.000000000000
      0.1687144782D+00  0.1000000000D+01  0.1000000000D+01
 D   1 1.00       0.000000000000
      0.8000000000D+00  0.1000000000D+01
 ****
     18 0
 S   6 1.00       0.000000000000
      0.3047524880D+04  0.1834737132D-02
      0.4573695180D+03  0.1403732281D-01
      0.1039486850D+03  0.6884262226D-01
      0.2921015530D+02  0.2321844432D+00
      0.9286662960D+01  0.4679413484D+00
      0.3163926960D+01  0.3623119853D+00
 SP   3 1.00       0.000000000000
      0.7868272350D+01 -0.1193324198D+00  0.6899906659D-01
      0.1881288540D+01 -0.1608541517D+00  0.3164239610D+00
      0.5442492580D+00  0.1143456438D+01  0.7443082909D+00
 SP   1 1.00       0.000000000000
      0.1687144782D+00  0.1000000000D+01  0.1000000000D+01
 D   1 1.00       0.000000000000
      0.8000000000D+00  0.1000000000D+01
 ****
     19 0
 S   6 1.00       0.000000000000
      0.3047524880D+04  0.1834737132D-02
      0.4573695180D+03  0.1403732281D-01
      0.1039486850D+03  0.6884262226D-01
      0.2921015530D+02  0.2321844432D+00
      0.9286662960D+01  0.4679413484D+00
      0.3163926960D+01  0.3623119853D+00
 SP   3 1.00       0.000000000000
      0.7868272350D+01 -0.1193324198D+00  0.6899906659D-01
      0.1881288540D+01 -0.1608541517D+00  0.3164239610D+00
      0.5442492580D+00  0.1143456438D+01  0.7443082909D+00
 SP   1 1.00       0.000000000000
      0.1687144782D+00  0.1000000000D+01  0.1000000000D+01
 D   1 1.00       0.000000000000
      0.8000000000D+00  0.1000000000D+01
 ****
     20 0
 S   6 1.00       0.000000000000
      0.3047524880D+04  0.1834737132D-02
      0.4573695180D+03  0.1403732281D-01
      0.1039486850D+03  0.6884262226D-01
      0.2921015530D+02  0.2321844432D+00
      0.9286662960D+01  0.4679413484D+00
      0.3163926960D+01  0.3623119853D+00
 SP   3 1.00       0.000000000000
      0.7868272350D+01 -0.1193324198D+00  0.6899906659D-01
      0.1881288540D+01 -0.1608541517D+00  0.3164239610D+00
      0.5442492580D+00  0.1143456438D+01  0.7443082909D+00
 SP   1 1.00       0.000000000000
      0.1687144782D+00  0.1000000000D+01  0.1000000000D+01
 D   1 1.00       0.000000000000
      0.8000000000D+00  0.1000000000D+01
 ****
     21 0
 S   6 1.00       0.000000000000
      0.3047524880D+04  0.1834737132D-02
      0.4573695180D+03  0.1403732281D-01
      0.1039486850D+03  0.6884262226D-01
      0.2921015530D+02  0.2321844432D+00
      0.9286662960D+01  0.4679413484D+00
      0.3163926960D+01  0.3623119853D+00
 SP   3 1.00       0.000000000000
      0.7868272350D+01 -0.1193324198D+00  0.6899906659D-01
      0.1881288540D+01 -0.1608541517D+00  0.3164239610D+00
      0.5442492580D+00  0.1143456438D+01  0.7443082909D+00
 SP   1 1.00       0.000000000000
      0.1687144782D+00  0.1000000000D+01  0.1000000000D+01
 D   1 1.00       0.000000000000
      0.8000000000D+00  0.1000000000D+01
 ****
     22 0
 S   6 1.00       0.000000000000
      0.3047524880D+04  0.1834737132D-02
      0.4573695180D+03  0.1403732281D-01
      0.1039486850D+03  0.6884262226D-01
      0.2921015530D+02  0.2321844432D+00
      0.9286662960D+01  0.4679413484D+00
      0.3163926960D+01  0.3623119853D+00
 SP   3 1.00       0.000000000000
      0.7868272350D+01 -0.1193324198D+00  0.6899906659D-01
      0.1881288540D+01 -0.1608541517D+00  0.3164239610D+00
      0.5442492580D+00  0.1143456438D+01  0.7443082909D+00
 SP   1 1.00       0.000000000000
      0.1687144782D+00  0.1000000000D+01  0.1000000000D+01
 D   1 1.00       0.000000000000
      0.8000000000D+00  0.1000000000D+01
 ****
     23 0
 S   6 1.00       0.000000000000
      0.3047524880D+04  0.1834737132D-02
      0.4573695180D+03  0.1403732281D-01
      0.1039486850D+03  0.6884262226D-01
      0.2921015530D+02  0.2321844432D+00
      0.9286662960D+01  0.4679413484D+00
      0.3163926960D+01  0.3623119853D+00
 SP   3 1.00       0.000000000000
      0.7868272350D+01 -0.1193324198D+00  0.6899906659D-01
      0.1881288540D+01 -0.1608541517D+00  0.3164239610D+00
      0.5442492580D+00  0.1143456438D+01  0.7443082909D+00
 SP   1 1.00       0.000000000000
      0.1687144782D+00  0.1000000000D+01  0.1000000000D+01
 D   1 1.00       0.000000000000
      0.8000000000D+00  0.1000000000D+01
 ****
     24 0
 S   6 1.00       0.000000000000
      0.2191710000D+05  0.1869240849D-02
      0.3301490000D+04  0.1423030646D-01
      0.7541460000D+03  0.6969623166D-01
      0.2127110000D+03  0.2384871083D+00
      0.6798960000D+02  0.4833072195D+00
      0.2305150000D+02  0.3380741536D+00
 SP   6 1.00       0.000000000000
      0.4237350000D+03 -0.2376770499D-02  0.4061009982D-02
      0.1007100000D+03 -0.3169300665D-01  0.3068129986D-01
      0.3215990000D+02 -0.1133170238D+00  0.1304519994D+00
      0.1180790000D+02  0.5609001177D-01  0.3272049985D+00
      0.4631100000D+01  0.5922551243D+00  0.4528509980D+00
      0.1870250000D+01  0.4550060955D+00  0.2560419989D+00
 SP   3 1.00       0.000000000000
      0.2615840000D+01 -0.2503731142D+00 -0.1451048955D-01
      0.9221670000D+00  0.6695676310D-01  0.3102627765D+00
      0.3412870000D+00  0.1054506269D+01  0.7544824565D+00
 SP   1 1.00       0.000000000000
      0.1171670000D+00  0.1000000000D+01  0.1000000000D+01
 D   1 1.00       0.000000000000
      0.6500000000D+00  0.1000000000D+01
 ****
     25 0
 S   6 1.00       0.000000000000
      0.3047524880D+04  0.1834737132D-02
      0.4573695180D+03  0.1403732281D-01
      0.1039486850D+03  0.6884262226D-01
      0.2921015530D+02  0.2321844432D+00
      0.9286662960D+01  0.4679413484D+00
      0.3163926960D+01  0.3623119853D+00
 SP   3 1.00       0.000000000000
      0.7868272350D+01 -0.1193324198D+00  0.6899906659D-01
      0.1881288540D+01 -0.1608541517D+00  0.3164239610D+00
      0.5442492580D+00  0.1143456438D+01  0.7443082909D+00
 SP   1 1.00       0.000000000000
      0.1687144782D+00  0.1000000000D+01  0.1000000000D+01
 D   1 1.00       0.000000000000
      0.8000000000D+00  0.1000000000D+01
 ****
     26 0
 S   6 1.00       0.000000000000
      0.3047524880D+04  0.1834737132D-02
      0.4573695180D+03  0.1403732281D-01
      0.1039486850D+03  0.6884262226D-01
      0.2921015530D+02  0.2321844432D+00
      0.9286662960D+01  0.4679413484D+00
      0.3163926960D+01  0.3623119853D+00
 SP   3 1.00       0.000000000000
      0.7868272350D+01 -0.1193324198D+00  0.6899906659D-01
      0.1881288540D+01 -0.1608541517D+00  0.3164239610D+00
      0.5442492580D+00  0.1143456438D+01  0.7443082909D+00
 SP   1 1.00       0.000000000000
      0.1687144782D+00  0.1000000000D+01  0.1000000000D+01
 D   1 1.00       0.000000000000
      0.8000000000D+00  0.1000000000D+01
 ****
     27 0
 S   6 1.00       0.000000000000
      0.3047524880D+04  0.1834737132D-02
      0.4573695180D+03  0.1403732281D-01
      0.1039486850D+03  0.6884262226D-01
      0.2921015530D+02  0.2321844432D+00
      0.9286662960D+01  0.4679413484D+00
      0.3163926960D+01  0.3623119853D+00
 SP   3 1.00       0.000000000000
      0.7868272350D+01 -0.1193324198D+00  0.6899906659D-01
      0.1881288540D+01 -0.1608541517D+00  0.3164239610D+00
      0.5442492580D+00  0.1143456438D+01  0.7443082909D+00
 SP   1 1.00       0.000000000000
      0.1687144782D+00  0.1000000000D+01  0.1000000000D+01
 D   1 1.00       0.000000000000
      0.8000000000D+00  0.1000000000D+01
 ****
     28 0
 S   6 1.00       0.000000000000
      0.3047524880D+04  0.1834737132D-02
      0.4573695180D+03  0.1403732281D-01
      0.1039486850D+03  0.6884262226D-01
      0.2921015530D+02  0.2321844432D+00
      0.9286662960D+01  0.4679413484D+00
      0.3163926960D+01  0.3623119853D+00
 SP   3 1.00       0.000000000000
      0.7868272350D+01 -0.1193324198D+00  0.6899906659D-01
      0.1881288540D+01 -0.1608541517D+00  0.3164239610D+00
      0.5442492580D+00  0.1143456438D+01  0.7443082909D+00
 SP   1 1.00       0.000000000000
      0.1687144782D+00  0.1000000000D+01  0.1000000000D+01
 D   1 1.00       0.000000000000
      0.8000000000D+00  0.1000000000D+01
 ****
     29 0
 S   6 1.00       0.000000000000
      0.3047524880D+04  0.1834737132D-02
      0.4573695180D+03  0.1403732281D-01
      0.1039486850D+03  0.6884262226D-01
      0.2921015530D+02  0.2321844432D+00
      0.9286662960D+01  0.4679413484D+00
      0.3163926960D+01  0.3623119853D+00
 SP   3 1.00       0.000000000000
      0.7868272350D+01 -0.1193324198D+00  0.6899906659D-01
      0.1881288540D+01 -0.1608541517D+00  0.3164239610D+00
      0.5442492580D+00  0.1143456438D+01  0.7443082909D+00
 SP   1 1.00       0.000000000000
      0.1687144782D+00  0.1000000000D+01  0.1000000000D+01
 D   1 1.00       0.000000000000
      0.8000000000D+00  0.1000000000D+01
 ****
     30 0
 S   6 1.00       0.000000000000
      0.3047524880D+04  0.1834737132D-02
      0.4573695180D+03  0.1403732281D-01
      0.1039486850D+03  0.6884262226D-01
      0.2921015530D+02  0.2321844432D+00
      0.9286662960D+01  0.4679413484D+00
      0.3163926960D+01  0.3623119853D+00
 SP   3 1.00       0.000000000000
      0.7868272350D+01 -0.1193324198D+00  0.6899906659D-01
      0.1881288540D+01 -0.1608541517D+00  0.3164239610D+00
      0.5442492580D+00  0.1143456438D+01  0.7443082909D+00
 SP   1 1.00       0.000000000000
      0.1687144782D+00  0.1000000000D+01  0.1000000000D+01
 D   1 1.00       0.000000000000
      0.8000000000D+00  0.1000000000D+01
 ****
     31 0
 S   6 1.00       0.000000000000
      0.3047524880D+04  0.1834737132D-02
      0.4573695180D+03  0.1403732281D-01
      0.1039486850D+03  0.6884262226D-01
      0.2921015530D+02  0.2321844432D+00
      0.9286662960D+01  0.4679413484D+00
      0.3163926960D+01  0.3623119853D+00
 SP   3 1.00       0.000000000000
      0.7868272350D+01 -0.1193324198D+00  0.6899906659D-01
      0.1881288540D+01 -0.1608541517D+00  0.3164239610D+00
      0.5442492580D+00  0.1143456438D+01  0.7443082909D+00
 SP   1 1.00       0.000000000000
      0.1687144782D+00  0.1000000000D+01  0.1000000000D+01
 D   1 1.00       0.000000000000
      0.8000000000D+00  0.1000000000D+01
 ****
     32 0
 S   6 1.00       0.000000000000
      0.3047524880D+04  0.1834737132D-02
      0.4573695180D+03  0.1403732281D-01
      0.1039486850D+03  0.6884262226D-01
      0.2921015530D+02  0.2321844432D+00
      0.9286662960D+01  0.4679413484D+00
      0.3163926960D+01  0.3623119853D+00
 SP   3 1.00       0.000000000000
      0.7868272350D+01 -0.1193324198D+00  0.6899906659D-01
      0.1881288540D+01 -0.1608541517D+00  0.3164239610D+00
      0.5442492580D+00  0.1143456438D+01  0.7443082909D+00
 SP   1 1.00       0.000000000000
      0.1687144782D+00  0.1000000000D+01  0.1000000000D+01
 D   1 1.00       0.000000000000
      0.8000000000D+00  0.1000000000D+01
 ****
     33 0
 S   6 1.00       0.000000000000
      0.3047524880D+04  0.1834737132D-02
      0.4573695180D+03  0.1403732281D-01
      0.1039486850D+03  0.6884262226D-01
      0.2921015530D+02  0.2321844432D+00
      0.9286662960D+01  0.4679413484D+00
      0.3163926960D+01  0.3623119853D+00
 SP   3 1.00       0.000000000000
      0.7868272350D+01 -0.1193324198D+00  0.6899906659D-01
      0.1881288540D+01 -0.1608541517D+00  0.3164239610D+00
      0.5442492580D+00  0.1143456438D+01  0.7443082909D+00
 SP   1 1.00       0.000000000000
      0.1687144782D+00  0.1000000000D+01  0.1000000000D+01
 D   1 1.00       0.000000000000
      0.8000000000D+00  0.1000000000D+01
 ****
     34 0
 S   6 1.00       0.000000000000
      0.5484671660D+04  0.1831074430D-02
      0.8252349460D+03  0.1395017220D-01
      0.1880469580D+03  0.6844507810D-01
      0.5296450000D+02  0.2327143360D+00
      0.1689757040D+02  0.4701928980D+00
      0.5799635340D+01  0.3585208530D+00
 SP   3 1.00       0.000000000000
      0.1553961625D+02 -0.1107775495D+00  0.7087426823D-01
      0.3599933586D+01 -0.1480262627D+00  0.3397528391D+00
      0.1013761750D+01  0.1130767015D+01  0.7271585773D+00
 SP   1 1.00       0.000000000000
      0.2700058226D+00  0.1000000000D+01  0.1000000000D+01
 D   1 1.00       0.000000000000
      0.8000000000D+00  0.1000000000D+01
 ****
     35 0
 S   6 1.00       0.000000000000
      0.3047524880D+04  0.1834737132D-02
      0.4573695180D+03  0.1403732281D-01
      0.1039486850D+03  0.6884262226D-01
      0.2921015530D+02  0.2321844432D+00
      0.9286662960D+01  0.4679413484D+00
      0.3163926960D+01  0.3623119853D+00
 SP   3 1.00       0.000000000000
      0.7868272350D+01 -0.1193324198D+00  0.6899906659D-01
      0.1881288540D+01 -0.1608541517D+00  0.3164239610D+00
      0.5442492580D+00  0.1143456438D+01  0.7443082909D+00
 SP   1 1.00       0.000000000000
      0.1687144782D+00  0.1000000000D+01  0.1000000000D+01
 D   1 1.00       0.000000000000
      0.8000000000D+00  0.1000000000D+01
 ****
     36 0
 S   6 1.00       0.000000000000
      0.3047524880D+04  0.1834737132D-02
      0.4573695180D+03  0.1403732281D-01
      0.1039486850D+03  0.6884262226D-01
      0.2921015530D+02  0.2321844432D+00
      0.9286662960D+01  0.4679413484D+00
      0.3163926960D+01  0.3623119853D+00
 SP   3 1.00       0.000000000000
      0.7868272350D+01 -0.1193324198D+00  0.6899906659D-01
      0.1881288540D+01 -0.1608541517D+00  0.3164239610D+00
      0.5442492580D+00  0.1143456438D+01  0.7443082909D+00
 SP   1 1.00       0.000000000000
      0.1687144782D+00  0.1000000000D+01  0.1000000000D+01
 D   1 1.00       0.000000000000
      0.8000000000D+00  0.1000000000D+01
 ****
     37 0
 S   6 1.00       0.000000000000
      0.3047524880D+04  0.1834737132D-02
      0.4573695180D+03  0.1403732281D-01
      0.1039486850D+03  0.6884262226D-01
      0.2921015530D+02  0.2321844432D+00
      0.9286662960D+01  0.4679413484D+00
      0.3163926960D+01  0.3623119853D+00
 SP   3 1.00       0.000000000000
      0.7868272350D+01 -0.1193324198D+00  0.6899906659D-01
      0.1881288540D+01 -0.1608541517D+00  0.3164239610D+00
      0.5442492580D+00  0.1143456438D+01  0.7443082909D+00
 SP   1 1.00       0.000000000000
      0.1687144782D+00  0.1000000000D+01  0.1000000000D+01
 D   1 1.00       0.000000000000
      0.8000000000D+00  0.1000000000D+01
 ****
     38 0
 S   6 1.00       0.000000000000
      0.3047524880D+04  0.1834737132D-02
      0.4573695180D+03  0.1403732281D-01
      0.1039486850D+03  0.6884262226D-01
      0.2921015530D+02  0.2321844432D+00
      0.9286662960D+01  0.4679413484D+00
      0.3163926960D+01  0.3623119853D+00
 SP   3 1.00       0.000000000000
      0.7868272350D+01 -0.1193324198D+00  0.6899906659D-01
      0.1881288540D+01 -0.1608541517D+00  0.3164239610D+00
      0.5442492580D+00  0.1143456438D+01  0.7443082909D+00
 SP   1 1.00       0.000000000000
      0.1687144782D+00  0.1000000000D+01  0.1000000000D+01
 D   1 1.00       0.000000000000
      0.8000000000D+00  0.1000000000D+01
 ****
     39 0
 S   6 1.00       0.000000000000
      0.3047524880D+04  0.1834737132D-02
      0.4573695180D+03  0.1403732281D-01
      0.1039486850D+03  0.6884262226D-01
      0.2921015530D+02  0.2321844432D+00
      0.9286662960D+01  0.4679413484D+00
      0.3163926960D+01  0.3623119853D+00
 SP   3 1.00       0.000000000000
      0.7868272350D+01 -0.1193324198D+00  0.6899906659D-01
      0.1881288540D+01 -0.1608541517D+00  0.3164239610D+00
      0.5442492580D+00  0.1143456438D+01  0.7443082909D+00
 SP   1 1.00       0.000000000000
      0.1687144782D+00  0.1000000000D+01  0.1000000000D+01
 D   1 1.00       0.000000000000
      0.8000000000D+00  0.1000000000D+01
 ****
     40 0
 S   6 1.00       0.000000000000
      0.3047524880D+04  0.1834737132D-02
      0.4573695180D+03  0.1403732281D-01
      0.1039486850D+03  0.6884262226D-01
      0.2921015530D+02  0.2321844432D+00
      0.9286662960D+01  0.4679413484D+00
      0.3163926960D+01  0.3623119853D+00
 SP   3 1.00       0.000000000000
      0.7868272350D+01 -0.1193324198D+00  0.6899906659D-01
      0.1881288540D+01 -0.1608541517D+00  0.3164239610D+00
      0.5442492580D+00  0.1143456438D+01  0.7443082909D+00
 SP   1 1.00       0.000000000000
      0.1687144782D+00  0.1000000000D+01  0.1000000000D+01
 D   1 1.00       0.000000000000
      0.8000000000D+00  0.1000000000D+01
 ****
     41 0
 S   6 1.00       0.000000000000
      0.4173511460D+04  0.1834772160D-02
      0.6274579110D+03  0.1399462700D-01
      0.1429020930D+03  0.6858655181D-01
      0.4023432930D+02  0.2322408730D+00
      0.1282021290D+02  0.4690699481D+00
      0.4390437010D+01  0.3604551991D+00
 SP   3 1.00       0.000000000000
      0.1162636186D+02 -0.1149611817D+00  0.6757974388D-01
      0.2716279807D+01 -0.1691174786D+00  0.3239072959D+00
      0.7722183966D+00  0.1145851947D+01  0.7408951398D+00
 SP   1 1.00       0.000000000000
      0.2120314975D+00  0.1000000000D+01  0.1000000000D+01
 D   1 1.00       0.000000000000
      0.8000000000D+00  0.1000000000D+01
 ****
     42 0
 S   6 1.00       0.000000000000
      0.3047524880D+04  0.1834737132D-02
      0.4573695180D+03  0.1403732281D-01
      0.1039486850D+03  0.6884262226D-01
      0.2921015530D+02  0.2321844432D+00
      0.9286662960D+01  0.4679413484D+00
      0.3163926960D+01  0.3623119853D+00
 SP   3 1.00       0.000000000000
      0.7868272350D+01 -0.1193324198D+00  0.6899906659D-01
      0.1881288540D+01 -0.1608541517D+00  0.3164239610D+00
      0.5442492580D+00  0.1143456438D+01  0.7443082909D+00
 SP   1 1.00       0.000000000000
      0.1687144782D+00  0.1000000000D+01  0.1000000000D+01
 D   1 1.00       0.000000000000
      0.8000000000D+00  0.1000000000D+01
 ****
     43 0
 S   6 1.00       0.000000000000
      0.3047524880D+04  0.1834737132D-02
      0.4573695180D+03  0.1403732281D-01
      0.1039486850D+03  0.6884262226D-01
      0.2921015530D+02  0.2321844432D+00
      0.9286662960D+01  0.4679413484D+00
      0.3163926960D+01  0.3623119853D+00
 SP   3 1.00       0.000000000000
      0.7868272350D+01 -0.1193324198D+00  0.6899906659D-01
      0.1881288540D+01 -0.1608541517D+00  0.3164239610D+00
      0.5442492580D+00  0.1143456438D+01  0.7443082909D+00
 SP   1 1.00       0.000000000000
      0.1687144782D+00  0.1000000000D+01  0.1000000000D+01
 D   1 1.00       0.000000000000
      0.8000000000D+00  0.1000000000D+01
 ****
     44 0
 S   6 1.00       0.000000000000
      0.5484671660D+04  0.1831074430D-02
      0.8252349460D+03  0.1395017220D-01
      0.1880469580D+03  0.6844507810D-01
      0.5296450000D+02  0.2327143360D+00
      0.1689757040D+02  0.4701928980D+00
      0.5799635340D+01  0.3585208530D+00
 SP   3 1.00       0.000000000000
      0.1553961625D+02 -0.1107775495D+00  0.7087426823D-01
      0.3599933586D+01 -0.1480262627D+00  0.3397528391D+00
      0.1013761750D+01  0.1130767015D+01  0.7271585773D+00
 SP   1 1.00       0.000000000000
      0.2700058226D+00  0.1000000000D+01  0.1000000000D+01
 D   1 1.00       0.000000000000
      0.8000000000D+00  0.1000000000D+01
 ****
     45 0
 S   3 1.00       0.000000000000
      0.1873113696D+02  0.3349460434D-01
      0.2825394365D+01  0.2347269535D+00
      0.6401216923D+00  0.8137573261D+00
 S   1 1.00       0.000000000000
      0.1612777588D+00  0.1000000000D+01
 ****
     46 0
 S   3 1.00       0.000000000000
      0.1873113696D+02  0.3349460434D-01
      0.2825394365D+01  0.2347269535D+00
      0.6401216923D+00  0.8137573261D+00
 S   1 1.00       0.000000000000
      0.1612777588D+00  0.1000000000D+01
 ****
     47 0
 S   3 1.00       0.000000000000
      0.1873113696D+02  0.3349460434D-01
      0.2825394365D+01  0.2347269535D+00
      0.6401216923D+00  0.8137573261D+00
 S   1 1.00       0.000000000000
      0.1612777588D+00  0.1000000000D+01
 ****
     48 0
 S   3 1.00       0.000000000000
      0.1873113696D+02  0.3349460434D-01
      0.2825394365D+01  0.2347269535D+00
      0.6401216923D+00  0.8137573261D+00
 S   1 1.00       0.000000000000
      0.1612777588D+00  0.1000000000D+01
 ****
     49 0
 S   3 1.00       0.000000000000
      0.1873113696D+02  0.3349460434D-01
      0.2825394365D+01  0.2347269535D+00
      0.6401216923D+00  0.8137573261D+00
 S   1 1.00       0.000000000000
      0.1612777588D+00  0.1000000000D+01
 ****
     50 0
 S   3 1.00       0.000000000000
      0.1873113696D+02  0.3349460434D-01
      0.2825394365D+01  0.2347269535D+00
      0.6401216923D+00  0.8137573261D+00
 S   1 1.00       0.000000000000
      0.1612777588D+00  0.1000000000D+01
 ****
     51 0
 S   3 1.00       0.000000000000
      0.1873113696D+02  0.3349460434D-01
      0.2825394365D+01  0.2347269535D+00
      0.6401216923D+00  0.8137573261D+00
 S   1 1.00       0.000000000000
      0.1612777588D+00  0.1000000000D+01
 ****
     52 0
 S   3 1.00       0.000000000000
      0.1873113696D+02  0.3349460434D-01
      0.2825394365D+01  0.2347269535D+00
      0.6401216923D+00  0.8137573261D+00
 S   1 1.00       0.000000000000
      0.1612777588D+00  0.1000000000D+01
 ****
     53 0
 S   3 1.00       0.000000000000
      0.1873113696D+02  0.3349460434D-01
      0.2825394365D+01  0.2347269535D+00
      0.6401216923D+00  0.8137573261D+00
 S   1 1.00       0.000000000000
      0.1612777588D+00  0.1000000000D+01
 ****
     54 0
 S   3 1.00       0.000000000000
      0.1873113696D+02  0.3349460434D-01
      0.2825394365D+01  0.2347269535D+00
      0.6401216923D+00  0.8137573261D+00
 S   1 1.00       0.000000000000
      0.1612777588D+00  0.1000000000D+01
 ****
     55 0
 S   3 1.00       0.000000000000
      0.1873113696D+02  0.3349460434D-01
      0.2825394365D+01  0.2347269535D+00
      0.6401216923D+00  0.8137573261D+00
 S   1 1.00       0.000000000000
      0.1612777588D+00  0.1000000000D+01
 ****
     56 0
 S   3 1.00       0.000000000000
      0.1873113696D+02  0.3349460434D-01
      0.2825394365D+01  0.2347269535D+00
      0.6401216923D+00  0.8137573261D+00
 S   1 1.00       0.000000000000
      0.1612777588D+00  0.1000000000D+01
 ****
     57 0
 S   3 1.00       0.000000000000
      0.1873113696D+02  0.3349460434D-01
      0.2825394365D+01  0.2347269535D+00
      0.6401216923D+00  0.8137573261D+00
 S   1 1.00       0.000000000000
      0.1612777588D+00  0.1000000000D+01
 ****
     58 0
 S   3 1.00       0.000000000000
      0.1873113696D+02  0.3349460434D-01
      0.2825394365D+01  0.2347269535D+00
      0.6401216923D+00  0.8137573261D+00
 S   1 1.00       0.000000000000
      0.1612777588D+00  0.1000000000D+01
 ****
     59 0
 S   3 1.00       0.000000000000
      0.1873113696D+02  0.3349460434D-01
      0.2825394365D+01  0.2347269535D+00
      0.6401216923D+00  0.8137573261D+00
 S   1 1.00       0.000000000000
      0.1612777588D+00  0.1000000000D+01
 ****
     60 0
 S   3 1.00       0.000000000000
      0.1873113696D+02  0.3349460434D-01
      0.2825394365D+01  0.2347269535D+00
      0.6401216923D+00  0.8137573261D+00
 S   1 1.00       0.000000000000
      0.1612777588D+00  0.1000000000D+01
 ****
     61 0
 S   3 1.00       0.000000000000
      0.1873113696D+02  0.3349460434D-01
      0.2825394365D+01  0.2347269535D+00
      0.6401216923D+00  0.8137573261D+00
 S   1 1.00       0.000000000000
      0.1612777588D+00  0.1000000000D+01
 ****
     62 0
 S   3 1.00       0.000000000000
      0.1873113696D+02  0.3349460434D-01
      0.2825394365D+01  0.2347269535D+00
      0.6401216923D+00  0.8137573261D+00
 S   1 1.00       0.000000000000
      0.1612777588D+00  0.1000000000D+01
 ****
     63 0
 S   3 1.00       0.000000000000
      0.1873113696D+02  0.3349460434D-01
      0.2825394365D+01  0.2347269535D+00
      0.6401216923D+00  0.8137573261D+00
 S   1 1.00       0.000000000000
      0.1612777588D+00  0.1000000000D+01
 ****
     64 0
 S   3 1.00       0.000000000000
      0.1873113696D+02  0.3349460434D-01
      0.2825394365D+01  0.2347269535D+00
      0.6401216923D+00  0.8137573261D+00
 S   1 1.00       0.000000000000
      0.1612777588D+00  0.1000000000D+01
 ****
     65 0
 S   3 1.00       0.000000000000
      0.1873113696D+02  0.3349460434D-01
      0.2825394365D+01  0.2347269535D+00
      0.6401216923D+00  0.8137573261D+00
 S   1 1.00       0.000000000000
      0.1612777588D+00  0.1000000000D+01
 ****
     66 0
 S   3 1.00       0.000000000000
      0.1873113696D+02  0.3349460434D-01
      0.2825394365D+01  0.2347269535D+00
      0.6401216923D+00  0.8137573261D+00
 S   1 1.00       0.000000000000
      0.1612777588D+00  0.1000000000D+01
 ****
     67 0
 S   3 1.00       0.000000000000
      0.1873113696D+02  0.3349460434D-01
      0.2825394365D+01  0.2347269535D+00
      0.6401216923D+00  0.8137573261D+00
 S   1 1.00       0.000000000000
      0.1612777588D+00  0.1000000000D+01
 ****
     68 0
 S   3 1.00       0.000000000000
      0.1873113696D+02  0.3349460434D-01
      0.2825394365D+01  0.2347269535D+00
      0.6401216923D+00  0.8137573261D+00
 S   1 1.00       0.000000000000
      0.1612777588D+00  0.1000000000D+01
 ****
     69 0
 S   3 1.00       0.000000000000
      0.1873113696D+02  0.3349460434D-01
      0.2825394365D+01  0.2347269535D+00
      0.6401216923D+00  0.8137573261D+00
 S   1 1.00       0.000000000000
      0.1612777588D+00  0.1000000000D+01
 ****
     70 0
 S   3 1.00       0.000000000000
      0.1873113696D+02  0.3349460434D-01
      0.2825394365D+01  0.2347269535D+00
      0.6401216923D+00  0.8137573261D+00
 S   1 1.00       0.000000000000
      0.1612777588D+00  0.1000000000D+01
 ****
     71 0
 S   3 1.00       0.000000000000
      0.1873113696D+02  0.3349460434D-01
      0.2825394365D+01  0.2347269535D+00
      0.6401216923D+00  0.8137573261D+00
 S   1 1.00       0.000000000000
      0.1612777588D+00  0.1000000000D+01
 ****
     72 0
 S   3 1.00       0.000000000000
      0.1873113696D+02  0.3349460434D-01
      0.2825394365D+01  0.2347269535D+00
      0.6401216923D+00  0.8137573261D+00
 S   1 1.00       0.000000000000
      0.1612777588D+00  0.1000000000D+01
 ****
     73 0
 S   3 1.00       0.000000000000
      0.1873113696D+02  0.3349460434D-01
      0.2825394365D+01  0.2347269535D+00
      0.6401216923D+00  0.8137573261D+00
 S   1 1.00       0.000000000000
      0.1612777588D+00  0.1000000000D+01
 ****
     74 0
 S   3 1.00       0.000000000000
      0.1873113696D+02  0.3349460434D-01
      0.2825394365D+01  0.2347269535D+00
      0.6401216923D+00  0.8137573261D+00
 S   1 1.00       0.000000000000
      0.1612777588D+00  0.1000000000D+01
 ****
     75 0
 S   3 1.00       0.000000000000
      0.1873113696D+02  0.3349460434D-01
      0.2825394365D+01  0.2347269535D+00
      0.6401216923D+00  0.8137573261D+00
 S   1 1.00       0.000000000000
      0.1612777588D+00  0.1000000000D+01
 ****
     76 0
 S   3 1.00       0.000000000000
      0.1873113696D+02  0.3349460434D-01
      0.2825394365D+01  0.2347269535D+00
      0.6401216923D+00  0.8137573261D+00
 S   1 1.00       0.000000000000
      0.1612777588D+00  0.1000000000D+01
 ****
     77 0
 S   3 1.00       0.000000000000
      0.1873113696D+02  0.3349460434D-01
      0.2825394365D+01  0.2347269535D+00
      0.6401216923D+00  0.8137573261D+00
 S   1 1.00       0.000000000000
      0.1612777588D+00  0.1000000000D+01
 ****
     78 0
 S   3 1.00       0.000000000000
      0.1873113696D+02  0.3349460434D-01
      0.2825394365D+01  0.2347269535D+00
      0.6401216923D+00  0.8137573261D+00
 S   1 1.00       0.000000000000
      0.1612777588D+00  0.1000000000D+01
 ****
     79 0
 S   3 1.00       0.000000000000
      0.1873113696D+02  0.3349460434D-01
      0.2825394365D+01  0.2347269535D+00
      0.6401216923D+00  0.8137573261D+00
 S   1 1.00       0.000000000000
      0.1612777588D+00  0.1000000000D+01
 ****
     80 0
 S   3 1.00       0.000000000000
      0.1873113696D+02  0.3349460434D-01
      0.2825394365D+01  0.2347269535D+00
      0.6401216923D+00  0.8137573261D+00
 S   1 1.00       0.000000000000
      0.1612777588D+00  0.1000000000D+01
 ****
     81 0
 S   3 1.00       0.000000000000
      0.1873113696D+02  0.3349460434D-01
      0.2825394365D+01  0.2347269535D+00
      0.6401216923D+00  0.8137573261D+00
 S   1 1.00       0.000000000000
      0.1612777588D+00  0.1000000000D+01
 ****
     82 0
 S   3 1.00       0.000000000000
      0.1873113696D+02  0.3349460434D-01
      0.2825394365D+01  0.2347269535D+00
      0.6401216923D+00  0.8137573261D+00
 S   1 1.00       0.000000000000
      0.1612777588D+00  0.1000000000D+01
 ****
     83 0
 S   3 1.00       0.000000000000
      0.1873113696D+02  0.3349460434D-01
      0.2825394365D+01  0.2347269535D+00
      0.6401216923D+00  0.8137573261D+00
 S   1 1.00       0.000000000000
      0.1612777588D+00  0.1000000000D+01
 ****
     84 0
 S   3 1.00       0.000000000000
      0.1873113696D+02  0.3349460434D-01
      0.2825394365D+01  0.2347269535D+00
      0.6401216923D+00  0.8137573261D+00
 S   1 1.00       0.000000000000
      0.1612777588D+00  0.1000000000D+01
 ****
     85 0
 S   3 1.00       0.000000000000
      0.1873113696D+02  0.3349460434D-01
      0.2825394365D+01  0.2347269535D+00
      0.6401216923D+00  0.8137573261D+00
 S   1 1.00       0.000000000000
      0.1612777588D+00  0.1000000000D+01
 ****
     86 0
 S   3 1.00       0.000000000000
      0.1873113696D+02  0.3349460434D-01
      0.2825394365D+01  0.2347269535D+00
      0.6401216923D+00  0.8137573261D+00
 S   1 1.00       0.000000000000
      0.1612777588D+00  0.1000000000D+01
 ****

   748 basis functions,  1424 primitive gaussians,   748 cartesian basis functions
   163 alpha electrons      163 beta electrons
       nuclear repulsion energy      5754.4871450861 Hartrees.
 IExCor=  402 DFT=T Ex+Corr=B3LYP ExCW=0 ScaHFX=  0.200000
 ScaDFX=  0.800000  0.720000  1.000000  0.810000 ScalE2=  1.000000  1.000000
 IRadAn=      5 IRanWt=     -1 IRanGd=            0 ICorTp=0 IEmpDi=  4
 NAtoms=   86 NActive=   86 NUniq=   86 SFac= 1.00D+00 NAtFMM=   60 NAOKFM=T Big=T
 Integral buffers will be    131072 words long.
 Regular integral format.
 Two-electron integral symmetry is turned off.
 Leave Link  301 at Sat Nov  5 12:05:27 2022, MaxMem=   402653184 cpu:               1.6 elap:               0.1
 (Enter /home/wykgroup/appl/g16/l302.exe)
 NPDir=0 NMtPBC=     1 NCelOv=     1 NCel=       1 NClECP=     1 NCelD=      1
         NCelK=      1 NCelE2=     1 NClLst=     1 CellRange=     0.0.
 One-electron integrals computed using PRISM.
 NBasis=   748 RedAO= T EigKep=  4.13D-04  NBF=   748
 NBsUse=   748 1.00D-06 EigRej= -1.00D+00 NBFU=   748
 Precomputing XC quadrature grid using
 IXCGrd= 4 IRadAn=           5 IRanWt=          -1 IRanGd=           0 AccXCQ= 0.00D+00.
 Generated NRdTot=       0 NPtTot=           0 NUsed=           0 NTot=          32
 NSgBfM=   701   699   701   701   701 MxSgAt=    86 MxSgA2=    86.
 Leave Link  302 at Sat Nov  5 12:05:29 2022, MaxMem=   402653184 cpu:              22.2 elap:               1.7
 (Enter /home/wykgroup/appl/g16/l303.exe)
 DipDrv:  MaxL=1.
 Leave Link  303 at Sat Nov  5 12:05:30 2022, MaxMem=   402653184 cpu:              17.2 elap:               1.3
 (Enter /home/wykgroup/appl/g16/l308.exe)
 Leave Link  308 at Sat Nov  5 12:05:31 2022, MaxMem=   402653184 cpu:               1.5 elap:               0.2
 (Enter /home/wykgroup/appl/g16/l401.exe)
 ExpMin= 1.17D-01 ExpMax= 2.19D+04 ExpMxC= 3.30D+03 IAcc=3 IRadAn=         5 AccDes= 0.00D+00
 Harris functional with IExCor=  402 and IRadAn=       5 diagonalized for initial guess.
 HarFok:  IExCor=  402 AccDes= 0.00D+00 IRadAn=         5 IDoV= 1 UseB2=F ITyADJ=14
 ICtDFT=  3500011 ScaDFX=  1.000000  1.000000  1.000000  1.000000
 FoFCou: FMM=F IPFlag=           0 FMFlag=      100000 FMFlg1=        2001
         NFxFlg=           0 DoJE=T BraDBF=F KetDBF=T FulRan=T
         wScrn=  0.000000 ICntrl=       500 IOpCl=  0 I1Cent=   200000004 NGrid=           0
         NMat0=    1 NMatS0=      1 NMatT0=    0 NMatD0=    1 NMtDS0=    0 NMtDT0=    0
 Symmetry not used in FoFCou.
 Harris En= -2243.73370484873    
 JPrj=0 DoOrth=F DoCkMO=F.
 Leave Link  401 at Sat Nov  5 12:05:36 2022, MaxMem=   402653184 cpu:              70.8 elap:               5.2
 (Enter /home/wykgroup/appl/g16/l502.exe)
 Two-electron integral symmetry not used.
 Closed shell SCF:
 Using DIIS extrapolation, IDIIS=  1040.
 NGot=   402653184 LenX=   401517132 LenY=   400956880
 Requested convergence on RMS density matrix=1.00D-08 within  32 cycles.
 Requested convergence on MAX density matrix=1.00D-06.
 Requested convergence on             energy=1.00D-06.
 No special actions if energy rises.
 Fock matrices will be formed incrementally for  20 cycles.
 Integral accuracy reduced to 1.0D-05 until final iterations.

 Cycle   1  Pass 0  IDiag  1:
 FoFJK:  IHMeth= 1 ICntrl=       0 DoSepK=F KAlg= 0 I1Cent=           0 FoldK=F
 IRaf= 900000000 NMat=       1 IRICut=       1 DoRegI=T DoRafI=F ISym2E= 0 IDoP0=0 IntGTp=1.
 FoFCou: FMM=T IPFlag=           0 FMFlag=      100000 FMFlg1=        2001
         NFxFlg=           0 DoJE=F BraDBF=F KetDBF=F FulRan=T
         wScrn=  0.000000 ICntrl=         0 IOpCl=  0 I1Cent=           0 NGrid=           0
         NMat0=    1 NMatS0=      1 NMatT0=    0 NMatD0=    1 NMtDS0=    0 NMtDT0=    0
 Symmetry not used in FoFCou.
 FMM levels:  10  Number of levels for PrismC:   9
 E= -2242.77380523803    
 DIIS: error= 2.96D-02 at cycle   1 NSaved=   1.
 NSaved= 1 IEnMin= 1 EnMin= -2242.77380523803     IErMin= 1 ErrMin= 2.96D-02
 ErrMax= 2.96D-02  0.00D+00 EMaxC= 1.00D-01 BMatC= 9.59D-01 BMatP= 9.59D-01
 IDIUse=3 WtCom= 7.04D-01 WtEn= 2.96D-01
 Coeff-Com:  0.100D+01
 Coeff-En:   0.100D+01
 Coeff:      0.100D+01
 Gap=     0.359 Goal=   None    Shift=    0.000
 GapD=    0.359 DampG=1.000 DampE=0.500 DampFc=0.5000 IDamp=-1.
 Damping current iteration by 5.00D-01
 RMSDP=3.08D-03 MaxDP=1.40D-01              OVMax= 1.64D-01

 Cycle   2  Pass 0  IDiag  1:
 RMSU=  1.52D-03    CP:  9.81D-01
 E= -2243.23798185645     Delta-E=       -0.464176618419 Rises=F Damp=T
 DIIS: error= 6.00D-03 at cycle   2 NSaved=   2.
 NSaved= 2 IEnMin= 2 EnMin= -2243.23798185645     IErMin= 2 ErrMin= 6.00D-03
 ErrMax= 6.00D-03  0.00D+00 EMaxC= 1.00D-01 BMatC= 5.11D-02 BMatP= 9.59D-01
 IDIUse=3 WtCom= 9.40D-01 WtEn= 6.00D-02
 Coeff-Com:  0.230D-01 0.977D+00
 Coeff-En:   0.408D-01 0.959D+00
 Coeff:      0.241D-01 0.976D+00
 Gap=     0.244 Goal=   None    Shift=    0.000
 RMSDP=7.59D-04 MaxDP=5.15D-02 DE=-4.64D-01 OVMax= 9.68D-02

 Cycle   3  Pass 0  IDiag  1:
 RMSU=  7.16D-04    CP:  9.74D-01  8.49D-01
 E= -2243.74905064538     Delta-E=       -0.511068788932 Rises=F Damp=F
 DIIS: error= 2.71D-03 at cycle   3 NSaved=   3.
 NSaved= 3 IEnMin= 3 EnMin= -2243.74905064538     IErMin= 3 ErrMin= 2.71D-03
 ErrMax= 2.71D-03  0.00D+00 EMaxC= 1.00D-01 BMatC= 2.15D-02 BMatP= 5.11D-02
 IDIUse=3 WtCom= 9.73D-01 WtEn= 2.71D-02
 Coeff-Com: -0.352D-01 0.368D+00 0.667D+00
 Coeff-En:   0.000D+00 0.000D+00 0.100D+01
 Coeff:     -0.343D-01 0.358D+00 0.676D+00
 Gap=     0.200 Goal=   None    Shift=    0.000
 RMSDP=3.60D-04 MaxDP=3.20D-02 DE=-5.11D-01 OVMax= 3.39D-02

 Cycle   4  Pass 0  IDiag  1:
 RMSU=  2.77D-04    CP:  9.75D-01  9.23D-01  7.21D-01
 E= -2243.75882751341     Delta-E=       -0.009776868026 Rises=F Damp=F
 DIIS: error= 2.12D-03 at cycle   4 NSaved=   4.
 NSaved= 4 IEnMin= 4 EnMin= -2243.75882751341     IErMin= 4 ErrMin= 2.12D-03
 ErrMax= 2.12D-03  0.00D+00 EMaxC= 1.00D-01 BMatC= 1.06D-02 BMatP= 2.15D-02
 IDIUse=3 WtCom= 9.79D-01 WtEn= 2.12D-02
 Coeff-Com: -0.230D-01 0.106D+00 0.431D+00 0.486D+00
 Coeff-En:   0.000D+00 0.000D+00 0.345D+00 0.655D+00
 Coeff:     -0.225D-01 0.104D+00 0.429D+00 0.490D+00
 Gap=     0.196 Goal=   None    Shift=    0.000
 RMSDP=1.68D-04 MaxDP=1.24D-02 DE=-9.78D-03 OVMax= 2.19D-02

 Cycle   5  Pass 0  IDiag  1:
 RMSU=  7.92D-05    CP:  9.74D-01  9.18D-01  7.96D-01  5.03D-01
 E= -2243.76795218012     Delta-E=       -0.009124666710 Rises=F Damp=F
 DIIS: error= 7.48D-04 at cycle   5 NSaved=   5.
 NSaved= 5 IEnMin= 5 EnMin= -2243.76795218012     IErMin= 5 ErrMin= 7.48D-04
 ErrMax= 7.48D-04  0.00D+00 EMaxC= 1.00D-01 BMatC= 4.00D-04 BMatP= 1.06D-02
 IDIUse=3 WtCom= 9.93D-01 WtEn= 7.48D-03
 Coeff-Com: -0.805D-02 0.245D-01 0.159D+00 0.240D+00 0.584D+00
 Coeff-En:   0.000D+00 0.000D+00 0.000D+00 0.000D+00 0.100D+01
 Coeff:     -0.799D-02 0.244D-01 0.158D+00 0.238D+00 0.587D+00
 Gap=     0.194 Goal=   None    Shift=    0.000
 RMSDP=4.36D-05 MaxDP=3.70D-03 DE=-9.12D-03 OVMax= 7.33D-03

 Cycle   6  Pass 0  IDiag  1:
 RMSU=  2.68D-05    CP:  9.74D-01  9.19D-01  7.99D-01  5.55D-01  6.07D-01
 E= -2243.76828237817     Delta-E=       -0.000330198050 Rises=F Damp=F
 DIIS: error= 3.88D-04 at cycle   6 NSaved=   6.
 NSaved= 6 IEnMin= 6 EnMin= -2243.76828237817     IErMin= 6 ErrMin= 3.88D-04
 ErrMax= 3.88D-04  0.00D+00 EMaxC= 1.00D-01 BMatC= 8.95D-05 BMatP= 4.00D-04
 IDIUse=3 WtCom= 9.96D-01 WtEn= 3.88D-03
 Coeff-Com: -0.312D-02 0.606D-02 0.629D-01 0.108D+00 0.376D+00 0.450D+00
 Coeff-En:   0.000D+00 0.000D+00 0.000D+00 0.000D+00 0.187D+00 0.813D+00
 Coeff:     -0.311D-02 0.604D-02 0.627D-01 0.108D+00 0.375D+00 0.452D+00
 Gap=     0.194 Goal=   None    Shift=    0.000
 RMSDP=1.57D-05 MaxDP=8.14D-04 DE=-3.30D-04 OVMax= 2.67D-03

 Cycle   7  Pass 0  IDiag  1:
 RMSU=  6.25D-06    CP:  9.74D-01  9.18D-01  8.04D-01  5.47D-01  6.73D-01
                    CP:  5.21D-01
 E= -2243.76838032992     Delta-E=       -0.000097951751 Rises=F Damp=F
 DIIS: error= 4.96D-05 at cycle   7 NSaved=   7.
 NSaved= 7 IEnMin= 7 EnMin= -2243.76838032992     IErMin= 7 ErrMin= 4.96D-05
 ErrMax= 4.96D-05  0.00D+00 EMaxC= 1.00D-01 BMatC= 2.45D-06 BMatP= 8.95D-05
 IDIUse=1 WtCom= 1.00D+00 WtEn= 0.00D+00
 Coeff-Com: -0.108D-02 0.147D-02 0.220D-01 0.403D-01 0.155D+00 0.226D+00
 Coeff-Com:  0.556D+00
 Coeff:     -0.108D-02 0.147D-02 0.220D-01 0.403D-01 0.155D+00 0.226D+00
 Coeff:      0.556D+00
 Gap=     0.194 Goal=   None    Shift=    0.000
 RMSDP=3.23D-06 MaxDP=3.32D-04 DE=-9.80D-05 OVMax= 3.68D-04

 Initial convergence to 1.0D-05 achieved.  Increase integral accuracy.
 Cycle   8  Pass 1  IDiag  1:
 E= -2243.76835564005     Delta-E=        0.000024689873 Rises=F Damp=F
 DIIS: error= 1.68D-04 at cycle   1 NSaved=   1.
 NSaved= 1 IEnMin= 1 EnMin= -2243.76835564005     IErMin= 1 ErrMin= 1.68D-04
 ErrMax= 1.68D-04  0.00D+00 EMaxC= 1.00D-01 BMatC= 1.22D-05 BMatP= 1.22D-05
 IDIUse=3 WtCom= 9.98D-01 WtEn= 1.68D-03
 Coeff-Com:  0.100D+01
 Coeff-En:   0.100D+01
 Coeff:      0.100D+01
 Gap=     0.194 Goal=   None    Shift=    0.000
 RMSDP=3.23D-06 MaxDP=3.32D-04 DE= 2.47D-05 OVMax= 5.00D-04

 Cycle   9  Pass 1  IDiag  1:
 RMSU=  6.58D-05    CP:  1.00D+00
 E= -2243.76836748467     Delta-E=       -0.000011844621 Rises=F Damp=F
 DIIS: error= 2.57D-05 at cycle   2 NSaved=   2.
 NSaved= 2 IEnMin= 2 EnMin= -2243.76836748467     IErMin= 2 ErrMin= 2.57D-05
 ErrMax= 2.57D-05  0.00D+00 EMaxC= 1.00D-01 BMatC= 7.31D-07 BMatP= 1.22D-05
 IDIUse=1 WtCom= 1.00D+00 WtEn= 0.00D+00
 Coeff-Com:  0.760D-01 0.924D+00
 Coeff:      0.760D-01 0.924D+00
 Gap=     0.194 Goal=   None    Shift=    0.000
 RMSDP=3.38D-06 MaxDP=1.99D-04 DE=-1.18D-05 OVMax= 5.37D-04

 Cycle  10  Pass 1  IDiag  1:
 RMSU=  3.31D-06    CP:  1.00D+00  1.01D+00
 E= -2243.76836622885     Delta-E=        0.000001255817 Rises=F Damp=F
 DIIS: error= 4.91D-05 at cycle   3 NSaved=   3.
 NSaved= 3 IEnMin= 2 EnMin= -2243.76836748467     IErMin= 2 ErrMin= 2.57D-05
 ErrMax= 4.91D-05  0.00D+00 EMaxC= 1.00D-01 BMatC= 1.92D-06 BMatP= 7.31D-07
 IDIUse=1 WtCom= 1.00D+00 WtEn= 0.00D+00
 Coeff-Com: -0.479D-02 0.621D+00 0.383D+00
 Coeff:     -0.479D-02 0.621D+00 0.383D+00
 Gap=     0.194 Goal=   None    Shift=    0.000
 RMSDP=2.13D-06 MaxDP=1.23D-04 DE= 1.26D-06 OVMax= 3.82D-04

 Cycle  11  Pass 1  IDiag  1:
 RMSU=  4.22D-07    CP:  1.00D+00  1.01D+00  3.70D-01
 E= -2243.76836820688     Delta-E=       -0.000001978032 Rises=F Damp=F
 DIIS: error= 5.83D-06 at cycle   4 NSaved=   4.
 NSaved= 4 IEnMin= 4 EnMin= -2243.76836820688     IErMin= 4 ErrMin= 5.83D-06
 ErrMax= 5.83D-06  0.00D+00 EMaxC= 1.00D-01 BMatC= 1.93D-08 BMatP= 7.31D-07
 IDIUse=1 WtCom= 1.00D+00 WtEn= 0.00D+00
 Coeff-Com: -0.390D-02 0.369D+00 0.235D+00 0.400D+00
 Coeff:     -0.390D-02 0.369D+00 0.235D+00 0.400D+00
 Gap=     0.194 Goal=   None    Shift=    0.000
 RMSDP=2.33D-07 MaxDP=2.27D-05 DE=-1.98D-06 OVMax= 4.07D-05

 Cycle  12  Pass 1  IDiag  1:
 RMSU=  1.21D-07    CP:  1.00D+00  1.01D+00  3.87D-01  5.46D-01
 E= -2243.76836822699     Delta-E=       -0.000000020104 Rises=F Damp=F
 DIIS: error= 7.08D-07 at cycle   5 NSaved=   5.
 NSaved= 5 IEnMin= 5 EnMin= -2243.76836822699     IErMin= 5 ErrMin= 7.08D-07
 ErrMax= 7.08D-07  0.00D+00 EMaxC= 1.00D-01 BMatC= 4.07D-10 BMatP= 1.93D-08
 IDIUse=1 WtCom= 1.00D+00 WtEn= 0.00D+00
 Coeff-Com: -0.181D-02 0.165D+00 0.106D+00 0.207D+00 0.524D+00
 Coeff:     -0.181D-02 0.165D+00 0.106D+00 0.207D+00 0.524D+00
 Gap=     0.194 Goal=   None    Shift=    0.000
 RMSDP=4.05D-08 MaxDP=3.74D-06 DE=-2.01D-08 OVMax= 5.53D-06

 Cycle  13  Pass 1  IDiag  1:
 RMSU=  3.54D-08    CP:  1.00D+00  1.01D+00  3.86D-01  5.64D-01  8.55D-01
 E= -2243.76836822731     Delta-E=       -0.000000000326 Rises=F Damp=F
 DIIS: error= 1.88D-07 at cycle   6 NSaved=   6.
 NSaved= 6 IEnMin= 6 EnMin= -2243.76836822731     IErMin= 6 ErrMin= 1.88D-07
 ErrMax= 1.88D-07  0.00D+00 EMaxC= 1.00D-01 BMatC= 4.20D-11 BMatP= 4.07D-10
 IDIUse=1 WtCom= 1.00D+00 WtEn= 0.00D+00
 Coeff-Com: -0.333D-03 0.280D-01 0.181D-01 0.444D-01 0.267D+00 0.643D+00
 Coeff:     -0.333D-03 0.280D-01 0.181D-01 0.444D-01 0.267D+00 0.643D+00
 Gap=     0.194 Goal=   None    Shift=    0.000
 RMSDP=1.24D-08 MaxDP=9.45D-07 DE=-3.26D-10 OVMax= 1.68D-06

 Cycle  14  Pass 1  IDiag  1:
 RMSU=  8.60D-09    CP:  1.00D+00  1.01D+00  3.87D-01  5.65D-01  8.91D-01
                    CP:  7.85D-01
 E= -2243.76836822730     Delta-E=        0.000000000009 Rises=F Damp=F
 DIIS: error= 5.40D-08 at cycle   7 NSaved=   7.
 NSaved= 7 IEnMin= 6 EnMin= -2243.76836822731     IErMin= 7 ErrMin= 5.40D-08
 ErrMax= 5.40D-08  0.00D+00 EMaxC= 1.00D-01 BMatC= 6.12D-12 BMatP= 4.20D-11
 IDIUse=1 WtCom= 1.00D+00 WtEn= 0.00D+00
 Coeff-Com: -0.120D-04-0.143D-03-0.165D-04 0.496D-02 0.100D+00 0.362D+00
 Coeff-Com:  0.533D+00
 Coeff:     -0.120D-04-0.143D-03-0.165D-04 0.496D-02 0.100D+00 0.362D+00
 Coeff:      0.533D+00
 Gap=     0.194 Goal=   None    Shift=    0.000
 RMSDP=4.73D-09 MaxDP=2.24D-07 DE= 9.09D-12 OVMax= 6.88D-07

 SCF Done:  E(RB3LYP) =  -2243.76836823     A.U. after   14 cycles
            NFock= 14  Conv=0.47D-08     -V/T= 2.0085
 KE= 2.224939706474D+03 PE=-1.674311279207D+04 EE= 6.519917572280D+03
 Leave Link  502 at Sat Nov  5 12:07:33 2022, MaxMem=   402653184 cpu:            1554.0 elap:             116.4
[...]
 Alpha  occ. eigenvalues --   -0.30979  -0.30755  -0.30339  -0.29727  -0.29584
 Alpha  occ. eigenvalues --   -0.26770  -0.26164  -0.26067  -0.25169  -0.24687
 Alpha  occ. eigenvalues --   -0.24033  -0.23951  -0.23838  -0.23519  -0.23357
 Alpha  occ. eigenvalues --   -0.21369  -0.20108  -0.19668
 Alpha virt. eigenvalues --   -0.00284   0.00011   0.00232   0.00344   0.00583
 Alpha virt. eigenvalues --    0.00710   0.01908   0.02109   0.04536   0.04591
 Alpha virt. eigenvalues --    0.06398   0.06854   0.07328   0.07903   0.09104
 Alpha virt. eigenvalues --    0.09524   0.09996   0.10041   0.10476   0.11062
 Alpha virt. eigenvalues --    0.11201   0.11619   0.12086   0.12613   0.12920
 Alpha virt. eigenvalues --    0.13684   0.13892   0.13956   0.14482   0.14635
 Alpha virt. eigenvalues --    0.15126   0.15325   0.15610   0.15915   0.16162
 Alpha virt. eigenvalues --    0.16256   0.16594   0.16769   0.16871   0.17194
 Alpha virt. eigenvalues --    0.17249   0.17474   0.17739   0.17976   0.18353
 Alpha virt. eigenvalues --    0.18448   0.18800   0.19169   0.19443   0.19743
 Alpha virt. eigenvalues --    0.19923   0.20428   0.20621   0.20860   0.21174
 Alpha virt. eigenvalues --    0.21493   0.21988   0.22284   0.22554   0.22667
 Alpha virt. eigenvalues --    0.23165   0.23583   0.24111   0.24429   0.25005
 Alpha virt. eigenvalues --    0.25563   0.25677   0.25935   0.26188   0.27488
 Alpha virt. eigenvalues --    0.27965   0.28300   0.28885   0.28996   0.29299
 Alpha virt. eigenvalues --    0.30420   0.30988   0.30999   0.31186   0.31840
 Alpha virt. eigenvalues --    0.32572   0.32694   0.33179   0.33587   0.33774
 Alpha virt. eigenvalues --    0.34138   0.34408   0.34823   0.35444   0.35525
 Alpha virt. eigenvalues --    0.36799   0.37258   0.37734   0.37982   0.38530
 Alpha virt. eigenvalues --    0.39241   0.42573   0.43871   0.44315   0.45498
 Alpha virt. eigenvalues --    0.45807   0.48265   0.49171   0.49398   0.49890
 Alpha virt. eigenvalues --    0.50566   0.51439   0.52003   0.52191   0.52912
 Alpha virt. eigenvalues --    0.53240   0.53564   0.53912   0.54069   0.54239
 Alpha virt. eigenvalues --    0.54555   0.54676   0.55103   0.55301   0.55418
 Alpha virt. eigenvalues --    0.55940   0.56246   0.56588   0.56830   0.57359
 Alpha virt. eigenvalues --    0.57467   0.57949   0.58139   0.58177   0.58313
 Alpha virt. eigenvalues --    0.58561   0.59404   0.59629   0.59864   0.59962
 Alpha virt. eigenvalues --    0.60104   0.60363   0.60653   0.60877   0.60996
 Alpha virt. eigenvalues --    0.61177   0.61420   0.61484   0.61628   0.61732
 Alpha virt. eigenvalues --    0.62018   0.62159   0.62273   0.62337   0.62576
 Alpha virt. eigenvalues --    0.62854   0.63211   0.63454   0.63549   0.63783
 Alpha virt. eigenvalues --    0.63903   0.64390   0.64492   0.65009   0.65216
 Alpha virt. eigenvalues --    0.65761   0.66470   0.66942   0.67328   0.67732
 Alpha virt. eigenvalues --    0.68378   0.69006   0.69128   0.69843   0.70262
 Alpha virt. eigenvalues --    0.70529   0.70669   0.70891   0.71519   0.73118
 Alpha virt. eigenvalues --    0.73751   0.73934   0.74013   0.74443   0.75027
 Alpha virt. eigenvalues --    0.76133   0.76375   0.76384   0.77271   0.77971
 Alpha virt. eigenvalues --    0.78193   0.79397   0.79535   0.80083   0.80180
 Alpha virt. eigenvalues --    0.80455   0.80877   0.81634   0.82963   0.83373
 Alpha virt. eigenvalues --    0.83722   0.83845   0.84048   0.84293   0.84366
 Alpha virt. eigenvalues --    0.84710   0.85026   0.85093   0.85353   0.85680
 Alpha virt. eigenvalues --    0.86165   0.86920   0.87467   0.87565   0.87912
 Alpha virt. eigenvalues --    0.88091   0.88471   0.88941   0.89213   0.89675
 Alpha virt. eigenvalues --    0.90019   0.90191   0.90371   0.90641   0.90864
 Alpha virt. eigenvalues --    0.90899   0.91058   0.91567   0.91879   0.91963
 Alpha virt. eigenvalues --    0.92317   0.92418   0.92843   0.93176   0.93630
 Alpha virt. eigenvalues --    0.94311   0.94799   0.95102   0.95370   0.96016
 Alpha virt. eigenvalues --    0.96414   0.96690   0.97292   0.97738   0.97992
 Alpha virt. eigenvalues --    0.98218   0.98535   0.98995   0.99634   0.99911
 Alpha virt. eigenvalues --    1.00483   1.00687   1.00924   1.01380   1.01983
 Alpha virt. eigenvalues --    1.02583   1.02818   1.03351   1.04141   1.04669
 Alpha virt. eigenvalues --    1.05074   1.05887   1.06071   1.06393   1.07347
 Alpha virt. eigenvalues --    1.08060   1.08882   1.09432   1.10077   1.10725
 Alpha virt. eigenvalues --    1.10969   1.13371   1.13590   1.14242   1.15104
 Alpha virt. eigenvalues --    1.15645   1.16154   1.16271   1.16435   1.16961
 Alpha virt. eigenvalues --    1.17278   1.18262   1.18807   1.19252   1.19901
 Alpha virt. eigenvalues --    1.21074   1.21414   1.22274   1.22770   1.24086
 Alpha virt. eigenvalues --    1.24850   1.25654   1.26006   1.26595   1.26665
 Alpha virt. eigenvalues --    1.27326   1.27953   1.28542   1.29271   1.30135
 Alpha virt. eigenvalues --    1.31440   1.31904   1.32173   1.33478   1.34434
 Alpha virt. eigenvalues --    1.36403   1.37157   1.37911   1.39199   1.39367
 Alpha virt. eigenvalues --    1.39903   1.40606   1.41559   1.42910   1.43405
 Alpha virt. eigenvalues --    1.43456   1.43950   1.44470   1.46157   1.46625
 Alpha virt. eigenvalues --    1.46947   1.47330   1.47601   1.47961   1.48424
 Alpha virt. eigenvalues --    1.48792   1.49379   1.49551   1.49791   1.50001
 Alpha virt. eigenvalues --    1.50092   1.50174   1.50431   1.50769   1.51182
 Alpha virt. eigenvalues --    1.51797   1.52599   1.53636   1.54108   1.55448
 Alpha virt. eigenvalues --    1.56264   1.56577   1.57756   1.59499   1.59985
 Alpha virt. eigenvalues --    1.61161   1.62384   1.64464   1.65868   1.67756
 Alpha virt. eigenvalues --    1.68131   1.69315   1.70842   1.71066   1.72688
 Alpha virt. eigenvalues --    1.74557   1.75676   1.76362   1.76696   1.77302
 Alpha virt. eigenvalues --    1.78742   1.79124   1.79324   1.79670   1.80072
 Alpha virt. eigenvalues --    1.80613   1.80825   1.81469   1.81879   1.83099
 Alpha virt. eigenvalues --    1.83279   1.83877   1.84013   1.85451   1.86218
 Alpha virt. eigenvalues --    1.86460   1.87389   1.87591   1.88275   1.88626
 Alpha virt. eigenvalues --    1.89595   1.90077   1.90380   1.90728   1.91376
 Alpha virt. eigenvalues --    1.91578   1.92354   1.92526   1.92826   1.93294
 Alpha virt. eigenvalues --    1.93458   1.93763   1.94216   1.94819   1.94970
 Alpha virt. eigenvalues --    1.95027   1.95623   1.96353   1.97307   1.97523
 Alpha virt. eigenvalues --    1.97795   1.98137   1.98328   1.98644   2.00082
 Alpha virt. eigenvalues --    2.00994   2.03273   2.03886   2.04455   2.05122
 Alpha virt. eigenvalues --    2.05821   2.06265   2.07079   2.07409   2.07924
 Alpha virt. eigenvalues --    2.08529   2.08612   2.09195   2.09818   2.10132
 Alpha virt. eigenvalues --    2.10301   2.11099   2.12798   2.13260   2.14007
 Alpha virt. eigenvalues --    2.14389   2.14727   2.14921   2.15225   2.15427
 Alpha virt. eigenvalues --    2.16258   2.17125   2.18051   2.18302   2.18812
 Alpha virt. eigenvalues --    2.19620   2.19819   2.20823   2.21020   2.21849
 Alpha virt. eigenvalues --    2.21965   2.22114   2.22767   2.22973   2.24185
 Alpha virt. eigenvalues --    2.24504   2.24879   2.25463   2.26223   2.26927
 Alpha virt. eigenvalues --    2.26950   2.27981   2.28433   2.28800   2.29144
 Alpha virt. eigenvalues --    2.30020   2.30904   2.31375   2.31697   2.32265
 Alpha virt. eigenvalues --    2.32612   2.32775   2.33677   2.34711   2.36351
 Alpha virt. eigenvalues --    2.37032   2.37533   2.38733   2.39203   2.40157
 Alpha virt. eigenvalues --    2.41434   2.42567   2.42977   2.43290   2.43601
 Alpha virt. eigenvalues --    2.44587   2.45835   2.46284   2.47505   2.48659
 Alpha virt. eigenvalues --    2.49920   2.50883   2.51276   2.51974   2.52733
 Alpha virt. eigenvalues --    2.54298   2.56762   2.57944   2.58538   2.59040
 Alpha virt. eigenvalues --    2.59145   2.59684   2.61157   2.62136   2.63057
 Alpha virt. eigenvalues --    2.63476   2.64201   2.64929   2.66104   2.66849
 Alpha virt. eigenvalues --    2.67612   2.68105   2.68129   2.69408   2.70230
 Alpha virt. eigenvalues --    2.72389   2.72962   2.73447   2.73971   2.74944
 Alpha virt. eigenvalues --    2.75079   2.75598   2.76238   2.76508   2.77220
 Alpha virt. eigenvalues --    2.77387   2.77772   2.77964   2.78799   2.79160
 Alpha virt. eigenvalues --    2.81631   2.83259   2.84319   2.85340   2.86819
 Alpha virt. eigenvalues --    2.87546   2.89131   2.90496   2.91340   2.92346
 Alpha virt. eigenvalues --    2.93938   2.96712   2.97860   2.99010   3.03055
 Alpha virt. eigenvalues --    3.05762   3.05879   3.06488   3.08023   3.11466
 Alpha virt. eigenvalues --    3.13438   3.14606   3.41390   3.41643   3.42299
 Alpha virt. eigenvalues --    3.42536   3.84178   3.84775   3.91740   3.97831
 Alpha virt. eigenvalues --    4.04608   4.09600   4.09952   4.10355   4.10776
 Alpha virt. eigenvalues --    4.11548   4.12410   4.13692   4.14287   4.14542
 Alpha virt. eigenvalues --    4.15502   4.16403   4.17013   4.17893   4.20706
 Alpha virt. eigenvalues --    4.21461   4.28678   4.31538   4.32314   4.32773
 Alpha virt. eigenvalues --    4.33938   4.34551   4.34960   4.37343   4.37492
 Alpha virt. eigenvalues --    4.38580   4.41092   4.43703   4.44951   4.46860
 Alpha virt. eigenvalues --    4.48589   4.56604   4.61063   4.69810   4.70842
 Alpha virt. eigenvalues --    4.71211   4.72838   4.73661   4.74183   4.81791
          Condensed to atoms (all electrons):
 Mulliken charges:
               1
     1  C   -0.457658
     2  C    0.547700
     3  C   -0.473690
     4  O   -0.525226
     5  C    0.092926
     6  C    0.140448
     7  O   -0.487434
     8  C   -0.103075
     9  C    0.131680
    10  C   -0.189865
    11  C   -0.135631
    12  C   -0.167707
    13  C    0.308100
    14  N   -0.788180
    15  C   -0.218634
    16  C   -0.281935
    17  C   -0.360189
    18  C    0.155085
    19  C   -0.175830
    20  C   -0.129221
    21  C   -0.130464
    22  C   -0.134013
    23  C   -0.176663
    24  S    0.082312
    25  C   -0.314162
    26  C   -0.366901
    27  C    0.183625
    28  C   -0.183973
    29  C   -0.127878
    30  C   -0.129757
    31  C   -0.129687
    32  C   -0.167378
    33  C    0.132616
    34  O   -0.490343
    35  C   -0.099056
    36  C    0.099223
    37  C   -0.191612
    38  C   -0.136525
    39  C   -0.170143
    40  C    0.304131
    41  N   -0.790208
    42  C   -0.229026
    43  C    0.125054
    44  O   -0.544633
    45  H    0.150552
    46  H    0.144580
    47  H    0.166338
    48  H    0.144500
    49  H    0.173375
    50  H    0.146341
    51  H    0.142455
    52  H    0.124844
    53  H    0.123983
    54  H    0.153961
    55  H    0.117273
    56  H    0.126014
    57  H    0.116068
    58  H    0.318579
    59  H    0.319438
    60  H    0.142350
    61  H    0.175759
    62  H    0.179468
    63  H    0.154698
    64  H    0.139167
    65  H    0.126316
    66  H    0.123109
    67  H    0.118125
    68  H    0.157167
    69  H    0.181707
    70  H    0.176806
    71  H    0.148865
    72  H    0.121489
    73  H    0.128429
    74  H    0.128141
    75  H    0.128349
    76  H    0.120287
    77  H    0.152812
    78  H    0.165138
    79  H    0.127960
    80  H    0.110123
    81  H    0.123811
    82  H    0.113400
    83  H    0.316317
    84  H    0.325999
    85  H    0.168377
    86  H    0.181326
 Sum of Mulliken charges =  -0.00000
 Mulliken charges with hydrogens summed into heavy atoms:
               1
     1  C    0.003812
     2  C    0.547700
     3  C   -0.009475
     4  O   -0.525226
     5  C    0.235381
     6  C    0.265292
     7  O   -0.487434
     8  C    0.174868
     9  C    0.131680
    10  C   -0.072592
    11  C   -0.009616
    12  C   -0.051639
    13  C    0.308100
    14  N   -0.150164
    15  C   -0.076283
    16  C   -0.106175
    17  C   -0.026023
    18  C    0.155085
    19  C   -0.036663
    20  C   -0.002905
    21  C   -0.007355
    22  C   -0.015888
    23  C   -0.019495
    24  S    0.082312
    25  C   -0.132455
    26  C   -0.041230
    27  C    0.183625
    28  C   -0.062483
    29  C    0.000551
    30  C   -0.001616
    31  C   -0.001338
    32  C   -0.047091
    33  C    0.285428
    34  O   -0.490343
    35  C    0.194043
    36  C    0.099223
    37  C   -0.081489
    38  C   -0.012715
    39  C   -0.056743
    40  C    0.304131
    41  N   -0.147892
    42  C   -0.060650
    43  C    0.306380
    44  O   -0.544633
 Electronic spatial extent (au):  <R**2>=          27452.2034
 Charge=             -0.0000 electrons
 Dipole moment (field-independent basis, Debye):
    X=             -0.7216    Y=             -0.8486    Z=              0.9234  Tot=              1.4469
 Quadrupole moment (field-independent basis, Debye-Ang):
   XX=           -252.4733   YY=           -249.8216   ZZ=           -262.8438
   XY=              9.0171   XZ=              3.7977   YZ=            -17.9383
 Traceless Quadrupole moment (field-independent basis, Debye-Ang):
   XX=              2.5729   YY=              5.2246   ZZ=             -7.7976
   XY=              9.0171   XZ=              3.7977   YZ=            -17.9383
 Octapole moment (field-independent basis, Debye-Ang**2):
  XXX=           -107.8130  YYY=           -116.0165  ZZZ=             -3.2404  XYY=            -32.0108
  XXY=            -33.2443  XXZ=             46.3136  XZZ=             52.7136  YZZ=            -72.9572
  YYZ=             28.6570  XYZ=             11.4540
 Hexadecapole moment (field-independent basis, Debye-Ang**3):
 XXXX=         -18837.3467 YYYY=         -11227.4949 ZZZZ=          -5511.4629 XXXY=           -652.9587
 XXXZ=           -729.5689 YYYX=          -1200.6655 YYYZ=            727.5352 ZZZX=           -814.2149
 ZZZY=           1074.6876 XXYY=          -4977.2551 XXZZ=          -4243.0161 YYZZ=          -2896.2733
 XXYZ=            -79.0585 YYXZ=           -386.2398 ZZXY=           -742.5069
 N-N= 5.754487145086D+03 E-N=-1.674311285504D+04  KE= 2.224939706474D+03
 Leave Link  601 at Sat Nov  5 12:29:53 2022, MaxMem=   402653184 cpu:               3.0 elap:               0.3
 (Enter /home/wykgroup/appl/g16/l9999.exe)
 Electronic transition elements 
                 1             2             3             4 
      1  -0.224364D+04 -0.224364D+04 -0.224359D+04 -0.224359D+04
      2   0.000000D+00  0.000000D+00 -0.719977D+00  0.537664D+00
      3   0.000000D+00  0.000000D+00 -0.319863D-01 -0.512572D-01
      4   0.000000D+00  0.000000D+00 -0.158591D+00  0.292496D+00
      5   0.000000D+00  0.000000D+00  0.128223D+00 -0.975924D-01
      6   0.000000D+00  0.000000D+00  0.509312D-02  0.972715D-02
      7   0.000000D+00  0.000000D+00  0.280654D-01 -0.536969D-01
      8   0.000000D+00  0.000000D+00  0.839506D-02 -0.179077D+00
      9   0.000000D+00  0.000000D+00 -0.346137D+00  0.745158D+00
     10   0.000000D+00  0.000000D+00 -0.198194D+00  0.346075D+00
     11   0.000000D+00  0.000000D+00 -0.225045D+01 -0.184548D+01
     12   0.000000D+00  0.000000D+00  0.151494D+00  0.157985D+00
     13   0.000000D+00  0.000000D+00 -0.664641D-02 -0.117354D+00
     14   0.000000D+00  0.000000D+00 -0.263755D+00  0.253244D+00
     15   0.000000D+00  0.000000D+00 -0.498195D+00 -0.763610D+00
     16   0.000000D+00  0.000000D+00 -0.673995D-01  0.889115D-01
 1\1\GINC-NODE64\SP\RB3LYP TD-FC\6-31G(d)\C37H42N2O4S1\WYKGROUP\05-Nov-
 2022\0\\#p b3lyp/6-31g(d) 6D 10F nosymm GFInput td=(50-50,nstate=2) SC
 F=XQC\\Gaussian input prepared by ASE\\0,1\C,0,0.8557458245,-2.8630757
 892,-1.9246630254\C,0,0.1878384763,-2.4869270087,-0.5983589814\C,0,-0.
 3232445572,-3.6996310636,0.1664521471\O,0,-0.9081667343,-1.5937891619,
 -0.8043854381\C,0,-0.3538463359,-0.2798533675,-0.803470679\C,0,-1.4677
 740934,0.8126682754,-0.6323456131\O,0,-2.7739178661,0.2629584511,-0.63
 44356092\C,0,-3.2686355524,-0.0855192882,-1.9341786145\C,0,-4.60143442
 44,-0.7723861232,-1.7763964973\C,0,-5.7839975325,-0.1595921969,-2.2002
 674758\C,0,-7.0006741502,-0.8265762641,-2.0390567975\C,0,-7.0480433588
 ,-2.0885984337,-1.4554279774\C,0,-5.8653719265,-2.713560951,-1.0198562
 109\N,0,-5.8985357481,-4.0071624703,-0.4863958294\C,0,-4.646594879,-2.
 0415018274,-1.1915066455\C,0,-1.4381666771,1.7971575711,0.5791987455\C
 ,0,-2.2481504372,1.3861203695,1.8420874993\C,0,-1.833773989,0.19211230
 69,2.677811962\C,0,-0.9652018052,0.3397664247,3.7698166073\C,0,-0.6444
 710905,-0.746967775,4.5851030401\C,0,-1.2022742423,-2.0008809442,4.332
 14262\C,0,-2.0752460333,-2.1588818769,3.2537028863\C,0,-2.382887855,-1
 .0746453234,2.4299720878\S,0,0.1992539425,2.5216169608,1.1409091928\C,
 0,1.5455171081,2.0499321755,-0.0363293878\C,0,1.3747563995,2.582561661
 2,-1.4830722416\C,0,1.403771039,4.0933223137,-1.5818478838\C,0,2.62272
 10152,4.7835827383,-1.5198917296\C,0,2.6667172209,6.1751290816,-1.6029
 658869\C,0,1.4859297939,6.9043760066,-1.7568363943\C,0,0.266116582,6.2
 306336521,-1.826975346\C,0,0.2288120832,4.8381293496,-1.7395899016\C,0
 ,1.9419521878,0.539415414,0.0852668883\O,0,2.6796981791,0.0964049113,-
 1.0489848525\C,0,4.0717734444,0.4024763101,-1.0442264017\C,0,4.8912180
 393,-0.3284382863,0.0053597212\C,0,6.0866803906,0.236749196,0.46705271
 91\C,0,6.8699229798,-0.4662481116,1.3831733868\C,0,6.466508458,-1.7114
 027805,1.8596392934\C,0,5.2599476802,-2.2773793224,1.4149344114\N,0,4.
 8525701152,-3.5416316281,1.8548065149\C,0,4.4863917911,-1.5779559541,0
 .4743503405\C,0,0.7327626956,-0.3893933427,0.2728748949\O,0,1.12220524
 36,-1.7655676415,0.2196841926\H,0,1.7001126639,-3.5349378225,-1.739707
 3096\H,0,0.1407784797,-3.3719255505,-2.5797595157\H,0,1.2424620553,-1.
 9746722448,-2.4297071771\H,0,0.5027832481,-4.3873557666,0.3734395211\H
 ,0,-0.7650612409,-3.3766036949,1.1113345487\H,0,-1.0753643621,-4.23227
 31425,-0.4251180258\H,0,0.133876661,-0.1031234833,-1.7719025489\H,0,-1
 .3753853589,1.4570876837,-1.5183248579\H,0,-3.3719458312,0.8261805914,
 -2.5433130578\H,0,-2.5550010723,-0.7537401167,-2.4310266279\H,0,-5.754
 3729908,0.8291923526,-2.650132552\H,0,-7.9241991266,-0.3563676291,-2.3
 671541722\H,0,-8.0001129982,-2.601790745,-1.3376761161\H,0,-6.77741293
 75,-4.2631999571,-0.0530617754\H,0,-5.1156639886,-4.2343197465,0.11456
 99832\H,0,-3.7178611056,-2.5070653051,-0.8688413854\H,0,-1.9813007661,
 2.6690880183,0.2008149556\H,0,-3.2733915284,1.2349165099,1.4921883411\
 H,0,-2.2683119048,2.273756342,2.4873496746\H,0,-0.5421829733,1.3171386
 741,3.9846273952\H,0,0.0305882256,-0.6091798678,5.4259533411\H,0,-0.96
 60523849,-2.8454347658,4.9744321415\H,0,-2.5260747781,-3.129126107,3.0
 581504295\H,0,-3.0556191762,-1.2006237165,1.5869509086\H,0,2.366739021
 6,2.6284535103,0.4047340957\H,0,2.1903183893,2.1619365432,-2.079836326
 1\H,0,0.4530947597,2.2036709904,-1.9317447043\H,0,3.5501826623,4.22353
 40507,-1.4127873143\H,0,3.6232136744,6.6893420772,-1.5554754321\H,0,1.
 5175163279,7.9884296539,-1.8259665926\H,0,-0.6586235651,6.7883927318,-
 1.9503556659\H,0,-0.7267351838,4.3218655792,-1.7975280431\H,0,2.561685
 6183,0.4359016537,0.9845145506\H,0,4.4103697266,0.1175527888,-2.047613
 0671\H,0,4.2374359514,1.4874260099,-0.9487768824\H,0,6.4027116471,1.21
 56624974,0.1139940525\H,0,7.7998085889,-0.0337066726,1.7440736242\H,0,
 7.0795319121,-2.2468121644,2.5815340426\H,0,5.2142254515,-3.8101383961
 ,2.7619935094\H,0,3.8527397003,-3.6963126598,1.7988830344\H,0,3.542898
 0945,-1.9931860229,0.1330944553\H,0,0.3091970121,-0.1951819178,1.26030
 38139\\Version=ES64L-G16RevB.01\HF=-2243.7683682\RMSD=4.725e-09\PG=C01
  [X(C37H42N2O4S1)]\\@


 I LOVE THOSE WHO LONG FOR THE IMPOSSIBLE.

                                 -- GOETHE
 Job cpu time:       0 days  5 hours 25 minutes 39.4 seconds.
 Elapsed time:       0 days  0 hours 24 minutes 25.3 seconds.
 File lengths (MBytes):  RWF=   3208 Int=      0 D2E=      0 Chk=    116 Scr=      1
 Normal termination of Gaussian 16 at Sat Nov  5 12:29:53 2022.
