 Entering Gaussian System, Link 0=/home/wykgroup/appl/g16/g16
 Input=./calculation/no_transfer_pubchem_sampling_4_b3lyp/10555723.com
 Output=./calculation/no_transfer_pubchem_sampling_4_b3lyp/10555723.log
 Initial command:
 /home/wykgroup/appl/g16/l1.exe "/userdata/scratch/wykgroup/khs/./calculation/no_transfer_pubchem_sampling_4_b3lyp/10555723/Gau-5915.inp" -scrdir="/userdata/scratch/wykgroup/khs/./calculation/no_transfer_pubchem_sampling_4_b3lyp/10555723/"
 Entering Link 1 = /home/wykgroup/appl/g16/l1.exe PID=      5916.
  
 Copyright (c) 1988-2017, Gaussian, Inc.  All Rights Reserved.
  
 This is part of the Gaussian(R) 16 program.  It is based on
 the Gaussian(R) 09 system (copyright 2009, Gaussian, Inc.),
 the Gaussian(R) 03 system (copyright 2003, Gaussian, Inc.),
 the Gaussian(R) 98 system (copyright 1998, Gaussian, Inc.),
 the Gaussian(R) 94 system (copyright 1995, Gaussian, Inc.),
 the Gaussian 92(TM) system (copyright 1992, Gaussian, Inc.),
 the Gaussian 90(TM) system (copyright 1990, Gaussian, Inc.),
 the Gaussian 88(TM) system (copyright 1988, Gaussian, Inc.),
 the Gaussian 86(TM) system (copyright 1986, Carnegie Mellon
 University), and the Gaussian 82(TM) system (copyright 1983,
 Carnegie Mellon University). Gaussian is a federally registered
 trademark of Gaussian, Inc.
  
 This software contains proprietary and confidential information,
 including trade secrets, belonging to Gaussian, Inc.
  
 This software is provided under written license and may be
 used, copied, transmitted, or stored only in accord with that
 written license.
  
 The following legend is applicable only to US Government
 contracts under FAR:
  
                    RESTRICTED RIGHTS LEGEND
  
 Use, reproduction and disclosure by the US Government is
 subject to restrictions as set forth in subparagraphs (a)
 and (c) of the Commercial Computer Software - Restricted
 Rights clause in FAR 52.227-19.
  
 Gaussian, Inc.
 340 Quinnipiac St., Bldg. 40, Wallingford CT 06492
  
  
 ---------------------------------------------------------------
 Warning -- This program may not be used in any manner that
 competes with the business of Gaussian, Inc. or will provide
 assistance to any competitor of Gaussian, Inc.  The licensee
 of this program is prohibited from giving any competitor of
 Gaussian, Inc. access to this program.  By using this program,
 the user acknowledges that Gaussian, Inc. is engaged in the
 business of creating and licensing software in the field of
 computational chemistry and represents and warrants to the
 licensee that it is not a competitor of Gaussian, Inc. and that
 it will not use this program in any manner prohibited above.
 ---------------------------------------------------------------
  

 Cite this work as:
 Gaussian 16, Revision B.01,
 M. J. Frisch, G. W. Trucks, H. B. Schlegel, G. E. Scuseria, 
 M. A. Robb, J. R. Cheeseman, G. Scalmani, V. Barone, 
 G. A. Petersson, H. Nakatsuji, X. Li, M. Caricato, A. V. Marenich, 
 J. Bloino, B. G. Janesko, R. Gomperts, B. Mennucci, H. P. Hratchian, 
 J. V. Ortiz, A. F. Izmaylov, J. L. Sonnenberg, D. Williams-Young, 
 F. Ding, F. Lipparini, F. Egidi, J. Goings, B. Peng, A. Petrone, 
 T. Henderson, D. Ranasinghe, V. G. Zakrzewski, J. Gao, N. Rega, 
 G. Zheng, W. Liang, M. Hada, M. Ehara, K. Toyota, R. Fukuda, 
 J. Hasegawa, M. Ishida, T. Nakajima, Y. Honda, O. Kitao, H. Nakai, 
 T. Vreven, K. Throssell, J. A. Montgomery, Jr., J. E. Peralta, 
 F. Ogliaro, M. J. Bearpark, J. J. Heyd, E. N. Brothers, K. N. Kudin, 
 V. N. Staroverov, T. A. Keith, R. Kobayashi, J. Normand, 
 K. Raghavachari, A. P. Rendell, J. C. Burant, S. S. Iyengar, 
 J. Tomasi, M. Cossi, J. M. Millam, M. Klene, C. Adamo, R. Cammi, 
 J. W. Ochterski, R. L. Martin, K. Morokuma, O. Farkas, 
 J. B. Foresman, and D. J. Fox, Gaussian, Inc., Wallingford CT, 2016.
 
 ******************************************
 Gaussian 16:  ES64L-G16RevB.01 20-Dec-2017
                 4-Nov-2022 
 ******************************************
 %chk=./calculation/no_transfer_pubchem_sampling_4_b3lyp/10555723.chk
 %nprocshared=7
 Will use up to    7 processors via shared memory.
 %mem=6GB
 -----------------------------
 #p b3lyp/6-31g(d) opt SCF=XQC
 -----------------------------
 1/18=20,19=15,26=3,38=1/1,3;
 2/9=110,12=2,17=6,18=5,40=1/2;
 3/5=1,6=6,7=1,11=2,25=1,30=1,71=1,74=-5/1,2,3;
 4//1;
 5/5=2,8=3,13=1,38=5/2,8;
 6/7=2,8=2,9=2,10=2,28=1/1;
 7//1,2,3,16;
 1/18=20,19=15,26=3/3(2);
 2/9=110/2;
 99//99;
 2/9=110/2;
 3/5=1,6=6,7=1,11=2,25=1,30=1,71=1,74=-5/1,2,3;
 4/5=5,16=3,69=1/1;
 5/5=2,8=3,13=1,38=5/2,8;
 7//1,2,3,16;
 1/18=20,19=15,26=3/3(-5);
 2/9=110/2;
 6/7=2,8=2,9=2,10=2,19=2,28=1/1;
 99/9=1/99;
 Leave Link    1 at Fri Nov  4 20:22:18 2022, MaxMem=   805306368 cpu:               1.1 elap:               0.2
 (Enter /home/wykgroup/appl/g16/l101.exe)
 ------------------------------
 Gaussian input prepared by ASE
 ------------------------------
 Symbolic Z-matrix:
 Charge =  0 Multiplicity = 1
 C                     0.93561  -2.76201  -1.66675 
 C                     0.12579  -2.3002   -0.44564 
 C                    -0.51973  -3.48636   0.26562 
 O                    -0.88268  -1.38758  -0.8142 
 C                    -0.28549  -0.11078  -0.80912 
 C                    -1.35736   1.01894  -0.75117 
 O                    -2.66245   0.50599  -0.72903 
 C                    -3.15423   0.03984  -1.9765 
 C                    -4.35393  -0.82297  -1.69666 
 C                    -5.63134  -0.45949  -2.09758 
 C                    -6.70388  -1.2804   -1.78834 
 C                    -6.51631  -2.44704  -1.07449 
 C                    -5.23624  -2.81898  -0.6606 
 N                    -5.02337  -4.0167   -0.00492 
 C                    -4.161    -1.99588  -0.9857 
 C                    -1.29925   2.04734   0.40097 
 C                    -2.18964   1.71654   1.61527 
 C                    -1.90229   0.4357    2.34379 
 C                    -0.90482   0.378     3.31251 
 C                    -0.65874  -0.79657   4.00172 
 C                    -1.42455  -1.92181   3.75128 
 C                    -2.43227  -1.86583   2.80271 
 C                    -2.66637  -0.6978    2.09852 
 S                     0.34388   2.59929   1.05696 
 C                     1.71976   2.09891  -0.03572 
 C                     1.58076   2.64239  -1.46152 
 C                     1.36763   4.13065  -1.4489 
 C                     2.40797   4.98358  -1.10099 
 C                     2.21457   6.35181  -1.05967 
 C                     0.97562   6.8877   -1.36768 
 C                    -0.06463   6.04766  -1.72263 
 C                     0.1324    4.67862  -1.76351 
 C                     2.01187   0.57978   0.06667 
 O                     2.61695   0.08183  -1.10736 
 C                     4.02562   0.20853  -1.15511 
 C                     4.77622  -0.61611  -0.13658 
 C                     6.06739  -0.25329   0.23118 
 C                     6.75931  -1.02326   1.14924 
 C                     6.17408  -2.13696   1.72084 
 C                     4.87605  -2.50291   1.36741 
 N                     4.2846   -3.63912   1.88198 
 C                     4.19361  -1.73798   0.422 
 C                     0.72567  -0.21383   0.34011 
 O                     0.96923  -1.60072   0.46261 
 H                     1.60982  -3.56242  -1.37597 
 H                     0.25584  -3.12035  -2.43533 
 H                     1.52495  -1.93485  -2.05454 
 H                     0.25367  -4.16286   0.61606 
 H                    -1.0902   -3.12036   1.11495 
 H                    -1.17595  -4.00698  -0.42582 
 H                     0.2925    0.00939  -1.74023 
 H                    -1.23332   1.594    -1.68724 
 H                    -3.42094   0.89942  -2.612 
 H                    -2.38814  -0.55478  -2.48811 
 H                    -5.78868   0.45678  -2.64669 
 H                    -7.70002  -1.00215  -2.10064 
 H                    -7.35839  -3.07946  -0.83096 
 H                    -5.81892  -4.41399   0.46815 
 H                    -4.15551  -4.08811   0.50162 
 H                    -3.16049  -2.25824  -0.67747 
 H                    -1.71151   2.9736   -0.01421 
 H                    -3.21838   1.69121   1.25301 
 H                    -2.08167   2.55499   2.30907 
 H                    -0.31833   1.26111   3.52366 
 H                     0.12548  -0.82939   4.7441 
 H                    -1.24144  -2.83644   4.2972 
 H                    -3.05054  -2.73531   2.62225 
 H                    -3.44239  -0.65874   1.34976 
 H                     2.54142   2.64123   0.44532 
 H                     2.49967   2.40856  -2.0047 
 H                     0.75926   2.15097  -1.97909 
 H                     3.37921   4.57211  -0.86391 
 H                     3.03273   7.00224  -0.78709 
 H                     0.82301   7.95617  -1.3338 
 H                    -1.03303   6.45837  -1.96848 
 H                    -0.68421   4.02962  -2.04831 
 H                     2.67537   0.40733   0.92549 
 H                     4.2915   -0.12779  -2.16406 
 H                     4.32236   1.26368  -1.05892 
 H                     6.5262    0.62423  -0.20047 
 H                     7.76395  -0.74504   1.43265 
 H                     6.7159   -2.72604   2.44703 
 H                     4.66144  -3.98182   2.75127 
 H                     3.27834  -3.65993   1.82535 
 H                     3.18631  -2.01174   0.15045 
 H                     0.29916   0.12325   1.28958 
 
 ITRead=  0  0  0  0  0  0  0  0  0  0  0  0  0  0  0  0  0  0  0  0
 ITRead=  0  0  0  0  0  0  0  0  0  0  0  0  0  0  0  0  0  0  0  0
 ITRead=  0  0  0  0  0  0  0  0  0  0  0  0  0  0  0  0  0  0  0  0
 ITRead=  0  0  0  0  0  0  0  0  0  0  0  0  0  0  0  0  0  0  0  0
 ITRead=  0  0  0  0  0  0
 MicOpt= -1 -1 -1 -1 -1 -1 -1 -1 -1 -1 -1 -1 -1 -1 -1 -1 -1 -1 -1 -1
 MicOpt= -1 -1 -1 -1 -1 -1 -1 -1 -1 -1 -1 -1 -1 -1 -1 -1 -1 -1 -1 -1
 MicOpt= -1 -1 -1 -1 -1 -1 -1 -1 -1 -1 -1 -1 -1 -1 -1 -1 -1 -1 -1 -1
 MicOpt= -1 -1 -1 -1 -1 -1 -1 -1 -1 -1 -1 -1 -1 -1 -1 -1 -1 -1 -1 -1
 MicOpt= -1 -1 -1 -1 -1 -1
 NAtoms=     86 NQM=       86 NQMF=       0 NMMI=      0 NMMIF=      0
                NMic=       0 NMicF=      0.
                    Isotopes and Nuclear Properties:
 (Nuclear quadrupole moments (NQMom) in fm**2, nuclear magnetic moments (NMagM)
  in nuclear magnetons)

  Atom         1           2           3           4           5           6           7           8           9          10
 IAtWgt=          12          12          12          16          12          12          16          12          12          12
 AtmWgt=  12.0000000  12.0000000  12.0000000  15.9949146  12.0000000  12.0000000  15.9949146  12.0000000  12.0000000  12.0000000
 NucSpn=           0           0           0           0           0           0           0           0           0           0
 AtZEff=  -0.0000000  -0.0000000  -0.0000000  -0.0000000  -0.0000000  -0.0000000  -0.0000000  -0.0000000  -0.0000000  -0.0000000
 NQMom=    0.0000000   0.0000000   0.0000000   0.0000000   0.0000000   0.0000000   0.0000000   0.0000000   0.0000000   0.0000000
 NMagM=    0.0000000   0.0000000   0.0000000   0.0000000   0.0000000   0.0000000   0.0000000   0.0000000   0.0000000   0.0000000
 AtZNuc=   6.0000000   6.0000000   6.0000000   8.0000000   6.0000000   6.0000000   8.0000000   6.0000000   6.0000000   6.0000000

  Atom        11          12          13          14          15          16          17          18          19          20
 IAtWgt=          12          12          12          14          12          12          12          12          12          12
 AtmWgt=  12.0000000  12.0000000  12.0000000  14.0030740  12.0000000  12.0000000  12.0000000  12.0000000  12.0000000  12.0000000
 NucSpn=           0           0           0           2           0           0           0           0           0           0
 AtZEff=  -0.0000000  -0.0000000  -0.0000000  -0.0000000  -0.0000000  -0.0000000  -0.0000000  -0.0000000  -0.0000000  -0.0000000
 NQMom=    0.0000000   0.0000000   0.0000000   2.0440000   0.0000000   0.0000000   0.0000000   0.0000000   0.0000000   0.0000000
 NMagM=    0.0000000   0.0000000   0.0000000   0.4037610   0.0000000   0.0000000   0.0000000   0.0000000   0.0000000   0.0000000
 AtZNuc=   6.0000000   6.0000000   6.0000000   7.0000000   6.0000000   6.0000000   6.0000000   6.0000000   6.0000000   6.0000000

  Atom        21          22          23          24          25          26          27          28          29          30
 IAtWgt=          12          12          12          32          12          12          12          12          12          12
 AtmWgt=  12.0000000  12.0000000  12.0000000  31.9720718  12.0000000  12.0000000  12.0000000  12.0000000  12.0000000  12.0000000
 NucSpn=           0           0           0           0           0           0           0           0           0           0
 AtZEff=  -0.0000000  -0.0000000  -0.0000000  -0.0000000  -0.0000000  -0.0000000  -0.0000000  -0.0000000  -0.0000000  -0.0000000
 NQMom=    0.0000000   0.0000000   0.0000000   0.0000000   0.0000000   0.0000000   0.0000000   0.0000000   0.0000000   0.0000000
 NMagM=    0.0000000   0.0000000   0.0000000   0.0000000   0.0000000   0.0000000   0.0000000   0.0000000   0.0000000   0.0000000
 AtZNuc=   6.0000000   6.0000000   6.0000000  16.0000000   6.0000000   6.0000000   6.0000000   6.0000000   6.0000000   6.0000000

  Atom        31          32          33          34          35          36          37          38          39          40
 IAtWgt=          12          12          12          16          12          12          12          12          12          12
 AtmWgt=  12.0000000  12.0000000  12.0000000  15.9949146  12.0000000  12.0000000  12.0000000  12.0000000  12.0000000  12.0000000
 NucSpn=           0           0           0           0           0           0           0           0           0           0
 AtZEff=  -0.0000000  -0.0000000  -0.0000000  -0.0000000  -0.0000000  -0.0000000  -0.0000000  -0.0000000  -0.0000000  -0.0000000
 NQMom=    0.0000000   0.0000000   0.0000000   0.0000000   0.0000000   0.0000000   0.0000000   0.0000000   0.0000000   0.0000000
 NMagM=    0.0000000   0.0000000   0.0000000   0.0000000   0.0000000   0.0000000   0.0000000   0.0000000   0.0000000   0.0000000
 AtZNuc=   6.0000000   6.0000000   6.0000000   8.0000000   6.0000000   6.0000000   6.0000000   6.0000000   6.0000000   6.0000000

  Atom        41          42          43          44          45          46          47          48          49          50
 IAtWgt=          14          12          12          16           1           1           1           1           1           1
 AtmWgt=  14.0030740  12.0000000  12.0000000  15.9949146   1.0078250   1.0078250   1.0078250   1.0078250   1.0078250   1.0078250
 NucSpn=           2           0           0           0           1           1           1           1           1           1
 AtZEff=  -0.0000000  -0.0000000  -0.0000000  -0.0000000  -0.0000000  -0.0000000  -0.0000000  -0.0000000  -0.0000000  -0.0000000
 NQMom=    2.0440000   0.0000000   0.0000000   0.0000000   0.0000000   0.0000000   0.0000000   0.0000000   0.0000000   0.0000000
 NMagM=    0.4037610   0.0000000   0.0000000   0.0000000   2.7928460   2.7928460   2.7928460   2.7928460   2.7928460   2.7928460
 AtZNuc=   7.0000000   6.0000000   6.0000000   8.0000000   1.0000000   1.0000000   1.0000000   1.0000000   1.0000000   1.0000000

  Atom        51          52          53          54          55          56          57          58          59          60
 IAtWgt=           1           1           1           1           1           1           1           1           1           1
 AtmWgt=   1.0078250   1.0078250   1.0078250   1.0078250   1.0078250   1.0078250   1.0078250   1.0078250   1.0078250   1.0078250
 NucSpn=           1           1           1           1           1           1           1           1           1           1
 AtZEff=  -0.0000000  -0.0000000  -0.0000000  -0.0000000  -0.0000000  -0.0000000  -0.0000000  -0.0000000  -0.0000000  -0.0000000
 NQMom=    0.0000000   0.0000000   0.0000000   0.0000000   0.0000000   0.0000000   0.0000000   0.0000000   0.0000000   0.0000000
 NMagM=    2.7928460   2.7928460   2.7928460   2.7928460   2.7928460   2.7928460   2.7928460   2.7928460   2.7928460   2.7928460
 AtZNuc=   1.0000000   1.0000000   1.0000000   1.0000000   1.0000000   1.0000000   1.0000000   1.0000000   1.0000000   1.0000000

  Atom        61          62          63          64          65          66          67          68          69          70
 IAtWgt=           1           1           1           1           1           1           1           1           1           1
 AtmWgt=   1.0078250   1.0078250   1.0078250   1.0078250   1.0078250   1.0078250   1.0078250   1.0078250   1.0078250   1.0078250
 NucSpn=           1           1           1           1           1           1           1           1           1           1
 AtZEff=  -0.0000000  -0.0000000  -0.0000000  -0.0000000  -0.0000000  -0.0000000  -0.0000000  -0.0000000  -0.0000000  -0.0000000
 NQMom=    0.0000000   0.0000000   0.0000000   0.0000000   0.0000000   0.0000000   0.0000000   0.0000000   0.0000000   0.0000000
 NMagM=    2.7928460   2.7928460   2.7928460   2.7928460   2.7928460   2.7928460   2.7928460   2.7928460   2.7928460   2.7928460
 AtZNuc=   1.0000000   1.0000000   1.0000000   1.0000000   1.0000000   1.0000000   1.0000000   1.0000000   1.0000000   1.0000000

  Atom        71          72          73          74          75          76          77          78          79          80
 IAtWgt=           1           1           1           1           1           1           1           1           1           1
 AtmWgt=   1.0078250   1.0078250   1.0078250   1.0078250   1.0078250   1.0078250   1.0078250   1.0078250   1.0078250   1.0078250
 NucSpn=           1           1           1           1           1           1           1           1           1           1
 AtZEff=  -0.0000000  -0.0000000  -0.0000000  -0.0000000  -0.0000000  -0.0000000  -0.0000000  -0.0000000  -0.0000000  -0.0000000
 NQMom=    0.0000000   0.0000000   0.0000000   0.0000000   0.0000000   0.0000000   0.0000000   0.0000000   0.0000000   0.0000000
 NMagM=    2.7928460   2.7928460   2.7928460   2.7928460   2.7928460   2.7928460   2.7928460   2.7928460   2.7928460   2.7928460
 AtZNuc=   1.0000000   1.0000000   1.0000000   1.0000000   1.0000000   1.0000000   1.0000000   1.0000000   1.0000000   1.0000000

  Atom        81          82          83          84          85          86
 IAtWgt=           1           1           1           1           1           1
 AtmWgt=   1.0078250   1.0078250   1.0078250   1.0078250   1.0078250   1.0078250
 NucSpn=           1           1           1           1           1           1
 AtZEff=  -0.0000000  -0.0000000  -0.0000000  -0.0000000  -0.0000000  -0.0000000
 NQMom=    0.0000000   0.0000000   0.0000000   0.0000000   0.0000000   0.0000000
 NMagM=    2.7928460   2.7928460   2.7928460   2.7928460   2.7928460   2.7928460
 AtZNuc=   1.0000000   1.0000000   1.0000000   1.0000000   1.0000000   1.0000000
 Leave Link  101 at Fri Nov  4 20:22:19 2022, MaxMem=   805306368 cpu:               2.4 elap:               0.4
 (Enter /home/wykgroup/appl/g16/l103.exe)

 GradGradGradGradGradGradGradGradGradGradGradGradGradGradGradGradGradGrad
 Berny optimization.
 Initialization pass.
                           ----------------------------
                           !    Initial Parameters    !
                           ! (Angstroms and Degrees)  !
 --------------------------                            --------------------------
 ! Name  Definition              Value          Derivative Info.                !
 --------------------------------------------------------------------------------
 ! R1    R(1,2)                  1.5363         estimate D2E/DX2                !
 ! R2    R(1,45)                 1.0862         estimate D2E/DX2                !
 ! R3    R(1,46)                 1.0868         estimate D2E/DX2                !
 ! R4    R(1,47)                 1.0871         estimate D2E/DX2                !
 ! R5    R(2,3)                  1.5263         estimate D2E/DX2                !
 ! R6    R(2,4)                  1.4092         estimate D2E/DX2                !
 ! R7    R(2,44)                 1.4232         estimate D2E/DX2                !
 ! R8    R(3,48)                 1.0856         estimate D2E/DX2                !
 ! R9    R(3,49)                 1.0866         estimate D2E/DX2                !
 ! R10   R(3,50)                 1.0862         estimate D2E/DX2                !
 ! R11   R(4,5)                  1.4096         estimate D2E/DX2                !
 ! R12   R(5,6)                  1.5584         estimate D2E/DX2                !
 ! R13   R(5,43)                 1.5342         estimate D2E/DX2                !
 ! R14   R(5,51)                 1.1025         estimate D2E/DX2                !
 ! R15   R(6,7)                  1.4025         estimate D2E/DX2                !
 ! R16   R(6,16)                 1.5454         estimate D2E/DX2                !
 ! R17   R(6,52)                 1.1056         estimate D2E/DX2                !
 ! R18   R(7,8)                  1.4196         estimate D2E/DX2                !
 ! R19   R(8,9)                  1.504          estimate D2E/DX2                !
 ! R20   R(8,53)                 1.1018         estimate D2E/DX2                !
 ! R21   R(8,54)                 1.0965         estimate D2E/DX2                !
 ! R22   R(9,10)                 1.3873         estimate D2E/DX2                !
 ! R23   R(9,15)                 1.3851         estimate D2E/DX2                !
 ! R24   R(10,11)                1.3856         estimate D2E/DX2                !
 ! R25   R(10,55)                1.0797         estimate D2E/DX2                !
 ! R26   R(11,12)                1.3805         estimate D2E/DX2                !
 ! R27   R(11,56)                1.0804         estimate D2E/DX2                !
 ! R28   R(12,13)                1.3958         estimate D2E/DX2                !
 ! R29   R(12,57)                1.0809         estimate D2E/DX2                !
 ! R30   R(13,14)                1.3819         estimate D2E/DX2                !
 ! R31   R(13,15)                1.3926         estimate D2E/DX2                !
 ! R32   R(14,58)                1.0072         estimate D2E/DX2                !
 ! R33   R(14,59)                1.0074         estimate D2E/DX2                !
 ! R34   R(15,60)                1.0793         estimate D2E/DX2                !
 ! R35   R(16,17)                1.5417         estimate D2E/DX2                !
 ! R36   R(16,24)                1.8533         estimate D2E/DX2                !
 ! R37   R(16,61)                1.0956         estimate D2E/DX2                !
 ! R38   R(17,18)                1.5013         estimate D2E/DX2                !
 ! R39   R(17,62)                1.091          estimate D2E/DX2                !
 ! R40   R(17,63)                1.0936         estimate D2E/DX2                !
 ! R41   R(18,19)                1.3916         estimate D2E/DX2                !
 ! R42   R(18,23)                1.3888         estimate D2E/DX2                !
 ! R43   R(19,20)                1.3839         estimate D2E/DX2                !
 ! R44   R(19,64)                1.0809         estimate D2E/DX2                !
 ! R45   R(20,21)                1.384          estimate D2E/DX2                !
 ! R46   R(20,65)                1.0804         estimate D2E/DX2                !
 ! R47   R(21,22)                1.3851         estimate D2E/DX2                !
 ! R48   R(21,66)                1.0808         estimate D2E/DX2                !
 ! R49   R(22,23)                1.3838         estimate D2E/DX2                !
 ! R50   R(22,67)                1.082          estimate D2E/DX2                !
 ! R51   R(23,68)                1.0791         estimate D2E/DX2                !
 ! R52   R(24,25)                1.8268         estimate D2E/DX2                !
 ! R53   R(25,26)                1.5322         estimate D2E/DX2                !
 ! R54   R(25,33)                1.5503         estimate D2E/DX2                !
 ! R55   R(25,69)                1.0957         estimate D2E/DX2                !
 ! R56   R(26,27)                1.5035         estimate D2E/DX2                !
 ! R57   R(26,70)                1.0928         estimate D2E/DX2                !
 ! R58   R(26,71)                1.0882         estimate D2E/DX2                !
 ! R59   R(27,28)                1.3896         estimate D2E/DX2                !
 ! R60   R(27,32)                1.3875         estimate D2E/DX2                !
 ! R61   R(28,29)                1.3825         estimate D2E/DX2                !
 ! R62   R(28,72)                1.0811         estimate D2E/DX2                !
 ! R63   R(29,30)                1.3846         estimate D2E/DX2                !
 ! R64   R(29,73)                1.0802         estimate D2E/DX2                !
 ! R65   R(30,31)                1.3834         estimate D2E/DX2                !
 ! R66   R(30,74)                1.0798         estimate D2E/DX2                !
 ! R67   R(31,32)                1.3837         estimate D2E/DX2                !
 ! R68   R(31,75)                1.0802         estimate D2E/DX2                !
 ! R69   R(32,76)                1.0813         estimate D2E/DX2                !
 ! R70   R(33,34)                1.4115         estimate D2E/DX2                !
 ! R71   R(33,43)                1.5359         estimate D2E/DX2                !
 ! R72   R(33,77)                1.0989         estimate D2E/DX2                !
 ! R73   R(34,35)                1.4152         estimate D2E/DX2                !
 ! R74   R(35,36)                1.5102         estimate D2E/DX2                !
 ! R75   R(35,78)                1.0963         estimate D2E/DX2                !
 ! R76   R(35,79)                1.1003         estimate D2E/DX2                !
 ! R77   R(36,37)                1.3907         estimate D2E/DX2                !
 ! R78   R(36,42)                1.3821         estimate D2E/DX2                !
 ! R79   R(37,38)                1.3836         estimate D2E/DX2                !
 ! R80   R(37,80)                1.0802         estimate D2E/DX2                !
 ! R81   R(38,39)                1.3819         estimate D2E/DX2                !
 ! R82   R(38,81)                1.0803         estimate D2E/DX2                !
 ! R83   R(39,40)                1.3942         estimate D2E/DX2                !
 ! R84   R(39,82)                1.0807         estimate D2E/DX2                !
 ! R85   R(40,41)                1.3804         estimate D2E/DX2                !
 ! R86   R(40,42)                1.3945         estimate D2E/DX2                !
 ! R87   R(41,83)                1.0075         estimate D2E/DX2                !
 ! R88   R(41,84)                1.0081         estimate D2E/DX2                !
 ! R89   R(42,85)                1.0786         estimate D2E/DX2                !
 ! R90   R(43,44)                1.4134         estimate D2E/DX2                !
 ! R91   R(43,86)                1.0941         estimate D2E/DX2                !
 ! A1    A(2,1,45)             109.6292         estimate D2E/DX2                !
 ! A2    A(2,1,46)             109.3601         estimate D2E/DX2                !
 ! A3    A(2,1,47)             109.9114         estimate D2E/DX2                !
 ! A4    A(45,1,46)            109.5475         estimate D2E/DX2                !
 ! A5    A(45,1,47)            108.6434         estimate D2E/DX2                !
 ! A6    A(46,1,47)            109.7347         estimate D2E/DX2                !
 ! A7    A(1,2,3)              111.0833         estimate D2E/DX2                !
 ! A8    A(1,2,4)              111.348          estimate D2E/DX2                !
 ! A9    A(1,2,44)             110.0346         estimate D2E/DX2                !
 ! A10   A(3,2,4)              108.8154         estimate D2E/DX2                !
 ! A11   A(3,2,44)             109.5849         estimate D2E/DX2                !
 ! A12   A(4,2,44)             105.8269         estimate D2E/DX2                !
 ! A13   A(2,3,48)             109.4759         estimate D2E/DX2                !
 ! A14   A(2,3,49)             108.9358         estimate D2E/DX2                !
 ! A15   A(2,3,50)             109.3518         estimate D2E/DX2                !
 ! A16   A(48,3,49)            109.3649         estimate D2E/DX2                !
 ! A17   A(48,3,50)            109.7071         estimate D2E/DX2                !
 ! A18   A(49,3,50)            109.9885         estimate D2E/DX2                !
 ! A19   A(2,4,5)              106.4085         estimate D2E/DX2                !
 ! A20   A(4,5,6)              111.4308         estimate D2E/DX2                !
 ! A21   A(4,5,43)             102.7733         estimate D2E/DX2                !
 ! A22   A(4,5,51)             108.5301         estimate D2E/DX2                !
 ! A23   A(6,5,43)             118.3046         estimate D2E/DX2                !
 ! A24   A(6,5,51)             108.2387         estimate D2E/DX2                !
 ! A25   A(43,5,51)            107.1232         estimate D2E/DX2                !
 ! A26   A(5,6,7)              112.0553         estimate D2E/DX2                !
 ! A27   A(5,6,16)             118.9639         estimate D2E/DX2                !
 ! A28   A(5,6,52)             105.5701         estimate D2E/DX2                !
 ! A29   A(7,6,16)             105.4629         estimate D2E/DX2                !
 ! A30   A(7,6,52)             107.9394         estimate D2E/DX2                !
 ! A31   A(16,6,52)            106.3118         estimate D2E/DX2                !
 ! A32   A(6,7,8)              115.3786         estimate D2E/DX2                !
 ! A33   A(7,8,9)              107.5296         estimate D2E/DX2                !
 ! A34   A(7,8,53)             109.5446         estimate D2E/DX2                !
 ! A35   A(7,8,54)             110.2467         estimate D2E/DX2                !
 ! A36   A(9,8,53)             111.2107         estimate D2E/DX2                !
 ! A37   A(9,8,54)             109.4528         estimate D2E/DX2                !
 ! A38   A(53,8,54)            108.8503         estimate D2E/DX2                !
 ! A39   A(8,9,10)             122.0327         estimate D2E/DX2                !
 ! A40   A(8,9,15)             118.0475         estimate D2E/DX2                !
 ! A41   A(10,9,15)            119.8987         estimate D2E/DX2                !
 ! A42   A(9,10,11)            119.5395         estimate D2E/DX2                !
 ! A43   A(9,10,55)            120.2305         estimate D2E/DX2                !
 ! A44   A(11,10,55)           120.23           estimate D2E/DX2                !
 ! A45   A(10,11,12)           120.7243         estimate D2E/DX2                !
 ! A46   A(10,11,56)           119.7752         estimate D2E/DX2                !
 ! A47   A(12,11,56)           119.4983         estimate D2E/DX2                !
 ! A48   A(11,12,13)           120.2073         estimate D2E/DX2                !
 ! A49   A(11,12,57)           120.3375         estimate D2E/DX2                !
 ! A50   A(13,12,57)           119.4551         estimate D2E/DX2                !
 ! A51   A(12,13,14)           120.8577         estimate D2E/DX2                !
 ! A52   A(12,13,15)           118.7755         estimate D2E/DX2                !
 ! A53   A(14,13,15)           120.271          estimate D2E/DX2                !
 ! A54   A(13,14,58)           116.2975         estimate D2E/DX2                !
 ! A55   A(13,14,59)           115.6393         estimate D2E/DX2                !
 ! A56   A(58,14,59)           114.6018         estimate D2E/DX2                !
 ! A57   A(9,15,13)            120.8504         estimate D2E/DX2                !
 ! A58   A(9,15,60)            118.7881         estimate D2E/DX2                !
 ! A59   A(13,15,60)           120.3587         estimate D2E/DX2                !
 ! A60   A(6,16,17)            115.0051         estimate D2E/DX2                !
 ! A61   A(6,16,24)            119.6952         estimate D2E/DX2                !
 ! A62   A(6,16,61)            105.422          estimate D2E/DX2                !
 ! A63   A(17,16,24)           107.287          estimate D2E/DX2                !
 ! A64   A(17,16,61)           105.2229         estimate D2E/DX2                !
 ! A65   A(24,16,61)           102.4717         estimate D2E/DX2                !
 ! A66   A(16,17,18)           117.0481         estimate D2E/DX2                !
 ! A67   A(16,17,62)           106.741          estimate D2E/DX2                !
 ! A68   A(16,17,63)           106.1511         estimate D2E/DX2                !
 ! A69   A(18,17,62)           108.7725         estimate D2E/DX2                !
 ! A70   A(18,17,63)           109.1076         estimate D2E/DX2                !
 ! A71   A(62,17,63)           108.7571         estimate D2E/DX2                !
 ! A72   A(17,18,19)           120.687          estimate D2E/DX2                !
 ! A73   A(17,18,23)           120.3529         estimate D2E/DX2                !
 ! A74   A(19,18,23)           118.9093         estimate D2E/DX2                !
 ! A75   A(18,19,20)           120.618          estimate D2E/DX2                !
 ! A76   A(18,19,64)           119.4057         estimate D2E/DX2                !
 ! A77   A(20,19,64)           119.9762         estimate D2E/DX2                !
 ! A78   A(19,20,21)           120.103          estimate D2E/DX2                !
 ! A79   A(19,20,65)           119.8066         estimate D2E/DX2                !
 ! A80   A(21,20,65)           120.0866         estimate D2E/DX2                !
 ! A81   A(20,21,22)           119.5815         estimate D2E/DX2                !
 ! A82   A(20,21,66)           120.1923         estimate D2E/DX2                !
 ! A83   A(22,21,66)           120.2251         estimate D2E/DX2                !
 ! A84   A(21,22,23)           120.3773         estimate D2E/DX2                !
 ! A85   A(21,22,67)           119.8323         estimate D2E/DX2                !
 ! A86   A(23,22,67)           119.7832         estimate D2E/DX2                !
 ! A87   A(18,23,22)           120.395          estimate D2E/DX2                !
 ! A88   A(18,23,68)           119.2527         estimate D2E/DX2                !
 ! A89   A(22,23,68)           120.3519         estimate D2E/DX2                !
 ! A90   A(16,24,25)           111.99           estimate D2E/DX2                !
 ! A91   A(24,25,26)           113.0236         estimate D2E/DX2                !
 ! A92   A(24,25,33)           111.7648         estimate D2E/DX2                !
 ! A93   A(24,25,69)            99.5911         estimate D2E/DX2                !
 ! A94   A(26,25,33)           115.2213         estimate D2E/DX2                !
 ! A95   A(26,25,69)           107.5172         estimate D2E/DX2                !
 ! A96   A(33,25,69)           108.3421         estimate D2E/DX2                !
 ! A97   A(25,26,27)           110.865          estimate D2E/DX2                !
 ! A98   A(25,26,70)           108.0816         estimate D2E/DX2                !
 ! A99   A(25,26,71)           110.5414         estimate D2E/DX2                !
 ! A100  A(27,26,70)           109.5844         estimate D2E/DX2                !
 ! A101  A(27,26,71)           110.1198         estimate D2E/DX2                !
 ! A102  A(70,26,71)           107.5631         estimate D2E/DX2                !
 ! A103  A(26,27,28)           120.2361         estimate D2E/DX2                !
 ! A104  A(26,27,32)           121.0139         estimate D2E/DX2                !
 ! A105  A(28,27,32)           118.7439         estimate D2E/DX2                !
 ! A106  A(27,28,29)           120.6803         estimate D2E/DX2                !
 ! A107  A(27,28,72)           119.5963         estimate D2E/DX2                !
 ! A108  A(29,28,72)           119.723          estimate D2E/DX2                !
 ! A109  A(28,29,30)           120.1055         estimate D2E/DX2                !
 ! A110  A(28,29,73)           119.8374         estimate D2E/DX2                !
 ! A111  A(30,29,73)           120.0571         estimate D2E/DX2                !
 ! A112  A(29,30,31)           119.6646         estimate D2E/DX2                !
 ! A113  A(29,30,74)           120.1617         estimate D2E/DX2                !
 ! A114  A(31,30,74)           120.1735         estimate D2E/DX2                !
 ! A115  A(30,31,32)           120.0855         estimate D2E/DX2                !
 ! A116  A(30,31,75)           120.1075         estimate D2E/DX2                !
 ! A117  A(32,31,75)           119.8071         estimate D2E/DX2                !
 ! A118  A(27,32,31)           120.718          estimate D2E/DX2                !
 ! A119  A(27,32,76)           119.6721         estimate D2E/DX2                !
 ! A120  A(31,32,76)           119.6093         estimate D2E/DX2                !
 ! A121  A(25,33,34)           111.8088         estimate D2E/DX2                !
 ! A122  A(25,33,43)           111.1175         estimate D2E/DX2                !
 ! A123  A(25,33,77)           108.6117         estimate D2E/DX2                !
 ! A124  A(34,33,43)           108.9525         estimate D2E/DX2                !
 ! A125  A(34,33,77)           109.6241         estimate D2E/DX2                !
 ! A126  A(43,33,77)           106.5833         estimate D2E/DX2                !
 ! A127  A(33,34,35)           115.0358         estimate D2E/DX2                !
 ! A128  A(34,35,36)           115.0297         estimate D2E/DX2                !
 ! A129  A(34,35,78)           104.1827         estimate D2E/DX2                !
 ! A130  A(34,35,79)           110.5708         estimate D2E/DX2                !
 ! A131  A(36,35,78)           109.4289         estimate D2E/DX2                !
 ! A132  A(36,35,79)           109.3066         estimate D2E/DX2                !
 ! A133  A(78,35,79)           108.0142         estimate D2E/DX2                !
 ! A134  A(35,36,37)           119.8242         estimate D2E/DX2                !
 ! A135  A(35,36,42)           120.4174         estimate D2E/DX2                !
 ! A136  A(37,36,42)           119.7547         estimate D2E/DX2                !
 ! A137  A(36,37,38)           119.642          estimate D2E/DX2                !
 ! A138  A(36,37,80)           120.0403         estimate D2E/DX2                !
 ! A139  A(38,37,80)           120.3177         estimate D2E/DX2                !
 ! A140  A(37,38,39)           120.7414         estimate D2E/DX2                !
 ! A141  A(37,38,81)           119.7232         estimate D2E/DX2                !
 ! A142  A(39,38,81)           119.531          estimate D2E/DX2                !
 ! A143  A(38,39,40)           120.0654         estimate D2E/DX2                !
 ! A144  A(38,39,82)           120.327          estimate D2E/DX2                !
 ! A145  A(40,39,82)           119.6069         estimate D2E/DX2                !
 ! A146  A(39,40,41)           121.3628         estimate D2E/DX2                !
 ! A147  A(39,40,42)           118.9153         estimate D2E/DX2                !
 ! A148  A(41,40,42)           119.6389         estimate D2E/DX2                !
 ! A149  A(40,41,83)           116.189          estimate D2E/DX2                !
 ! A150  A(40,41,84)           115.0705         estimate D2E/DX2                !
 ! A151  A(83,41,84)           114.507          estimate D2E/DX2                !
 ! A152  A(36,42,40)           120.8621         estimate D2E/DX2                !
 ! A153  A(36,42,85)           119.8661         estimate D2E/DX2                !
 ! A154  A(40,42,85)           119.2421         estimate D2E/DX2                !
 ! A155  A(5,43,33)            112.5735         estimate D2E/DX2                !
 ! A156  A(5,43,44)            104.1462         estimate D2E/DX2                !
 ! A157  A(5,43,86)            111.866          estimate D2E/DX2                !
 ! A158  A(33,43,44)           112.2186         estimate D2E/DX2                !
 ! A159  A(33,43,86)           108.7698         estimate D2E/DX2                !
 ! A160  A(44,43,86)           107.1136         estimate D2E/DX2                !
 ! A161  A(2,44,43)            108.9544         estimate D2E/DX2                !
 ! D1    D(45,1,2,3)           -50.7735         estimate D2E/DX2                !
 ! D2    D(45,1,2,4)          -172.2271         estimate D2E/DX2                !
 ! D3    D(45,1,2,44)           70.7588         estimate D2E/DX2                !
 ! D4    D(46,1,2,3)            69.3486         estimate D2E/DX2                !
 ! D5    D(46,1,2,4)           -52.1051         estimate D2E/DX2                !
 ! D6    D(46,1,2,44)         -169.1191         estimate D2E/DX2                !
 ! D7    D(47,1,2,3)          -170.1251         estimate D2E/DX2                !
 ! D8    D(47,1,2,4)            68.4212         estimate D2E/DX2                !
 ! D9    D(47,1,2,44)          -48.5929         estimate D2E/DX2                !
 ! D10   D(1,2,3,48)            61.0206         estimate D2E/DX2                !
 ! D11   D(1,2,3,49)          -179.4312         estimate D2E/DX2                !
 ! D12   D(1,2,3,50)           -59.198          estimate D2E/DX2                !
 ! D13   D(4,2,3,48)          -176.0547         estimate D2E/DX2                !
 ! D14   D(4,2,3,49)           -56.5065         estimate D2E/DX2                !
 ! D15   D(4,2,3,50)            63.7267         estimate D2E/DX2                !
 ! D16   D(44,2,3,48)          -60.7743         estimate D2E/DX2                !
 ! D17   D(44,2,3,49)           58.7739         estimate D2E/DX2                !
 ! D18   D(44,2,3,50)          179.0071         estimate D2E/DX2                !
 ! D19   D(1,2,4,5)            -86.727          estimate D2E/DX2                !
 ! D20   D(3,2,4,5)            150.5074         estimate D2E/DX2                !
 ! D21   D(44,2,4,5)            32.8186         estimate D2E/DX2                !
 ! D22   D(1,2,44,43)          103.3803         estimate D2E/DX2                !
 ! D23   D(3,2,44,43)         -134.198          estimate D2E/DX2                !
 ! D24   D(4,2,44,43)          -17.0254         estimate D2E/DX2                !
 ! D25   D(2,4,5,6)           -161.9062         estimate D2E/DX2                !
 ! D26   D(2,4,5,43)           -34.2234         estimate D2E/DX2                !
 ! D27   D(2,4,5,51)            79.0047         estimate D2E/DX2                !
 ! D28   D(4,5,6,7)             -0.5023         estimate D2E/DX2                !
 ! D29   D(4,5,6,16)           123.073          estimate D2E/DX2                !
 ! D30   D(4,5,6,52)          -117.7528         estimate D2E/DX2                !
 ! D31   D(43,5,6,7)          -119.2634         estimate D2E/DX2                !
 ! D32   D(43,5,6,16)            4.3118         estimate D2E/DX2                !
 ! D33   D(43,5,6,52)          123.4861         estimate D2E/DX2                !
 ! D34   D(51,5,6,7)           118.7604         estimate D2E/DX2                !
 ! D35   D(51,5,6,16)         -117.6644         estimate D2E/DX2                !
 ! D36   D(51,5,6,52)            1.5099         estimate D2E/DX2                !
 ! D37   D(4,5,43,33)          144.9621         estimate D2E/DX2                !
 ! D38   D(4,5,43,44)           23.1525         estimate D2E/DX2                !
 ! D39   D(4,5,43,86)          -92.1971         estimate D2E/DX2                !
 ! D40   D(6,5,43,33)          -91.8343         estimate D2E/DX2                !
 ! D41   D(6,5,43,44)          146.3561         estimate D2E/DX2                !
 ! D42   D(6,5,43,86)           31.0065         estimate D2E/DX2                !
 ! D43   D(51,5,43,33)          30.7054         estimate D2E/DX2                !
 ! D44   D(51,5,43,44)         -91.1043         estimate D2E/DX2                !
 ! D45   D(51,5,43,86)         153.5462         estimate D2E/DX2                !
 ! D46   D(5,6,7,8)            -76.6475         estimate D2E/DX2                !
 ! D47   D(16,6,7,8)           152.4942         estimate D2E/DX2                !
 ! D48   D(52,6,7,8)            39.1745         estimate D2E/DX2                !
 ! D49   D(5,6,16,17)          -94.7957         estimate D2E/DX2                !
 ! D50   D(5,6,16,24)           35.2538         estimate D2E/DX2                !
 ! D51   D(5,6,16,61)          149.7863         estimate D2E/DX2                !
 ! D52   D(7,6,16,17)           31.9602         estimate D2E/DX2                !
 ! D53   D(7,6,16,24)          162.0098         estimate D2E/DX2                !
 ! D54   D(7,6,16,61)          -83.4577         estimate D2E/DX2                !
 ! D55   D(52,6,16,17)         146.4125         estimate D2E/DX2                !
 ! D56   D(52,6,16,24)         -83.538          estimate D2E/DX2                !
 ! D57   D(52,6,16,61)          30.9945         estimate D2E/DX2                !
 ! D58   D(6,7,8,9)            163.4768         estimate D2E/DX2                !
 ! D59   D(6,7,8,53)           -75.5426         estimate D2E/DX2                !
 ! D60   D(6,7,8,54)            44.2177         estimate D2E/DX2                !
 ! D61   D(7,8,9,10)           113.8708         estimate D2E/DX2                !
 ! D62   D(7,8,9,15)           -64.4572         estimate D2E/DX2                !
 ! D63   D(53,8,9,10)           -6.0572         estimate D2E/DX2                !
 ! D64   D(53,8,9,15)          175.6148         estimate D2E/DX2                !
 ! D65   D(54,8,9,10)         -126.3638         estimate D2E/DX2                !
 ! D66   D(54,8,9,15)           55.3081         estimate D2E/DX2                !
 ! D67   D(8,9,10,11)         -178.6748         estimate D2E/DX2                !
 ! D68   D(8,9,10,55)            1.3194         estimate D2E/DX2                !
 ! D69   D(15,9,10,11)          -0.3769         estimate D2E/DX2                !
 ! D70   D(15,9,10,55)         179.6173         estimate D2E/DX2                !
 ! D71   D(8,9,15,13)          178.1296         estimate D2E/DX2                !
 ! D72   D(8,9,15,60)           -1.2607         estimate D2E/DX2                !
 ! D73   D(10,9,15,13)          -0.2355         estimate D2E/DX2                !
 ! D74   D(10,9,15,60)        -179.6258         estimate D2E/DX2                !
 ! D75   D(9,10,11,12)           0.6844         estimate D2E/DX2                !
 ! D76   D(9,10,11,56)        -179.8614         estimate D2E/DX2                !
 ! D77   D(55,10,11,12)       -179.3098         estimate D2E/DX2                !
 ! D78   D(55,10,11,56)          0.1445         estimate D2E/DX2                !
 ! D79   D(10,11,12,13)         -0.3774         estimate D2E/DX2                !
 ! D80   D(10,11,12,57)        179.5891         estimate D2E/DX2                !
 ! D81   D(56,11,12,13)       -179.8331         estimate D2E/DX2                !
 ! D82   D(56,11,12,57)          0.1334         estimate D2E/DX2                !
 ! D83   D(11,12,13,14)       -176.6832         estimate D2E/DX2                !
 ! D84   D(11,12,13,15)         -0.2329         estimate D2E/DX2                !
 ! D85   D(57,12,13,14)          3.3501         estimate D2E/DX2                !
 ! D86   D(57,12,13,15)        179.8004         estimate D2E/DX2                !
 ! D87   D(12,13,14,58)        -23.2293         estimate D2E/DX2                !
 ! D88   D(12,13,14,59)       -162.0169         estimate D2E/DX2                !
 ! D89   D(15,13,14,58)        160.3733         estimate D2E/DX2                !
 ! D90   D(15,13,14,59)         21.5857         estimate D2E/DX2                !
 ! D91   D(12,13,15,9)           0.5387         estimate D2E/DX2                !
 ! D92   D(12,13,15,60)        179.9194         estimate D2E/DX2                !
 ! D93   D(14,13,15,9)         177.0104         estimate D2E/DX2                !
 ! D94   D(14,13,15,60)         -3.6089         estimate D2E/DX2                !
 ! D95   D(6,16,17,18)          61.0268         estimate D2E/DX2                !
 ! D96   D(6,16,17,62)         -61.0398         estimate D2E/DX2                !
 ! D97   D(6,16,17,63)        -176.9331         estimate D2E/DX2                !
 ! D98   D(24,16,17,18)        -74.8329         estimate D2E/DX2                !
 ! D99   D(24,16,17,62)        163.1004         estimate D2E/DX2                !
 ! D100  D(24,16,17,63)         47.2072         estimate D2E/DX2                !
 ! D101  D(61,16,17,18)        176.5593         estimate D2E/DX2                !
 ! D102  D(61,16,17,62)         54.4926         estimate D2E/DX2                !
 ! D103  D(61,16,17,63)        -61.4006         estimate D2E/DX2                !
 ! D104  D(6,16,24,25)          12.8365         estimate D2E/DX2                !
 ! D105  D(17,16,24,25)        146.2377         estimate D2E/DX2                !
 ! D106  D(61,16,24,25)       -103.2458         estimate D2E/DX2                !
 ! D107  D(16,17,18,19)         83.3377         estimate D2E/DX2                !
 ! D108  D(16,17,18,23)        -99.2835         estimate D2E/DX2                !
 ! D109  D(62,17,18,19)       -155.6559         estimate D2E/DX2                !
 ! D110  D(62,17,18,23)         21.7229         estimate D2E/DX2                !
 ! D111  D(63,17,18,19)        -37.1548         estimate D2E/DX2                !
 ! D112  D(63,17,18,23)        140.224          estimate D2E/DX2                !
 ! D113  D(17,18,19,20)        178.7266         estimate D2E/DX2                !
 ! D114  D(17,18,19,64)         -1.3842         estimate D2E/DX2                !
 ! D115  D(23,18,19,20)          1.3105         estimate D2E/DX2                !
 ! D116  D(23,18,19,64)       -178.8003         estimate D2E/DX2                !
 ! D117  D(17,18,23,22)       -177.7631         estimate D2E/DX2                !
 ! D118  D(17,18,23,68)          2.4721         estimate D2E/DX2                !
 ! D119  D(19,18,23,22)         -0.3382         estimate D2E/DX2                !
 ! D120  D(19,18,23,68)        179.897          estimate D2E/DX2                !
 ! D121  D(18,19,20,21)         -1.3197         estimate D2E/DX2                !
 ! D122  D(18,19,20,65)        179.3865         estimate D2E/DX2                !
 ! D123  D(64,19,20,21)        178.7917         estimate D2E/DX2                !
 ! D124  D(64,19,20,65)         -0.5021         estimate D2E/DX2                !
 ! D125  D(19,20,21,22)          0.3396         estimate D2E/DX2                !
 ! D126  D(19,20,21,66)       -179.261          estimate D2E/DX2                !
 ! D127  D(65,20,21,22)        179.6314         estimate D2E/DX2                !
 ! D128  D(65,20,21,66)          0.0309         estimate D2E/DX2                !
 ! D129  D(20,21,22,23)          0.6293         estimate D2E/DX2                !
 ! D130  D(20,21,22,67)       -178.3868         estimate D2E/DX2                !
 ! D131  D(66,21,22,23)       -179.7703         estimate D2E/DX2                !
 ! D132  D(66,21,22,67)          1.2135         estimate D2E/DX2                !
 ! D133  D(21,22,23,18)         -0.628          estimate D2E/DX2                !
 ! D134  D(21,22,23,68)        179.1342         estimate D2E/DX2                !
 ! D135  D(67,22,23,18)        178.3886         estimate D2E/DX2                !
 ! D136  D(67,22,23,68)         -1.8492         estimate D2E/DX2                !
 ! D137  D(16,24,25,26)         58.1278         estimate D2E/DX2                !
 ! D138  D(16,24,25,33)        -73.8009         estimate D2E/DX2                !
 ! D139  D(16,24,25,69)        171.9243         estimate D2E/DX2                !
 ! D140  D(24,25,26,27)         52.6102         estimate D2E/DX2                !
 ! D141  D(24,25,26,70)        172.7295         estimate D2E/DX2                !
 ! D142  D(24,25,26,71)        -69.7978         estimate D2E/DX2                !
 ! D143  D(33,25,26,27)       -177.1858         estimate D2E/DX2                !
 ! D144  D(33,25,26,70)        -57.0665         estimate D2E/DX2                !
 ! D145  D(33,25,26,71)         60.4062         estimate D2E/DX2                !
 ! D146  D(69,25,26,27)        -56.2931         estimate D2E/DX2                !
 ! D147  D(69,25,26,70)         63.8263         estimate D2E/DX2                !
 ! D148  D(69,25,26,71)       -178.7011         estimate D2E/DX2                !
 ! D149  D(24,25,33,34)        154.6477         estimate D2E/DX2                !
 ! D150  D(24,25,33,43)         32.6727         estimate D2E/DX2                !
 ! D151  D(24,25,33,77)        -84.2575         estimate D2E/DX2                !
 ! D152  D(26,25,33,34)         23.8366         estimate D2E/DX2                !
 ! D153  D(26,25,33,43)        -98.1385         estimate D2E/DX2                !
 ! D154  D(26,25,33,77)        144.9314         estimate D2E/DX2                !
 ! D155  D(69,25,33,34)        -96.6061         estimate D2E/DX2                !
 ! D156  D(69,25,33,43)        141.4188         estimate D2E/DX2                !
 ! D157  D(69,25,33,77)         24.4887         estimate D2E/DX2                !
 ! D158  D(25,26,27,28)         71.0223         estimate D2E/DX2                !
 ! D159  D(25,26,27,32)       -108.0659         estimate D2E/DX2                !
 ! D160  D(70,26,27,28)        -48.1972         estimate D2E/DX2                !
 ! D161  D(70,26,27,32)        132.7145         estimate D2E/DX2                !
 ! D162  D(71,26,27,28)       -166.3248         estimate D2E/DX2                !
 ! D163  D(71,26,27,32)         14.587          estimate D2E/DX2                !
 ! D164  D(26,27,28,29)       -178.6615         estimate D2E/DX2                !
 ! D165  D(26,27,28,72)          1.5654         estimate D2E/DX2                !
 ! D166  D(32,27,28,29)          0.4472         estimate D2E/DX2                !
 ! D167  D(32,27,28,72)       -179.3258         estimate D2E/DX2                !
 ! D168  D(26,27,32,31)        178.6295         estimate D2E/DX2                !
 ! D169  D(26,27,32,76)         -1.6598         estimate D2E/DX2                !
 ! D170  D(28,27,32,31)         -0.472          estimate D2E/DX2                !
 ! D171  D(28,27,32,76)        179.2386         estimate D2E/DX2                !
 ! D172  D(27,28,29,30)         -0.0647         estimate D2E/DX2                !
 ! D173  D(27,28,29,73)        179.9771         estimate D2E/DX2                !
 ! D174  D(72,28,29,30)        179.7081         estimate D2E/DX2                !
 ! D175  D(72,28,29,73)         -0.2502         estimate D2E/DX2                !
 ! D176  D(28,29,30,31)         -0.3002         estimate D2E/DX2                !
 ! D177  D(28,29,30,74)        179.8788         estimate D2E/DX2                !
 ! D178  D(73,29,30,31)        179.658          estimate D2E/DX2                !
 ! D179  D(73,29,30,74)         -0.163          estimate D2E/DX2                !
 ! D180  D(29,30,31,32)          0.2757         estimate D2E/DX2                !
 ! D181  D(29,30,31,75)       -179.7353         estimate D2E/DX2                !
 ! D182  D(74,30,31,32)       -179.9034         estimate D2E/DX2                !
 ! D183  D(74,30,31,75)          0.0856         estimate D2E/DX2                !
 ! D184  D(30,31,32,27)          0.1143         estimate D2E/DX2                !
 ! D185  D(30,31,32,76)       -179.5965         estimate D2E/DX2                !
 ! D186  D(75,31,32,27)       -179.8747         estimate D2E/DX2                !
 ! D187  D(75,31,32,76)          0.4145         estimate D2E/DX2                !
 ! D188  D(25,33,34,35)         85.9358         estimate D2E/DX2                !
 ! D189  D(43,33,34,35)       -150.8542         estimate D2E/DX2                !
 ! D190  D(77,33,34,35)        -34.5703         estimate D2E/DX2                !
 ! D191  D(25,33,43,5)          63.9879         estimate D2E/DX2                !
 ! D192  D(25,33,43,44)       -178.9014         estimate D2E/DX2                !
 ! D193  D(25,33,43,86)        -60.5721         estimate D2E/DX2                !
 ! D194  D(34,33,43,5)         -59.6341         estimate D2E/DX2                !
 ! D195  D(34,33,43,44)         57.4766         estimate D2E/DX2                !
 ! D196  D(34,33,43,86)        175.8059         estimate D2E/DX2                !
 ! D197  D(77,33,43,5)        -177.8485         estimate D2E/DX2                !
 ! D198  D(77,33,43,44)        -60.7378         estimate D2E/DX2                !
 ! D199  D(77,33,43,86)         57.5914         estimate D2E/DX2                !
 ! D200  D(33,34,35,36)         65.9701         estimate D2E/DX2                !
 ! D201  D(33,34,35,78)       -174.2507         estimate D2E/DX2                !
 ! D202  D(33,34,35,79)        -58.4309         estimate D2E/DX2                !
 ! D203  D(34,35,36,37)       -157.8749         estimate D2E/DX2                !
 ! D204  D(34,35,36,42)         22.8329         estimate D2E/DX2                !
 ! D205  D(78,35,36,37)         85.2891         estimate D2E/DX2                !
 ! D206  D(78,35,36,42)        -94.0032         estimate D2E/DX2                !
 ! D207  D(79,35,36,37)        -32.8124         estimate D2E/DX2                !
 ! D208  D(79,35,36,42)        147.8954         estimate D2E/DX2                !
 ! D209  D(35,36,37,38)       -179.0052         estimate D2E/DX2                !
 ! D210  D(35,36,37,80)          0.8722         estimate D2E/DX2                !
 ! D211  D(42,36,37,38)          0.2917         estimate D2E/DX2                !
 ! D212  D(42,36,37,80)       -179.8308         estimate D2E/DX2                !
 ! D213  D(35,36,42,40)       -179.727          estimate D2E/DX2                !
 ! D214  D(35,36,42,85)         -1.7242         estimate D2E/DX2                !
 ! D215  D(37,36,42,40)          0.9803         estimate D2E/DX2                !
 ! D216  D(37,36,42,85)        178.9831         estimate D2E/DX2                !
 ! D217  D(36,37,38,39)         -1.0285         estimate D2E/DX2                !
 ! D218  D(36,37,38,81)        179.7365         estimate D2E/DX2                !
 ! D219  D(80,37,38,39)        179.0944         estimate D2E/DX2                !
 ! D220  D(80,37,38,81)         -0.1406         estimate D2E/DX2                !
 ! D221  D(37,38,39,40)          0.4936         estimate D2E/DX2                !
 ! D222  D(37,38,39,82)       -179.1847         estimate D2E/DX2                !
 ! D223  D(81,38,39,40)        179.73           estimate D2E/DX2                !
 ! D224  D(81,38,39,82)          0.0517         estimate D2E/DX2                !
 ! D225  D(38,39,40,41)        177.4382         estimate D2E/DX2                !
 ! D226  D(38,39,40,42)          0.763          estimate D2E/DX2                !
 ! D227  D(82,39,40,41)         -2.8813         estimate D2E/DX2                !
 ! D228  D(82,39,40,42)       -179.5565         estimate D2E/DX2                !
 ! D229  D(39,40,41,83)         22.6048         estimate D2E/DX2                !
 ! D230  D(39,40,41,84)        160.3719         estimate D2E/DX2                !
 ! D231  D(42,40,41,83)       -160.7436         estimate D2E/DX2                !
 ! D232  D(42,40,41,84)        -22.9765         estimate D2E/DX2                !
 ! D233  D(39,40,42,36)         -1.503          estimate D2E/DX2                !
 ! D234  D(39,40,42,85)       -179.5181         estimate D2E/DX2                !
 ! D235  D(41,40,42,36)       -178.2367         estimate D2E/DX2                !
 ! D236  D(41,40,42,85)          3.7482         estimate D2E/DX2                !
 ! D237  D(5,43,44,2)           -3.8877         estimate D2E/DX2                !
 ! D238  D(33,43,44,2)        -125.9321         estimate D2E/DX2                !
 ! D239  D(86,43,44,2)         114.7638         estimate D2E/DX2                !
 --------------------------------------------------------------------------------
 Trust Radius=3.00D-01 FncErr=1.00D-07 GrdErr=1.00D-06 EigMax=2.50D+02 EigMin=1.00D-04
 Number of steps in this run=    501 maximum allowed number of steps=    516.
 GradGradGradGradGradGradGradGradGradGradGradGradGradGradGradGradGradGrad

 Leave Link  103 at Fri Nov  4 20:22:19 2022, MaxMem=   805306368 cpu:               0.3 elap:               0.1
 (Enter /home/wykgroup/appl/g16/l202.exe)
 Stoichiometry    C37H42N2O4S
 Framework group  C1[X(C37H42N2O4S)]
 Deg. of freedom   252
 Full point group                 C1      NOp   1
 Largest Abelian subgroup         C1      NOp   1
 Largest concise Abelian subgroup C1      NOp   1
                         Standard orientation:                         
 ---------------------------------------------------------------------
 Center     Atomic      Atomic             Coordinates (Angstroms)
 Number     Number       Type             X           Y           Z
 ---------------------------------------------------------------------
      1          6           0       -0.034821   -2.384672   -2.526619
      2          6           0       -0.605744   -2.105810   -1.127878
      3          6           0       -1.527424   -3.235303   -0.675859
      4          8           0       -1.324254   -0.893929   -1.099336
      5          6           0       -0.382304    0.121361   -0.837043
      6          6           0       -1.074388    1.424304   -0.335132
      7          8           0       -2.468868    1.289063   -0.271787
      8          6           0       -3.143910    1.355794   -1.518851
      9          6           0       -4.525035    0.795662   -1.316899
     10          6           0       -5.661907    1.582907   -1.428307
     11          6           0       -6.907746    1.019275   -1.204553
     12          6           0       -7.027871   -0.311822   -0.858786
     13          6           0       -5.890199   -1.111350   -0.737619
     14          7           0       -5.998455   -2.460593   -0.459079
     15          6           0       -4.642029   -0.541762   -0.976291
     16          6           0       -0.655412    2.016260    1.029586
     17          6           0       -1.534134    1.589719    2.222334
     18          6           0       -1.591347    0.123135    2.538119
     19          6           0       -0.601197   -0.476128    3.310889
     20          6           0       -0.669122   -1.822656    3.623036
     21          6           0       -1.741780   -2.582359    3.189893
     22          6           0       -2.741097   -1.987896    2.437302
     23          6           0       -2.664459   -0.646130    2.107486
     24         16           0        1.111215    1.899582    1.577531
     25          6           0        2.218782    1.398911    0.213714
     26          6           0        2.164292    2.353367   -0.983638
     27          6           0        2.394153    3.773640   -0.547190
     28          6           0        3.655312    4.182332   -0.130891
     29          6           0        3.870727    5.478673    0.298373
     30          6           0        2.825918    6.387028    0.316160
     31          6           0        1.568210    5.992222   -0.103437
     32          6           0        1.356049    4.694060   -0.532998
     33          6           0        2.061814   -0.104225   -0.131981
     34          8           0        2.429302   -0.376346   -1.467384
     35          6           0        3.808973   -0.615836   -1.671924
     36          6           0        4.343118   -1.869846   -1.021552
     37          6           0        5.702448   -1.983368   -0.750774
     38          6           0        6.190816   -3.142228   -0.173739
     39          6           0        5.339980   -4.179962    0.156003
     40          6           0        3.973977   -4.071726   -0.100992
     41          7           0        3.107470   -5.111789    0.169194
     42          6           0        3.491670   -2.911964   -0.706766
     43          6           0        0.617832   -0.576147    0.094076
     44          8           0        0.454059   -1.950883   -0.190659
     45          1           0        0.392693   -3.382799   -2.553890
     46          1           0       -0.831293   -2.309993   -3.262325
     47          1           0        0.746908   -1.665342   -2.757607
     48          1           0       -0.965811   -4.163089   -0.626840
     49          1           0       -1.918387   -2.998273    0.309904
     50          1           0       -2.344272   -3.338609   -1.384266
     51          1           0        0.152623    0.353249   -1.772759
     52          1           0       -0.841065    2.195001   -1.092700
     53          1           0       -3.184277    2.402439   -1.860576
     54          1           0       -2.613690    0.758151   -2.269785
     55          1           0       -5.576484    2.627589   -1.687484
     56          1           0       -7.795774    1.628303   -1.292485
     57          1           0       -8.002449   -0.743443   -0.679193
     58          1           0       -6.847383   -2.755654   -0.004345
     59          1           0       -5.161935   -2.902805   -0.113302
     60          1           0       -3.745431   -1.136134   -0.888622
     61          1           0       -0.803082    3.097778    0.935732
     62          1           0       -2.544377    1.942919    2.010549
     63          1           0       -1.148411    2.128469    3.092374
     64          1           0        0.227584    0.119634    3.666748
     65          1           0        0.111921   -2.276630    4.215569
     66          1           0       -1.802283   -3.631360    3.442935
     67          1           0       -3.594552   -2.571786    2.118697
     68          1           0       -3.436215   -0.186706    1.509399
     69          1           0        3.188195    1.540459    0.704468
     70          1           0        2.943624    2.056480   -1.689772
     71          1           0        1.207789    2.269278   -1.495762
     72          1           0        4.476619    3.479464   -0.146723
     73          1           0        4.856571    5.781678    0.619384
     74          1           0        2.992722    7.399296    0.653134
     75          1           0        0.748902    6.696223   -0.096570
     76          1           0        0.371421    4.395541   -0.865493
     77          1           0        2.693463   -0.689012    0.551103
     78          1           0        3.908708   -0.698749   -2.760484
     79          1           0        4.404589    0.247886   -1.340466
     80          1           0        6.371694   -1.170594   -0.992396
     81          1           0        7.247161   -3.233505    0.033249
     82          1           0        5.726839   -5.076837    0.618491
     83          1           0        3.416392   -5.780849    0.856242
     84          1           0        2.137109   -4.850025    0.247211
     85          1           0        2.434749   -2.819366   -0.900885
     86          1           0        0.361573   -0.432899    1.148042
 ---------------------------------------------------------------------
 Rotational constants (GHZ):           0.0884748           0.0607475           0.0439164
 Leave Link  202 at Fri Nov  4 20:22:19 2022, MaxMem=   805306368 cpu:               0.5 elap:               0.1
 (Enter /home/wykgroup/appl/g16/l301.exe)
 Standard basis: 6-31G(d) (6D, 7F)
 Ernie: Thresh=  0.10000D-02 Tol=  0.10000D-05 Strict=F.
 There are   748 symmetry adapted cartesian basis functions of A   symmetry.
 There are   748 symmetry adapted basis functions of A   symmetry.
   748 basis functions,  1424 primitive gaussians,   748 cartesian basis functions
   163 alpha electrons      163 beta electrons
       nuclear repulsion energy      5935.0744747317 Hartrees.
 IExCor=  402 DFT=T Ex+Corr=B3LYP ExCW=0 ScaHFX=  0.200000
 ScaDFX=  0.800000  0.720000  1.000000  0.810000 ScalE2=  1.000000  1.000000
 IRadAn=      5 IRanWt=     -1 IRanGd=            0 ICorTp=0 IEmpDi=  4
 NAtoms=   86 NActive=   86 NUniq=   86 SFac= 1.00D+00 NAtFMM=   60 NAOKFM=T Big=T
 Integral buffers will be    131072 words long.
 Raffenetti 2 integral format.
 Two-electron integral symmetry is turned on.
 Leave Link  301 at Fri Nov  4 20:22:19 2022, MaxMem=   805306368 cpu:               0.6 elap:               0.1
 (Enter /home/wykgroup/appl/g16/l302.exe)
 NPDir=0 NMtPBC=     1 NCelOv=     1 NCel=       1 NClECP=     1 NCelD=      1
         NCelK=      1 NCelE2=     1 NClLst=     1 CellRange=     0.0.
 One-electron integrals computed using PRISM.
 One-electron integral symmetry used in STVInt
 NBasis=   748 RedAO= T EigKep=  3.63D-04  NBF=   748
 NBsUse=   748 1.00D-06 EigRej= -1.00D+00 NBFU=   748
 Precomputing XC quadrature grid using
 IXCGrd= 4 IRadAn=           5 IRanWt=          -1 IRanGd=           0 AccXCQ= 0.00D+00.
 Generated NRdTot=       0 NPtTot=           0 NUsed=           0 NTot=          32
 NSgBfM=   719   716   717   719   719 MxSgAt=    86 MxSgA2=    86.
 Leave Link  302 at Fri Nov  4 20:22:22 2022, MaxMem=   805306368 cpu:              16.8 elap:               2.5
 (Enter /home/wykgroup/appl/g16/l303.exe)
 DipDrv:  MaxL=1.
 Leave Link  303 at Fri Nov  4 20:22:22 2022, MaxMem=   805306368 cpu:               1.0 elap:               0.2
 (Enter /home/wykgroup/appl/g16/l401.exe)
 ExpMin= 1.17D-01 ExpMax= 2.19D+04 ExpMxC= 3.30D+03 IAcc=3 IRadAn=         5 AccDes= 0.00D+00
 Harris functional with IExCor=  402 and IRadAn=       5 diagonalized for initial guess.
 HarFok:  IExCor=  402 AccDes= 0.00D+00 IRadAn=         5 IDoV= 1 UseB2=F ITyADJ=14
 ICtDFT=  3500011 ScaDFX=  1.000000  1.000000  1.000000  1.000000
 FoFCou: FMM=F IPFlag=           0 FMFlag=      100000 FMFlg1=        2001
         NFxFlg=           0 DoJE=T BraDBF=F KetDBF=T FulRan=T
         wScrn=  0.000000 ICntrl=       500 IOpCl=  0 I1Cent=   200000004 NGrid=           0
         NMat0=    1 NMatS0=      1 NMatT0=    0 NMatD0=    1 NMtDS0=    0 NMtDT0=    0
 Petite list used in FoFCou.
 Harris En= -2243.74875325132    
 JPrj=0 DoOrth=F DoCkMO=F.
 Leave Link  401 at Fri Nov  4 20:22:31 2022, MaxMem=   805306368 cpu:              61.8 elap:               8.9
 (Enter /home/wykgroup/appl/g16/l502.exe)
 Integral symmetry usage will be decided dynamically.
 Closed shell SCF:
 Using DIIS extrapolation, IDIIS=  1040.
 NGot=   805306368 LenX=   804173795 LenY=   803613543
 Requested convergence on RMS density matrix=1.00D-08 within  32 cycles.
 Requested convergence on MAX density matrix=1.00D-06.
 Requested convergence on             energy=1.00D-06.
 No special actions if energy rises.
 Fock matrices will be formed incrementally for  20 cycles.
 Integral accuracy reduced to 1.0D-05 until final iterations.

 Cycle   1  Pass 0  IDiag  1:
 FoFJK:  IHMeth= 1 ICntrl=       0 DoSepK=F KAlg= 0 I1Cent=           0 FoldK=F
 IRaf= 940000000 NMat=       1 IRICut=       1 DoRegI=T DoRafI=F ISym2E= 0 IDoP0=0 IntGTp=1.
 FoFCou: FMM=T IPFlag=           0 FMFlag=      100000 FMFlg1=        2001
         NFxFlg=           0 DoJE=F BraDBF=F KetDBF=F FulRan=T
         wScrn=  0.000000 ICntrl=         0 IOpCl=  0 I1Cent=           0 NGrid=           0
         NMat0=    1 NMatS0=      1 NMatT0=    0 NMatD0=    1 NMtDS0=    0 NMtDT0=    0
 Symmetry not used in FoFCou.
 FMM levels:  10  Number of levels for PrismC:   9
 E= -2242.70994863985    
 DIIS: error= 2.29D-02 at cycle   1 NSaved=   1.
 NSaved= 1 IEnMin= 1 EnMin= -2242.70994863985     IErMin= 1 ErrMin= 2.29D-02
 ErrMax= 2.29D-02  0.00D+00 EMaxC= 1.00D-01 BMatC= 1.00D+00 BMatP= 1.00D+00
 IDIUse=3 WtCom= 7.71D-01 WtEn= 2.29D-01
 Coeff-Com:  0.100D+01
 Coeff-En:   0.100D+01
 Coeff:      0.100D+01
 Gap=     0.351 Goal=   None    Shift=    0.000
 GapD=    0.351 DampG=1.000 DampE=0.500 DampFc=0.5000 IDamp=-1.
 Damping current iteration by 5.00D-01
 RMSDP=3.20D-03 MaxDP=1.47D-01              OVMax= 1.74D-01

 Cycle   2  Pass 0  IDiag  1:
 RMSU=  1.58D-03    CP:  9.80D-01
 E= -2243.19628460613     Delta-E=       -0.486335966286 Rises=F Damp=T
 DIIS: error= 5.27D-03 at cycle   2 NSaved=   2.
 NSaved= 2 IEnMin= 2 EnMin= -2243.19628460613     IErMin= 2 ErrMin= 5.27D-03
 ErrMax= 5.27D-03  0.00D+00 EMaxC= 1.00D-01 BMatC= 5.19D-02 BMatP= 1.00D+00
 IDIUse=3 WtCom= 9.47D-01 WtEn= 5.27D-02
 Coeff-Com:  0.198D-01 0.980D+00
 Coeff-En:   0.369D-01 0.963D+00
 Coeff:      0.207D-01 0.979D+00
 Gap=     0.248 Goal=   None    Shift=    0.000
 RMSDP=8.21D-04 MaxDP=5.05D-02 DE=-4.86D-01 OVMax= 1.04D-01

 Cycle   3  Pass 0  IDiag  1:
 RMSU=  7.75D-04    CP:  9.71D-01  8.42D-01
 E= -2243.72925008654     Delta-E=       -0.532965480404 Rises=F Damp=F
 DIIS: error= 3.76D-03 at cycle   3 NSaved=   3.
 NSaved= 3 IEnMin= 3 EnMin= -2243.72925008654     IErMin= 3 ErrMin= 3.76D-03
 ErrMax= 3.76D-03  0.00D+00 EMaxC= 1.00D-01 BMatC= 2.25D-02 BMatP= 5.19D-02
 IDIUse=3 WtCom= 9.62D-01 WtEn= 3.76D-02
 Coeff-Com: -0.352D-01 0.373D+00 0.662D+00
 Coeff-En:   0.000D+00 0.000D+00 0.100D+01
 Coeff:     -0.339D-01 0.359D+00 0.675D+00
 Gap=     0.204 Goal=   None    Shift=    0.000
 RMSDP=3.95D-04 MaxDP=2.91D-02 DE=-5.33D-01 OVMax= 4.06D-02

 Cycle   4  Pass 0  IDiag  1:
 RMSU=  3.01D-04    CP:  9.72D-01  9.24D-01  7.15D-01
 E= -2243.73874175176     Delta-E=       -0.009491665226 Rises=F Damp=F
 DIIS: error= 2.90D-03 at cycle   4 NSaved=   4.
 NSaved= 4 IEnMin= 4 EnMin= -2243.73874175176     IErMin= 4 ErrMin= 2.90D-03
 ErrMax= 2.90D-03  0.00D+00 EMaxC= 1.00D-01 BMatC= 1.19D-02 BMatP= 2.25D-02
 IDIUse=3 WtCom= 9.71D-01 WtEn= 2.90D-02
 Coeff-Com: -0.232D-01 0.110D+00 0.436D+00 0.477D+00
 Coeff-En:   0.000D+00 0.000D+00 0.365D+00 0.635D+00
 Coeff:     -0.225D-01 0.107D+00 0.434D+00 0.481D+00
 Gap=     0.195 Goal=   None    Shift=    0.000
 RMSDP=1.88D-04 MaxDP=1.28D-02 DE=-9.49D-03 OVMax= 2.68D-02

 Cycle   5  Pass 0  IDiag  1:
 RMSU=  8.64D-05    CP:  9.72D-01  9.15D-01  7.98D-01  4.90D-01
 E= -2243.74922601322     Delta-E=       -0.010484261464 Rises=F Damp=F
 DIIS: error= 7.09D-04 at cycle   5 NSaved=   5.
 NSaved= 5 IEnMin= 5 EnMin= -2243.74922601322     IErMin= 5 ErrMin= 7.09D-04
 ErrMax= 7.09D-04  0.00D+00 EMaxC= 1.00D-01 BMatC= 4.90D-04 BMatP= 1.19D-02
 IDIUse=3 WtCom= 9.93D-01 WtEn= 7.09D-03
 Coeff-Com: -0.829D-02 0.259D-01 0.165D+00 0.244D+00 0.573D+00
 Coeff-En:   0.000D+00 0.000D+00 0.000D+00 0.000D+00 0.100D+01
 Coeff:     -0.823D-02 0.258D-01 0.164D+00 0.242D+00 0.576D+00
 Gap=     0.195 Goal=   None    Shift=    0.000
 RMSDP=4.82D-05 MaxDP=3.45D-03 DE=-1.05D-02 OVMax= 8.07D-03

 Cycle   6  Pass 0  IDiag  1:
 RMSU=  2.86D-05    CP:  9.72D-01  9.16D-01  7.99D-01  5.50D-01  6.05D-01
 E= -2243.74965594515     Delta-E=       -0.000429931922 Rises=F Damp=F
 DIIS: error= 3.11D-04 at cycle   6 NSaved=   6.
 NSaved= 6 IEnMin= 6 EnMin= -2243.74965594515     IErMin= 6 ErrMin= 3.11D-04
 ErrMax= 3.11D-04  0.00D+00 EMaxC= 1.00D-01 BMatC= 9.96D-05 BMatP= 4.90D-04
 IDIUse=3 WtCom= 9.97D-01 WtEn= 3.11D-03
 Coeff-Com: -0.309D-02 0.583D-02 0.629D-01 0.107D+00 0.366D+00 0.461D+00
 Coeff-En:   0.000D+00 0.000D+00 0.000D+00 0.000D+00 0.161D+00 0.839D+00
 Coeff:     -0.308D-02 0.582D-02 0.627D-01 0.107D+00 0.365D+00 0.462D+00
 Gap=     0.195 Goal=   None    Shift=    0.000
 RMSDP=1.62D-05 MaxDP=8.25D-04 DE=-4.30D-04 OVMax= 2.62D-03

 Cycle   7  Pass 0  IDiag  1:
 RMSU=  6.34D-06    CP:  9.72D-01  9.15D-01  8.04D-01  5.42D-01  6.69D-01
                    CP:  5.40D-01
 E= -2243.74976160332     Delta-E=       -0.000105658172 Rises=F Damp=F
 DIIS: error= 3.15D-05 at cycle   7 NSaved=   7.
 NSaved= 7 IEnMin= 7 EnMin= -2243.74976160332     IErMin= 7 ErrMin= 3.15D-05
 ErrMax= 3.15D-05  0.00D+00 EMaxC= 1.00D-01 BMatC= 2.26D-06 BMatP= 9.96D-05
 IDIUse=1 WtCom= 1.00D+00 WtEn= 0.00D+00
 Coeff-Com: -0.102D-02 0.130D-02 0.211D-01 0.385D-01 0.145D+00 0.220D+00
 Coeff-Com:  0.574D+00
 Coeff:     -0.102D-02 0.130D-02 0.211D-01 0.385D-01 0.145D+00 0.220D+00
 Coeff:      0.574D+00
 Gap=     0.195 Goal=   None    Shift=    0.000
 RMSDP=3.26D-06 MaxDP=2.75D-04 DE=-1.06D-04 OVMax= 2.92D-04

 Initial convergence to 1.0D-05 achieved.  Increase integral accuracy.
 Cycle   8  Pass 1  IDiag  1:
 E= -2243.74975467827     Delta-E=        0.000006925053 Rises=F Damp=F
 DIIS: error= 1.50D-04 at cycle   1 NSaved=   1.
 NSaved= 1 IEnMin= 1 EnMin= -2243.74975467827     IErMin= 1 ErrMin= 1.50D-04
 ErrMax= 1.50D-04  0.00D+00 EMaxC= 1.00D-01 BMatC= 1.41D-05 BMatP= 1.41D-05
 IDIUse=3 WtCom= 9.98D-01 WtEn= 1.50D-03
 Coeff-Com:  0.100D+01
 Coeff-En:   0.100D+01
 Coeff:      0.100D+01
 Gap=     0.195 Goal=   None    Shift=    0.000
 RMSDP=3.26D-06 MaxDP=2.75D-04 DE= 6.93D-06 OVMax= 5.22D-04

 Cycle   9  Pass 1  IDiag  1:
 RMSU=  7.66D-05    CP:  1.00D+00
 E= -2243.74976830032     Delta-E=       -0.000013622055 Rises=F Damp=F
 DIIS: error= 2.42D-05 at cycle   2 NSaved=   2.
 NSaved= 2 IEnMin= 2 EnMin= -2243.74976830032     IErMin= 2 ErrMin= 2.42D-05
 ErrMax= 2.42D-05  0.00D+00 EMaxC= 1.00D-01 BMatC= 7.12D-07 BMatP= 1.41D-05
 IDIUse=1 WtCom= 1.00D+00 WtEn= 0.00D+00
 Coeff-Com:  0.640D-01 0.936D+00
 Coeff:      0.640D-01 0.936D+00
 Gap=     0.195 Goal=   None    Shift=    0.000
 RMSDP=3.48D-06 MaxDP=1.86D-04 DE=-1.36D-05 OVMax= 4.29D-04

 Cycle  10  Pass 1  IDiag  1:
 RMSU=  3.40D-06    CP:  1.00D+00  1.01D+00
 E= -2243.74976707205     Delta-E=        0.000001228270 Rises=F Damp=F
 DIIS: error= 4.14D-05 at cycle   3 NSaved=   3.
 NSaved= 3 IEnMin= 2 EnMin= -2243.74976830032     IErMin= 2 ErrMin= 2.42D-05
 ErrMax= 4.14D-05  0.00D+00 EMaxC= 1.00D-01 BMatC= 1.88D-06 BMatP= 7.12D-07
 IDIUse=1 WtCom= 1.00D+00 WtEn= 0.00D+00
 Coeff-Com: -0.503D-02 0.622D+00 0.383D+00
 Coeff:     -0.503D-02 0.622D+00 0.383D+00
 Gap=     0.195 Goal=   None    Shift=    0.000
 RMSDP=2.16D-06 MaxDP=1.08D-04 DE= 1.23D-06 OVMax= 3.02D-04

 Cycle  11  Pass 1  IDiag  1:
 RMSU=  4.18D-07    CP:  1.00D+00  1.01D+00  3.76D-01
 E= -2243.74976900617     Delta-E=       -0.000001934118 Rises=F Damp=F
 DIIS: error= 3.38D-06 at cycle   4 NSaved=   4.
 NSaved= 4 IEnMin= 4 EnMin= -2243.74976900617     IErMin= 4 ErrMin= 3.38D-06
 ErrMax= 3.38D-06  0.00D+00 EMaxC= 1.00D-01 BMatC= 1.73D-08 BMatP= 7.12D-07
 IDIUse=1 WtCom= 1.00D+00 WtEn= 0.00D+00
 Coeff-Com: -0.381D-02 0.365D+00 0.232D+00 0.407D+00
 Coeff:     -0.381D-02 0.365D+00 0.232D+00 0.407D+00
 Gap=     0.195 Goal=   None    Shift=    0.000
 RMSDP=2.25D-07 MaxDP=2.02D-05 DE=-1.93D-06 OVMax= 3.33D-05

 Cycle  12  Pass 1  IDiag  1:
 RMSU=  1.25D-07    CP:  1.00D+00  1.01D+00  3.90D-01  5.66D-01
 E= -2243.74976902411     Delta-E=       -0.000000017944 Rises=F Damp=F
 DIIS: error= 5.39D-07 at cycle   5 NSaved=   5.
 NSaved= 5 IEnMin= 5 EnMin= -2243.74976902411     IErMin= 5 ErrMin= 5.39D-07
 ErrMax= 5.39D-07  0.00D+00 EMaxC= 1.00D-01 BMatC= 3.98D-10 BMatP= 1.73D-08
 IDIUse=1 WtCom= 1.00D+00 WtEn= 0.00D+00
 Coeff-Com: -0.175D-02 0.162D+00 0.103D+00 0.209D+00 0.529D+00
 Coeff:     -0.175D-02 0.162D+00 0.103D+00 0.209D+00 0.529D+00
 Gap=     0.195 Goal=   None    Shift=    0.000
 RMSDP=4.06D-08 MaxDP=2.73D-06 DE=-1.79D-08 OVMax= 6.14D-06

 Cycle  13  Pass 1  IDiag  1:
 RMSU=  3.49D-08    CP:  1.00D+00  1.01D+00  3.90D-01  5.93D-01  8.62D-01
 E= -2243.74976902447     Delta-E=       -0.000000000356 Rises=F Damp=F
 DIIS: error= 2.03D-07 at cycle   6 NSaved=   6.
 NSaved= 6 IEnMin= 6 EnMin= -2243.74976902447     IErMin= 6 ErrMin= 2.03D-07
 ErrMax= 2.03D-07  0.00D+00 EMaxC= 1.00D-01 BMatC= 5.10D-11 BMatP= 3.98D-10
 IDIUse=1 WtCom= 1.00D+00 WtEn= 0.00D+00
 Coeff-Com: -0.318D-03 0.273D-01 0.174D-01 0.447D-01 0.285D+00 0.626D+00
 Coeff:     -0.318D-03 0.273D-01 0.174D-01 0.447D-01 0.285D+00 0.626D+00
 Gap=     0.195 Goal=   None    Shift=    0.000
 RMSDP=1.47D-08 MaxDP=8.84D-07 DE=-3.56D-10 OVMax= 2.15D-06

 Cycle  14  Pass 1  IDiag  1:
[...]
 Alpha  occ. eigenvalues --   -0.63505  -0.63332  -0.60255  -0.60090  -0.59705
 Alpha  occ. eigenvalues --   -0.59545  -0.58859  -0.58494  -0.58371  -0.57908
 Alpha  occ. eigenvalues --   -0.57467  -0.55560  -0.54588  -0.52642  -0.51312
 Alpha  occ. eigenvalues --   -0.51255  -0.50939  -0.50790  -0.50218  -0.50046
 Alpha  occ. eigenvalues --   -0.49201  -0.48496  -0.48207  -0.47690  -0.47410
 Alpha  occ. eigenvalues --   -0.47007  -0.46271  -0.45975  -0.45634  -0.45307
 Alpha  occ. eigenvalues --   -0.44934  -0.44618  -0.44169  -0.43575  -0.42774
 Alpha  occ. eigenvalues --   -0.42734  -0.42515  -0.41908  -0.41691  -0.41593
 Alpha  occ. eigenvalues --   -0.41294  -0.41005  -0.40822  -0.40514  -0.40323
 Alpha  occ. eigenvalues --   -0.39993  -0.39887  -0.39401  -0.38971  -0.38693
 Alpha  occ. eigenvalues --   -0.38010  -0.37546  -0.37475  -0.37144  -0.36887
 Alpha  occ. eigenvalues --   -0.36459  -0.35887  -0.35622  -0.35266  -0.35151
 Alpha  occ. eigenvalues --   -0.34796  -0.34721  -0.34146  -0.33953  -0.33640
 Alpha  occ. eigenvalues --   -0.33557  -0.33128  -0.32995  -0.32683  -0.32165
 Alpha  occ. eigenvalues --   -0.30979  -0.30755  -0.30339  -0.29727  -0.29584
 Alpha  occ. eigenvalues --   -0.26770  -0.26164  -0.26067  -0.25169  -0.24687
 Alpha  occ. eigenvalues --   -0.24033  -0.23951  -0.23838  -0.23519  -0.23357
 Alpha  occ. eigenvalues --   -0.21369  -0.20108  -0.19668
 Alpha virt. eigenvalues --   -0.00284   0.00011   0.00232   0.00344   0.00583
 Alpha virt. eigenvalues --    0.00710   0.01908   0.02109   0.04536   0.04591
 Alpha virt. eigenvalues --    0.06398   0.06854   0.07328   0.07903   0.09104
 Alpha virt. eigenvalues --    0.09524   0.09997   0.10041   0.10475   0.11062
 Alpha virt. eigenvalues --    0.11202   0.11619   0.12086   0.12613   0.12920
 Alpha virt. eigenvalues --    0.13684   0.13892   0.13956   0.14483   0.14635
 Alpha virt. eigenvalues --    0.15126   0.15325   0.15610   0.15915   0.16162
 Alpha virt. eigenvalues --    0.16256   0.16594   0.16769   0.16871   0.17194
 Alpha virt. eigenvalues --    0.17249   0.17474   0.17739   0.17976   0.18353
 Alpha virt. eigenvalues --    0.18448   0.18800   0.19169   0.19443   0.19743
 Alpha virt. eigenvalues --    0.19923   0.20428   0.20621   0.20860   0.21174
 Alpha virt. eigenvalues --    0.21493   0.21988   0.22284   0.22554   0.22667
 Alpha virt. eigenvalues --    0.23165   0.23583   0.24111   0.24429   0.25005
 Alpha virt. eigenvalues --    0.25563   0.25677   0.25935   0.26188   0.27488
 Alpha virt. eigenvalues --    0.27965   0.28300   0.28885   0.28996   0.29299
 Alpha virt. eigenvalues --    0.30420   0.30988   0.30999   0.31186   0.31840
 Alpha virt. eigenvalues --    0.32572   0.32694   0.33179   0.33587   0.33774
 Alpha virt. eigenvalues --    0.34138   0.34408   0.34823   0.35444   0.35526
 Alpha virt. eigenvalues --    0.36799   0.37258   0.37734   0.37982   0.38530
 Alpha virt. eigenvalues --    0.39241   0.42572   0.43871   0.44314   0.45498
 Alpha virt. eigenvalues --    0.45807   0.48265   0.49171   0.49398   0.49890
 Alpha virt. eigenvalues --    0.50566   0.51439   0.52003   0.52192   0.52912
 Alpha virt. eigenvalues --    0.53240   0.53564   0.53912   0.54069   0.54239
 Alpha virt. eigenvalues --    0.54555   0.54676   0.55103   0.55301   0.55418
 Alpha virt. eigenvalues --    0.55940   0.56246   0.56588   0.56830   0.57359
 Alpha virt. eigenvalues --    0.57467   0.57949   0.58139   0.58177   0.58313
 Alpha virt. eigenvalues --    0.58561   0.59404   0.59629   0.59864   0.59962
 Alpha virt. eigenvalues --    0.60104   0.60363   0.60653   0.60877   0.60996
 Alpha virt. eigenvalues --    0.61177   0.61420   0.61484   0.61628   0.61732
 Alpha virt. eigenvalues --    0.62018   0.62159   0.62273   0.62337   0.62576
 Alpha virt. eigenvalues --    0.62854   0.63211   0.63453   0.63549   0.63783
 Alpha virt. eigenvalues --    0.63903   0.64390   0.64492   0.65009   0.65215
 Alpha virt. eigenvalues --    0.65761   0.66470   0.66942   0.67328   0.67732
 Alpha virt. eigenvalues --    0.68378   0.69007   0.69128   0.69843   0.70263
 Alpha virt. eigenvalues --    0.70529   0.70669   0.70891   0.71519   0.73118
 Alpha virt. eigenvalues --    0.73751   0.73934   0.74013   0.74443   0.75027
 Alpha virt. eigenvalues --    0.76133   0.76375   0.76384   0.77271   0.77971
 Alpha virt. eigenvalues --    0.78193   0.79398   0.79535   0.80083   0.80181
 Alpha virt. eigenvalues --    0.80455   0.80877   0.81634   0.82963   0.83373
 Alpha virt. eigenvalues --    0.83722   0.83845   0.84048   0.84293   0.84367
 Alpha virt. eigenvalues --    0.84710   0.85026   0.85093   0.85353   0.85680
 Alpha virt. eigenvalues --    0.86165   0.86920   0.87467   0.87565   0.87912
 Alpha virt. eigenvalues --    0.88091   0.88471   0.88941   0.89213   0.89675
 Alpha virt. eigenvalues --    0.90019   0.90191   0.90371   0.90641   0.90864
 Alpha virt. eigenvalues --    0.90899   0.91057   0.91567   0.91879   0.91963
 Alpha virt. eigenvalues --    0.92317   0.92419   0.92843   0.93176   0.93630
 Alpha virt. eigenvalues --    0.94311   0.94799   0.95102   0.95370   0.96016
 Alpha virt. eigenvalues --    0.96414   0.96690   0.97292   0.97738   0.97992
 Alpha virt. eigenvalues --    0.98218   0.98535   0.98995   0.99634   0.99911
 Alpha virt. eigenvalues --    1.00483   1.00687   1.00924   1.01380   1.01983
 Alpha virt. eigenvalues --    1.02583   1.02818   1.03351   1.04141   1.04669
 Alpha virt. eigenvalues --    1.05074   1.05887   1.06071   1.06393   1.07347
 Alpha virt. eigenvalues --    1.08060   1.08882   1.09432   1.10076   1.10725
 Alpha virt. eigenvalues --    1.10969   1.13371   1.13590   1.14241   1.15104
 Alpha virt. eigenvalues --    1.15645   1.16154   1.16271   1.16435   1.16961
 Alpha virt. eigenvalues --    1.17278   1.18262   1.18807   1.19252   1.19901
 Alpha virt. eigenvalues --    1.21074   1.21414   1.22274   1.22770   1.24086
 Alpha virt. eigenvalues --    1.24850   1.25654   1.26006   1.26595   1.26665
 Alpha virt. eigenvalues --    1.27326   1.27953   1.28542   1.29271   1.30135
 Alpha virt. eigenvalues --    1.31440   1.31903   1.32173   1.33478   1.34434
 Alpha virt. eigenvalues --    1.36403   1.37156   1.37911   1.39199   1.39367
 Alpha virt. eigenvalues --    1.39903   1.40606   1.41559   1.42910   1.43405
 Alpha virt. eigenvalues --    1.43456   1.43950   1.44470   1.46158   1.46625
 Alpha virt. eigenvalues --    1.46947   1.47330   1.47601   1.47961   1.48424
 Alpha virt. eigenvalues --    1.48792   1.49379   1.49551   1.49791   1.50000
 Alpha virt. eigenvalues --    1.50092   1.50174   1.50431   1.50769   1.51182
 Alpha virt. eigenvalues --    1.51797   1.52599   1.53636   1.54108   1.55448
 Alpha virt. eigenvalues --    1.56264   1.56577   1.57755   1.59499   1.59985
 Alpha virt. eigenvalues --    1.61161   1.62384   1.64464   1.65868   1.67756
 Alpha virt. eigenvalues --    1.68131   1.69315   1.70842   1.71066   1.72688
 Alpha virt. eigenvalues --    1.74557   1.75676   1.76362   1.76696   1.77302
 Alpha virt. eigenvalues --    1.78742   1.79124   1.79324   1.79670   1.80072
 Alpha virt. eigenvalues --    1.80613   1.80825   1.81469   1.81879   1.83099
 Alpha virt. eigenvalues --    1.83279   1.83877   1.84014   1.85451   1.86218
 Alpha virt. eigenvalues --    1.86460   1.87389   1.87591   1.88275   1.88626
 Alpha virt. eigenvalues --    1.89595   1.90077   1.90380   1.90728   1.91376
 Alpha virt. eigenvalues --    1.91578   1.92354   1.92526   1.92826   1.93294
 Alpha virt. eigenvalues --    1.93458   1.93763   1.94216   1.94819   1.94970
 Alpha virt. eigenvalues --    1.95027   1.95623   1.96353   1.97307   1.97523
 Alpha virt. eigenvalues --    1.97795   1.98137   1.98328   1.98644   2.00081
 Alpha virt. eigenvalues --    2.00994   2.03273   2.03886   2.04455   2.05122
 Alpha virt. eigenvalues --    2.05821   2.06265   2.07079   2.07409   2.07924
 Alpha virt. eigenvalues --    2.08529   2.08612   2.09195   2.09818   2.10132
 Alpha virt. eigenvalues --    2.10301   2.11099   2.12798   2.13260   2.14007
 Alpha virt. eigenvalues --    2.14389   2.14727   2.14921   2.15225   2.15427
 Alpha virt. eigenvalues --    2.16258   2.17125   2.18051   2.18302   2.18812
 Alpha virt. eigenvalues --    2.19620   2.19819   2.20823   2.21020   2.21849
 Alpha virt. eigenvalues --    2.21964   2.22114   2.22767   2.22973   2.24184
 Alpha virt. eigenvalues --    2.24504   2.24878   2.25463   2.26223   2.26927
 Alpha virt. eigenvalues --    2.26950   2.27981   2.28433   2.28800   2.29144
 Alpha virt. eigenvalues --    2.30019   2.30904   2.31375   2.31697   2.32265
 Alpha virt. eigenvalues --    2.32612   2.32775   2.33677   2.34711   2.36351
 Alpha virt. eigenvalues --    2.37032   2.37533   2.38733   2.39203   2.40157
 Alpha virt. eigenvalues --    2.41434   2.42567   2.42977   2.43290   2.43601
 Alpha virt. eigenvalues --    2.44587   2.45835   2.46284   2.47505   2.48659
 Alpha virt. eigenvalues --    2.49920   2.50882   2.51276   2.51974   2.52733
 Alpha virt. eigenvalues --    2.54298   2.56762   2.57944   2.58538   2.59040
 Alpha virt. eigenvalues --    2.59144   2.59684   2.61157   2.62136   2.63057
 Alpha virt. eigenvalues --    2.63476   2.64201   2.64929   2.66104   2.66849
 Alpha virt. eigenvalues --    2.67612   2.68105   2.68129   2.69408   2.70230
 Alpha virt. eigenvalues --    2.72389   2.72962   2.73446   2.73971   2.74944
 Alpha virt. eigenvalues --    2.75079   2.75598   2.76238   2.76508   2.77220
 Alpha virt. eigenvalues --    2.77387   2.77772   2.77964   2.78799   2.79160
 Alpha virt. eigenvalues --    2.81632   2.83259   2.84319   2.85340   2.86819
 Alpha virt. eigenvalues --    2.87546   2.89131   2.90496   2.91340   2.92346
 Alpha virt. eigenvalues --    2.93938   2.96712   2.97860   2.99010   3.03055
 Alpha virt. eigenvalues --    3.05762   3.05879   3.06488   3.08023   3.11466
 Alpha virt. eigenvalues --    3.13438   3.14606   3.41390   3.41643   3.42299
 Alpha virt. eigenvalues --    3.42536   3.84178   3.84775   3.91740   3.97831
 Alpha virt. eigenvalues --    4.04608   4.09600   4.09952   4.10354   4.10776
 Alpha virt. eigenvalues --    4.11548   4.12410   4.13692   4.14287   4.14542
 Alpha virt. eigenvalues --    4.15502   4.16403   4.17013   4.17894   4.20706
 Alpha virt. eigenvalues --    4.21461   4.28678   4.31538   4.32314   4.32773
 Alpha virt. eigenvalues --    4.33938   4.34551   4.34960   4.37343   4.37492
 Alpha virt. eigenvalues --    4.38580   4.41092   4.43703   4.44951   4.46860
 Alpha virt. eigenvalues --    4.48589   4.56603   4.61063   4.69809   4.70842
 Alpha virt. eigenvalues --    4.71211   4.72837   4.73661   4.74183   4.81790
          Condensed to atoms (all electrons):
 Mulliken charges:
               1
     1  C   -0.457668
     2  C    0.547703
     3  C   -0.473672
     4  O   -0.525213
     5  C    0.092863
     6  C    0.140545
     7  O   -0.487459
     8  C   -0.103070
     9  C    0.131681
    10  C   -0.189868
    11  C   -0.135631
    12  C   -0.167704
    13  C    0.308103
    14  N   -0.788184
    15  C   -0.218644
    16  C   -0.281964
    17  C   -0.360185
    18  C    0.155128
    19  C   -0.175831
    20  C   -0.129225
    21  C   -0.130467
    22  C   -0.133991
    23  C   -0.176719
    24  S    0.082281
    25  C   -0.314182
    26  C   -0.366890
    27  C    0.183623
    28  C   -0.183982
    29  C   -0.127868
    30  C   -0.129755
    31  C   -0.129694
    32  C   -0.167369
    33  C    0.132625
    34  O   -0.490335
    35  C   -0.099042
    36  C    0.099200
    37  C   -0.191606
    38  C   -0.136530
    39  C   -0.170138
    40  C    0.304127
    41  N   -0.790212
    42  C   -0.229017
    43  C    0.125077
    44  O   -0.544637
    45  H    0.150553
    46  H    0.144580
    47  H    0.166336
    48  H    0.144501
    49  H    0.173359
    50  H    0.146341
    51  H    0.142455
    52  H    0.124840
    53  H    0.123979
    54  H    0.153963
    55  H    0.117272
    56  H    0.126014
    57  H    0.116067
    58  H    0.318578
    59  H    0.319439
    60  H    0.142355
    61  H    0.175764
    62  H    0.179472
    63  H    0.154697
    64  H    0.139169
    65  H    0.126316
    66  H    0.123108
    67  H    0.118128
    68  H    0.157170
    69  H    0.181714
    70  H    0.176814
    71  H    0.148862
    72  H    0.121489
    73  H    0.128428
    74  H    0.128141
    75  H    0.128349
    76  H    0.120289
    77  H    0.152813
    78  H    0.165136
    79  H    0.127956
    80  H    0.110124
    81  H    0.123811
    82  H    0.113401
    83  H    0.316316
    84  H    0.326001
    85  H    0.168380
    86  H    0.181315
 Sum of Mulliken charges =  -0.00000
 Mulliken charges with hydrogens summed into heavy atoms:
               1
     1  C    0.003801
     2  C    0.547703
     3  C   -0.009471
     4  O   -0.525213
     5  C    0.235318
     6  C    0.265385
     7  O   -0.487459
     8  C    0.174872
     9  C    0.131681
    10  C   -0.072595
    11  C   -0.009616
    12  C   -0.051637
    13  C    0.308103
    14  N   -0.150166
    15  C   -0.076289
    16  C   -0.106200
    17  C   -0.026016
    18  C    0.155128
    19  C   -0.036662
    20  C   -0.002909
    21  C   -0.007360
    22  C   -0.015863
    23  C   -0.019549
    24  S    0.082281
    25  C   -0.132467
    26  C   -0.041214
    27  C    0.183623
    28  C   -0.062493
    29  C    0.000560
    30  C   -0.001614
    31  C   -0.001345
    32  C   -0.047080
    33  C    0.285438
    34  O   -0.490335
    35  C    0.194051
    36  C    0.099200
    37  C   -0.081482
    38  C   -0.012720
    39  C   -0.056737
    40  C    0.304127
    41  N   -0.147895
    42  C   -0.060636
    43  C    0.306392
    44  O   -0.544637
 Electronic spatial extent (au):  <R**2>=          27435.9941
 Charge=             -0.0000 electrons
 Dipole moment (field-independent basis, Debye):
    X=             -0.8521    Y=             -0.9414    Z=              0.6937  Tot=              1.4470
 Quadrupole moment (field-independent basis, Debye-Ang):
   XX=           -247.7296   YY=           -242.7000   ZZ=           -274.6276
   XY=              7.4038   XZ=              0.2774   YZ=            -10.9807
 Traceless Quadrupole moment (field-independent basis, Debye-Ang):
   XX=              7.2894   YY=             12.3191   ZZ=            -19.6085
   XY=              7.4038   XZ=              0.2774   YZ=            -10.9807
 Octapole moment (field-independent basis, Debye-Ang**2):
  XXX=            -94.2108  YYY=            -69.0472  ZZZ=            -14.3020  XYY=            -27.8598
  XXY=            -24.8211  XXZ=             73.1974  XZZ=             20.2255  YZZ=            -14.7221
  YYZ=             59.0383  XYZ=            -22.3164
 Hexadecapole moment (field-independent basis, Debye-Ang**3):
 XXXX=         -19144.4220 YYYY=         -11135.9805 ZZZZ=          -4364.3991 XXXY=            469.0407
 XXXZ=           -177.0709 YYYX=            -24.0330 YYYZ=           -132.8862 ZZZX=              7.0013
 ZZZY=             -0.4722 XXYY=          -5077.3006 XXZZ=          -4638.9084 YYZZ=          -2844.7506
 XXYZ=           -317.1015 YYXZ=            221.7333 ZZXY=            -58.3023
 N-N= 5.754487145084D+03 E-N=-1.674311272877D+04  KE= 2.224939679936D+03
 No NMR shielding tensors so no spin-rotation constants.
 Leave Link  601 at Fri Nov  4 21:51:26 2022, MaxMem=   805306368 cpu:               3.1 elap:               0.5
 (Enter /home/wykgroup/appl/g16/l9999.exe)
 1\1\GINC-NODE48\FOpt\RB3LYP\6-31G(d)\C37H42N2O4S1\WYKGROUP\04-Nov-2022
 \0\\#p b3lyp/6-31g(d) opt SCF=XQC\\Gaussian input prepared by ASE\\0,1
 \C,0.8557458245,-2.8630757892,-1.9246630254\C,0.1878384763,-2.48692700
 87,-0.5983589814\C,-0.3232445572,-3.6996310636,0.1664521471\O,-0.90816
 67343,-1.5937891619,-0.8043854381\C,-0.3538463359,-0.2798533675,-0.803
 470679\C,-1.4677740934,0.8126682754,-0.6323456131\O,-2.7739178661,0.26
 29584511,-0.6344356092\C,-3.2686355524,-0.0855192882,-1.9341786145\C,-
 4.6014344244,-0.7723861232,-1.7763964973\C,-5.7839975325,-0.1595921969
 ,-2.2002674758\C,-7.0006741502,-0.8265762641,-2.0390567975\C,-7.048043
 3588,-2.0885984337,-1.4554279774\C,-5.8653719265,-2.713560951,-1.01985
 62109\N,-5.8985357481,-4.0071624703,-0.4863958294\C,-4.646594879,-2.04
 15018274,-1.1915066455\C,-1.4381666771,1.7971575711,0.5791987455\C,-2.
 2481504372,1.3861203695,1.8420874993\C,-1.833773989,0.1921123069,2.677
 811962\C,-0.9652018052,0.3397664247,3.7698166073\C,-0.6444710905,-0.74
 6967775,4.5851030401\C,-1.2022742423,-2.0008809442,4.33214262\C,-2.075
 2460333,-2.1588818769,3.2537028863\C,-2.382887855,-1.0746453234,2.4299
 720878\S,0.1992539425,2.5216169608,1.1409091928\C,1.5455171081,2.04993
 21755,-0.0363293878\C,1.3747563995,2.5825616612,-1.4830722416\C,1.4037
 71039,4.0933223137,-1.5818478838\C,2.6227210152,4.7835827383,-1.519891
 7296\C,2.6667172209,6.1751290816,-1.6029658869\C,1.4859297939,6.904376
 0066,-1.7568363943\C,0.266116582,6.2306336521,-1.826975346\C,0.2288120
 832,4.8381293496,-1.7395899016\C,1.9419521878,0.539415414,0.0852668883
 \O,2.6796981791,0.0964049113,-1.0489848525\C,4.0717734444,0.4024763101
 ,-1.0442264017\C,4.8912180393,-0.3284382863,0.0053597212\C,6.086680390
 6,0.236749196,0.4670527191\C,6.8699229798,-0.4662481116,1.3831733868\C
 ,6.466508458,-1.7114027805,1.8596392934\C,5.2599476802,-2.2773793224,1
 .4149344114\N,4.8525701152,-3.5416316281,1.8548065149\C,4.4863917911,-
 1.5779559541,0.4743503405\C,0.7327626956,-0.3893933427,0.2728748949\O,
 1.1222052436,-1.7655676415,0.2196841926\H,1.7001126639,-3.5349378225,-
 1.7397073096\H,0.1407784797,-3.3719255505,-2.5797595157\H,1.2424620553
 ,-1.9746722448,-2.4297071771\H,0.5027832481,-4.3873557666,0.3734395211
 \H,-0.7650612409,-3.3766036949,1.1113345487\H,-1.0753643621,-4.2322731
 425,-0.4251180258\H,0.133876661,-0.1031234833,-1.7719025489\H,-1.37538
 53589,1.4570876837,-1.5183248579\H,-3.3719458312,0.8261805914,-2.54331
 30578\H,-2.5550010723,-0.7537401167,-2.4310266279\H,-5.7543729908,0.82
 91923526,-2.650132552\H,-7.9241991266,-0.3563676291,-2.3671541722\H,-8
 .0001129982,-2.601790745,-1.3376761161\H,-6.7774129375,-4.2631999571,-
 0.0530617754\H,-5.1156639886,-4.2343197465,0.1145699832\H,-3.717861105
 6,-2.5070653051,-0.8688413854\H,-1.9813007661,2.6690880183,0.200814955
 6\H,-3.2733915284,1.2349165099,1.4921883411\H,-2.2683119048,2.27375634
 2,2.4873496746\H,-0.5421829733,1.3171386741,3.9846273952\H,0.030588225
 6,-0.6091798678,5.4259533411\H,-0.9660523849,-2.8454347658,4.974432141
 5\H,-2.5260747781,-3.129126107,3.0581504295\H,-3.0556191762,-1.2006237
 165,1.5869509086\H,2.3667390216,2.6284535103,0.4047340957\H,2.19031838
 93,2.1619365432,-2.0798363261\H,0.4530947597,2.2036709904,-1.931744704
 3\H,3.5501826623,4.2235340507,-1.4127873143\H,3.6232136744,6.689342077
 2,-1.5554754321\H,1.5175163279,7.9884296539,-1.8259665926\H,-0.6586235
 651,6.7883927318,-1.9503556659\H,-0.7267351838,4.3218655792,-1.7975280
 431\H,2.5616856183,0.4359016537,0.9845145506\H,4.4103697266,0.11755278
 88,-2.0476130671\H,4.2374359514,1.4874260099,-0.9487768824\H,6.4027116
 471,1.2156624974,0.1139940525\H,7.7998085889,-0.0337066726,1.744073624
 2\H,7.0795319121,-2.2468121644,2.5815340426\H,5.2142254515,-3.81013839
 61,2.7619935094\H,3.8527397003,-3.6963126598,1.7988830344\H,3.54289809
 45,-1.9931860229,0.1330944553\H,0.3091970121,-0.1951819178,1.260303813
 9\\Version=ES64L-G16RevB.01\State=1-A\HF=-2243.76837\RMSD=7.830e-09\RM
 SF=1.344e-06\Dipole=-0.2838865,-0.3339092,0.363313\Quadrupole=1.889480
 8,3.9978673,-5.8873481,6.7590811,2.8526221,-13.3774495\PG=C01 [X(C37H4
 2N2O4S1)]\\@


 At the touch of love, everyone becomes a poet.
                                -- Plato
 Job cpu time:       0 days 10 hours 18 minutes 17.4 seconds.
 Elapsed time:       0 days  1 hours 29 minutes  4.3 seconds.
 File lengths (MBytes):  RWF=    351 Int=      0 D2E=      0 Chk=     46 Scr=      1
 Normal termination of Gaussian 16 at Fri Nov  4 21:51:26 2022.
