 Entering Gaussian System, Link 0=/home/wykgroup/appl/g16/g16
 Input=calculation/no_transfer_pubchem_sampling_4_b3lyp/129363522_rwf.com
 Output=calculation/no_transfer_pubchem_sampling_4_b3lyp/129363522_rwf.log
 Initial command:
 /home/wykgroup/appl/g16/l1.exe "/userdata/scratch/wykgroup/khs/calculation/no_transfer_pubchem_sampling_4_b3lyp/129363522_rwf/Gau-10880.inp" -scrdir="/userdata/scratch/wykgroup/khs/calculation/no_transfer_pubchem_sampling_4_b3lyp/129363522_rwf/"
 Entering Link 1 = /home/wykgroup/appl/g16/l1.exe PID=     10881.
  
 Copyright (c) 1988-2017, Gaussian, Inc.  All Rights Reserved.
  
 This is part of the Gaussian(R) 16 program.  It is based on
 the Gaussian(R) 09 system (copyright 2009, Gaussian, Inc.),
 the Gaussian(R) 03 system (copyright 2003, Gaussian, Inc.),
 the Gaussian(R) 98 system (copyright 1998, Gaussian, Inc.),
 the Gaussian(R) 94 system (copyright 1995, Gaussian, Inc.),
 the Gaussian 92(TM) system (copyright 1992, Gaussian, Inc.),
 the Gaussian 90(TM) system (copyright 1990, Gaussian, Inc.),
 the Gaussian 88(TM) system (copyright 1988, Gaussian, Inc.),
 the Gaussian 86(TM) system (copyright 1986, Carnegie Mellon
 University), and the Gaussian 82(TM) system (copyright 1983,
 Carnegie Mellon University). Gaussian is a federally registered
 trademark of Gaussian, Inc.
  
 This software contains proprietary and confidential information,
 including trade secrets, belonging to Gaussian, Inc.
  
 This software is provided under written license and may be
 used, copied, transmitted, or stored only in accord with that
 written license.
  
 The following legend is applicable only to US Government
 contracts under FAR:
  
                    RESTRICTED RIGHTS LEGEND
  
 Use, reproduction and disclosure by the US Government is
 subject to restrictions as set forth in subparagraphs (a)
 and (c) of the Commercial Computer Software - Restricted
 Rights clause in FAR 52.227-19.
  
 Gaussian, Inc.
 340 Quinnipiac St., Bldg. 40, Wallingford CT 06492
  
  
 ---------------------------------------------------------------
 Warning -- This program may not be used in any manner that
 competes with the business of Gaussian, Inc. or will provide
 assistance to any competitor of Gaussian, Inc.  The licensee
 of this program is prohibited from giving any competitor of
 Gaussian, Inc. access to this program.  By using this program,
 the user acknowledges that Gaussian, Inc. is engaged in the
 business of creating and licensing software in the field of
 computational chemistry and represents and warrants to the
 licensee that it is not a competitor of Gaussian, Inc. and that
 it will not use this program in any manner prohibited above.
 ---------------------------------------------------------------
  

 Cite this work as:
 Gaussian 16, Revision B.01,
 M. J. Frisch, G. W. Trucks, H. B. Schlegel, G. E. Scuseria, 
 M. A. Robb, J. R. Cheeseman, G. Scalmani, V. Barone, 
 G. A. Petersson, H. Nakatsuji, X. Li, M. Caricato, A. V. Marenich, 
 J. Bloino, B. G. Janesko, R. Gomperts, B. Mennucci, H. P. Hratchian, 
 J. V. Ortiz, A. F. Izmaylov, J. L. Sonnenberg, D. Williams-Young, 
 F. Ding, F. Lipparini, F. Egidi, J. Goings, B. Peng, A. Petrone, 
 T. Henderson, D. Ranasinghe, V. G. Zakrzewski, J. Gao, N. Rega, 
 G. Zheng, W. Liang, M. Hada, M. Ehara, K. Toyota, R. Fukuda, 
 J. Hasegawa, M. Ishida, T. Nakajima, Y. Honda, O. Kitao, H. Nakai, 
 T. Vreven, K. Throssell, J. A. Montgomery, Jr., J. E. Peralta, 
 F. Ogliaro, M. J. Bearpark, J. J. Heyd, E. N. Brothers, K. N. Kudin, 
 V. N. Staroverov, T. A. Keith, R. Kobayashi, J. Normand, 
 K. Raghavachari, A. P. Rendell, J. C. Burant, S. S. Iyengar, 
 J. Tomasi, M. Cossi, J. M. Millam, M. Klene, C. Adamo, R. Cammi, 
 J. W. Ochterski, R. L. Martin, K. Morokuma, O. Farkas, 
 J. B. Foresman, and D. J. Fox, Gaussian, Inc., Wallingford CT, 2016.
 
 ******************************************
 Gaussian 16:  ES64L-G16RevB.01 20-Dec-2017
                 5-Nov-2022 
 ******************************************
 %chk=calculation/no_transfer_pubchem_sampling_4_b3lyp/129363522_rwf.chk
 %rwf=calculation/no_transfer_pubchem_sampling_4_b3lyp/129363522_rwf.rwf
 %nprocshared=14
 Will use up to   14 processors via shared memory.
 %mem=3GB
 -------------------------------------------------------------------
 #p b3lyp/6-31g(d) 6D 10F nosymm GFInput td=(50-50,nstate=2) SCF=XQC
 -------------------------------------------------------------------
 1/38=1,172=1/1;
 2/12=2,15=1,17=6,18=5,40=1/2;
 3/5=1,6=6,7=1,8=22,11=9,24=10,25=1,30=1,74=-5/1,2,3,8;
 4//1;
 5/5=2,8=3,13=1,38=5/2,8;
 8/6=1,10=2,108=2/1;
 9/41=2,42=1,48=2,70=2/14;
 6/7=2,8=2,9=2,10=2/1;
 99/5=1,9=1/99;
 Leave Link    1 at Sat Nov  5 12:09:03 2022, MaxMem=   402653184 cpu:               3.5 elap:               0.3
 (Enter /home/wykgroup/appl/g16/l101.exe)
 ------------------------------
 Gaussian input prepared by ASE
 ------------------------------
 Symbolic Z-matrix:
 Charge =  0 Multiplicity = 1
 C                    -5.6543   -1.91063  -0.22991 
 O                    -4.43046  -1.5989    0.4149 
 C                    -3.7469   -0.49021   0.00349 
 C                    -4.16454   0.36729  -1.02047 
 C                    -3.37339   1.47408  -1.3431 
 C                    -2.18561   1.72975  -0.6651 
 C                    -1.76197   0.87124   0.36261 
 C                    -0.45117   1.11327   1.08206 
 C                     0.73609   0.44524   0.36298 
 C                     2.10991   0.69987   1.04799 
 C                     2.10222   0.18089   2.4256 
 N                     2.07172  -0.24207   3.50668 
 C                     3.2629    0.12273   0.22902 
 C                     3.90611   0.93285  -0.71391 
 C                     4.92122   0.41634  -1.51965 
 C                     5.307    -0.91857  -1.38816 
 C                     4.67278  -1.73118  -0.44689 
 C                     3.65613  -1.21448   0.35693 
 C                    -2.55006  -0.23224   0.68736 
 H                    -6.02334  -2.81846   0.25096 
 H                    -6.39367  -1.10832  -0.10448 
 H                    -5.51005  -2.10185  -1.30176 
 H                    -5.08786   0.19025  -1.55981 
 H                    -3.69999   2.14425  -2.1342 
 H                    -1.58638   2.59924  -0.92457 
 H                    -0.51258   0.73284   2.1084 
 H                    -0.26405   2.19314   1.15531 
 H                     0.81026   0.82179  -0.66373 
 H                     0.57037  -0.63582   0.29042 
 H                     2.25121   1.78687   1.12314 
 H                     3.61259   1.97542  -0.81738 
 H                     5.41388   1.05891  -2.24438 
 H                     6.10065  -1.32147  -2.01132 
 H                     4.97165  -2.76965  -0.33314 
 H                     3.17675  -1.84909   1.09774 
 H                    -2.25713  -0.91332   1.48185 
 
 ITRead=  0  0  0  0  0  0  0  0  0  0  0  0  0  0  0  0  0  0  0  0
 ITRead=  0  0  0  0  0  0  0  0  0  0  0  0  0  0  0  0
 MicOpt= -1 -1 -1 -1 -1 -1 -1 -1 -1 -1 -1 -1 -1 -1 -1 -1 -1 -1 -1 -1
 MicOpt= -1 -1 -1 -1 -1 -1 -1 -1 -1 -1 -1 -1 -1 -1 -1 -1
 NAtoms=     36 NQM=       36 NQMF=       0 NMMI=      0 NMMIF=      0
                NMic=       0 NMicF=      0.
                    Isotopes and Nuclear Properties:
 (Nuclear quadrupole moments (NQMom) in fm**2, nuclear magnetic moments (NMagM)
  in nuclear magnetons)

  Atom         1           2           3           4           5           6           7           8           9          10
 IAtWgt=          12          16          12          12          12          12          12          12          12          12
 AtmWgt=  12.0000000  15.9949146  12.0000000  12.0000000  12.0000000  12.0000000  12.0000000  12.0000000  12.0000000  12.0000000
 NucSpn=           0           0           0           0           0           0           0           0           0           0
 AtZEff=  -0.0000000  -0.0000000  -0.0000000  -0.0000000  -0.0000000  -0.0000000  -0.0000000  -0.0000000  -0.0000000  -0.0000000
 NQMom=    0.0000000   0.0000000   0.0000000   0.0000000   0.0000000   0.0000000   0.0000000   0.0000000   0.0000000   0.0000000
 NMagM=    0.0000000   0.0000000   0.0000000   0.0000000   0.0000000   0.0000000   0.0000000   0.0000000   0.0000000   0.0000000
 AtZNuc=   6.0000000   8.0000000   6.0000000   6.0000000   6.0000000   6.0000000   6.0000000   6.0000000   6.0000000   6.0000000

  Atom        11          12          13          14          15          16          17          18          19          20
 IAtWgt=          12          14          12          12          12          12          12          12          12           1
 AtmWgt=  12.0000000  14.0030740  12.0000000  12.0000000  12.0000000  12.0000000  12.0000000  12.0000000  12.0000000   1.0078250
 NucSpn=           0           2           0           0           0           0           0           0           0           1
 AtZEff=  -0.0000000  -0.0000000  -0.0000000  -0.0000000  -0.0000000  -0.0000000  -0.0000000  -0.0000000  -0.0000000  -0.0000000
 NQMom=    0.0000000   2.0440000   0.0000000   0.0000000   0.0000000   0.0000000   0.0000000   0.0000000   0.0000000   0.0000000
 NMagM=    0.0000000   0.4037610   0.0000000   0.0000000   0.0000000   0.0000000   0.0000000   0.0000000   0.0000000   2.7928460
 AtZNuc=   6.0000000   7.0000000   6.0000000   6.0000000   6.0000000   6.0000000   6.0000000   6.0000000   6.0000000   1.0000000

  Atom        21          22          23          24          25          26          27          28          29          30
 IAtWgt=           1           1           1           1           1           1           1           1           1           1
 AtmWgt=   1.0078250   1.0078250   1.0078250   1.0078250   1.0078250   1.0078250   1.0078250   1.0078250   1.0078250   1.0078250
 NucSpn=           1           1           1           1           1           1           1           1           1           1
 AtZEff=  -0.0000000  -0.0000000  -0.0000000  -0.0000000  -0.0000000  -0.0000000  -0.0000000  -0.0000000  -0.0000000  -0.0000000
 NQMom=    0.0000000   0.0000000   0.0000000   0.0000000   0.0000000   0.0000000   0.0000000   0.0000000   0.0000000   0.0000000
 NMagM=    2.7928460   2.7928460   2.7928460   2.7928460   2.7928460   2.7928460   2.7928460   2.7928460   2.7928460   2.7928460
 AtZNuc=   1.0000000   1.0000000   1.0000000   1.0000000   1.0000000   1.0000000   1.0000000   1.0000000   1.0000000   1.0000000

  Atom        31          32          33          34          35          36
 IAtWgt=           1           1           1           1           1           1
 AtmWgt=   1.0078250   1.0078250   1.0078250   1.0078250   1.0078250   1.0078250
 NucSpn=           1           1           1           1           1           1
 AtZEff=  -0.0000000  -0.0000000  -0.0000000  -0.0000000  -0.0000000  -0.0000000
 NQMom=    0.0000000   0.0000000   0.0000000   0.0000000   0.0000000   0.0000000
 NMagM=    2.7928460   2.7928460   2.7928460   2.7928460   2.7928460   2.7928460
 AtZNuc=   1.0000000   1.0000000   1.0000000   1.0000000   1.0000000   1.0000000
 Leave Link  101 at Sat Nov  5 12:09:03 2022, MaxMem=   402653184 cpu:               2.4 elap:               0.2
 (Enter /home/wykgroup/appl/g16/l202.exe)
                          Input orientation:                          
 ---------------------------------------------------------------------
 Center     Atomic      Atomic             Coordinates (Angstroms)
 Number     Number       Type             X           Y           Z
 ---------------------------------------------------------------------
      1          6           0       -5.654298   -1.910631   -0.229911
      2          8           0       -4.430462   -1.598902    0.414900
      3          6           0       -3.746898   -0.490207    0.003494
      4          6           0       -4.164545    0.367287   -1.020468
      5          6           0       -3.373392    1.474081   -1.343096
      6          6           0       -2.185607    1.729749   -0.665096
      7          6           0       -1.761967    0.871239    0.362612
      8          6           0       -0.451167    1.113266    1.082063
      9          6           0        0.736090    0.445239    0.362979
     10          6           0        2.109913    0.699870    1.047995
     11          6           0        2.102219    0.180887    2.425595
     12          7           0        2.071721   -0.242068    3.506681
     13          6           0        3.262896    0.122731    0.229024
     14          6           0        3.906110    0.932852   -0.713907
     15          6           0        4.921223    0.416340   -1.519646
     16          6           0        5.306997   -0.918567   -1.388158
     17          6           0        4.672778   -1.731177   -0.446895
     18          6           0        3.656133   -1.214478    0.356935
     19          6           0       -2.550061   -0.232237    0.687360
     20          1           0       -6.023338   -2.818462    0.250960
     21          1           0       -6.393670   -1.108322   -0.104478
     22          1           0       -5.510046   -2.101847   -1.301756
     23          1           0       -5.087863    0.190249   -1.559810
     24          1           0       -3.699990    2.144251   -2.134202
     25          1           0       -1.586383    2.599239   -0.924571
     26          1           0       -0.512584    0.732837    2.108396
     27          1           0       -0.264052    2.193145    1.155309
     28          1           0        0.810258    0.821788   -0.663726
     29          1           0        0.570368   -0.635817    0.290416
     30          1           0        2.251213    1.786868    1.123143
     31          1           0        3.612593    1.975422   -0.817375
     32          1           0        5.413885    1.058910   -2.244382
     33          1           0        6.100647   -1.321471   -2.011324
     34          1           0        4.971655   -2.769654   -0.333142
     35          1           0        3.176754   -1.849086    1.097741
     36          1           0       -2.257129   -0.913325    1.481850
 ---------------------------------------------------------------------
                    Distance matrix (angstroms):
                    1          2          3          4          5
     1  C    0.000000
     2  O    1.418003   0.000000
     3  C    2.389614   1.365914   0.000000
     4  C    2.834299   2.448855   1.399365   0.000000
     5  C    4.230601   3.694749   2.410651   1.398215   0.000000
     6  C    5.047135   4.157606   2.795147   2.428743   1.391360
     7  C    4.820802   3.636647   2.433609   2.817669   2.422714
     8  C    6.159367   4.861661   3.820508   4.332008   3.814575
     9  C    6.836571   5.556480   4.593634   5.092762   4.566952
    10  C    8.290400   6.961441   6.067083   6.614981   6.031861
    11  C    8.461071   7.063035   6.366248   7.154189   6.771831
    12  N    8.742860   7.326560   6.796339   7.730291   7.490978
    13  C    9.157595   7.885831   7.040155   7.535776   6.952555
    14  C    9.986043   8.785353   7.817180   8.096253   7.326661
    15  C   10.905038   9.760004   8.847492   9.099602   8.363648
    16  C   11.066875   9.926328   9.170235   9.565496   9.004218
    17  C   10.330914   9.144898   8.522547   9.101143   8.707336
    18  C    9.354846   8.095935   7.446768   8.097050   7.715741
    19  C    3.646187   2.340495   1.402370   2.425420   2.777075
    20  H    1.091598   2.012823   3.265607   3.901363   5.290477
    21  H    1.098227   2.089164   2.720133   2.825855   4.162338
    22  H    1.098282   2.089346   2.722086   2.825972   4.165844
    23  H    2.550132   2.744579   2.169130   1.083858   2.152812
    24  H    4.887506   4.587233   3.392980   2.147980   1.087035
    25  H    6.113053   5.244746   3.882500   3.411411   2.152799
    26  H    6.236412   4.863610   4.048115   4.822887   4.543837
    27  H    6.914807   5.682147   4.545027   4.825102   4.053032
    28  H    7.031700   5.872676   4.788966   5.008244   4.288351
    29  H    6.375137   5.094245   4.329240   5.014383   4.761646
    30  H    8.831725   7.523950   6.512758   6.911746   6.149500
    31  H   10.065873   8.887353   7.804824   7.944258   7.023654
    32  H   11.635332  10.537880   9.558905   9.681045   8.843128
    33  H   11.903751  10.810541  10.085864  10.450257   9.900457
    34  H   10.661119   9.504211   9.017892   9.684160   9.416426
    35  H    8.930506   7.641898   7.140091   7.955739   7.739866
    36  H    3.932621   2.516302   2.141022   3.397027   3.863426
                    6          7          8          9         10
     6  C    0.000000
     7  C    1.404526   0.000000
     8  C    2.537892   1.514722   0.000000
     9  C    3.353091   2.534120   1.540429   0.000000
    10  C    4.737807   3.935806   2.594453   1.556108   0.000000
    11  C    5.507884   4.434458   3.032192   2.488086   1.472137
    12  N    6.278266   5.081514   3.752421   3.484130   2.633219
    13  C    5.750490   5.082062   3.937398   2.550824   1.527473
    14  C    6.143813   5.769730   4.716346   3.383264   2.526836
    15  C    7.277522   6.958078   6.009756   4.589166   3.817936
    16  C    7.979693   7.499256   6.586865   5.081303   4.333073
    17  C    7.685249   6.988119   6.056681   4.570579   3.835748
    18  C    6.621098   5.805691   4.776412   3.358771   2.555990
    19  C    2.410675   1.394351   2.524188   3.370903   4.765945
    20  H    6.021094   5.637876   6.870102   7.506941   8.897398
    21  H    5.106538   5.058607   6.454198   7.312014   8.769758
    22  H    5.112569   5.065319   6.450721   6.947893   8.451906
    23  H    3.404947   3.901415   5.415755   6.138450   7.672570
    24  H    2.150219   3.407429   4.686378   5.366690   6.779940
    25  H    1.087387   2.161863   2.742884   3.419267   4.600133
    26  H    3.388967   2.151250   1.096292   2.165267   2.828962
    27  H    2.687188   2.149314   1.098415   2.164081   2.806616
    28  H    3.130432   2.769866   2.173462   1.096090   2.152662
    29  H    3.755570   2.777808   2.174748   1.096089   2.174438
    30  H    4.783976   4.185976   2.785370   2.161808   1.098716
    31  H    5.805400   5.612262   4.567859   3.465396   2.713796
    32  H    7.790792   7.637047   6.742924   5.390426   4.678129
    33  H    8.932205   8.500838   7.643511   6.126749   5.419521
    34  H    8.460568   7.686470   6.818128   5.362847   4.704753
    35  H    6.683604   5.686084   4.683758   3.429379   2.763657
    36  H    3.405926   2.163920   2.743792   3.472309   4.675648
                   11         12         13         14         15
    11  C    0.000000
    12  N    1.161278   0.000000
    13  C    2.485051   3.506424   0.000000
    14  C    3.698101   4.749608   1.399693   0.000000
    15  C    4.854601   5.815249   2.427777   1.395154   0.000000
    16  C    5.101384   5.906277   2.806764   2.417613   1.395739
    17  C    4.302902   4.961219   2.425202   2.784982   2.413368
    18  C    2.939566   3.657436   1.399687   2.412512   2.789547
    19  C    4.983557   5.413828   5.841793   6.708437   7.817391
    20  H    8.930275   9.097665   9.740906  10.658202  11.549130
    21  H    8.957871   9.244117   9.740430  10.517759  11.504524
    22  H    8.777847   9.168590   9.179137   9.910548  10.733131
    23  H    8.220755   8.781564   8.540472   9.064136  10.011720
    24  H    7.636241   8.415861   7.625822   7.831825   8.814117
    25  H    5.538757   6.410206   5.565913   5.743580   6.889710
    26  H    2.691182   3.095848   4.261282   5.246929   6.541339
    27  H    3.355897   4.112791   4.193326   4.740523   6.099139
    28  H    3.409373   4.485016   2.702058   3.098250   4.218651
    29  H    2.751829   3.571198   2.798012   3.820544   4.828384
    30  H    2.073103   3.135291   2.142966   2.615871   3.998954
    31  H    4.002305   5.097942   2.156318   1.088031   2.153238
    32  H    5.791955   6.777708   3.408947   2.152122   1.086672
    33  H    6.158796   6.917061   3.893290   3.403125   2.157029
    34  H    4.954794   5.435305   3.406138   3.871552   3.400131
    35  H    2.653039   3.099450   2.156420   3.399001   3.876343
    36  H    4.592588   4.825916   5.754447   6.798179   7.893397
                   16         17         18         19         20
    16  C    0.000000
    17  C    1.395903   0.000000
    18  C    2.420385   1.395237   0.000000
    19  C    8.155500   7.463428   6.292123   0.000000
    20  H   11.604861  10.773861   9.812041   4.352316   0.000000
    21  H   11.772401  11.089250  10.060949   4.020928   1.785514
    22  H   10.881913  10.225365   9.357217   4.026604   1.785479
    23  H   10.455240  10.010023   9.061160   3.415949   3.634053
    24  H    9.542706   9.379189   8.461640   3.864097   5.976242
    25  H    7.752971   7.626124   6.608378   3.397684   7.100699
    26  H    6.987171   6.284016   4.923195   2.664963   6.813972
    27  H    6.869393   6.506892   5.255201   3.365604   7.687875
    28  H    4.875889   4.635051   3.645151   3.772022   7.796545
    29  H    5.033210   4.309664   3.140257   3.171359   6.945680
    30  H    4.792059   4.550344   3.401316   5.226751   9.509888
    31  H    3.401760   3.872999   3.399465   6.716867  10.815445
    32  H    2.157536   3.400704   3.876188   8.584090  12.331700
    33  H    1.086531   2.157338   3.405253   9.127107  12.423765
    34  H    2.156858   1.086601   2.150669   8.003506  11.010605
    35  H    3.403453   2.153576   1.086887   5.964816   9.289695
    36  H    8.090301   7.239651   6.026839   1.086694   4.396472
                   21         22         23         24         25
    21  H    0.000000
    22  H    1.789233   0.000000
    23  H    2.347212   2.344895   0.000000
    24  H    4.685608   4.690268   2.464598   0.000000
    25  H    6.126056   6.134950   4.297340   2.477409   0.000000
    26  H    6.547813   6.681258   5.889254   5.491019   3.719595
    27  H    7.075235   7.211420   5.886647   4.756988   2.497873
    28  H    7.478948   6.992923   5.999137   4.924789   2.995207
    29  H    6.991211   6.454123   6.010100   5.643005   4.073495
    30  H    9.199085   9.013289   7.975554   6.793735   4.424955
    31  H   10.494904  10.004064   8.912687   7.432120   5.237365
    32  H   12.194032  11.411012  10.559826   9.178933   7.288228
    33  H   12.640785  11.658502  11.299200  10.396096   8.697324
    34  H   11.488381  10.547523  10.557444  10.128558   8.496038
    35  H    9.674041   9.015652   8.917699   8.583811   6.823842
    36  H    4.434572   4.443255   4.299142   4.950399   4.310321
                   26         27         28         29         30
    26  H    0.000000
    27  H    1.761432   0.000000
    28  H    3.072863   2.518661   0.000000
    29  H    2.520130   3.073649   1.758564   0.000000
    30  H    3.117736   2.548069   2.490107   3.063996   0.000000
    31  H    5.207806   4.355143   3.034397   4.159436   2.377924
    32  H    7.360437   6.714414   4.873200   5.723369   4.676820
    33  H    8.057736   7.930289   5.864963   6.029271   5.857030
    34  H    6.950211   7.365968   5.506810   4.930862   5.503041
    35  H    4.615081   5.308681   3.979527   2.986142   3.751990
    36  H    2.479082   3.705285   4.125891   3.080790   5.267339
                   31         32         33         34         35
    31  H    0.000000
    32  H    2.474064   0.000000
    33  H    4.299469   2.488408   0.000000
    34  H    4.959564   4.301896   2.487600   0.000000
    35  H    4.299359   4.962961   4.300443   2.473163   0.000000
    36  H    6.934331   8.753226   9.067595   7.680851   5.527231
                   36
    36  H    0.000000
 Symmetry turned off by external request.
 Stoichiometry    C17H17NO
 Framework group  C1[X(C17H17NO)]
 Deg. of freedom   102
 Full point group                 C1      NOp   1
 Rotational constants (GHZ):           0.7006329           0.1442809           0.1401008
 Leave Link  202 at Sat Nov  5 12:09:03 2022, MaxMem=   402653184 cpu:               1.0 elap:               0.1
 (Enter /home/wykgroup/appl/g16/l301.exe)
 Standard basis: 6-31G(d) (6D, 10F)
 Ernie: Thresh=  0.10000D-02 Tol=  0.10000D-05 Strict=F.
 AO basis set in the form of general basis input (Overlap normalization):
      1 0
 S   6 1.00       0.000000000000
      0.3047524880D+04  0.1834737132D-02
      0.4573695180D+03  0.1403732281D-01
      0.1039486850D+03  0.6884262226D-01
      0.2921015530D+02  0.2321844432D+00
      0.9286662960D+01  0.4679413484D+00
      0.3163926960D+01  0.3623119853D+00
 SP   3 1.00       0.000000000000
      0.7868272350D+01 -0.1193324198D+00  0.6899906659D-01
      0.1881288540D+01 -0.1608541517D+00  0.3164239610D+00
      0.5442492580D+00  0.1143456438D+01  0.7443082909D+00
 SP   1 1.00       0.000000000000
      0.1687144782D+00  0.1000000000D+01  0.1000000000D+01
 D   1 1.00       0.000000000000
      0.8000000000D+00  0.1000000000D+01
 ****
      2 0
 S   6 1.00       0.000000000000
      0.5484671660D+04  0.1831074430D-02
      0.8252349460D+03  0.1395017220D-01
      0.1880469580D+03  0.6844507810D-01
      0.5296450000D+02  0.2327143360D+00
      0.1689757040D+02  0.4701928980D+00
      0.5799635340D+01  0.3585208530D+00
 SP   3 1.00       0.000000000000
      0.1553961625D+02 -0.1107775495D+00  0.7087426823D-01
      0.3599933586D+01 -0.1480262627D+00  0.3397528391D+00
      0.1013761750D+01  0.1130767015D+01  0.7271585773D+00
 SP   1 1.00       0.000000000000
      0.2700058226D+00  0.1000000000D+01  0.1000000000D+01
 D   1 1.00       0.000000000000
      0.8000000000D+00  0.1000000000D+01
 ****
      3 0
 S   6 1.00       0.000000000000
      0.3047524880D+04  0.1834737132D-02
      0.4573695180D+03  0.1403732281D-01
      0.1039486850D+03  0.6884262226D-01
      0.2921015530D+02  0.2321844432D+00
      0.9286662960D+01  0.4679413484D+00
      0.3163926960D+01  0.3623119853D+00
 SP   3 1.00       0.000000000000
      0.7868272350D+01 -0.1193324198D+00  0.6899906659D-01
      0.1881288540D+01 -0.1608541517D+00  0.3164239610D+00
      0.5442492580D+00  0.1143456438D+01  0.7443082909D+00
 SP   1 1.00       0.000000000000
      0.1687144782D+00  0.1000000000D+01  0.1000000000D+01
 D   1 1.00       0.000000000000
      0.8000000000D+00  0.1000000000D+01
 ****
      4 0
 S   6 1.00       0.000000000000
      0.3047524880D+04  0.1834737132D-02
      0.4573695180D+03  0.1403732281D-01
      0.1039486850D+03  0.6884262226D-01
      0.2921015530D+02  0.2321844432D+00
      0.9286662960D+01  0.4679413484D+00
      0.3163926960D+01  0.3623119853D+00
 SP   3 1.00       0.000000000000
      0.7868272350D+01 -0.1193324198D+00  0.6899906659D-01
      0.1881288540D+01 -0.1608541517D+00  0.3164239610D+00
      0.5442492580D+00  0.1143456438D+01  0.7443082909D+00
 SP   1 1.00       0.000000000000
      0.1687144782D+00  0.1000000000D+01  0.1000000000D+01
 D   1 1.00       0.000000000000
      0.8000000000D+00  0.1000000000D+01
 ****
      5 0
 S   6 1.00       0.000000000000
      0.3047524880D+04  0.1834737132D-02
      0.4573695180D+03  0.1403732281D-01
      0.1039486850D+03  0.6884262226D-01
      0.2921015530D+02  0.2321844432D+00
      0.9286662960D+01  0.4679413484D+00
      0.3163926960D+01  0.3623119853D+00
 SP   3 1.00       0.000000000000
      0.7868272350D+01 -0.1193324198D+00  0.6899906659D-01
      0.1881288540D+01 -0.1608541517D+00  0.3164239610D+00
      0.5442492580D+00  0.1143456438D+01  0.7443082909D+00
 SP   1 1.00       0.000000000000
      0.1687144782D+00  0.1000000000D+01  0.1000000000D+01
 D   1 1.00       0.000000000000
      0.8000000000D+00  0.1000000000D+01
 ****
      6 0
 S   6 1.00       0.000000000000
      0.3047524880D+04  0.1834737132D-02
      0.4573695180D+03  0.1403732281D-01
      0.1039486850D+03  0.6884262226D-01
      0.2921015530D+02  0.2321844432D+00
      0.9286662960D+01  0.4679413484D+00
      0.3163926960D+01  0.3623119853D+00
 SP   3 1.00       0.000000000000
      0.7868272350D+01 -0.1193324198D+00  0.6899906659D-01
      0.1881288540D+01 -0.1608541517D+00  0.3164239610D+00
      0.5442492580D+00  0.1143456438D+01  0.7443082909D+00
 SP   1 1.00       0.000000000000
      0.1687144782D+00  0.1000000000D+01  0.1000000000D+01
 D   1 1.00       0.000000000000
      0.8000000000D+00  0.1000000000D+01
 ****
      7 0
 S   6 1.00       0.000000000000
      0.3047524880D+04  0.1834737132D-02
      0.4573695180D+03  0.1403732281D-01
      0.1039486850D+03  0.6884262226D-01
      0.2921015530D+02  0.2321844432D+00
      0.9286662960D+01  0.4679413484D+00
      0.3163926960D+01  0.3623119853D+00
 SP   3 1.00       0.000000000000
      0.7868272350D+01 -0.1193324198D+00  0.6899906659D-01
      0.1881288540D+01 -0.1608541517D+00  0.3164239610D+00
      0.5442492580D+00  0.1143456438D+01  0.7443082909D+00
 SP   1 1.00       0.000000000000
      0.1687144782D+00  0.1000000000D+01  0.1000000000D+01
 D   1 1.00       0.000000000000
      0.8000000000D+00  0.1000000000D+01
 ****
      8 0
 S   6 1.00       0.000000000000
      0.3047524880D+04  0.1834737132D-02
      0.4573695180D+03  0.1403732281D-01
      0.1039486850D+03  0.6884262226D-01
      0.2921015530D+02  0.2321844432D+00
      0.9286662960D+01  0.4679413484D+00
      0.3163926960D+01  0.3623119853D+00
 SP   3 1.00       0.000000000000
      0.7868272350D+01 -0.1193324198D+00  0.6899906659D-01
      0.1881288540D+01 -0.1608541517D+00  0.3164239610D+00
      0.5442492580D+00  0.1143456438D+01  0.7443082909D+00
 SP   1 1.00       0.000000000000
      0.1687144782D+00  0.1000000000D+01  0.1000000000D+01
 D   1 1.00       0.000000000000
      0.8000000000D+00  0.1000000000D+01
 ****
      9 0
 S   6 1.00       0.000000000000
      0.3047524880D+04  0.1834737132D-02
      0.4573695180D+03  0.1403732281D-01
      0.1039486850D+03  0.6884262226D-01
      0.2921015530D+02  0.2321844432D+00
      0.9286662960D+01  0.4679413484D+00
      0.3163926960D+01  0.3623119853D+00
 SP   3 1.00       0.000000000000
      0.7868272350D+01 -0.1193324198D+00  0.6899906659D-01
      0.1881288540D+01 -0.1608541517D+00  0.3164239610D+00
      0.5442492580D+00  0.1143456438D+01  0.7443082909D+00
 SP   1 1.00       0.000000000000
      0.1687144782D+00  0.1000000000D+01  0.1000000000D+01
 D   1 1.00       0.000000000000
      0.8000000000D+00  0.1000000000D+01
 ****
     10 0
 S   6 1.00       0.000000000000
      0.3047524880D+04  0.1834737132D-02
      0.4573695180D+03  0.1403732281D-01
      0.1039486850D+03  0.6884262226D-01
      0.2921015530D+02  0.2321844432D+00
      0.9286662960D+01  0.4679413484D+00
      0.3163926960D+01  0.3623119853D+00
 SP   3 1.00       0.000000000000
      0.7868272350D+01 -0.1193324198D+00  0.6899906659D-01
      0.1881288540D+01 -0.1608541517D+00  0.3164239610D+00
      0.5442492580D+00  0.1143456438D+01  0.7443082909D+00
 SP   1 1.00       0.000000000000
      0.1687144782D+00  0.1000000000D+01  0.1000000000D+01
 D   1 1.00       0.000000000000
      0.8000000000D+00  0.1000000000D+01
 ****
     11 0
 S   6 1.00       0.000000000000
      0.3047524880D+04  0.1834737132D-02
      0.4573695180D+03  0.1403732281D-01
      0.1039486850D+03  0.6884262226D-01
      0.2921015530D+02  0.2321844432D+00
      0.9286662960D+01  0.4679413484D+00
      0.3163926960D+01  0.3623119853D+00
 SP   3 1.00       0.000000000000
      0.7868272350D+01 -0.1193324198D+00  0.6899906659D-01
      0.1881288540D+01 -0.1608541517D+00  0.3164239610D+00
      0.5442492580D+00  0.1143456438D+01  0.7443082909D+00
 SP   1 1.00       0.000000000000
      0.1687144782D+00  0.1000000000D+01  0.1000000000D+01
 D   1 1.00       0.000000000000
      0.8000000000D+00  0.1000000000D+01
 ****
     12 0
 S   6 1.00       0.000000000000
      0.4173511460D+04  0.1834772160D-02
      0.6274579110D+03  0.1399462700D-01
      0.1429020930D+03  0.6858655181D-01
      0.4023432930D+02  0.2322408730D+00
      0.1282021290D+02  0.4690699481D+00
      0.4390437010D+01  0.3604551991D+00
 SP   3 1.00       0.000000000000
      0.1162636186D+02 -0.1149611817D+00  0.6757974388D-01
      0.2716279807D+01 -0.1691174786D+00  0.3239072959D+00
      0.7722183966D+00  0.1145851947D+01  0.7408951398D+00
 SP   1 1.00       0.000000000000
      0.2120314975D+00  0.1000000000D+01  0.1000000000D+01
 D   1 1.00       0.000000000000
      0.8000000000D+00  0.1000000000D+01
 ****
     13 0
 S   6 1.00       0.000000000000
      0.3047524880D+04  0.1834737132D-02
      0.4573695180D+03  0.1403732281D-01
      0.1039486850D+03  0.6884262226D-01
      0.2921015530D+02  0.2321844432D+00
      0.9286662960D+01  0.4679413484D+00
      0.3163926960D+01  0.3623119853D+00
 SP   3 1.00       0.000000000000
      0.7868272350D+01 -0.1193324198D+00  0.6899906659D-01
      0.1881288540D+01 -0.1608541517D+00  0.3164239610D+00
      0.5442492580D+00  0.1143456438D+01  0.7443082909D+00
 SP   1 1.00       0.000000000000
      0.1687144782D+00  0.1000000000D+01  0.1000000000D+01
 D   1 1.00       0.000000000000
      0.8000000000D+00  0.1000000000D+01
 ****
     14 0
 S   6 1.00       0.000000000000
      0.3047524880D+04  0.1834737132D-02
      0.4573695180D+03  0.1403732281D-01
      0.1039486850D+03  0.6884262226D-01
      0.2921015530D+02  0.2321844432D+00
      0.9286662960D+01  0.4679413484D+00
      0.3163926960D+01  0.3623119853D+00
 SP   3 1.00       0.000000000000
      0.7868272350D+01 -0.1193324198D+00  0.6899906659D-01
      0.1881288540D+01 -0.1608541517D+00  0.3164239610D+00
      0.5442492580D+00  0.1143456438D+01  0.7443082909D+00
 SP   1 1.00       0.000000000000
      0.1687144782D+00  0.1000000000D+01  0.1000000000D+01
 D   1 1.00       0.000000000000
      0.8000000000D+00  0.1000000000D+01
 ****
     15 0
 S   6 1.00       0.000000000000
      0.3047524880D+04  0.1834737132D-02
      0.4573695180D+03  0.1403732281D-01
      0.1039486850D+03  0.6884262226D-01
      0.2921015530D+02  0.2321844432D+00
      0.9286662960D+01  0.4679413484D+00
      0.3163926960D+01  0.3623119853D+00
 SP   3 1.00       0.000000000000
      0.7868272350D+01 -0.1193324198D+00  0.6899906659D-01
      0.1881288540D+01 -0.1608541517D+00  0.3164239610D+00
      0.5442492580D+00  0.1143456438D+01  0.7443082909D+00
 SP   1 1.00       0.000000000000
      0.1687144782D+00  0.1000000000D+01  0.1000000000D+01
 D   1 1.00       0.000000000000
      0.8000000000D+00  0.1000000000D+01
 ****
     16 0
 S   6 1.00       0.000000000000
      0.3047524880D+04  0.1834737132D-02
      0.4573695180D+03  0.1403732281D-01
      0.1039486850D+03  0.6884262226D-01
      0.2921015530D+02  0.2321844432D+00
      0.9286662960D+01  0.4679413484D+00
      0.3163926960D+01  0.3623119853D+00
 SP   3 1.00       0.000000000000
      0.7868272350D+01 -0.1193324198D+00  0.6899906659D-01
      0.1881288540D+01 -0.1608541517D+00  0.3164239610D+00
      0.5442492580D+00  0.1143456438D+01  0.7443082909D+00
 SP   1 1.00       0.000000000000
      0.1687144782D+00  0.1000000000D+01  0.1000000000D+01
 D   1 1.00       0.000000000000
      0.8000000000D+00  0.1000000000D+01
 ****
     17 0
 S   6 1.00       0.000000000000
      0.3047524880D+04  0.1834737132D-02
      0.4573695180D+03  0.1403732281D-01
      0.1039486850D+03  0.6884262226D-01
      0.2921015530D+02  0.2321844432D+00
      0.9286662960D+01  0.4679413484D+00
      0.3163926960D+01  0.3623119853D+00
 SP   3 1.00       0.000000000000
      0.7868272350D+01 -0.1193324198D+00  0.6899906659D-01
      0.1881288540D+01 -0.1608541517D+00  0.3164239610D+00
      0.5442492580D+00  0.1143456438D+01  0.7443082909D+00
 SP   1 1.00       0.000000000000
      0.1687144782D+00  0.1000000000D+01  0.1000000000D+01
 D   1 1.00       0.000000000000
      0.8000000000D+00  0.1000000000D+01
 ****
     18 0
 S   6 1.00       0.000000000000
      0.3047524880D+04  0.1834737132D-02
      0.4573695180D+03  0.1403732281D-01
      0.1039486850D+03  0.6884262226D-01
      0.2921015530D+02  0.2321844432D+00
      0.9286662960D+01  0.4679413484D+00
      0.3163926960D+01  0.3623119853D+00
 SP   3 1.00       0.000000000000
      0.7868272350D+01 -0.1193324198D+00  0.6899906659D-01
      0.1881288540D+01 -0.1608541517D+00  0.3164239610D+00
      0.5442492580D+00  0.1143456438D+01  0.7443082909D+00
 SP   1 1.00       0.000000000000
      0.1687144782D+00  0.1000000000D+01  0.1000000000D+01
 D   1 1.00       0.000000000000
      0.8000000000D+00  0.1000000000D+01
 ****
     19 0
 S   6 1.00       0.000000000000
      0.3047524880D+04  0.1834737132D-02
      0.4573695180D+03  0.1403732281D-01
      0.1039486850D+03  0.6884262226D-01
      0.2921015530D+02  0.2321844432D+00
      0.9286662960D+01  0.4679413484D+00
      0.3163926960D+01  0.3623119853D+00
 SP   3 1.00       0.000000000000
      0.7868272350D+01 -0.1193324198D+00  0.6899906659D-01
      0.1881288540D+01 -0.1608541517D+00  0.3164239610D+00
      0.5442492580D+00  0.1143456438D+01  0.7443082909D+00
 SP   1 1.00       0.000000000000
      0.1687144782D+00  0.1000000000D+01  0.1000000000D+01
 D   1 1.00       0.000000000000
      0.8000000000D+00  0.1000000000D+01
 ****
     20 0
 S   3 1.00       0.000000000000
      0.1873113696D+02  0.3349460434D-01
      0.2825394365D+01  0.2347269535D+00
      0.6401216923D+00  0.8137573261D+00
 S   1 1.00       0.000000000000
      0.1612777588D+00  0.1000000000D+01
 ****
     21 0
 S   3 1.00       0.000000000000
      0.1873113696D+02  0.3349460434D-01
      0.2825394365D+01  0.2347269535D+00
      0.6401216923D+00  0.8137573261D+00
 S   1 1.00       0.000000000000
      0.1612777588D+00  0.1000000000D+01
 ****
     22 0
 S   3 1.00       0.000000000000
      0.1873113696D+02  0.3349460434D-01
      0.2825394365D+01  0.2347269535D+00
      0.6401216923D+00  0.8137573261D+00
 S   1 1.00       0.000000000000
      0.1612777588D+00  0.1000000000D+01
 ****
     23 0
 S   3 1.00       0.000000000000
      0.1873113696D+02  0.3349460434D-01
      0.2825394365D+01  0.2347269535D+00
      0.6401216923D+00  0.8137573261D+00
 S   1 1.00       0.000000000000
      0.1612777588D+00  0.1000000000D+01
 ****
     24 0
 S   3 1.00       0.000000000000
      0.1873113696D+02  0.3349460434D-01
      0.2825394365D+01  0.2347269535D+00
      0.6401216923D+00  0.8137573261D+00
 S   1 1.00       0.000000000000
      0.1612777588D+00  0.1000000000D+01
 ****
     25 0
 S   3 1.00       0.000000000000
      0.1873113696D+02  0.3349460434D-01
      0.2825394365D+01  0.2347269535D+00
      0.6401216923D+00  0.8137573261D+00
 S   1 1.00       0.000000000000
      0.1612777588D+00  0.1000000000D+01
 ****
     26 0
 S   3 1.00       0.000000000000
      0.1873113696D+02  0.3349460434D-01
      0.2825394365D+01  0.2347269535D+00
      0.6401216923D+00  0.8137573261D+00
 S   1 1.00       0.000000000000
      0.1612777588D+00  0.1000000000D+01
 ****
     27 0
 S   3 1.00       0.000000000000
      0.1873113696D+02  0.3349460434D-01
      0.2825394365D+01  0.2347269535D+00
      0.6401216923D+00  0.8137573261D+00
 S   1 1.00       0.000000000000
      0.1612777588D+00  0.1000000000D+01
 ****
     28 0
 S   3 1.00       0.000000000000
      0.1873113696D+02  0.3349460434D-01
      0.2825394365D+01  0.2347269535D+00
      0.6401216923D+00  0.8137573261D+00
 S   1 1.00       0.000000000000
      0.1612777588D+00  0.1000000000D+01
 ****
     29 0
 S   3 1.00       0.000000000000
      0.1873113696D+02  0.3349460434D-01
      0.2825394365D+01  0.2347269535D+00
      0.6401216923D+00  0.8137573261D+00
 S   1 1.00       0.000000000000
      0.1612777588D+00  0.1000000000D+01
 ****
     30 0
 S   3 1.00       0.000000000000
      0.1873113696D+02  0.3349460434D-01
      0.2825394365D+01  0.2347269535D+00
      0.6401216923D+00  0.8137573261D+00
 S   1 1.00       0.000000000000
      0.1612777588D+00  0.1000000000D+01
 ****
     31 0
 S   3 1.00       0.000000000000
      0.1873113696D+02  0.3349460434D-01
      0.2825394365D+01  0.2347269535D+00
      0.6401216923D+00  0.8137573261D+00
 S   1 1.00       0.000000000000
      0.1612777588D+00  0.1000000000D+01
 ****
     32 0
 S   3 1.00       0.000000000000
      0.1873113696D+02  0.3349460434D-01
      0.2825394365D+01  0.2347269535D+00
      0.6401216923D+00  0.8137573261D+00
 S   1 1.00       0.000000000000
      0.1612777588D+00  0.1000000000D+01
 ****
     33 0
 S   3 1.00       0.000000000000
      0.1873113696D+02  0.3349460434D-01
      0.2825394365D+01  0.2347269535D+00
      0.6401216923D+00  0.8137573261D+00
 S   1 1.00       0.000000000000
      0.1612777588D+00  0.1000000000D+01
 ****
     34 0
 S   3 1.00       0.000000000000
      0.1873113696D+02  0.3349460434D-01
      0.2825394365D+01  0.2347269535D+00
      0.6401216923D+00  0.8137573261D+00
 S   1 1.00       0.000000000000
      0.1612777588D+00  0.1000000000D+01
 ****
     35 0
 S   3 1.00       0.000000000000
      0.1873113696D+02  0.3349460434D-01
      0.2825394365D+01  0.2347269535D+00
      0.6401216923D+00  0.8137573261D+00
 S   1 1.00       0.000000000000
      0.1612777588D+00  0.1000000000D+01
 ****
     36 0
 S   3 1.00       0.000000000000
      0.1873113696D+02  0.3349460434D-01
      0.2825394365D+01  0.2347269535D+00
      0.6401216923D+00  0.8137573261D+00
 S   1 1.00       0.000000000000
      0.1612777588D+00  0.1000000000D+01
 ****

   319 basis functions,   600 primitive gaussians,   319 cartesian basis functions
    67 alpha electrons       67 beta electrons
       nuclear repulsion energy      1245.9291628688 Hartrees.
 IExCor=  402 DFT=T Ex+Corr=B3LYP ExCW=0 ScaHFX=  0.200000
 ScaDFX=  0.800000  0.720000  1.000000  0.810000 ScalE2=  1.000000  1.000000
 IRadAn=      5 IRanWt=     -1 IRanGd=            0 ICorTp=0 IEmpDi=  4
 NAtoms=   36 NActive=   36 NUniq=   36 SFac= 1.00D+00 NAtFMM=   60 NAOKFM=F Big=F
 Integral buffers will be    131072 words long.
 Regular integral format.
 Two-electron integral symmetry is turned off.
 Leave Link  301 at Sat Nov  5 12:09:03 2022, MaxMem=   402653184 cpu:               1.3 elap:               0.1
 (Enter /home/wykgroup/appl/g16/l302.exe)
 NPDir=0 NMtPBC=     1 NCelOv=     1 NCel=       1 NClECP=     1 NCelD=      1
         NCelK=      1 NCelE2=     1 NClLst=     1 CellRange=     0.0.
 One-electron integrals computed using PRISM.
 NBasis=   319 RedAO= T EigKep=  4.39D-04  NBF=   319
 NBsUse=   319 1.00D-06 EigRej= -1.00D+00 NBFU=   319
 Precomputing XC quadrature grid using
 IXCGrd= 4 IRadAn=           5 IRanWt=          -1 IRanGd=           0 AccXCQ= 0.00D+00.
 Generated NRdTot=       0 NPtTot=           0 NUsed=           0 NTot=          32
 NSgBfM=   317   317   317   317   317 MxSgAt=    36 MxSgA2=    36.
 Leave Link  302 at Sat Nov  5 12:09:04 2022, MaxMem=   402653184 cpu:               7.9 elap:               0.6
 (Enter /home/wykgroup/appl/g16/l303.exe)
 DipDrv:  MaxL=1.
 Leave Link  303 at Sat Nov  5 12:09:04 2022, MaxMem=   402653184 cpu:               1.4 elap:               0.1
 (Enter /home/wykgroup/appl/g16/l308.exe)
 Leave Link  308 at Sat Nov  5 12:09:04 2022, MaxMem=   402653184 cpu:               1.4 elap:               0.2
 (Enter /home/wykgroup/appl/g16/l401.exe)
 ExpMin= 1.61D-01 ExpMax= 5.48D+03 ExpMxC= 8.25D+02 IAcc=3 IRadAn=         5 AccDes= 0.00D+00
 Harris functional with IExCor=  402 and IRadAn=       5 diagonalized for initial guess.
 HarFok:  IExCor=  402 AccDes= 0.00D+00 IRadAn=         5 IDoV= 1 UseB2=F ITyADJ=14
 ICtDFT=  3500011 ScaDFX=  1.000000  1.000000  1.000000  1.000000
 FoFCou: FMM=F IPFlag=           0 FMFlag=      100000 FMFlg1=           0
         NFxFlg=           0 DoJE=T BraDBF=F KetDBF=T FulRan=T
         wScrn=  0.000000 ICntrl=       500 IOpCl=  0 I1Cent=   200000004 NGrid=           0
         NMat0=    1 NMatS0=      1 NMatT0=    0 NMatD0=    1 NMtDS0=    0 NMtDT0=    0
 Symmetry not used in FoFCou.
 Harris En= -788.026605982019    
 JPrj=0 DoOrth=F DoCkMO=F.
 Leave Link  401 at Sat Nov  5 12:09:05 2022, MaxMem=   402653184 cpu:              15.3 elap:               1.2
 (Enter /home/wykgroup/appl/g16/l502.exe)
 Two-electron integral symmetry not used.
 Closed shell SCF:
 Using DIIS extrapolation, IDIIS=  1040.
 NGot=   402653184 LenX=   402442319 LenY=   402340117
 Requested convergence on RMS density matrix=1.00D-08 within  32 cycles.
 Requested convergence on MAX density matrix=1.00D-06.
 Requested convergence on             energy=1.00D-06.
 No special actions if energy rises.
 Fock matrices will be formed incrementally for  20 cycles.
 Integral accuracy reduced to 1.0D-05 until final iterations.

 Cycle   1  Pass 0  IDiag  1:
 FoFJK:  IHMeth= 1 ICntrl=       0 DoSepK=F KAlg= 0 I1Cent=           0 FoldK=F
 IRaf= 730000000 NMat=       1 IRICut=       1 DoRegI=T DoRafI=F ISym2E= 0 IDoP0=0 IntGTp=1.
 FoFCou: FMM=F IPFlag=           0 FMFlag=      100000 FMFlg1=           0
         NFxFlg=           0 DoJE=F BraDBF=F KetDBF=F FulRan=T
         wScrn=  0.000000 ICntrl=         0 IOpCl=  0 I1Cent=           0 NGrid=           0
         NMat0=    1 NMatS0=      1 NMatT0=    0 NMatD0=    1 NMtDS0=    0 NMtDT0=    0
 Symmetry not used in FoFCou.
 E= -787.584475097054    
 DIIS: error= 2.83D-02 at cycle   1 NSaved=   1.
 NSaved= 1 IEnMin= 1 EnMin= -787.584475097054     IErMin= 1 ErrMin= 2.83D-02
 ErrMax= 2.83D-02  0.00D+00 EMaxC= 1.00D-01 BMatC= 3.91D-01 BMatP= 3.91D-01
 IDIUse=3 WtCom= 7.17D-01 WtEn= 2.83D-01
 Coeff-Com:  0.100D+01
 Coeff-En:   0.100D+01
 Coeff:      0.100D+01
 Gap=     0.216 Goal=   None    Shift=    0.000
 GapD=    0.216 DampG=1.000 DampE=0.500 DampFc=0.5000 IDamp=-1.
 Damping current iteration by 5.00D-01
 RMSDP=4.64D-03 MaxDP=2.02D-01              OVMax= 1.80D-01

 Cycle   2  Pass 0  IDiag  1:
 RMSU=  2.27D-03    CP:  9.75D-01
 E= -787.769685445279     Delta-E=       -0.185210348224 Rises=F Damp=T
 DIIS: error= 8.75D-03 at cycle   2 NSaved=   2.
 NSaved= 2 IEnMin= 2 EnMin= -787.769685445279     IErMin= 2 ErrMin= 8.75D-03
 ErrMax= 8.75D-03  0.00D+00 EMaxC= 1.00D-01 BMatC= 3.45D-02 BMatP= 3.91D-01
 IDIUse=3 WtCom= 9.13D-01 WtEn= 8.75D-02
 Coeff-Com:  0.614D-01 0.939D+00
 Coeff-En:   0.846D-01 0.915D+00
 Coeff:      0.634D-01 0.937D+00
 Gap=     0.231 Goal=   None    Shift=    0.000
 RMSDP=1.39D-03 MaxDP=6.63D-02 DE=-1.85D-01 OVMax= 1.72D-01

 Cycle   3  Pass 0  IDiag  1:
 RMSU=  1.34D-03    CP:  9.66D-01  8.51D-01
 E= -787.940119310657     Delta-E=       -0.170433865378 Rises=F Damp=F
 DIIS: error= 1.90D-02 at cycle   3 NSaved=   3.
 NSaved= 3 IEnMin= 3 EnMin= -787.940119310657     IErMin= 2 ErrMin= 8.75D-03
 ErrMax= 1.90D-02  0.00D+00 EMaxC= 1.00D-01 BMatC= 6.91D-02 BMatP= 3.45D-02
 IDIUse=2 WtCom= 0.00D+00 WtEn= 1.00D+00
 Coeff-En:   0.000D+00 0.000D+00 0.100D+01
 Coeff:      0.000D+00 0.000D+00 0.100D+01
 Gap=     0.203 Goal=   None    Shift=    0.000
 RMSDP=2.61D-03 MaxDP=1.59D-01 DE=-1.70D-01 OVMax= 2.51D-01

 Cycle   4  Pass 0  IDiag  1:
 RMSU=  1.64D-03    CP:  9.65D-01  1.22D+00 -3.88D-01
 E= -787.587037649230     Delta-E=        0.353081661426 Rises=F Damp=F
 DIIS: error= 4.29D-02 at cycle   4 NSaved=   4.
 NSaved= 4 IEnMin= 3 EnMin= -787.940119310657     IErMin= 2 ErrMin= 8.75D-03
 ErrMax= 4.29D-02  0.00D+00 EMaxC= 1.00D-01 BMatC= 4.46D-01 BMatP= 3.45D-02
 IDIUse=2 WtCom= 0.00D+00 WtEn= 1.00D+00
 Coeff-En:   0.000D+00 0.000D+00 0.806D+00 0.194D+00
 Coeff:      0.000D+00 0.000D+00 0.806D+00 0.194D+00
 Gap=     0.204 Goal=   None    Shift=    0.000
 RMSDP=1.41D-03 MaxDP=8.62D-02 DE= 3.53D-01 OVMax= 1.23D-01

 Cycle   5  Pass 0  IDiag  1:
 RMSU=  2.55D-04    CP:  9.66D-01  1.01D+00  3.11D-01  4.47D-01
 E= -787.965088294146     Delta-E=       -0.378050644916 Rises=F Damp=F
 DIIS: error= 1.44D-02 at cycle   5 NSaved=   5.
 NSaved= 5 IEnMin= 5 EnMin= -787.965088294146     IErMin= 2 ErrMin= 8.75D-03
 ErrMax= 1.44D-02  0.00D+00 EMaxC= 1.00D-01 BMatC= 4.23D-02 BMatP= 3.45D-02
 IDIUse=2 WtCom= 0.00D+00 WtEn= 1.00D+00
 Coeff-En:   0.000D+00 0.000D+00 0.412D+00 0.000D+00 0.588D+00
 Coeff:      0.000D+00 0.000D+00 0.412D+00 0.000D+00 0.588D+00
 Gap=     0.204 Goal=   None    Shift=    0.000
 RMSDP=6.52D-04 MaxDP=4.07D-02 DE=-3.78D-01 OVMax= 6.31D-02

 Cycle   6  Pass 0  IDiag  1:
 RMSU=  7.09D-05    CP:  9.67D-01  9.11D-01  6.53D-01  2.04D-01  7.50D-01
 E= -788.001942570409     Delta-E=       -0.036854276263 Rises=F Damp=F
 DIIS: error= 2.36D-03 at cycle   6 NSaved=   6.
 NSaved= 6 IEnMin= 6 EnMin= -788.001942570409     IErMin= 6 ErrMin= 2.36D-03
 ErrMax= 2.36D-03  0.00D+00 EMaxC= 1.00D-01 BMatC= 1.26D-03 BMatP= 3.45D-02
 IDIUse=3 WtCom= 9.76D-01 WtEn= 2.36D-02
 Coeff-Com: -0.180D-02 0.403D-04 0.130D+00-0.306D-01 0.354D+00 0.548D+00
 Coeff-En:   0.000D+00 0.000D+00 0.000D+00 0.000D+00 0.759D-02 0.992D+00
 Coeff:     -0.176D-02 0.394D-04 0.127D+00-0.299D-01 0.346D+00 0.559D+00
 Gap=     0.203 Goal=   None    Shift=    0.000
 RMSDP=1.08D-04 MaxDP=8.24D-03 DE=-3.69D-02 OVMax= 1.11D-02

 Cycle   7  Pass 0  IDiag  1:
 RMSU=  2.66D-05    CP:  9.66D-01  9.31D-01  6.08D-01  2.45D-01  7.72D-01
                    CP:  6.30D-01
 E= -788.003030536322     Delta-E=       -0.001087965913 Rises=F Damp=F
 DIIS: error= 3.64D-04 at cycle   7 NSaved=   7.
 NSaved= 7 IEnMin= 7 EnMin= -788.003030536322     IErMin= 7 ErrMin= 3.64D-04
 ErrMax= 3.64D-04  0.00D+00 EMaxC= 1.00D-01 BMatC= 3.92D-05 BMatP= 1.26D-03
 IDIUse=3 WtCom= 9.96D-01 WtEn= 3.64D-03
 Coeff-Com: -0.127D-02 0.185D-02 0.642D-01-0.223D-01 0.192D+00 0.301D+00
 Coeff-Com:  0.465D+00
 Coeff-En:   0.000D+00 0.000D+00 0.000D+00 0.000D+00 0.000D+00 0.000D+00
 Coeff-En:   0.100D+01
 Coeff:     -0.126D-02 0.185D-02 0.640D-01-0.222D-01 0.191D+00 0.300D+00
 Coeff:      0.467D+00
 Gap=     0.204 Goal=   None    Shift=    0.000
 RMSDP=1.81D-05 MaxDP=1.13D-03 DE=-1.09D-03 OVMax= 1.56D-03

 Cycle   8  Pass 0  IDiag  1:
 RMSU=  8.11D-06    CP:  9.67D-01  9.30D-01  6.10D-01  2.42D-01  7.95D-01
                    CP:  6.13D-01  5.11D-01
 E= -788.003063235512     Delta-E=       -0.000032699190 Rises=F Damp=F
 DIIS: error= 6.38D-05 at cycle   8 NSaved=   8.
 NSaved= 8 IEnMin= 8 EnMin= -788.003063235512     IErMin= 8 ErrMin= 6.38D-05
 ErrMax= 6.38D-05  0.00D+00 EMaxC= 1.00D-01 BMatC= 2.63D-06 BMatP= 3.92D-05
 IDIUse=1 WtCom= 1.00D+00 WtEn= 0.00D+00
 Coeff-Com: -0.501D-03 0.649D-03 0.129D-01-0.564D-02 0.422D-01 0.100D+00
 Coeff-Com:  0.206D+00 0.644D+00
 Coeff:     -0.501D-03 0.649D-03 0.129D-01-0.564D-02 0.422D-01 0.100D+00
 Coeff:      0.206D+00 0.644D+00
 Gap=     0.204 Goal=   None    Shift=    0.000
 RMSDP=5.80D-06 MaxDP=1.71D-04 DE=-3.27D-05 OVMax= 5.11D-04

 Initial convergence to 1.0D-05 achieved.  Increase integral accuracy.
 Cycle   9  Pass 1  IDiag  1:
 E= -788.003042563168     Delta-E=        0.000020672344 Rises=F Damp=F
 DIIS: error= 6.92D-05 at cycle   1 NSaved=   1.
 NSaved= 1 IEnMin= 1 EnMin= -788.003042563168     IErMin= 1 ErrMin= 6.92D-05
 ErrMax= 6.92D-05  0.00D+00 EMaxC= 1.00D-01 BMatC= 8.50D-07 BMatP= 8.50D-07
 IDIUse=1 WtCom= 1.00D+00 WtEn= 0.00D+00
 Coeff-Com:  0.100D+01
 Coeff:      0.100D+01
 Gap=     0.203 Goal=   None    Shift=    0.000
 RMSDP=5.80D-06 MaxDP=1.71D-04 DE= 2.07D-05 OVMax= 4.59D-04

 Cycle  10  Pass 1  IDiag  1:
 RMSU=  2.81D-05    CP:  1.00D+00
 E= -788.003041759968     Delta-E=        0.000000803200 Rises=F Damp=F
 DIIS: error= 7.33D-05 at cycle   2 NSaved=   2.
 NSaved= 2 IEnMin= 1 EnMin= -788.003042563168     IErMin= 1 ErrMin= 6.92D-05
 ErrMax= 7.33D-05  0.00D+00 EMaxC= 1.00D-01 BMatC= 1.71D-06 BMatP= 8.50D-07
 IDIUse=1 WtCom= 1.00D+00 WtEn= 0.00D+00
 Coeff-Com:  0.604D+00 0.396D+00
 Coeff:      0.604D+00 0.396D+00
 Gap=     0.204 Goal=   None    Shift=    0.000
 RMSDP=4.62D-06 MaxDP=2.86D-04 DE= 8.03D-07 OVMax= 4.00D-04

 Cycle  11  Pass 1  IDiag  1:
 RMSU=  4.57D-06    CP:  1.00D+00  9.75D-01
 E= -788.003043199046     Delta-E=       -0.000001439078 Rises=F Damp=F
 DIIS: error= 3.00D-05 at cycle   3 NSaved=   3.
 NSaved= 3 IEnMin= 3 EnMin= -788.003043199046     IErMin= 3 ErrMin= 3.00D-05
 ErrMax= 3.00D-05  0.00D+00 EMaxC= 1.00D-01 BMatC= 1.84D-07 BMatP= 8.50D-07
 IDIUse=1 WtCom= 1.00D+00 WtEn= 0.00D+00
 Coeff-Com:  0.797D-01 0.244D+00 0.676D+00
 Coeff:      0.797D-01 0.244D+00 0.676D+00
 Gap=     0.204 Goal=   None    Shift=    0.000
 RMSDP=1.61D-06 MaxDP=1.13D-04 DE=-1.44D-06 OVMax= 1.66D-04

 Cycle  12  Pass 1  IDiag  1:
 RMSU=  1.30D-06    CP:  1.00D+00  9.85D-01  7.99D-01
 E= -788.003043288567     Delta-E=       -0.000000089522 Rises=F Damp=F
 DIIS: error= 1.29D-05 at cycle   4 NSaved=   4.
 NSaved= 4 IEnMin= 4 EnMin= -788.003043288567     IErMin= 4 ErrMin= 1.29D-05
 ErrMax= 1.29D-05  0.00D+00 EMaxC= 1.00D-01 BMatC= 6.95D-08 BMatP= 1.84D-07
 IDIUse=1 WtCom= 1.00D+00 WtEn= 0.00D+00
 Coeff-Com: -0.105D-02 0.138D+00 0.495D+00 0.368D+00
 Coeff:     -0.105D-02 0.138D+00 0.495D+00 0.368D+00
 Gap=     0.204 Goal=   None    Shift=    0.000
 RMSDP=8.71D-07 MaxDP=3.29D-05 DE=-8.95D-08 OVMax= 8.93D-05

 Cycle  13  Pass 1  IDiag  1:
 RMSU=  2.14D-07    CP:  1.00D+00  9.88D-01  7.89D-01  3.52D-01
 E= -788.003043357942     Delta-E=       -0.000000069375 Rises=F Damp=F
 DIIS: error= 1.83D-06 at cycle   5 NSaved=   5.
 NSaved= 5 IEnMin= 5 EnMin= -788.003043357942     IErMin= 5 ErrMin= 1.83D-06
 ErrMax= 1.83D-06  0.00D+00 EMaxC= 1.00D-01 BMatC= 1.15D-09 BMatP= 6.95D-08
 IDIUse=1 WtCom= 1.00D+00 WtEn= 0.00D+00
 Coeff-Com: -0.303D-02 0.755D-01 0.276D+00 0.221D+00 0.430D+00
 Coeff:     -0.303D-02 0.755D-01 0.276D+00 0.221D+00 0.430D+00
 Gap=     0.204 Goal=   None    Shift=    0.000
 RMSDP=1.14D-07 MaxDP=3.57D-06 DE=-6.94D-08 OVMax= 1.11D-05

 Cycle  14  Pass 1  IDiag  1:
 RMSU=  4.76D-08    CP:  1.00D+00  9.88D-01  7.94D-01  3.78D-01  5.55D-01
 E= -788.003043359136     Delta-E=       -0.000000001193 Rises=F Damp=F
 DIIS: error= 1.08D-07 at cycle   6 NSaved=   6.
 NSaved= 6 IEnMin= 6 EnMin= -788.003043359136     IErMin= 6 ErrMin= 1.08D-07
 ErrMax= 1.08D-07  0.00D+00 EMaxC= 1.00D-01 BMatC= 8.27D-12 BMatP= 1.15D-09
 IDIUse=1 WtCom= 1.00D+00 WtEn= 0.00D+00
 Coeff-Com: -0.105D-02 0.227D-01 0.831D-01 0.679D-01 0.152D+00 0.675D+00
 Coeff:     -0.105D-02 0.227D-01 0.831D-01 0.679D-01 0.152D+00 0.675D+00
 Gap=     0.204 Goal=   None    Shift=    0.000
 RMSDP=1.28D-08 MaxDP=5.09D-07 DE=-1.19D-09 OVMax= 7.01D-07

 Cycle  15  Pass 1  IDiag  1:
 RMSU=  1.21D-08    CP:  1.00D+00  9.88D-01  7.93D-01  3.78D-01  5.53D-01
                    CP:  9.17D-01
 E= -788.003043359144     Delta-E=       -0.000000000009 Rises=F Damp=F
 DIIS: error= 4.85D-08 at cycle   7 NSaved=   7.
 NSaved= 7 IEnMin= 7 EnMin= -788.003043359144     IErMin= 7 ErrMin= 4.85D-08
 ErrMax= 4.85D-08  0.00D+00 EMaxC= 1.00D-01 BMatC= 1.54D-12 BMatP= 8.27D-12
 IDIUse=1 WtCom= 1.00D+00 WtEn= 0.00D+00
 Coeff-Com: -0.147D-03 0.214D-02 0.783D-02 0.677D-02 0.217D-01 0.318D+00
 Coeff-Com:  0.644D+00
 Coeff:     -0.147D-03 0.214D-02 0.783D-02 0.677D-02 0.217D-01 0.318D+00
 Coeff:      0.644D+00
 Gap=     0.204 Goal=   None    Shift=    0.000
 RMSDP=4.49D-09 MaxDP=1.45D-07 DE=-8.64D-12 OVMax= 2.52D-07

 SCF Done:  E(RB3LYP) =  -788.003043359     A.U. after   15 cycles
            NFock= 15  Conv=0.45D-08     -V/T= 2.0097
 KE= 7.804315474514D+02 PE=-4.319209662472D+03 EE= 1.504845908793D+03
 Leave Link  502 at Sat Nov  5 12:09:24 2022, MaxMem=   402653184 cpu:             259.9 elap:              19.2
 (Enter /home/wykgroup/appl/g16/l508.exe)
 QCSCF skips out because SCF is already converged.
 Leave Link  508 at Sat Nov  5 12:09:25 2022, MaxMem=   402653184 cpu:               0.0 elap:               0.0
 (Enter /home/wykgroup/appl/g16/l801.exe)
 DoSCS=F DFT=T ScalE2(SS,OS)=  1.000000  1.000000
 ExpMin= 1.61D-01 ExpMax= 5.48D+03 ExpMxC= 8.25D+02 IAcc=3 IRadAn=         5 AccDes= 0.00D+00
 HarFok:  IExCor=  205 AccDes= 0.00D+00 IRadAn=         5 IDoV=-2 UseB2=F ITyADJ=14
 ICtDFT= 12500011 ScaDFX=  1.000000  1.000000  1.000000  1.000000
 Largest valence mixing into a core orbital is  5.63D-05
 Largest core mixing into a valence orbital is  1.27D-05
 Range of M.O.s used for correlation:    20   319
 NBasis=   319 NAE=    67 NBE=    67 NFC=    19 NFV=     0
 NROrb=    300 NOA=    48 NOB=    48 NVA=   252 NVB=   252
 Leave Link  801 at Sat Nov  5 12:09:25 2022, MaxMem=   402653184 cpu:               1.6 elap:               0.2
 (Enter /home/wykgroup/appl/g16/l914.exe)
 RHF ground state
 Two-electron integral symmetry not used.
 MDV=   402653184 DFT=T DoStab=F Mixed=T DoRPA=T DoScal=F NonHer=T
 Making orbital integer symmetry assigments:
    16 initial guesses have been made.
 Convergence on wavefunction:    0.001000000000000
 Davidson Disk Diagonalization:  ConvIn= 1.00D-03 SkipCon=T Conv= 1.00D-03.
 Max sub-space:  2000 roots to seek:    16 dimension of matrix:        24192
 Iteration     1 Dimension    16 NMult     0 NNew     16
 CISAX will form    16 AO SS matrices at one time.
 NMat=    16 NSing=     8 JSym2X= 0.
 FoFJK:  IHMeth= 1 ICntrl=       0 DoSepK=F KAlg= 0 I1Cent=           0 FoldK=F
 IRaf= 730000000 NMat=      32 IRICut=       1 DoRegI=T DoRafI=F ISym2E= 0 IDoP0=0 IntGTp=1.
 FoFCou: FMM=F IPFlag=           0 FMFlag=      100000 FMFlg1=           0
         NFxFlg=           0 DoJE=F BraDBF=F KetDBF=F FulRan=T
         wScrn=  0.000000 ICntrl=         0 IOpCl=  0 I1Cent=           0 NGrid=           0
         NMat0=   32 NMatS0=      8 NMatT0=    8 NMatD0=   32 NMtDS0=    0 NMtDT0=    0
 Symmetry not used in FoFCou.
 New state      1 was old state     10
 New state      2 was old state      6
 New state      3 was old state     14
 New state      4 was old state      8
 New state      5 was old state      1
 New state      6 was old state      2
 New state      7 was old state      4
 New state      8 was old state      3
 Excitation Energies [eV] at current iteration:
 Root      1 :     4.217566039398040
 Root      2 :     4.369174854533735
 Root      3 :     4.626100888093818
 Root      4 :     4.851660959566719
 Root      5 :     5.191973093234359
 Root      6 :     5.256995014007979
 Root      7 :     5.305937060279443
 Root      8 :     5.307529614433540
 Root      9 :     5.716175319823874
 Root     10 :     5.798055109258260
 Root     11 :     5.864380937759848
 Root     12 :     6.088805606332518
 Root     13 :     6.286525888288282
 Root     14 :     6.674423384373696
 Root     15 :     7.239913863582743
 Root     16 :     7.997296831578544
 Vector   3 SDiff=8.98D-01 TDiff=7.91D+00 assumed to be singlet.
 Vector   4 SDiff=1.35D-01 TDiff=9.05D+00 assumed to be singlet.
 Vector   7 SDiff=9.39D-01 TDiff=6.91D+00 assumed to be singlet.
 Vector   8 SDiff=1.33D-01 TDiff=8.27D+00 assumed to be singlet.
 Iteration     2 Dimension    24 NMult    16 NNew      8
 CISAX will form     8 AO SS matrices at one time.
 NMat=     8 NSing=     4 JSym2X= 0.
 Root      1 not converged, maximum delta is    0.223065337697295
 Root      2 not converged, maximum delta is    0.229414473658503
 New state      3 was old state      5
 Root      3 not converged, maximum delta is    0.303589667338504
 New state      4 was old state      8
 Root      4 not converged, maximum delta is    0.059611933567446
 Excitation Energies [eV] at current iteration:
 Root      1 :     3.755636657040879   Change is   -0.461929382357162
 Root      2 :     4.238659186806449   Change is   -0.130515667727286
 Root      3 :     5.091419404787239   Change is   -0.100553688447119
 Root      4 :     5.303793822582609   Change is   -0.003735791850932
 Iteration     3 Dimension    32 NMult    24 NNew      8
 CISAX will form     8 AO SS matrices at one time.
 NMat=     8 NSing=     4 JSym2X= 0.
 Root      1 not converged, maximum delta is    0.016710400508726
 Root      2 not converged, maximum delta is    0.040537718090678
 Root      3 not converged, maximum delta is    0.135804342899988
 Root      4 not converged, maximum delta is    0.153405006830009
 Excitation Energies [eV] at current iteration:
 Root      1 :     3.714428725494900   Change is   -0.041207931545978
 Root      2 :     4.228254010431518   Change is   -0.010405176374930
 Root      3 :     5.035886442407187   Change is   -0.055532962380052
 Root      4 :     5.298931312853967   Change is   -0.004862509728642
 Iteration     4 Dimension    40 NMult    32 NNew      8
 CISAX will form     8 AO SS matrices at one time.
 NMat=     8 NSing=     4 JSym2X= 0.
 Root      1 not converged, maximum delta is    0.007301589093753
 Root      2 not converged, maximum delta is    0.008696349700905
 Root      3 not converged, maximum delta is    0.024524399312192
 Root      4 not converged, maximum delta is    0.176158054072065
 Excitation Energies [eV] at current iteration:
 Root      1 :     3.711691719801572   Change is   -0.002737005693329
 Root      2 :     4.227424525432907   Change is   -0.000829484998611
 Root      3 :     5.024314965618768   Change is   -0.011571476788419
 Root      4 :     5.290999246084385   Change is   -0.007932066769582
 Iteration     5 Dimension    48 NMult    40 NNew      8
 CISAX will form     8 AO SS matrices at one time.
 NMat=     8 NSing=     4 JSym2X= 0.
 Root      1 not converged, maximum delta is    0.020478980433177
 No map to state      2
 Root      3 not converged, maximum delta is    0.003161474733971
 Root      4 not converged, maximum delta is    0.025406442386015
 Excitation Energies [eV] at current iteration:
 Root      1 :     3.710972102268077   Change is   -0.000719617533495
 Root      2 :     3.974901441828648
 Root      3 :     5.022737971565195   Change is   -0.001576994053573
 Root      4 :     5.289513829709511   Change is   -0.001485416374874
 Iteration     6 Dimension    56 NMult    48 NNew      8
 CISAX will form     8 AO SS matrices at one time.
 NMat=     8 NSing=     4 JSym2X= 0.
 Root      1 not converged, maximum delta is    0.108519684981725
 Root      2 not converged, maximum delta is    0.116881729601416
 Root      3 not converged, maximum delta is    0.002150895838733
 Root      4 not converged, maximum delta is    0.005715538349239
 Excitation Energies [eV] at current iteration:
 Root      1 :     3.708617090243282   Change is   -0.002355012024795
 Root      2 :     3.759897469749334   Change is   -0.215003972079314
 Root      3 :     5.022395435623684   Change is   -0.000342535941511
 Root      4 :     5.289081950887684   Change is   -0.000431878821828
 Iteration     7 Dimension    64 NMult    56 NNew      8
 CISAX will form     8 AO SS matrices at one time.
 NMat=     8 NSing=     4 JSym2X= 0.
 Root      1 not converged, maximum delta is    0.040712562683591
 Root      2 not converged, maximum delta is    0.041412679735280
 Root      3 has converged.
 Root      4 not converged, maximum delta is    0.002600027875605
 Excitation Energies [eV] at current iteration:
 Root      1 :     3.707687242735331   Change is   -0.000929847507951
 Root      2 :     3.747899177020402   Change is   -0.011998292728932
 Root      3 :     5.022331152187407   Change is   -0.000064283436277
 Root      4 :     5.288997262071745   Change is   -0.000084688815939
 Iteration     8 Dimension    70 NMult    64 NNew      6
 CISAX will form     6 AO SS matrices at one time.
 NMat=     6 NSing=     2 JSym2X= 0.
 Root      1 not converged, maximum delta is    0.004776080742849
 Root      2 not converged, maximum delta is    0.004219152040134
 Root      3 has converged.
 Root      4 has converged.
 Excitation Energies [eV] at current iteration:
 Root      1 :     3.707586135589300   Change is   -0.000101107146031
 Root      2 :     3.746915880067309   Change is   -0.000983296953093
 Root      3 :     5.022330055818476   Change is   -0.000001096368931
 Root      4 :     5.288986780175589   Change is   -0.000010481896155
 Iteration     9 Dimension    74 NMult    70 NNew      4
 CISAX will form     4 AO SS matrices at one time.
 NMat=     4 NSing=     0 JSym2X= 0.
 Root      1 has converged.
 Root      2 has converged.
 Root      3 has converged.
 Root      4 has converged.
 Excitation Energies [eV] at current iteration:
 Root      1 :     3.707579976886703   Change is   -0.000006158702597
 Root      2 :     3.746856728735907   Change is   -0.000059151331402
 Root      3 :     5.022330055818493   Change is    0.000000000000017
 Root      4 :     5.288986780175559   Change is   -0.000000000000031
 Convergence achieved on expansion vectors.
 ***********************************************************************
 Excited states from <AA,BB:AA,BB> singles matrix:
 ***********************************************************************
 
 1PDM for each excited state written to RWF  633
 Ground to excited state transition densities written to RWF  633
 Ground to excited state transition electric dipole moments (Au):
       state          X           Y           Z        Dip. S.      Osc.
         1         0.0000     -0.0000      0.0000      0.0000      0.0000
         2         0.0000     -0.0000      0.0000      0.0000      0.0000
         3        -0.4076      0.1430     -0.2625      0.2555      0.0314
         4         0.0326      0.0157      0.1138      0.0143      0.0018
 Ground to excited state transition velocity dipole moments (Au):
       state          X           Y           Z        Dip. S.      Osc.
         1         0.0000      0.0000     -0.0000      0.0000      0.0000
         2        -0.0000      0.0000     -0.0000      0.0000      0.0000
         3         0.0779     -0.0240      0.0496      0.0091      0.0328
         4        -0.0102     -0.0047     -0.0229      0.0006      0.0022
 Ground to excited state transition magnetic dipole moments (Au):
       state          X           Y           Z
         1        -0.0000      0.0000      0.0000
         2         0.0000      0.0000      0.0000
         3         0.2088      0.1680     -0.2266
         4        -0.0871      0.1014      0.1841
 Ground to excited state transition velocity quadrupole moments (Au):
       state          XX          YY          ZZ          XY          XZ          YZ
         1        -0.0000     -0.0000     -0.0000      0.0000     -0.0000     -0.0000
         2         0.0000     -0.0000      0.0000      0.0000     -0.0000      0.0000
         3        -0.4204     -0.0289     -0.0257      0.1491     -0.3728      0.0577
         4         0.4646     -0.0079      0.0290      0.0247      0.0935     -0.0043
 <0|del|b> * <b|rxdel|0> + <0|del|b> * <b|delr+rdel|0>
 Rotatory Strengths (R) in cgs (10**-40 erg-esu-cm/Gauss)
       state          XX          YY          ZZ    R(velocity)    E-M Angle
         1        -0.0000      0.0000      0.0000      0.0000       90.00
         2        -0.0000     -0.0000     -0.0000     -0.0000       90.00
         3       -32.2036      4.0807     31.9470      1.2747       88.29
         4        -8.7676     -4.9483     -0.1217     -4.6126      130.99
 1/2[<0|r|b>*<b|rxdel|0> + (<0|rxdel|b>*<b|r|0>)*]
 Rotatory Strengths (R) in cgs (10**-40 erg-esu-cm/Gauss)
       state          XX          YY          ZZ     R(length)
         1         0.0000      0.0000     -0.0000      0.0000
         2        -0.0000      0.0000     -0.0000     -0.0000
         3        60.1824    -16.9870    -42.0660      0.3765
         4         2.0085     -1.1282    -14.8090     -4.6429
  1/2[<0|del|b>*<b|r|0> + (<0|r|b>*<b|del|0>)*] (Au)
       state          X           Y           Z        Dip. S.   Osc.(frdel)
         1         0.0000     -0.0000     -0.0000      0.0000      0.0000
         2        -0.0000     -0.0000     -0.0000      0.0000      0.0000
         3        -0.0317     -0.0034     -0.0130      0.0482      0.0321
         4        -0.0003     -0.0001     -0.0026      0.0030      0.0020

 Excitation energies and oscillator strengths:
 
 Excited state symmetry could not be determined.
 Excited State   1:      Triplet-?Sym    3.7076 eV  334.41 nm  f=0.0000  <S**2>=2.000
      64 -> 69         0.10656
      65 -> 70         0.17142
      66 -> 68        -0.22805
      66 -> 70         0.35192
      67 -> 70        -0.20151
      67 -> 71         0.47298
 This state for optimization and/or second-order correction.
 Total Energy, E(TD-HF/TD-DFT) =  -787.866792302    
 Copying the excited state density for this state as the 1-particle RhoCI density.
 
 Excited state symmetry could not be determined.
 Excited State   2:      Triplet-?Sym    3.7469 eV  330.90 nm  f=0.0000  <S**2>=2.000
      64 -> 68         0.13151
      64 -> 69         0.44357
      65 -> 68         0.41890
      65 -> 69        -0.13612
      65 -> 70         0.10338
      66 -> 68        -0.16746
      66 -> 70        -0.16001
      67 -> 71        -0.12517
 
 Excited state symmetry could not be determined.
 Excited State   3:      Singlet-?Sym    5.0223 eV  246.87 nm  f=0.0314  <S**2>=0.000
      66 -> 71         0.22786
      67 -> 68         0.57080
      67 -> 70        -0.32360
 
 Excited state symmetry could not be determined.
 Excited State   4:      Singlet-?Sym    5.2890 eV  234.42 nm  f=0.0018  <S**2>=0.000
      66 -> 71        -0.14731
      67 -> 68         0.31898
      67 -> 69         0.45367
      67 -> 70         0.38821
 SavETr:  write IOETrn=   770 NScale= 10 NData=  16 NLR=1 NState=    4 LETran=      82.
 Leave Link  914 at Sat Nov  5 12:12:24 2022, MaxMem=   402653184 cpu:            2442.9 elap:             179.1
 (Enter /home/wykgroup/appl/g16/l601.exe)
 Copying SCF densities to generalized density rwf, IOpCl= 0 IROHF=0.

 **********************************************************************

            Population analysis using the SCF Density.

 **********************************************************************

 Alpha  occ. eigenvalues --  -19.17729 -14.33002 -10.24668 -10.24300 -10.24146
 Alpha  occ. eigenvalues --  -10.22363 -10.21247 -10.20547 -10.20010 -10.19874
 Alpha  occ. eigenvalues --  -10.19780 -10.19742 -10.19714 -10.19690 -10.19469
 Alpha  occ. eigenvalues --  -10.19140 -10.18656 -10.18183 -10.18153  -1.06319
 Alpha  occ. eigenvalues --   -0.90248  -0.86766  -0.85403  -0.82199  -0.77904
 Alpha  occ. eigenvalues --   -0.75482  -0.75255  -0.73833  -0.69879  -0.69418
 Alpha  occ. eigenvalues --   -0.63221  -0.61670  -0.60324  -0.60072  -0.57578
 Alpha  occ. eigenvalues --   -0.53187  -0.52491  -0.51222  -0.48505  -0.48436
 Alpha  occ. eigenvalues --   -0.47346  -0.46825  -0.45387  -0.45011  -0.44062
 Alpha  occ. eigenvalues --   -0.43141  -0.42730  -0.42420  -0.40825  -0.40093
 Alpha  occ. eigenvalues --   -0.38590  -0.37287  -0.36852  -0.36647  -0.36132
 Alpha  occ. eigenvalues --   -0.35433  -0.35069  -0.34758  -0.34492  -0.32466
 Alpha  occ. eigenvalues --   -0.32148  -0.31831  -0.31234  -0.25790  -0.25528
 Alpha  occ. eigenvalues --   -0.24213  -0.21823
 Alpha virt. eigenvalues --   -0.01470  -0.00949   0.00092   0.01294   0.03307
 Alpha virt. eigenvalues --    0.04308   0.08988   0.09308   0.10247   0.10766
 Alpha virt. eigenvalues --    0.11544   0.12545   0.13019   0.13933   0.14421
 Alpha virt. eigenvalues --    0.15246   0.15514   0.15871   0.16341   0.16761
 Alpha virt. eigenvalues --    0.17145   0.17646   0.18052   0.18560   0.19025
 Alpha virt. eigenvalues --    0.19796   0.20392   0.23012   0.24568   0.26045
 Alpha virt. eigenvalues --    0.26871   0.27482   0.29749   0.30687   0.31739
 Alpha virt. eigenvalues --    0.32615   0.33401   0.34241   0.36861   0.37283
 Alpha virt. eigenvalues --    0.37522   0.43910   0.48476   0.49709   0.50634
 Alpha virt. eigenvalues --    0.51576   0.52000   0.52240   0.52434   0.53268
 Alpha virt. eigenvalues --    0.53584   0.53980   0.55103   0.55814   0.56301
 Alpha virt. eigenvalues --    0.57458   0.58484   0.58760   0.59065   0.59840
 Alpha virt. eigenvalues --    0.60177   0.60530   0.60862   0.61233   0.61703
 Alpha virt. eigenvalues --    0.61781   0.61994   0.62607   0.63818   0.64584
 Alpha virt. eigenvalues --    0.66343   0.66467   0.67587   0.68324   0.70436
 Alpha virt. eigenvalues --    0.71081   0.72037   0.74253   0.74760   0.75742
 Alpha virt. eigenvalues --    0.76884   0.79504   0.81152   0.82159   0.82799
 Alpha virt. eigenvalues --    0.83047   0.83385   0.83708   0.84450   0.84742
 Alpha virt. eigenvalues --    0.85296   0.85661   0.86076   0.86787   0.87405
 Alpha virt. eigenvalues --    0.88939   0.89277   0.90370   0.91609   0.92250
 Alpha virt. eigenvalues --    0.93193   0.93731   0.94353   0.94578   0.95901
 Alpha virt. eigenvalues --    0.96819   0.97224   0.97683   1.00271   1.00611
 Alpha virt. eigenvalues --    1.02345   1.03380   1.04432   1.05785   1.07436
 Alpha virt. eigenvalues --    1.10673   1.11088   1.12303   1.16189   1.16459
 Alpha virt. eigenvalues --    1.17533   1.20277   1.21307   1.25336   1.27719
 Alpha virt. eigenvalues --    1.28169   1.31330   1.33125   1.34515   1.37151
 Alpha virt. eigenvalues --    1.37425   1.38437   1.41923   1.42998   1.43626
 Alpha virt. eigenvalues --    1.44869   1.46674   1.47488   1.48128   1.48264
 Alpha virt. eigenvalues --    1.49105   1.49775   1.50650   1.51539   1.52566
 Alpha virt. eigenvalues --    1.53582   1.55041   1.55185   1.61585   1.68093
 Alpha virt. eigenvalues --    1.68835   1.71795   1.73377   1.74581   1.78907
 Alpha virt. eigenvalues --    1.79245   1.80198   1.80538   1.82096   1.82784
 Alpha virt. eigenvalues --    1.86267   1.87849   1.88830   1.90080   1.91013
 Alpha virt. eigenvalues --    1.92166   1.92624   1.94202   1.95718   1.95969
 Alpha virt. eigenvalues --    1.96732   1.97532   1.98691   2.00784   2.01818
 Alpha virt. eigenvalues --    2.03050   2.04652   2.05483   2.08056   2.08199
 Alpha virt. eigenvalues --    2.09716   2.10216   2.13107   2.13743   2.14460
 Alpha virt. eigenvalues --    2.14763   2.15956   2.18348   2.20813   2.21641
 Alpha virt. eigenvalues --    2.23741   2.24516   2.25118   2.27072   2.30041
 Alpha virt. eigenvalues --    2.31526   2.32335   2.33307   2.36055   2.36370
 Alpha virt. eigenvalues --    2.38469   2.41024   2.43959   2.48200   2.52636
 Alpha virt. eigenvalues --    2.54430   2.55547   2.57454   2.59430   2.61565
 Alpha virt. eigenvalues --    2.64952   2.66105   2.66267   2.67736   2.68928
 Alpha virt. eigenvalues --    2.70571   2.72391   2.74019   2.75218   2.77445
 Alpha virt. eigenvalues --    2.78677   2.79498   2.82073   2.84487   2.91131
 Alpha virt. eigenvalues --    2.92693   2.94122   2.99999   3.07056   3.18536
 Alpha virt. eigenvalues --    3.25206   3.40389   3.42607   4.05074   4.08175
 Alpha virt. eigenvalues --    4.09749   4.10102   4.10932   4.13010   4.16256
 Alpha virt. eigenvalues --    4.19342   4.20315   4.27840   4.32228   4.32680
 Alpha virt. eigenvalues --    4.36804   4.38148   4.48407   4.50079   4.66867
 Alpha virt. eigenvalues --    4.74834   4.77007
          Condensed to atoms (all electrons):
               1          2          3          4          5          6
     1  C    4.893381   0.248840  -0.042772  -0.006642   0.000331  -0.000010
     2  O    0.248840   8.201218   0.273660  -0.062291   0.003738   0.000366
     3  C   -0.042772   0.273660   4.523327   0.477152   0.005654  -0.042717
     4  C   -0.006642  -0.062291   0.477152   5.102454   0.502454  -0.042176
     5  C    0.000331   0.003738   0.005654   0.502454   4.872565   0.533651
     6  C   -0.000010   0.000366  -0.042717  -0.042176   0.533651   4.968831
     7  C   -0.000102   0.002528  -0.007449  -0.034036  -0.013102   0.539372
     8  C    0.000003  -0.000066   0.006092   0.000532   0.006619  -0.057462
     9  C   -0.000000   0.000000  -0.000110   0.000013  -0.000047  -0.003943
    10  C    0.000000  -0.000000   0.000002  -0.000000   0.000002   0.000074
    11  C   -0.000000  -0.000000  -0.000000   0.000000  -0.000000  -0.000005
    12  N   -0.000000   0.000000  -0.000000   0.000000  -0.000000  -0.000000
    13  C   -0.000000   0.000000  -0.000000   0.000000  -0.000000  -0.000003
    14  C   -0.000000  -0.000000   0.000000   0.000000  -0.000000  -0.000001
    15  C   -0.000000   0.000000  -0.000000   0.000000  -0.000000  -0.000000
    16  C    0.000000  -0.000000   0.000000  -0.000000   0.000000   0.000000
    17  C   -0.000000   0.000000   0.000000   0.000000   0.000000   0.000000
    18  C   -0.000000   0.000000  -0.000000   0.000000   0.000000  -0.000000
    19  C    0.004035  -0.049233   0.513967  -0.076372  -0.044074  -0.045085
    20  H    0.386583  -0.033624   0.003262   0.000249   0.000001   0.000000
    21  H    0.362622  -0.035396  -0.004437   0.004662  -0.000169  -0.000007
    22  H    0.362468  -0.035596  -0.004430   0.004757  -0.000145  -0.000007
    23  H    0.006143  -0.007765  -0.046059   0.353867  -0.040160   0.004380
    24  H   -0.000007  -0.000052   0.002990  -0.039342   0.354234  -0.037476
    25  H   -0.000000   0.000002   0.000438   0.005183  -0.045112   0.355564
    26  H    0.000000  -0.000001   0.000056   0.000001  -0.000190   0.003690
    27  H   -0.000000   0.000000  -0.000182   0.000015   0.000096  -0.004721
    28  H   -0.000000   0.000000  -0.000009  -0.000006  -0.000131   0.003858
    29  H   -0.000000  -0.000000  -0.000109  -0.000002  -0.000011  -0.000119
    30  H   -0.000000   0.000000  -0.000000  -0.000000   0.000000   0.000001
    31  H    0.000000  -0.000000   0.000000   0.000000  -0.000000   0.000000
    32  H    0.000000  -0.000000   0.000000  -0.000000   0.000000   0.000000
    33  H   -0.000000  -0.000000   0.000000  -0.000000   0.000000   0.000000
    34  H    0.000000  -0.000000   0.000000  -0.000000   0.000000   0.000000
    35  H    0.000000  -0.000000   0.000000  -0.000000   0.000000   0.000000
    36  H   -0.000226   0.000524  -0.038671   0.007522  -0.000184   0.006128
               7          8          9         10         11         12
     1  C   -0.000102   0.000003  -0.000000   0.000000  -0.000000  -0.000000
     2  O    0.002528  -0.000066   0.000000  -0.000000  -0.000000   0.000000
     3  C   -0.007449   0.006092  -0.000110   0.000002  -0.000000  -0.000000
     4  C   -0.034036   0.000532   0.000013  -0.000000   0.000000   0.000000
     5  C   -0.013102   0.006619  -0.000047   0.000002  -0.000000  -0.000000
     6  C    0.539372  -0.057462  -0.003943   0.000074  -0.000005  -0.000000
     7  C    4.639904   0.348187  -0.037361   0.003628   0.000284   0.000029
     8  C    0.348187   5.187726   0.339694  -0.033684  -0.004866  -0.001220
     9  C   -0.037361   0.339694   5.104814   0.326058  -0.042866  -0.001775
    10  C    0.003628  -0.033684   0.326058   5.277769   0.246999  -0.083913
    11  C    0.000284  -0.004866  -0.042866   0.246999   4.657044   0.851375
    12  N    0.000029  -0.001220  -0.001775  -0.083913   0.851375   6.721174
    13  C   -0.000088   0.003664  -0.040145   0.341908  -0.030447  -0.002332
    14  C   -0.000005   0.000090  -0.004610  -0.045761   0.002797  -0.000074
    15  C    0.000000   0.000002  -0.000142   0.006010  -0.000223  -0.000000
    16  C    0.000000  -0.000000   0.000020   0.000474   0.000008   0.000000
    17  C   -0.000000   0.000001   0.000013   0.005947   0.000200   0.000017
    18  C   -0.000003   0.000053  -0.003344  -0.061786  -0.006843  -0.001369
    19  C    0.537747  -0.051693  -0.004039   0.000094  -0.000032  -0.000005
    20  H    0.000002  -0.000000  -0.000000  -0.000000  -0.000000   0.000000
    21  H    0.000008  -0.000000   0.000000   0.000000  -0.000000  -0.000000
    22  H   -0.000001   0.000000  -0.000000  -0.000000   0.000000   0.000000
    23  H    0.000659   0.000007   0.000000   0.000000   0.000000   0.000000
    24  H    0.003492  -0.000203  -0.000001  -0.000000  -0.000000  -0.000000
    25  H   -0.047429  -0.009103   0.000285  -0.000055  -0.000000   0.000000
    26  H   -0.026501   0.358747  -0.036424  -0.006501   0.009483   0.001976
    27  H   -0.030004   0.359077  -0.042526  -0.002595  -0.001295  -0.000025
    28  H   -0.001450  -0.037252   0.365687  -0.037030   0.005796  -0.000021
    29  H   -0.001860  -0.035179   0.366813  -0.029688  -0.009096  -0.000019
    30  H   -0.000034  -0.003632  -0.040587   0.364608  -0.047166  -0.000787
    31  H    0.000000  -0.000049   0.000135  -0.009927   0.000339   0.000001
    32  H    0.000000  -0.000000   0.000000  -0.000178   0.000002   0.000000
    33  H   -0.000000  -0.000000   0.000000   0.000007   0.000000   0.000000
    34  H    0.000000  -0.000000  -0.000001  -0.000180  -0.000001   0.000000
    35  H   -0.000000  -0.000036   0.000125  -0.010056   0.009060   0.001884
    36  H   -0.045636  -0.009492   0.000273  -0.000042   0.000018   0.000003
              13         14         15         16         17         18
     1  C   -0.000000  -0.000000  -0.000000   0.000000  -0.000000  -0.000000
     2  O    0.000000  -0.000000   0.000000  -0.000000   0.000000   0.000000
     3  C   -0.000000   0.000000  -0.000000   0.000000   0.000000  -0.000000
     4  C    0.000000   0.000000   0.000000  -0.000000   0.000000   0.000000
     5  C   -0.000000  -0.000000  -0.000000   0.000000   0.000000   0.000000
     6  C   -0.000003  -0.000001  -0.000000   0.000000   0.000000  -0.000000
     7  C   -0.000088  -0.000005   0.000000   0.000000  -0.000000  -0.000003
     8  C    0.003664   0.000090   0.000002  -0.000000   0.000001   0.000053
     9  C   -0.040145  -0.004610  -0.000142   0.000020   0.000013  -0.003344
    10  C    0.341908  -0.045761   0.006010   0.000474   0.005947  -0.061786
    11  C   -0.030447   0.002797  -0.000223   0.000008   0.000200  -0.006843
    12  N   -0.002332  -0.000074  -0.000000   0.000000   0.000017  -0.001369
    13  C    4.678881   0.541272  -0.018169  -0.034759  -0.017369   0.541796
    14  C    0.541272   4.955435   0.527273  -0.036440  -0.044665  -0.042867
    15  C   -0.018169   0.527273   4.860347   0.550379  -0.025407  -0.046062
    16  C   -0.034759  -0.036440   0.550379   4.847651   0.549901  -0.036516
    17  C   -0.017369  -0.044665  -0.025407   0.549901   4.860230   0.524039
    18  C    0.541796  -0.042867  -0.046062  -0.036516   0.524039   4.966490
    19  C   -0.000002  -0.000000  -0.000000   0.000000  -0.000000  -0.000001
    20  H    0.000000   0.000000   0.000000  -0.000000   0.000000   0.000000
    21  H   -0.000000  -0.000000   0.000000   0.000000  -0.000000   0.000000
    22  H    0.000000   0.000000  -0.000000  -0.000000   0.000000  -0.000000
    23  H   -0.000000   0.000000   0.000000  -0.000000   0.000000   0.000000
    24  H    0.000000   0.000000   0.000000  -0.000000   0.000000   0.000000
    25  H    0.000001   0.000000   0.000000   0.000000   0.000000  -0.000000
    26  H    0.000067  -0.000001  -0.000000   0.000000  -0.000000  -0.000005
    27  H    0.000032  -0.000005   0.000000   0.000000  -0.000000   0.000004
    28  H   -0.001180   0.004001  -0.000161  -0.000000  -0.000037  -0.000232
    29  H   -0.004153  -0.000161   0.000010  -0.000008  -0.000049   0.004293
    30  H   -0.034012  -0.006219   0.000158   0.000005  -0.000158   0.005103
    31  H   -0.048180   0.354980  -0.043760   0.004822   0.000306   0.006111
    32  H    0.003886  -0.039514   0.357497  -0.042369   0.004499   0.000839
    33  H    0.000699   0.004750  -0.042905   0.359775  -0.042479   0.004737
    34  H    0.003479   0.000883   0.004502  -0.042199   0.358064  -0.038505
    35  H   -0.045653   0.005745   0.000352   0.004459  -0.040032   0.355147
    36  H    0.000001   0.000000   0.000000   0.000000   0.000000  -0.000000
              19         20         21         22         23         24
     1  C    0.004035   0.386583   0.362622   0.362468   0.006143  -0.000007
     2  O   -0.049233  -0.033624  -0.035396  -0.035596  -0.007765  -0.000052
     3  C    0.513967   0.003262  -0.004437  -0.004430  -0.046059   0.002990
     4  C   -0.076372   0.000249   0.004662   0.004757   0.353867  -0.039342
     5  C   -0.044074   0.000001  -0.000169  -0.000145  -0.040160   0.354234
     6  C   -0.045085   0.000000  -0.000007  -0.000007   0.004380  -0.037476
     7  C    0.537747   0.000002   0.000008  -0.000001   0.000659   0.003492
     8  C   -0.051693  -0.000000  -0.000000   0.000000   0.000007  -0.000203
     9  C   -0.004039  -0.000000   0.000000  -0.000000   0.000000  -0.000001
    10  C    0.000094  -0.000000   0.000000  -0.000000   0.000000  -0.000000
    11  C   -0.000032  -0.000000  -0.000000   0.000000   0.000000  -0.000000
    12  N   -0.000005   0.000000  -0.000000   0.000000   0.000000  -0.000000
    13  C   -0.000002   0.000000  -0.000000   0.000000  -0.000000   0.000000
    14  C   -0.000000   0.000000  -0.000000   0.000000   0.000000   0.000000
    15  C   -0.000000   0.000000   0.000000  -0.000000   0.000000   0.000000
    16  C    0.000000  -0.000000   0.000000  -0.000000  -0.000000  -0.000000
    17  C   -0.000000   0.000000  -0.000000   0.000000   0.000000   0.000000
    18  C   -0.000001   0.000000   0.000000  -0.000000   0.000000   0.000000
    19  C    5.090118  -0.000105   0.000044   0.000023   0.004518   0.001043
    20  H   -0.000105   0.537127  -0.031738  -0.031984  -0.000092  -0.000000
    21  H    0.000044  -0.031738   0.600565  -0.049824   0.001758   0.000002
    22  H    0.000023  -0.031984  -0.049824   0.601781   0.001776   0.000003
    23  H    0.004518  -0.000092   0.001758   0.001776   0.596673  -0.005544
    24  H    0.001043  -0.000000   0.000002   0.000003  -0.005544   0.597124
    25  H    0.005958  -0.000000   0.000000   0.000000  -0.000173  -0.005352
    26  H   -0.003864  -0.000000   0.000000  -0.000000  -0.000000   0.000003
    27  H    0.003550   0.000000  -0.000000   0.000000  -0.000000  -0.000005
    28  H   -0.000036  -0.000000   0.000000  -0.000000  -0.000000   0.000004
    29  H    0.003675   0.000000  -0.000000   0.000000  -0.000000   0.000000
    30  H    0.000001   0.000000   0.000000  -0.000000   0.000000  -0.000000
    31  H   -0.000000  -0.000000  -0.000000   0.000000  -0.000000  -0.000000
    32  H    0.000000  -0.000000   0.000000  -0.000000   0.000000  -0.000000
    33  H    0.000000   0.000000  -0.000000   0.000000  -0.000000   0.000000
    34  H    0.000000  -0.000000  -0.000000   0.000000   0.000000  -0.000000
    35  H    0.000000  -0.000000   0.000000  -0.000000  -0.000000  -0.000000
    36  H    0.343146  -0.000029   0.000029   0.000032  -0.000162   0.000018
              25         26         27         28         29         30
     1  C   -0.000000   0.000000  -0.000000  -0.000000  -0.000000  -0.000000
     2  O    0.000002  -0.000001   0.000000   0.000000  -0.000000   0.000000
     3  C    0.000438   0.000056  -0.000182  -0.000009  -0.000109  -0.000000
     4  C    0.005183   0.000001   0.000015  -0.000006  -0.000002  -0.000000
     5  C   -0.045112  -0.000190   0.000096  -0.000131  -0.000011   0.000000
     6  C    0.355564   0.003690  -0.004721   0.003858  -0.000119   0.000001
     7  C   -0.047429  -0.026501  -0.030004  -0.001450  -0.001860  -0.000034
     8  C   -0.009103   0.358747   0.359077  -0.037252  -0.035179  -0.003632
     9  C    0.000285  -0.036424  -0.042526   0.365687   0.366813  -0.040587
    10  C   -0.000055  -0.006501  -0.002595  -0.037030  -0.029688   0.364608
    11  C   -0.000000   0.009483  -0.001295   0.005796  -0.009096  -0.047166
    12  N    0.000000   0.001976  -0.000025  -0.000021  -0.000019  -0.000787
    13  C    0.000001   0.000067   0.000032  -0.001180  -0.004153  -0.034012
    14  C    0.000000  -0.000001  -0.000005   0.004001  -0.000161  -0.006219
    15  C    0.000000  -0.000000   0.000000  -0.000161   0.000010   0.000158
    16  C    0.000000   0.000000   0.000000  -0.000000  -0.000008   0.000005
    17  C    0.000000  -0.000000  -0.000000  -0.000037  -0.000049  -0.000158
    18  C   -0.000000  -0.000005   0.000004  -0.000232   0.004293   0.005103
    19  C    0.005958  -0.003864   0.003550  -0.000036   0.003675   0.000001
    20  H   -0.000000  -0.000000   0.000000  -0.000000   0.000000   0.000000
    21  H    0.000000   0.000000  -0.000000   0.000000  -0.000000   0.000000
    22  H    0.000000  -0.000000   0.000000  -0.000000   0.000000  -0.000000
    23  H   -0.000173  -0.000000  -0.000000  -0.000000  -0.000000   0.000000
    24  H   -0.005352   0.000003  -0.000005   0.000004   0.000000  -0.000000
    25  H    0.617945   0.000070   0.005103   0.000792   0.000035   0.000003
    26  H    0.000070   0.555586  -0.033650   0.005388  -0.004406  -0.000389
    27  H    0.005103  -0.033650   0.598018  -0.004293   0.005593   0.005746
    28  H    0.000792   0.005388  -0.004293   0.574162  -0.032023  -0.003728
    29  H    0.000035  -0.004406   0.005593  -0.032023   0.567625   0.005577
    30  H    0.000003  -0.000389   0.005746  -0.003728   0.005577   0.567501
    31  H    0.000000   0.000001   0.000000   0.000768   0.000008   0.006310
    32  H   -0.000000  -0.000000  -0.000000   0.000002   0.000000  -0.000008
    33  H   -0.000000   0.000000   0.000000  -0.000000  -0.000000  -0.000000
    34  H   -0.000000  -0.000000   0.000000   0.000000   0.000002   0.000003
    35  H   -0.000000  -0.000001   0.000000   0.000056   0.000805   0.000172
    36  H   -0.000151   0.004847   0.000096   0.000033   0.000582   0.000000
              31         32         33         34         35         36
     1  C    0.000000   0.000000  -0.000000   0.000000   0.000000  -0.000226
     2  O   -0.000000  -0.000000  -0.000000  -0.000000  -0.000000   0.000524
     3  C    0.000000   0.000000   0.000000   0.000000   0.000000  -0.038671
     4  C    0.000000  -0.000000  -0.000000  -0.000000  -0.000000   0.007522
     5  C   -0.000000   0.000000   0.000000   0.000000   0.000000  -0.000184
     6  C    0.000000   0.000000   0.000000   0.000000   0.000000   0.006128
     7  C    0.000000   0.000000  -0.000000   0.000000  -0.000000  -0.045636
     8  C   -0.000049  -0.000000  -0.000000  -0.000000  -0.000036  -0.009492
     9  C    0.000135   0.000000   0.000000  -0.000001   0.000125   0.000273
    10  C   -0.009927  -0.000178   0.000007  -0.000180  -0.010056  -0.000042
    11  C    0.000339   0.000002   0.000000  -0.000001   0.009060   0.000018
    12  N    0.000001   0.000000   0.000000   0.000000   0.001884   0.000003
    13  C   -0.048180   0.003886   0.000699   0.003479  -0.045653   0.000001
    14  C    0.354980  -0.039514   0.004750   0.000883   0.005745   0.000000
    15  C   -0.043760   0.357497  -0.042905   0.004502   0.000352   0.000000
    16  C    0.004822  -0.042369   0.359775  -0.042199   0.004459   0.000000
    17  C    0.000306   0.004499  -0.042479   0.358064  -0.040032   0.000000
    18  C    0.006111   0.000839   0.004737  -0.038505   0.355147  -0.000000
    19  C   -0.000000   0.000000   0.000000   0.000000   0.000000   0.343146
    20  H   -0.000000  -0.000000   0.000000  -0.000000  -0.000000  -0.000029
    21  H   -0.000000   0.000000  -0.000000  -0.000000   0.000000   0.000029
    22  H    0.000000  -0.000000   0.000000   0.000000  -0.000000   0.000032
    23  H   -0.000000   0.000000  -0.000000   0.000000  -0.000000  -0.000162
    24  H   -0.000000  -0.000000   0.000000  -0.000000  -0.000000   0.000018
    25  H    0.000000  -0.000000  -0.000000  -0.000000  -0.000000  -0.000151
    26  H    0.000001  -0.000000   0.000000  -0.000000  -0.000001   0.004847
    27  H    0.000000  -0.000000   0.000000   0.000000   0.000000   0.000096
    28  H    0.000768   0.000002  -0.000000   0.000000   0.000056   0.000033
    29  H    0.000008   0.000000  -0.000000   0.000002   0.000805   0.000582
    30  H    0.006310  -0.000008  -0.000000   0.000003   0.000172   0.000000
    31  H    0.606765  -0.005618  -0.000177   0.000017  -0.000158  -0.000000
    32  H   -0.005618   0.591712  -0.005466  -0.000184   0.000017  -0.000000
    33  H   -0.000177  -0.005466   0.592027  -0.005427  -0.000168   0.000000
    34  H    0.000017  -0.000184  -0.005427   0.586472  -0.005060  -0.000000
    35  H   -0.000158   0.000017  -0.000168  -0.005060   0.572076  -0.000000
    36  H   -0.000000  -0.000000   0.000000  -0.000000  -0.000000   0.593758
 Mulliken charges:
               1
     1  C   -0.214647
     2  O   -0.506853
     3  C    0.380345
     4  C   -0.197994
     5  C   -0.136022
     6  C   -0.182182
     7  C    0.169222
     8  C   -0.366556
     9  C   -0.246010
    10  C   -0.252184
    11  C    0.359437
    12  N   -0.484919
    13  C    0.160807
    14  C   -0.176902
    15  C   -0.129700
    16  C   -0.125202
    17  C   -0.133021
    18  C   -0.171079
    19  C   -0.233380
    20  H    0.170347
    21  H    0.151879
    22  H    0.151146
    23  H    0.130173
    24  H    0.129068
    25  H    0.115995
    26  H    0.172020
    27  H    0.141969
    28  H    0.157040
    29  H    0.161864
    30  H    0.181532
    31  H    0.127307
    32  H    0.134885
    33  H    0.134627
    34  H    0.138137
    35  H    0.151267
    36  H    0.137585
 Sum of Mulliken charges =  -0.00000
 Mulliken charges with hydrogens summed into heavy atoms:
               1
     1  C    0.258725
     2  O   -0.506853
     3  C    0.380345
     4  C   -0.067821
     5  C   -0.006953
     6  C   -0.066187
     7  C    0.169222
     8  C   -0.052568
     9  C    0.072895
    10  C   -0.070652
    11  C    0.359437
    12  N   -0.484919
    13  C    0.160807
    14  C   -0.049595
    15  C    0.005185
    16  C    0.009424
    17  C    0.005116
    18  C   -0.019812
    19  C   -0.095795
 Electronic spatial extent (au):  <R**2>=           7888.9870
 Charge=             -0.0000 electrons
 Dipole moment (field-independent basis, Debye):
    X=             -1.1115    Y=              0.8201    Z=             -4.4242  Tot=              4.6348
 Quadrupole moment (field-independent basis, Debye-Ang):
   XX=            -92.6437   YY=           -103.3210   ZZ=           -126.0546
   XY=              4.7357   XZ=             -6.0006   YZ=              0.8093
 Traceless Quadrupole moment (field-independent basis, Debye-Ang):
   XX=             14.6961   YY=              4.0188   ZZ=            -18.7149
   XY=              4.7357   XZ=             -6.0006   YZ=              0.8093
 Octapole moment (field-independent basis, Debye-Ang**2):
  XXX=           -141.3999  YYY=             -3.0911  ZZZ=           -115.9841  XYY=             -8.5988
  XXY=            -45.2369  XXZ=            -91.8149  XZZ=            -51.0535  YZZ=             12.3893
  YYZ=            -20.2573  XYZ=              2.9398
 Hexadecapole moment (field-independent basis, Debye-Ang**3):
 XXXX=          -7653.3903 YYYY=           -931.5157 ZZZZ=          -1482.4577 XXXY=            148.2398
 XXXZ=           -157.6645 YYYX=              5.2910 YYYZ=             23.0352 ZZZX=           -218.3757
 ZZZY=             54.3018 XXYY=          -1433.4341 XXZZ=          -1629.2794 YYZZ=           -353.9984
 XXYZ=             24.7702 YYXZ=             -8.8036 ZZXY=             13.0812
 N-N= 1.245929162869D+03 E-N=-4.319209670960D+03  KE= 7.804315474514D+02
 Leave Link  601 at Sat Nov  5 12:12:24 2022, MaxMem=   402653184 cpu:               1.4 elap:               0.2
 (Enter /home/wykgroup/appl/g16/l9999.exe)
 Electronic transition elements 
                 1             2             3             4 
      1  -0.787867D+03 -0.787865D+03 -0.787818D+03 -0.787809D+03
      2   0.000000D+00  0.000000D+00 -0.407586D+00  0.326083D-01
      3   0.000000D+00  0.000000D+00  0.142973D+00  0.157391D-01
      4   0.000000D+00  0.000000D+00 -0.262520D+00  0.113778D+00
      5   0.000000D+00  0.000000D+00  0.778598D-01 -0.101633D-01
      6   0.000000D+00  0.000000D+00 -0.239799D-01 -0.466009D-02
      7   0.000000D+00  0.000000D+00  0.495606D-01 -0.229071D-01
      8   0.000000D+00  0.000000D+00  0.208799D+00 -0.870994D-01
      9   0.000000D+00  0.000000D+00  0.168013D+00  0.101368D+00
     10   0.000000D+00  0.000000D+00 -0.226593D+00  0.184055D+00
     11   0.000000D+00  0.000000D+00 -0.420449D+00  0.464554D+00
     12   0.000000D+00  0.000000D+00 -0.288905D-01 -0.787241D-02
     13   0.000000D+00  0.000000D+00 -0.257221D-01  0.290123D-01
     14   0.000000D+00  0.000000D+00  0.149062D+00  0.247424D-01
     15   0.000000D+00  0.000000D+00 -0.372753D+00  0.934981D-01
     16   0.000000D+00  0.000000D+00  0.576763D-01 -0.433409D-02
 1\1\GINC-NODE91\SP\RB3LYP TD-FC\6-31G(d)\C17H17N1O1\WYKGROUP\05-Nov-20
 22\0\\#p b3lyp/6-31g(d) 6D 10F nosymm GFInput td=(50-50,nstate=2) SCF=
 XQC\\Gaussian input prepared by ASE\\0,1\C,0,-5.6542984217,-1.91063052
 98,-0.2299112689\O,0,-4.4304621356,-1.5989021115,0.4149003402\C,0,-3.7
 468984955,-0.4902066548,0.003494412\C,0,-4.1645449613,0.3672867235,-1.
 0204675873\C,0,-3.3733917058,1.4740805969,-1.3430955282\C,0,-2.1856065
 439,1.7297491008,-0.6650956749\C,0,-1.7619666402,0.8712390742,0.362611
 582\C,0,-0.4511671925,1.1132657648,1.0820634732\C,0,0.7360902898,0.445
 2391641,0.3629793358\C,0,2.1099127452,0.6998696968,1.0479947232\C,0,2.
 1022186914,0.1808870364,2.4255954215\N,0,2.07172105,-0.2420684667,3.50
 66805758\C,0,3.2628961819,0.1227306375,0.2290239864\C,0,3.9061102112,0
 .9328521382,-0.7139065862\C,0,4.9212227346,0.4163395615,-1.5196461326\
 C,0,5.3069967269,-0.9185669271,-1.3881581519\C,0,4.6727778627,-1.73117
 68747,-0.4468947608\C,0,3.6561325508,-1.2144779035,0.3569347735\C,0,-2
 .5500609801,-0.2322373426,0.6873601757\H,0,-6.0233382299,-2.8184620929
 ,0.2509597707\H,0,-6.3936695583,-1.1083220912,-0.1044782819\H,0,-5.510
 0462273,-2.1018466638,-1.301756377\H,0,-5.0878630776,0.1902487146,-1.5
 598095171\H,0,-3.6999897197,2.1442511999,-2.1342019913\H,0,-1.58638299
 58,2.5992393351,-0.9245708174\H,0,-0.5125841285,0.7328374169,2.1083964
 599\H,0,-0.2640520598,2.1931446951,1.1553087952\H,0,0.8102584324,0.821
 7879239,-0.6637262275\H,0,0.570368454,-0.6358169248,0.2904161623\H,0,2
 .2512129132,1.7868676717,1.1231433005\H,0,3.6125934911,1.975422315,-0.
 8173753832\H,0,5.4138846587,1.058910226,-2.2443823291\H,0,6.1006473797
 ,-1.3214711223,-2.0113240409\H,0,4.9716545316,-2.7696538741,-0.3331415
 019\H,0,3.1767542806,-1.8490857134,1.0977409231\H,0,-2.2571291125,-0.9
 133246993,1.481849947\\Version=ES64L-G16RevB.01\HF=-788.0030434\RMSD=4
 .492e-09\PG=C01 [X(C17H17N1O1)]\\@


            THE IRISH PIG
 'TWAS AN EVENING IN NOVEMBER,
 AS I VERY WELL REMEMBER
 I WAS STROLLING DOWN THE STREET IN DRUNKEN PRIDE,
 BUT MY KNEES WERE ALL A'FLUTTER
 SO I LANDED IN THE GUTTER,
 AND A PIG CAME UP AND LAY DOWN BY MY SIDE.

 YES, I LAY THERE IN THE GUTTER
 THINKING THOUGHTS I COULD NOT UTTER
 WHEN A COLLEEN PASSING BY DID SOFTLY SAY,
 'YE CAN TELL A MAN THAT BOOZES
 BY THE COMPANY THAT HE CHOOSES.' -
 AT THAT, THE PIG GOT UP AND WALKED AWAY!
     -- THE ECONOMIST, AUGUST 23, 1986
 Job cpu time:       0 days  0 hours 45 minutes 41.8 seconds.
 Elapsed time:       0 days  0 hours  3 minutes 21.7 seconds.
 File lengths (MBytes):  RWF=    642 Int=      0 D2E=      0 Chk=     23 Scr=      1
 Normal termination of Gaussian 16 at Sat Nov  5 12:12:24 2022.
