 Entering Gaussian System, Link 0=/home/wykgroup/appl/g16/g16
 Input=./calculation/no_transfer_pubchem_sampling_4_b3lyp/129363522.com
 Output=./calculation/no_transfer_pubchem_sampling_4_b3lyp/129363522.log
 Initial command:
 /home/wykgroup/appl/g16/l1.exe "/userdata/scratch/wykgroup/khs/./calculation/no_transfer_pubchem_sampling_4_b3lyp/129363522/Gau-14469.inp" -scrdir="/userdata/scratch/wykgroup/khs/./calculation/no_transfer_pubchem_sampling_4_b3lyp/129363522/"
 Entering Link 1 = /home/wykgroup/appl/g16/l1.exe PID=     14470.
  
 Copyright (c) 1988-2017, Gaussian, Inc.  All Rights Reserved.
  
 This is part of the Gaussian(R) 16 program.  It is based on
 the Gaussian(R) 09 system (copyright 2009, Gaussian, Inc.),
 the Gaussian(R) 03 system (copyright 2003, Gaussian, Inc.),
 the Gaussian(R) 98 system (copyright 1998, Gaussian, Inc.),
 the Gaussian(R) 94 system (copyright 1995, Gaussian, Inc.),
 the Gaussian 92(TM) system (copyright 1992, Gaussian, Inc.),
 the Gaussian 90(TM) system (copyright 1990, Gaussian, Inc.),
 the Gaussian 88(TM) system (copyright 1988, Gaussian, Inc.),
 the Gaussian 86(TM) system (copyright 1986, Carnegie Mellon
 University), and the Gaussian 82(TM) system (copyright 1983,
 Carnegie Mellon University). Gaussian is a federally registered
 trademark of Gaussian, Inc.
  
 This software contains proprietary and confidential information,
 including trade secrets, belonging to Gaussian, Inc.
  
 This software is provided under written license and may be
 used, copied, transmitted, or stored only in accord with that
 written license.
  
 The following legend is applicable only to US Government
 contracts under FAR:
  
                    RESTRICTED RIGHTS LEGEND
  
 Use, reproduction and disclosure by the US Government is
 subject to restrictions as set forth in subparagraphs (a)
 and (c) of the Commercial Computer Software - Restricted
 Rights clause in FAR 52.227-19.
  
 Gaussian, Inc.
 340 Quinnipiac St., Bldg. 40, Wallingford CT 06492
  
  
 ---------------------------------------------------------------
 Warning -- This program may not be used in any manner that
 competes with the business of Gaussian, Inc. or will provide
 assistance to any competitor of Gaussian, Inc.  The licensee
 of this program is prohibited from giving any competitor of
 Gaussian, Inc. access to this program.  By using this program,
 the user acknowledges that Gaussian, Inc. is engaged in the
 business of creating and licensing software in the field of
 computational chemistry and represents and warrants to the
 licensee that it is not a competitor of Gaussian, Inc. and that
 it will not use this program in any manner prohibited above.
 ---------------------------------------------------------------
  

 Cite this work as:
 Gaussian 16, Revision B.01,
 M. J. Frisch, G. W. Trucks, H. B. Schlegel, G. E. Scuseria, 
 M. A. Robb, J. R. Cheeseman, G. Scalmani, V. Barone, 
 G. A. Petersson, H. Nakatsuji, X. Li, M. Caricato, A. V. Marenich, 
 J. Bloino, B. G. Janesko, R. Gomperts, B. Mennucci, H. P. Hratchian, 
 J. V. Ortiz, A. F. Izmaylov, J. L. Sonnenberg, D. Williams-Young, 
 F. Ding, F. Lipparini, F. Egidi, J. Goings, B. Peng, A. Petrone, 
 T. Henderson, D. Ranasinghe, V. G. Zakrzewski, J. Gao, N. Rega, 
 G. Zheng, W. Liang, M. Hada, M. Ehara, K. Toyota, R. Fukuda, 
 J. Hasegawa, M. Ishida, T. Nakajima, Y. Honda, O. Kitao, H. Nakai, 
 T. Vreven, K. Throssell, J. A. Montgomery, Jr., J. E. Peralta, 
 F. Ogliaro, M. J. Bearpark, J. J. Heyd, E. N. Brothers, K. N. Kudin, 
 V. N. Staroverov, T. A. Keith, R. Kobayashi, J. Normand, 
 K. Raghavachari, A. P. Rendell, J. C. Burant, S. S. Iyengar, 
 J. Tomasi, M. Cossi, J. M. Millam, M. Klene, C. Adamo, R. Cammi, 
 J. W. Ochterski, R. L. Martin, K. Morokuma, O. Farkas, 
 J. B. Foresman, and D. J. Fox, Gaussian, Inc., Wallingford CT, 2016.
 
 ******************************************
 Gaussian 16:  ES64L-G16RevB.01 20-Dec-2017
                 4-Nov-2022 
 ******************************************
 %chk=./calculation/no_transfer_pubchem_sampling_4_b3lyp/129363522.chk
 %nprocshared=7
 Will use up to    7 processors via shared memory.
 %mem=6GB
 -----------------------------
 #p b3lyp/6-31g(d) opt SCF=XQC
 -----------------------------
 1/18=20,19=15,26=3,38=1/1,3;
 2/9=110,12=2,17=6,18=5,40=1/2;
 3/5=1,6=6,7=1,11=2,25=1,30=1,71=1,74=-5/1,2,3;
 4//1;
 5/5=2,8=3,13=1,38=5/2,8;
 6/7=2,8=2,9=2,10=2,28=1/1;
 7//1,2,3,16;
 1/18=20,19=15,26=3/3(2);
 2/9=110/2;
 99//99;
 2/9=110/2;
 3/5=1,6=6,7=1,11=2,25=1,30=1,71=1,74=-5/1,2,3;
 4/5=5,16=3,69=1/1;
 5/5=2,8=3,13=1,38=5/2,8;
 7//1,2,3,16;
 1/18=20,19=15,26=3/3(-5);
 2/9=110/2;
 6/7=2,8=2,9=2,10=2,19=2,28=1/1;
 99/9=1/99;
 Leave Link    1 at Fri Nov  4 20:39:10 2022, MaxMem=   805306368 cpu:               1.1 elap:               0.2
 (Enter /home/wykgroup/appl/g16/l101.exe)
 ------------------------------
 Gaussian input prepared by ASE
 ------------------------------
 Symbolic Z-matrix:
 Charge =  0 Multiplicity = 1
 C                    -5.49843  -2.00335  -0.1889 
 O                    -4.28658  -1.64481   0.42763 
 C                    -3.6572   -0.50833   0.01644 
 C                    -4.11363   0.33758  -0.98763 
 C                    -3.37937   1.46616  -1.31391 
 C                    -2.20169   1.76201  -0.65673 
 C                    -1.73807   0.92424   0.35217 
 C                    -0.438     1.20968   1.04932 
 C                     0.71372   0.51414   0.31637 
 C                     2.07003   0.76389   1.00525 
 C                     2.0576    0.20502   2.33738 
 N                     2.04711  -0.23843   3.3912 
 C                     3.19496   0.15224   0.19995 
 C                     4.00041   0.95173  -0.59864 
 C                     5.00698   0.38759  -1.36261 
 C                     5.21808  -0.98003  -1.33262 
 C                     4.41837  -1.78218  -0.53627 
 C                     3.40972  -1.21993   0.22523 
 C                    -2.46737  -0.20473   0.67747 
 H                    -5.81455  -2.92511   0.29705 
 H                    -6.26661  -1.2367   -0.04358 
 H                    -5.36675  -2.18691  -1.26043 
 H                    -5.03061   0.13375  -1.51737 
 H                    -3.73958   2.12073  -2.09417 
 H                    -1.64264   2.64749  -0.92118 
 H                    -0.47889   0.84753   2.07878 
 H                    -0.25705   2.28707   1.07085 
 H                     0.77321   0.88288  -0.71042 
 H                     0.52176  -0.56011   0.27473 
 H                     2.22935   1.84546   1.09949 
 H                     3.84221   2.02102  -0.62399 
 H                     5.6287    1.01862  -1.98054 
 H                     6.00549  -1.41934  -1.92669 
 H                     4.58069  -2.84934  -0.50648 
 H                     2.79161  -1.8473    0.85148 
 H                    -2.13297  -0.87222   1.45686 
 
 ITRead=  0  0  0  0  0  0  0  0  0  0  0  0  0  0  0  0  0  0  0  0
 ITRead=  0  0  0  0  0  0  0  0  0  0  0  0  0  0  0  0
 MicOpt= -1 -1 -1 -1 -1 -1 -1 -1 -1 -1 -1 -1 -1 -1 -1 -1 -1 -1 -1 -1
 MicOpt= -1 -1 -1 -1 -1 -1 -1 -1 -1 -1 -1 -1 -1 -1 -1 -1
 NAtoms=     36 NQM=       36 NQMF=       0 NMMI=      0 NMMIF=      0
                NMic=       0 NMicF=      0.
                    Isotopes and Nuclear Properties:
 (Nuclear quadrupole moments (NQMom) in fm**2, nuclear magnetic moments (NMagM)
  in nuclear magnetons)

  Atom         1           2           3           4           5           6           7           8           9          10
 IAtWgt=          12          16          12          12          12          12          12          12          12          12
 AtmWgt=  12.0000000  15.9949146  12.0000000  12.0000000  12.0000000  12.0000000  12.0000000  12.0000000  12.0000000  12.0000000
 NucSpn=           0           0           0           0           0           0           0           0           0           0
 AtZEff=  -0.0000000  -0.0000000  -0.0000000  -0.0000000  -0.0000000  -0.0000000  -0.0000000  -0.0000000  -0.0000000  -0.0000000
 NQMom=    0.0000000   0.0000000   0.0000000   0.0000000   0.0000000   0.0000000   0.0000000   0.0000000   0.0000000   0.0000000
 NMagM=    0.0000000   0.0000000   0.0000000   0.0000000   0.0000000   0.0000000   0.0000000   0.0000000   0.0000000   0.0000000
 AtZNuc=   6.0000000   8.0000000   6.0000000   6.0000000   6.0000000   6.0000000   6.0000000   6.0000000   6.0000000   6.0000000

  Atom        11          12          13          14          15          16          17          18          19          20
 IAtWgt=          12          14          12          12          12          12          12          12          12           1
 AtmWgt=  12.0000000  14.0030740  12.0000000  12.0000000  12.0000000  12.0000000  12.0000000  12.0000000  12.0000000   1.0078250
 NucSpn=           0           2           0           0           0           0           0           0           0           1
 AtZEff=  -0.0000000  -0.0000000  -0.0000000  -0.0000000  -0.0000000  -0.0000000  -0.0000000  -0.0000000  -0.0000000  -0.0000000
 NQMom=    0.0000000   2.0440000   0.0000000   0.0000000   0.0000000   0.0000000   0.0000000   0.0000000   0.0000000   0.0000000
 NMagM=    0.0000000   0.4037610   0.0000000   0.0000000   0.0000000   0.0000000   0.0000000   0.0000000   0.0000000   2.7928460
 AtZNuc=   6.0000000   7.0000000   6.0000000   6.0000000   6.0000000   6.0000000   6.0000000   6.0000000   6.0000000   1.0000000

  Atom        21          22          23          24          25          26          27          28          29          30
 IAtWgt=           1           1           1           1           1           1           1           1           1           1
 AtmWgt=   1.0078250   1.0078250   1.0078250   1.0078250   1.0078250   1.0078250   1.0078250   1.0078250   1.0078250   1.0078250
 NucSpn=           1           1           1           1           1           1           1           1           1           1
 AtZEff=  -0.0000000  -0.0000000  -0.0000000  -0.0000000  -0.0000000  -0.0000000  -0.0000000  -0.0000000  -0.0000000  -0.0000000
 NQMom=    0.0000000   0.0000000   0.0000000   0.0000000   0.0000000   0.0000000   0.0000000   0.0000000   0.0000000   0.0000000
 NMagM=    2.7928460   2.7928460   2.7928460   2.7928460   2.7928460   2.7928460   2.7928460   2.7928460   2.7928460   2.7928460
 AtZNuc=   1.0000000   1.0000000   1.0000000   1.0000000   1.0000000   1.0000000   1.0000000   1.0000000   1.0000000   1.0000000

  Atom        31          32          33          34          35          36
 IAtWgt=           1           1           1           1           1           1
 AtmWgt=   1.0078250   1.0078250   1.0078250   1.0078250   1.0078250   1.0078250
 NucSpn=           1           1           1           1           1           1
 AtZEff=  -0.0000000  -0.0000000  -0.0000000  -0.0000000  -0.0000000  -0.0000000
 NQMom=    0.0000000   0.0000000   0.0000000   0.0000000   0.0000000   0.0000000
 NMagM=    2.7928460   2.7928460   2.7928460   2.7928460   2.7928460   2.7928460
 AtZNuc=   1.0000000   1.0000000   1.0000000   1.0000000   1.0000000   1.0000000
 Leave Link  101 at Fri Nov  4 20:39:10 2022, MaxMem=   805306368 cpu:               1.6 elap:               0.3
 (Enter /home/wykgroup/appl/g16/l103.exe)

 GradGradGradGradGradGradGradGradGradGradGradGradGradGradGradGradGradGrad
 Berny optimization.
 Initialization pass.
                           ----------------------------
                           !    Initial Parameters    !
                           ! (Angstroms and Degrees)  !
 --------------------------                            --------------------------
 ! Name  Definition              Value          Derivative Info.                !
 --------------------------------------------------------------------------------
 ! R1    R(1,2)                  1.4061         estimate D2E/DX2                !
 ! R2    R(1,20)                 1.0889         estimate D2E/DX2                !
 ! R3    R(1,21)                 1.095          estimate D2E/DX2                !
 ! R4    R(1,22)                 1.0951         estimate D2E/DX2                !
 ! R5    R(2,3)                  1.3626         estimate D2E/DX2                !
 ! R6    R(3,4)                  1.39           estimate D2E/DX2                !
 ! R7    R(3,19)                 1.3946         estimate D2E/DX2                !
 ! R8    R(4,5)                  1.3854         estimate D2E/DX2                !
 ! R9    R(4,23)                 1.0784         estimate D2E/DX2                !
 ! R10   R(5,6)                  1.3807         estimate D2E/DX2                !
 ! R11   R(5,24)                 1.0803         estimate D2E/DX2                !
 ! R12   R(6,7)                  1.3909         estimate D2E/DX2                !
 ! R13   R(6,25)                 1.0801         estimate D2E/DX2                !
 ! R14   R(7,8)                  1.5026         estimate D2E/DX2                !
 ! R15   R(7,19)                 1.3828         estimate D2E/DX2                !
 ! R16   R(8,9)                  1.5321         estimate D2E/DX2                !
 ! R17   R(8,26)                 1.0921         estimate D2E/DX2                !
 ! R18   R(8,27)                 1.0927         estimate D2E/DX2                !
 ! R19   R(9,10)                 1.5416         estimate D2E/DX2                !
 ! R20   R(9,28)                 1.0926         estimate D2E/DX2                !
 ! R21   R(9,29)                 1.0921         estimate D2E/DX2                !
 ! R22   R(10,11)                1.4447         estimate D2E/DX2                !
 ! R23   R(10,13)                1.5126         estimate D2E/DX2                !
 ! R24   R(10,30)                1.0973         estimate D2E/DX2                !
 ! R25   R(11,12)                1.1434         estimate D2E/DX2                !
 ! R26   R(13,14)                1.3877         estimate D2E/DX2                !
 ! R27   R(13,18)                1.3891         estimate D2E/DX2                !
 ! R28   R(14,15)                1.3839         estimate D2E/DX2                !
 ! R29   R(14,31)                1.0812         estimate D2E/DX2                !
 ! R30   R(15,16)                1.3841         estimate D2E/DX2                !
 ! R31   R(15,32)                1.0801         estimate D2E/DX2                !
 ! R32   R(16,17)                1.3846         estimate D2E/DX2                !
 ! R33   R(16,33)                1.0798         estimate D2E/DX2                !
 ! R34   R(17,18)                1.3832         estimate D2E/DX2                !
 ! R35   R(17,34)                1.0798         estimate D2E/DX2                !
 ! R36   R(18,35)                1.0807         estimate D2E/DX2                !
 ! R37   R(19,36)                1.0793         estimate D2E/DX2                !
 ! A1    A(2,1,20)             105.6859         estimate D2E/DX2                !
 ! A2    A(2,1,21)             111.5861         estimate D2E/DX2                !
 ! A3    A(2,1,22)             111.6003         estimate D2E/DX2                !
 ! A4    A(20,1,21)            109.2559         estimate D2E/DX2                !
 ! A5    A(20,1,22)            109.2505         estimate D2E/DX2                !
 ! A6    A(21,1,22)            109.3644         estimate D2E/DX2                !
 ! A7    A(1,2,3)              118.582          estimate D2E/DX2                !
 ! A8    A(2,3,4)              125.0215         estimate D2E/DX2                !
 ! A9    A(2,3,19)             115.6332         estimate D2E/DX2                !
 ! A10   A(4,3,19)             119.3453         estimate D2E/DX2                !
 ! A11   A(3,4,5)              119.4628         estimate D2E/DX2                !
 ! A12   A(3,4,23)             121.2665         estimate D2E/DX2                !
 ! A13   A(5,4,23)             119.2706         estimate D2E/DX2                !
 ! A14   A(4,5,6)              120.9662         estimate D2E/DX2                !
 ! A15   A(4,5,24)             119.143          estimate D2E/DX2                !
 ! A16   A(6,5,24)             119.8908         estimate D2E/DX2                !
 ! A17   A(5,6,7)              120.032          estimate D2E/DX2                !
 ! A18   A(5,6,25)             120.0419         estimate D2E/DX2                !
 ! A19   A(7,6,25)             119.9249         estimate D2E/DX2                !
 ! A20   A(6,7,8)              120.6983         estimate D2E/DX2                !
 ! A21   A(6,7,19)             119.116          estimate D2E/DX2                !
 ! A22   A(8,7,19)             120.1496         estimate D2E/DX2                !
 ! A23   A(7,8,9)              110.0114         estimate D2E/DX2                !
 ! A24   A(7,8,26)             109.9971         estimate D2E/DX2                !
 ! A25   A(7,8,27)             109.8606         estimate D2E/DX2                !
 ! A26   A(9,8,26)             109.1816         estimate D2E/DX2                !
 ! A27   A(9,8,27)             109.4238         estimate D2E/DX2                !
 ! A28   A(26,8,27)            108.3373         estimate D2E/DX2                !
 ! A29   A(8,9,10)             111.9651         estimate D2E/DX2                !
 ! A30   A(8,9,28)             109.7116         estimate D2E/DX2                !
 ! A31   A(8,9,29)             109.4308         estimate D2E/DX2                !
 ! A32   A(10,9,28)            108.504          estimate D2E/DX2                !
 ! A33   A(10,9,29)            109.3331         estimate D2E/DX2                !
 ! A34   A(28,9,29)            107.8008         estimate D2E/DX2                !
 ! A35   A(9,10,11)            109.9869         estimate D2E/DX2                !
 ! A36   A(9,10,13)            110.5419         estimate D2E/DX2                !
 ! A37   A(9,10,30)            109.0139         estimate D2E/DX2                !
 ! A38   A(11,10,13)           109.9307         estimate D2E/DX2                !
 ! A39   A(11,10,30)           107.6601         estimate D2E/DX2                !
 ! A40   A(13,10,30)           109.6524         estimate D2E/DX2                !
 ! A41   A(10,13,14)           120.3357         estimate D2E/DX2                !
 ! A42   A(10,13,18)           120.3124         estimate D2E/DX2                !
 ! A43   A(14,13,18)           119.3305         estimate D2E/DX2                !
 ! A44   A(13,14,15)           120.3323         estimate D2E/DX2                !
 ! A45   A(13,14,31)           119.8901         estimate D2E/DX2                !
 ! A46   A(15,14,31)           119.7775         estimate D2E/DX2                !
 ! A47   A(14,15,16)           120.1162         estimate D2E/DX2                !
 ! A48   A(14,15,32)           119.7592         estimate D2E/DX2                !
 ! A49   A(16,15,32)           120.1245         estimate D2E/DX2                !
 ! A50   A(15,16,17)           119.7882         estimate D2E/DX2                !
 ! A51   A(15,16,33)           120.085          estimate D2E/DX2                !
 ! A52   A(17,16,33)           120.1266         estimate D2E/DX2                !
 ! A53   A(16,17,18)           120.1523         estimate D2E/DX2                !
 ! A54   A(16,17,34)           120.1041         estimate D2E/DX2                !
 ! A55   A(18,17,34)           119.7436         estimate D2E/DX2                !
 ! A56   A(13,18,17)           120.2802         estimate D2E/DX2                !
 ! A57   A(13,18,35)           119.7081         estimate D2E/DX2                !
 ! A58   A(17,18,35)           120.0084         estimate D2E/DX2                !
 ! A59   A(3,19,7)             121.0768         estimate D2E/DX2                !
 ! A60   A(3,19,36)            118.165          estimate D2E/DX2                !
 ! A61   A(7,19,36)            120.7569         estimate D2E/DX2                !
 ! A62   L(10,11,12,1,-1)      179.9472         estimate D2E/DX2                !
 ! A63   L(10,11,12,1,-2)      179.9538         estimate D2E/DX2                !
 ! D1    D(20,1,2,3)          -179.6511         estimate D2E/DX2                !
 ! D2    D(21,1,2,3)           -60.9992         estimate D2E/DX2                !
 ! D3    D(22,1,2,3)            61.6959         estimate D2E/DX2                !
 ! D4    D(1,2,3,4)             -0.581          estimate D2E/DX2                !
 ! D5    D(1,2,3,19)           179.4251         estimate D2E/DX2                !
 ! D6    D(2,3,4,5)           -179.9866         estimate D2E/DX2                !
 ! D7    D(2,3,4,23)             0.1411         estimate D2E/DX2                !
 ! D8    D(19,3,4,5)             0.007          estimate D2E/DX2                !
 ! D9    D(19,3,4,23)         -179.8653         estimate D2E/DX2                !
 ! D10   D(2,3,19,7)          -179.8478         estimate D2E/DX2                !
 ! D11   D(2,3,19,36)           -0.2725         estimate D2E/DX2                !
 ! D12   D(4,3,19,7)             0.1579         estimate D2E/DX2                !
 ! D13   D(4,3,19,36)          179.7333         estimate D2E/DX2                !
 ! D14   D(3,4,5,6)              0.0164         estimate D2E/DX2                !
 ! D15   D(3,4,5,24)          -179.9182         estimate D2E/DX2                !
 ! D16   D(23,4,5,6)           179.8912         estimate D2E/DX2                !
 ! D17   D(23,4,5,24)           -0.0434         estimate D2E/DX2                !
 ! D18   D(4,5,6,7)             -0.2021         estimate D2E/DX2                !
 ! D19   D(4,5,6,25)          -179.8176         estimate D2E/DX2                !
 ! D20   D(24,5,6,7)           179.732          estimate D2E/DX2                !
 ! D21   D(24,5,6,25)            0.1165         estimate D2E/DX2                !
 ! D22   D(5,6,7,8)            178.1806         estimate D2E/DX2                !
 ! D23   D(5,6,7,19)             0.3604         estimate D2E/DX2                !
 ! D24   D(25,6,7,8)            -2.2035         estimate D2E/DX2                !
 ! D25   D(25,6,7,19)          179.9763         estimate D2E/DX2                !
 ! D26   D(6,7,8,9)            -90.1624         estimate D2E/DX2                !
 ! D27   D(6,7,8,26)           149.5298         estimate D2E/DX2                !
 ! D28   D(6,7,8,27)            30.3587         estimate D2E/DX2                !
 ! D29   D(19,7,8,9)            87.6353         estimate D2E/DX2                !
 ! D30   D(19,7,8,26)          -32.6725         estimate D2E/DX2                !
 ! D31   D(19,7,8,27)         -151.8436         estimate D2E/DX2                !
 ! D32   D(6,7,19,3)            -0.3407         estimate D2E/DX2                !
 ! D33   D(6,7,19,36)         -179.905          estimate D2E/DX2                !
 ! D34   D(8,7,19,3)          -178.1731         estimate D2E/DX2                !
 ! D35   D(8,7,19,36)            2.2625         estimate D2E/DX2                !
 ! D36   D(7,8,9,10)          -179.3151         estimate D2E/DX2                !
 ! D37   D(7,8,9,28)            60.1533         estimate D2E/DX2                !
 ! D38   D(7,8,9,29)           -57.9289         estimate D2E/DX2                !
 ! D39   D(26,8,9,10)          -58.5157         estimate D2E/DX2                !
 ! D40   D(26,8,9,28)         -179.0473         estimate D2E/DX2                !
 ! D41   D(26,8,9,29)           62.8706         estimate D2E/DX2                !
 ! D42   D(27,8,9,10)           59.9007         estimate D2E/DX2                !
 ! D43   D(27,8,9,28)          -60.6309         estimate D2E/DX2                !
 ! D44   D(27,8,9,29)         -178.7131         estimate D2E/DX2                !
 ! D45   D(8,9,10,11)           62.6937         estimate D2E/DX2                !
 ! D46   D(8,9,10,13)         -175.7288         estimate D2E/DX2                !
 ! D47   D(8,9,10,30)          -55.1314         estimate D2E/DX2                !
 ! D48   D(28,9,10,11)        -176.0751         estimate D2E/DX2                !
 ! D49   D(28,9,10,13)         -54.4977         estimate D2E/DX2                !
 ! D50   D(28,9,10,30)          66.0997         estimate D2E/DX2                !
 ! D51   D(29,9,10,11)         -58.7487         estimate D2E/DX2                !
 ! D52   D(29,9,10,13)          62.8287         estimate D2E/DX2                !
 ! D53   D(29,9,10,30)        -176.5739         estimate D2E/DX2                !
 ! D54   D(9,10,13,14)         102.1147         estimate D2E/DX2                !
 ! D55   D(9,10,13,18)         -76.1889         estimate D2E/DX2                !
 ! D56   D(11,10,13,14)       -136.2747         estimate D2E/DX2                !
 ! D57   D(11,10,13,18)         45.4217         estimate D2E/DX2                !
 ! D58   D(30,10,13,14)        -18.101          estimate D2E/DX2                !
 ! D59   D(30,10,13,18)        163.5954         estimate D2E/DX2                !
 ! D60   D(10,13,14,15)       -178.2884         estimate D2E/DX2                !
 ! D61   D(10,13,14,31)          1.7754         estimate D2E/DX2                !
 ! D62   D(18,13,14,15)          0.0318         estimate D2E/DX2                !
 ! D63   D(18,13,14,31)       -179.9044         estimate D2E/DX2                !
 ! D64   D(10,13,18,17)        178.4533         estimate D2E/DX2                !
 ! D65   D(10,13,18,35)         -2.205          estimate D2E/DX2                !
 ! D66   D(14,13,18,17)          0.1328         estimate D2E/DX2                !
 ! D67   D(14,13,18,35)        179.4744         estimate D2E/DX2                !
 ! D68   D(13,14,15,16)         -0.1165         estimate D2E/DX2                !
 ! D69   D(13,14,15,32)       -179.9732         estimate D2E/DX2                !
 ! D70   D(31,14,15,16)        179.8198         estimate D2E/DX2                !
 ! D71   D(31,14,15,32)         -0.0369         estimate D2E/DX2                !
 ! D72   D(14,15,16,17)          0.0366         estimate D2E/DX2                !
 ! D73   D(14,15,16,33)       -179.8198         estimate D2E/DX2                !
 ! D74   D(32,15,16,17)        179.8928         estimate D2E/DX2                !
 ! D75   D(32,15,16,33)          0.0364         estimate D2E/DX2                !
 ! D76   D(15,16,17,18)          0.1278         estimate D2E/DX2                !
 ! D77   D(15,16,17,34)       -179.797          estimate D2E/DX2                !
 ! D78   D(33,16,17,18)        179.9842         estimate D2E/DX2                !
 ! D79   D(33,16,17,34)          0.0593         estimate D2E/DX2                !
 ! D80   D(16,17,18,13)         -0.2132         estimate D2E/DX2                !
 ! D81   D(16,17,18,35)       -179.5529         estimate D2E/DX2                !
 ! D82   D(34,17,18,13)        179.7119         estimate D2E/DX2                !
 ! D83   D(34,17,18,35)          0.3723         estimate D2E/DX2                !
 --------------------------------------------------------------------------------
 Trust Radius=3.00D-01 FncErr=1.00D-07 GrdErr=1.00D-06 EigMax=2.50D+02 EigMin=1.00D-04
 Number of steps in this run=    193 maximum allowed number of steps=    216.
 GradGradGradGradGradGradGradGradGradGradGradGradGradGradGradGradGradGrad

 Leave Link  103 at Fri Nov  4 20:39:10 2022, MaxMem=   805306368 cpu:               0.3 elap:               0.1
 (Enter /home/wykgroup/appl/g16/l202.exe)
                          Input orientation:                          
 ---------------------------------------------------------------------
 Center     Atomic      Atomic             Coordinates (Angstroms)
 Number     Number       Type             X           Y           Z
 ---------------------------------------------------------------------
      1          6           0       -5.498433   -2.003353   -0.188900
      2          8           0       -4.286580   -1.644814    0.427630
      3          6           0       -3.657203   -0.508333    0.016444
      4          6           0       -4.113632    0.337584   -0.987626
      5          6           0       -3.379372    1.466158   -1.313907
      6          6           0       -2.201695    1.762015   -0.656729
      7          6           0       -1.738075    0.924240    0.352169
      8          6           0       -0.437996    1.209682    1.049324
      9          6           0        0.713723    0.514143    0.316371
     10          6           0        2.070034    0.763891    1.005252
     11          6           0        2.057595    0.205017    2.337380
     12          7           0        2.047109   -0.238434    3.391196
     13          6           0        3.194962    0.152243    0.199953
     14          6           0        4.000413    0.951733   -0.598635
     15          6           0        5.006983    0.387590   -1.362615
     16          6           0        5.218082   -0.980030   -1.332617
     17          6           0        4.418365   -1.782183   -0.536267
     18          6           0        3.409718   -1.219934    0.225231
     19          6           0       -2.467368   -0.204733    0.677474
     20          1           0       -5.814551   -2.925111    0.297054
     21          1           0       -6.266609   -1.236704   -0.043583
     22          1           0       -5.366751   -2.186907   -1.260428
     23          1           0       -5.030606    0.133754   -1.517374
     24          1           0       -3.739576    2.120732   -2.094168
     25          1           0       -1.642638    2.647488   -0.921182
     26          1           0       -0.478895    0.847527    2.078775
     27          1           0       -0.257049    2.287065    1.070852
     28          1           0        0.773206    0.882878   -0.710422
     29          1           0        0.521757   -0.560111    0.274728
     30          1           0        2.229345    1.845463    1.099488
     31          1           0        3.842213    2.021024   -0.623985
     32          1           0        5.628700    1.018617   -1.980539
     33          1           0        6.005492   -1.419337   -1.926690
     34          1           0        4.580686   -2.849340   -0.506478
     35          1           0        2.791612   -1.847301    0.851482
     36          1           0       -2.132967   -0.872218    1.456856
 ---------------------------------------------------------------------
                    Distance matrix (angstroms):
                    1          2          3          4          5
     1  C    0.000000
     2  O    1.406146   0.000000
     3  C    2.380625   1.362637   0.000000
     4  C    2.834718   2.441878   1.389986   0.000000
     5  C    4.218242   3.678876   2.397006   1.385379   0.000000
     6  C    5.026464   4.138728   2.779595   2.407073   1.380702
     7  C    4.796233   3.619477   2.418270   2.789711   2.400695
     8  C    6.120850   4.831796   3.792322   4.291855   3.781842
     9  C    6.721902   5.447615   4.498934   5.003493   4.507501
    10  C    8.146492   6.822174   5.949583   6.510840   5.963866
    11  C    8.267560   6.878778   6.209230   7.011226   6.669556
    12  N    8.536230   7.132758   6.633323   7.580278   7.381756
    13  C    8.965094   7.697709   6.886378   7.406770   6.873137
    14  C    9.956329   8.744686   7.819795   8.146547   7.432191
    15  C   10.837803   9.680184   8.818878   9.128458   8.455568
    16  C   10.825847   9.689118   8.989613   9.430589   8.938702
    17  C    9.925345   8.759227   8.194083   8.802961   8.482992
    18  C    8.952117   7.710674   7.105726   7.778026   7.461620
    19  C    3.629462   2.333622   1.394576   2.403509   2.754855
    20  H    1.088907   1.997725   3.251723   3.897269   5.273380
    21  H    1.094971   2.075839   2.709820   2.829295   4.153952
    22  H    1.095082   2.076096   2.714879   2.831569   4.159016
    23  H    2.559479   2.738598   2.156643   1.078434   2.131495
    24  H    4.871519   4.564868   3.372455   2.131658   1.080287
    25  H    6.085533   5.218581   3.859640   3.383177   2.136824
    26  H    6.202066   4.841127   4.024079   4.782696   4.506192
    27  H    6.889613   5.666616   4.526265   4.786548   4.013710
    28  H    6.923566   5.769387   4.700247   4.924974   4.236544
    29  H    6.208107   4.931539   4.187255   4.887354   4.674220
    30  H    8.728796   7.422312   6.431547   6.845663   6.117684
    31  H   10.180009   8.978951   7.940343   8.140128   7.275655
    32  H   11.668563  10.545422   9.620162   9.816452   9.043785
    33  H   11.649089  10.560323   9.898150  10.313355   9.837543
    34  H   10.119545   8.997325   8.580011   9.272495   9.090544
    35  H    8.356530   7.093762   6.639077   7.472513   7.331369
    36  H    3.913354   2.508837   2.128496   3.370779   3.833882
                    6          7          8          9         10
     6  C    0.000000
     7  C    1.390930   0.000000
     8  C    2.515218   1.502567   0.000000
     9  C    3.317193   2.486116   1.532140   0.000000
    10  C    4.691066   3.867030   2.547722   1.541594   0.000000
    11  C    5.434196   4.343438   2.982686   2.446636   1.444666
    12  N    6.199986   4.991504   3.709064   3.434944   2.588032
    13  C    5.696418   4.995398   3.877885   2.510194   1.512641
    14  C    6.255083   5.816788   4.741496   3.439629   2.516764
    15  C    7.372405   6.980278   6.011746   4.611626   3.791314
    16  C    7.939063   7.406272   6.516111   5.024038   4.291514
    17  C    7.510063   6.783495   5.920271   4.441225   3.791232
    18  C    6.415437   5.577936   4.624616   3.206824   2.517687
    19  C    2.391396   1.382849   2.501437   3.281237   4.651202
    20  H    5.994296   5.606978   6.824204   7.378835   8.733668
    21  H    5.088398   5.033281   6.414980   7.205558   8.637248
    22  H    5.096667   5.044502   6.415948   6.837699   8.315425
    23  H    3.375601   3.867922   5.370067   6.041906   7.561732
    24  H    2.135412   3.379669   4.648868   5.312598   6.723019
    25  H    1.080066   2.144787   2.720540   3.411031   4.587267
    26  H    3.359660   2.138361   1.092062   2.153962   2.767035
    27  H    2.653651   2.137109   1.092685   2.157520   2.782028
    28  H    3.102547   2.727149   2.161138   1.092615   2.153941
    29  H    3.698253   2.704836   2.157150   1.092065   2.164211
    30  H    4.767114   4.140961   2.742525   2.163977   1.097296
    31  H    6.049544   5.770219   4.666737   3.597557   2.715772
    32  H    7.976227   7.727859   6.783906   5.448604   4.652305
    33  H    8.893352   8.405259   7.568814   6.064032   5.371275
    34  H    8.202918   7.409718   6.639530   5.190713   4.652326
    35  H    6.343105   5.333744   4.451367   3.190672   2.713420
    36  H    3.378039   2.145585   2.715385   3.365464   4.532771
                   11         12         13         14         15
    11  C    0.000000
    12  N    1.143367   0.000000
    13  C    2.421772   3.413829   0.000000
    14  C    3.598932   4.598983   1.387688   0.000000
    15  C    4.735207   5.634845   2.404252   1.383873   0.000000
    16  C    4.986170   5.737547   2.779177   2.398573   1.384142
    17  C    4.216640   4.840557   2.404317   2.766383   2.395254
    18  C    2.884422   3.583766   1.389111   2.396626   2.767065
    19  C    4.837197   5.267439   5.693631   6.693134   7.770375
    20  H    8.713858   8.865531   9.521074  10.590830  11.438273
    21  H    8.777239   9.050533   9.566076  10.512329  11.466126
    22  H    8.589903   8.966575   8.994847   9.901151  10.688912
    23  H    8.068878   8.621289   8.402947   9.114410  10.041990
    24  H    7.544254   8.315082   7.564771   7.969354   8.946577
    25  H    5.502328   6.367054   5.557478   5.901156   7.037006
    26  H    2.629349   3.046712   4.184569   5.219538   6.492269
    27  H    3.361041   4.131741   4.151182   4.764062   6.102443
    28  H    3.376130   4.438856   2.688404   3.229877   4.312254
    29  H    2.683049   3.484616   2.767501   3.892233   4.867882
    30  H    2.062265   3.102863   2.146759   2.611333   3.987809
    31  H    3.905436   4.944617   2.142464   1.081228   2.137842
    32  H    5.662081   6.577501   3.380567   2.136692   1.080073
    33  H    6.033797   6.733739   3.858957   3.377284   2.140137
    34  H    4.876742   5.331764   3.380647   3.846214   3.375265
    35  H    2.637932   3.097239   2.141345   3.376186   3.847705
    36  H    4.415492   4.649342   5.569215   6.720877   7.779166
                   16         17         18         19         20
    16  C    0.000000
    17  C    1.384619   0.000000
    18  C    2.398880   1.383248   0.000000
    19  C    7.981709   7.167624   5.981245   0.000000
    20  H   11.320696  10.330212   9.380827   4.329990   0.000000
    21  H   11.559654  10.710227   9.680074   4.002389   1.780760
    22  H   10.653659   9.820220   8.953694   4.011347   1.780792
    23  H   10.310686   9.691050   8.724002   3.391478   3.641891
    24  H    9.509696   9.176699   8.225088   3.835140   5.956844
    25  H    7.771592   7.517041   6.465100   3.372098   7.067023
    26  H    6.887169   6.143043   4.778214   2.650456   6.773223
    27  H    6.813783   6.403212   5.143861   3.353999   7.658418
    28  H    4.859473   4.518857   3.499780   3.689237   7.675566
    29  H    4.981501   4.163499   2.962791   3.037000   6.763322
    30  H    4.778189   4.541732   3.399157   5.142033   9.386508
    31  H    3.376611   3.847601   3.378170   6.816055  10.888786
    32  H    2.140794   3.375695   3.847131   8.608596  12.316185
    33  H    1.079782   2.141005   3.377657   8.946859  12.121295
    34  H    2.140817   1.079842   2.135774   7.620417  10.426522
    35  H    3.377899   2.139255   1.080663   5.512275   8.691094
    36  H    7.863250   6.908005   5.688511   1.079257   4.371907
                   21         22         23         24         25
    21  H    0.000000
    22  H    1.786992   0.000000
    23  H    2.361762   2.358916   0.000000
    24  H    4.675806   4.679591   2.438755   0.000000
    25  H    6.102314   6.111913   4.260590   2.459780   0.000000
    26  H    6.507385   6.652008   5.844641   5.446701   3.686991
    27  H    7.055049   7.180553   5.841447   4.708823   2.453153
    28  H    7.382160   6.886592   5.907333   4.879778   2.999095
    29  H    6.829423   6.299024   5.875527   5.563951   4.050123
    30  H    9.109753   8.917953   7.904733   6.775192   4.440563
    31  H   10.636632  10.144790   9.115199   7.723659   5.528506
    32  H   12.261184  11.475796  10.705994   9.433566   7.526474
    33  H   12.417081  11.417573  11.152358  10.369498   8.720321
    34  H   10.976278   9.997938  10.114232   9.820852   8.313655
    35  H    9.122792   8.434121   8.409706   8.190150   6.558052
    36  H    4.412614   4.423732   4.272509   4.914134   4.275958
                   26         27         28         29         30
    26  H    0.000000
    27  H    1.771269   0.000000
    28  H    3.057553   2.491206   0.000000
    29  H    2.497466   3.057248   1.765209   0.000000
    30  H    3.047859   2.525468   2.514496   3.063147   0.000000
    31  H    5.230104   4.443783   3.274394   4.300625   2.366966
    32  H    7.335531   6.749963   5.020702   5.801678   4.661101
    33  H    7.951710   7.870330   5.844341   5.971252   5.837462
    34  H    6.778622   7.230098   5.335536   4.725014   5.490820
    35  H    4.411866   5.141542   3.737297   2.672405   3.743549
    36  H    2.465818   3.694474   4.027815   2.922739   5.152016
                   31         32         33         34         35
    31  H    0.000000
    32  H    2.456948   0.000000
    33  H    4.267657   2.467487   0.000000
    34  H    4.927433   4.269927   2.468193   0.000000
    35  H    4.271383   4.927768   4.269709   2.459456   0.000000
    36  H    6.957265   8.696805   8.830755   7.268895   5.056555
                   36
    36  H    0.000000
 Stoichiometry    C17H17NO
 Framework group  C1[X(C17H17NO)]
 Deg. of freedom   102
 Full point group                 C1      NOp   1
 Largest Abelian subgroup         C1      NOp   1
 Largest concise Abelian subgroup C1      NOp   1
                         Standard orientation:                         
 ---------------------------------------------------------------------
 Center     Atomic      Atomic             Coordinates (Angstroms)
 Number     Number       Type             X           Y           Z
 ---------------------------------------------------------------------
      1          6           0       -5.646647    0.855288    1.705296
      2          8           0       -4.422660    1.160229    1.083917
      3          6           0       -3.779442    0.177308    0.393326
      4          6           0       -4.232840   -1.129579    0.257168
      5          6           0       -3.483981   -2.038044   -0.473022
      6          6           0       -2.294741   -1.664090   -1.066490
      7          6           0       -1.833971   -0.357842   -0.939636
      8          6           0       -0.522094    0.054991   -1.544825
      9          6           0        0.610367   -0.153864   -0.534200
     10          6           0        1.977802    0.272416   -1.104217
     11          6           0        1.970551    1.686562   -1.399511
     12          7           0        1.964146    2.806020   -1.632021
     13          6           0        3.084059   -0.043610   -0.122177
     14          6           0        3.893747   -1.154454   -0.312199
     15          6           0        4.882877   -1.463431    0.605004
     16          6           0        5.072182   -0.663095    1.718321
     17          6           0        4.268161    0.447418    1.911917
     18          6           0        3.276897    0.755423    0.997640
     19          6           0       -2.577880    0.550048   -0.208467
     20          1           0       -5.972402    1.778143    2.182729
     21          1           0       -6.400756    0.539945    0.976708
     22          1           0       -5.529379    0.076848    2.466535
     23          1           0       -5.158581   -1.450663    0.707643
     24          1           0       -3.841873   -3.052044   -0.576642
     25          1           0       -1.724317   -2.383837   -1.634929
     26          1           0       -0.557852    1.108268   -1.831057
     27          1           0       -0.323562   -0.538171   -2.440762
     28          1           0        0.664841   -1.208675   -0.254534
     29          1           0        0.400655    0.420952    0.370351
     30          1           0        2.155545   -0.263243   -2.045246
     31          1           0        3.752566   -1.781766   -1.181453
     32          1           0        5.508073   -2.330005    0.447726
     33          1           0        5.846019   -0.902998    2.432149
     34          1           0        4.413545    1.077176    2.776976
     35          1           0        2.655460    1.626781    1.147254
     36          1           0       -2.246004    1.570637   -0.094216
 ---------------------------------------------------------------------
 Rotational constants (GHZ):           0.7120007           0.1484527           0.1463464
 Leave Link  202 at Fri Nov  4 20:39:10 2022, MaxMem=   805306368 cpu:               0.5 elap:               0.1
 (Enter /home/wykgroup/appl/g16/l301.exe)
 Standard basis: 6-31G(d) (6D, 7F)
 Ernie: Thresh=  0.10000D-02 Tol=  0.10000D-05 Strict=F.
 There are   319 symmetry adapted cartesian basis functions of A   symmetry.
 There are   319 symmetry adapted basis functions of A   symmetry.
   319 basis functions,   600 primitive gaussians,   319 cartesian basis functions
    67 alpha electrons       67 beta electrons
       nuclear repulsion energy      1260.6248884618 Hartrees.
 IExCor=  402 DFT=T Ex+Corr=B3LYP ExCW=0 ScaHFX=  0.200000
 ScaDFX=  0.800000  0.720000  1.000000  0.810000 ScalE2=  1.000000  1.000000
 IRadAn=      5 IRanWt=     -1 IRanGd=            0 ICorTp=0 IEmpDi=  4
 NAtoms=   36 NActive=   36 NUniq=   36 SFac= 1.00D+00 NAtFMM=   60 NAOKFM=F Big=F
 Integral buffers will be    131072 words long.
 Raffenetti 2 integral format.
 Two-electron integral symmetry is turned on.
 Leave Link  301 at Fri Nov  4 20:39:11 2022, MaxMem=   805306368 cpu:               0.4 elap:               0.1
 (Enter /home/wykgroup/appl/g16/l302.exe)
 NPDir=0 NMtPBC=     1 NCelOv=     1 NCel=       1 NClECP=     1 NCelD=      1
         NCelK=      1 NCelE2=     1 NClLst=     1 CellRange=     0.0.
 One-electron integrals computed using PRISM.
 One-electron integral symmetry used in STVInt
 NBasis=   319 RedAO= T EigKep=  4.04D-04  NBF=   319
 NBsUse=   319 1.00D-06 EigRej= -1.00D+00 NBFU=   319
 Precomputing XC quadrature grid using
 IXCGrd= 4 IRadAn=           5 IRanWt=          -1 IRanGd=           0 AccXCQ= 0.00D+00.
 Generated NRdTot=       0 NPtTot=           0 NUsed=           0 NTot=          32
 NSgBfM=   317   317   317   317   317 MxSgAt=    36 MxSgA2=    36.
 Leave Link  302 at Fri Nov  4 20:39:11 2022, MaxMem=   805306368 cpu:               3.8 elap:               0.6
 (Enter /home/wykgroup/appl/g16/l303.exe)
 DipDrv:  MaxL=1.
 Leave Link  303 at Fri Nov  4 20:39:11 2022, MaxMem=   805306368 cpu:               0.6 elap:               0.1
 (Enter /home/wykgroup/appl/g16/l401.exe)
 ExpMin= 1.61D-01 ExpMax= 5.48D+03 ExpMxC= 8.25D+02 IAcc=3 IRadAn=         5 AccDes= 0.00D+00
 Harris functional with IExCor=  402 and IRadAn=       5 diagonalized for initial guess.
 HarFok:  IExCor=  402 AccDes= 0.00D+00 IRadAn=         5 IDoV= 1 UseB2=F ITyADJ=14
 ICtDFT=  3500011 ScaDFX=  1.000000  1.000000  1.000000  1.000000
 FoFCou: FMM=F IPFlag=           0 FMFlag=      100000 FMFlg1=           0
         NFxFlg=           0 DoJE=T BraDBF=F KetDBF=T FulRan=T
         wScrn=  0.000000 ICntrl=       500 IOpCl=  0 I1Cent=   200000004 NGrid=           0
         NMat0=    1 NMatS0=      1 NMatT0=    0 NMatD0=    1 NMtDS0=    0 NMtDT0=    0
 Petite list used in FoFCou.
 Harris En= -788.042440915538    
 JPrj=0 DoOrth=F DoCkMO=F.
 Leave Link  401 at Fri Nov  4 20:39:13 2022, MaxMem=   805306368 cpu:              12.6 elap:               1.8
 (Enter /home/wykgroup/appl/g16/l502.exe)
 Integral symmetry usage will be decided dynamically.
 Closed shell SCF:
 Using DIIS extrapolation, IDIIS=  1040.
 NGot=   805306368 LenX=   805096988 LenY=   804994786
 Requested convergence on RMS density matrix=1.00D-08 within  32 cycles.
 Requested convergence on MAX density matrix=1.00D-06.
 Requested convergence on             energy=1.00D-06.
 No special actions if energy rises.
 Fock matrices will be formed incrementally for  20 cycles.
 Integral accuracy reduced to 1.0D-05 until final iterations.

 Cycle   1  Pass 0  IDiag  1:
 FoFJK:  IHMeth= 1 ICntrl=       0 DoSepK=F KAlg= 0 I1Cent=           0 FoldK=F
 IRaf= 730000000 NMat=       1 IRICut=       1 DoRegI=T DoRafI=F ISym2E= 0 IDoP0=0 IntGTp=1.
 FoFCou: FMM=F IPFlag=           0 FMFlag=      100000 FMFlg1=           0
         NFxFlg=           0 DoJE=F BraDBF=F KetDBF=F FulRan=T
         wScrn=  0.000000 ICntrl=         0 IOpCl=  0 I1Cent=           0 NGrid=           0
         NMat0=    1 NMatS0=      1 NMatT0=    0 NMatD0=    1 NMtDS0=    0 NMtDT0=    0
 Symmetry not used in FoFCou.
 E= -787.557979649482    
 DIIS: error= 2.16D-02 at cycle   1 NSaved=   1.
 NSaved= 1 IEnMin= 1 EnMin= -787.557979649482     IErMin= 1 ErrMin= 2.16D-02
 ErrMax= 2.16D-02  0.00D+00 EMaxC= 1.00D-01 BMatC= 4.11D-01 BMatP= 4.11D-01
 IDIUse=3 WtCom= 7.84D-01 WtEn= 2.16D-01
 Coeff-Com:  0.100D+01
 Coeff-En:   0.100D+01
 Coeff:      0.100D+01
 Gap=     0.222 Goal=   None    Shift=    0.000
 GapD=    0.222 DampG=1.000 DampE=0.500 DampFc=0.5000 IDamp=-1.
 Damping current iteration by 5.00D-01
 RMSDP=4.82D-03 MaxDP=2.19D-01              OVMax= 1.84D-01

 Cycle   2  Pass 0  IDiag  1:
 RMSU=  2.36D-03    CP:  9.74D-01
 E= -787.757214491217     Delta-E=       -0.199234841735 Rises=F Damp=T
 DIIS: error= 8.18D-03 at cycle   2 NSaved=   2.
 NSaved= 2 IEnMin= 2 EnMin= -787.757214491217     IErMin= 2 ErrMin= 8.18D-03
 ErrMax= 8.18D-03  0.00D+00 EMaxC= 1.00D-01 BMatC= 3.22D-02 BMatP= 4.11D-01
 IDIUse=3 WtCom= 9.18D-01 WtEn= 8.18D-02
 Coeff-Com:  0.465D-01 0.954D+00
 Coeff-En:   0.612D-01 0.939D+00
 Coeff:      0.477D-01 0.952D+00
 Gap=     0.241 Goal=   None    Shift=    0.000
 RMSDP=1.40D-03 MaxDP=6.93D-02 DE=-1.99D-01 OVMax= 1.63D-01

 Cycle   3  Pass 0  IDiag  1:
 RMSU=  1.35D-03    CP:  9.64D-01  8.49D-01
 E= -787.946627720626     Delta-E=       -0.189413229408 Rises=F Damp=F
 DIIS: error= 1.45D-02 at cycle   3 NSaved=   3.
 NSaved= 3 IEnMin= 3 EnMin= -787.946627720626     IErMin= 2 ErrMin= 8.18D-03
 ErrMax= 1.45D-02  0.00D+00 EMaxC= 1.00D-01 BMatC= 5.69D-02 BMatP= 3.22D-02
 IDIUse=2 WtCom= 0.00D+00 WtEn= 1.00D+00
 Coeff-En:   0.000D+00 0.000D+00 0.100D+01
 Coeff:      0.000D+00 0.000D+00 0.100D+01
 Gap=     0.209 Goal=   None    Shift=    0.000
 RMSDP=2.38D-03 MaxDP=1.42D-01 DE=-1.89D-01 OVMax= 2.11D-01

 Cycle   4  Pass 0  IDiag  1:
 RMSU=  1.58D-03    CP:  9.63D-01  1.19D+00 -1.86D-01
 E= -787.679387405989     Delta-E=        0.267240314637 Rises=F Damp=F
 DIIS: error= 3.17D-02 at cycle   4 NSaved=   4.
 NSaved= 4 IEnMin= 3 EnMin= -787.946627720626     IErMin= 2 ErrMin= 8.18D-03
 ErrMax= 3.17D-02  0.00D+00 EMaxC= 1.00D-01 BMatC= 3.48D-01 BMatP= 3.22D-02
 IDIUse=2 WtCom= 0.00D+00 WtEn= 1.00D+00
 Coeff-En:   0.000D+00 0.000D+00 0.800D+00 0.200D+00
 Coeff:      0.000D+00 0.000D+00 0.800D+00 0.200D+00
 Gap=     0.209 Goal=   None    Shift=    0.000
 RMSDP=1.28D-03 MaxDP=7.93D-02 DE= 2.67D-01 OVMax= 1.11D-01

 Cycle   5  Pass 0  IDiag  1:
 RMSU=  2.27D-04    CP:  9.64D-01  9.97D-01  4.05D-01  4.54D-01
 E= -787.970828086832     Delta-E=       -0.291440680843 Rises=F Damp=F
 DIIS: error= 9.94D-03 at cycle   5 NSaved=   5.
 NSaved= 5 IEnMin= 5 EnMin= -787.970828086832     IErMin= 2 ErrMin= 8.18D-03
 ErrMax= 9.94D-03  0.00D+00 EMaxC= 1.00D-01 BMatC= 3.06D-02 BMatP= 3.22D-02
 IDIUse=3 WtCom= 9.01D-01 WtEn= 9.94D-02
 Coeff-Com:  0.445D-02 0.916D-02 0.350D+00-0.694D-01 0.706D+00
 Coeff-En:   0.000D+00 0.000D+00 0.389D+00 0.000D+00 0.611D+00
 Coeff:      0.401D-02 0.825D-02 0.354D+00-0.625D-01 0.696D+00
 Gap=     0.207 Goal=   None    Shift=    0.000
 RMSDP=5.07D-04 MaxDP=2.92D-02 DE=-2.91D-01 OVMax= 4.10D-02

 Cycle   6  Pass 0  IDiag  1:
 RMSU=  8.01D-05    CP:  9.65D-01  9.26D-01  6.60D-01  2.53D-01  7.32D-01
 E= -787.998137752367     Delta-E=       -0.027309665536 Rises=F Damp=F
 DIIS: error= 9.77D-04 at cycle   6 NSaved=   6.
 NSaved= 6 IEnMin= 6 EnMin= -787.998137752367     IErMin= 6 ErrMin= 9.77D-04
 ErrMax= 9.77D-04  0.00D+00 EMaxC= 1.00D-01 BMatC= 1.49D-04 BMatP= 3.06D-02
 IDIUse=3 WtCom= 9.90D-01 WtEn= 9.77D-03
 Coeff-Com:  0.218D-02 0.406D-03 0.174D+00-0.627D-01 0.448D+00 0.438D+00
 Coeff-En:   0.000D+00 0.000D+00 0.000D+00 0.000D+00 0.000D+00 0.100D+01
 Coeff:      0.216D-02 0.402D-03 0.172D+00-0.621D-01 0.444D+00 0.444D+00
 Gap=     0.207 Goal=   None    Shift=    0.000
 RMSDP=4.94D-05 MaxDP=1.61D-03 DE=-2.73D-02 OVMax= 6.01D-03

 Cycle   7  Pass 0  IDiag  1:
 RMSU=  1.79D-05    CP:  9.64D-01  9.28D-01  6.52D-01  2.55D-01  8.04D-01
                    CP:  4.83D-01
 E= -787.998295985665     Delta-E=       -0.000158233298 Rises=F Damp=F
 DIIS: error= 1.62D-04 at cycle   7 NSaved=   7.
 NSaved= 7 IEnMin= 7 EnMin= -787.998295985665     IErMin= 7 ErrMin= 1.62D-04
 ErrMax= 1.62D-04  0.00D+00 EMaxC= 1.00D-01 BMatC= 7.67D-06 BMatP= 1.49D-04
 IDIUse=3 WtCom= 9.98D-01 WtEn= 1.62D-03
 Coeff-Com:  0.825D-03-0.130D-02 0.447D-01-0.180D-01 0.115D+00 0.175D+00
 Coeff-Com:  0.684D+00
 Coeff-En:   0.000D+00 0.000D+00 0.000D+00 0.000D+00 0.000D+00 0.000D+00
 Coeff-En:   0.100D+01
 Coeff:      0.823D-03-0.130D-02 0.447D-01-0.179D-01 0.114D+00 0.175D+00
 Coeff:      0.684D+00
 Gap=     0.207 Goal=   None    Shift=    0.000
 RMSDP=8.97D-06 MaxDP=3.61D-04 DE=-1.58D-04 OVMax= 7.81D-04

 Initial convergence to 1.0D-05 achieved.  Increase integral accuracy.
 Cycle   8  Pass 1  IDiag  1:
 E= -787.998313642960     Delta-E=       -0.000017657295 Rises=F Damp=F
 DIIS: error= 7.10D-05 at cycle   1 NSaved=   1.
 NSaved= 1 IEnMin= 1 EnMin= -787.998313642960     IErMin= 1 ErrMin= 7.10D-05
 ErrMax= 7.10D-05  0.00D+00 EMaxC= 1.00D-01 BMatC= 1.38D-06 BMatP= 1.38D-06
 IDIUse=1 WtCom= 1.00D+00 WtEn= 0.00D+00
 Coeff-Com:  0.100D+01
 Coeff:      0.100D+01
 Gap=     0.207 Goal=   None    Shift=    0.000
 RMSDP=8.97D-06 MaxDP=3.61D-04 DE=-1.77D-05 OVMax= 5.46D-04

 Cycle   9  Pass 1  IDiag  1:
 RMSU=  3.66D-05    CP:  1.00D+00
 E= -787.998312015669     Delta-E=        0.000001627291 Rises=F Damp=F
 DIIS: error= 8.56D-05 at cycle   2 NSaved=   2.
 NSaved= 2 IEnMin= 1 EnMin= -787.998313642960     IErMin= 1 ErrMin= 7.10D-05
 ErrMax= 8.56D-05  0.00D+00 EMaxC= 1.00D-01 BMatC= 3.13D-06 BMatP= 1.38D-06
 IDIUse=1 WtCom= 1.00D+00 WtEn= 0.00D+00
 Coeff-Com:  0.615D+00 0.385D+00
 Coeff:      0.615D+00 0.385D+00
 Gap=     0.207 Goal=   None    Shift=    0.000
 RMSDP=6.43D-06 MaxDP=3.63D-04 DE= 1.63D-06 OVMax= 5.39D-04

 Cycle  10  Pass 1  IDiag  1:
 RMSU=  6.33D-06    CP:  1.00D+00  9.71D-01
 E= -787.998314668540     Delta-E=       -0.000002652871 Rises=F Damp=F
 DIIS: error= 3.32D-05 at cycle   3 NSaved=   3.
 NSaved= 3 IEnMin= 3 EnMin= -787.998314668540     IErMin= 3 ErrMin= 3.32D-05
 ErrMax= 3.32D-05  0.00D+00 EMaxC= 1.00D-01 BMatC= 3.20D-07 BMatP= 1.38D-06
 IDIUse=1 WtCom= 1.00D+00 WtEn= 0.00D+00
 Coeff-Com:  0.204D+00 0.245D+00 0.551D+00
 Coeff:      0.204D+00 0.245D+00 0.551D+00
 Gap=     0.207 Goal=   None    Shift=    0.000
 RMSDP=2.14D-06 MaxDP=1.38D-04 DE=-2.65D-06 OVMax= 2.01D-04

 Cycle  11  Pass 1  IDiag  1:
 RMSU=  1.61D-06    CP:  1.00D+00  9.80D-01  7.85D-01
 E= -787.998314894020     Delta-E=       -0.000000225480 Rises=F Damp=F
 DIIS: error= 1.14D-05 at cycle   4 NSaved=   4.
 NSaved= 4 IEnMin= 4 EnMin= -787.998314894020     IErMin= 4 ErrMin= 1.14D-05
 ErrMax= 1.14D-05  0.00D+00 EMaxC= 1.00D-01 BMatC= 6.75D-08 BMatP= 3.20D-07
 IDIUse=1 WtCom= 1.00D+00 WtEn= 0.00D+00
 Coeff-Com:  0.251D-02 0.804D-01 0.371D+00 0.546D+00
 Coeff:      0.251D-02 0.804D-01 0.371D+00 0.546D+00
 Gap=     0.207 Goal=   None    Shift=    0.000
 RMSDP=8.22D-07 MaxDP=4.17D-05 DE=-2.25D-07 OVMax= 5.45D-05

 Cycle  12  Pass 1  IDiag  1:
 RMSU=  2.91D-07    CP:  1.00D+00  9.84D-01  8.03D-01  5.35D-01
 E= -787.998314953208     Delta-E=       -0.000000059188 Rises=F Damp=F
 DIIS: error= 2.92D-06 at cycle   5 NSaved=   5.
 NSaved= 5 IEnMin= 5 EnMin= -787.998314953208     IErMin= 5 ErrMin= 2.92D-06
 ErrMax= 2.92D-06  0.00D+00 EMaxC= 1.00D-01 BMatC= 2.62D-09 BMatP= 6.75D-08
 IDIUse=1 WtCom= 1.00D+00 WtEn= 0.00D+00
 Coeff-Com: -0.276D-02 0.453D-01 0.222D+00 0.343D+00 0.392D+00
 Coeff:     -0.276D-02 0.453D-01 0.222D+00 0.343D+00 0.392D+00
 Gap=     0.207 Goal=   None    Shift=    0.000
 RMSDP=1.82D-07 MaxDP=5.80D-06 DE=-5.92D-08 OVMax= 2.06D-05

 Cycle  13  Pass 1  IDiag  1:
 RMSU=  6.30D-08    CP:  1.00D+00  9.83D-01  8.08D-01  5.55D-01  4.38D-01
 E= -787.998314955966     Delta-E=       -0.000000002758 Rises=F Damp=F
 DIIS: error= 3.21D-07 at cycle   6 NSaved=   6.
 NSaved= 6 IEnMin= 6 EnMin= -787.998314955966     IErMin= 6 ErrMin= 3.21D-07
 ErrMax= 3.21D-07  0.00D+00 EMaxC= 1.00D-01 BMatC= 4.29D-11 BMatP= 2.62D-09
 IDIUse=1 WtCom= 1.00D+00 WtEn= 0.00D+00
 Coeff-Com: -0.154D-02 0.212D-01 0.105D+00 0.163D+00 0.206D+00 0.506D+00
 Coeff:     -0.154D-02 0.212D-01 0.105D+00 0.163D+00 0.206D+00 0.506D+00
 Gap=     0.207 Goal=   None    Shift=    0.000
 RMSDP=2.45D-08 MaxDP=7.15D-07 DE=-2.76D-09 OVMax= 2.23D-06

 Cycle  14  Pass 1  IDiag  1:
 RMSU=  1.88D-08    CP:  1.00D+00  9.83D-01  8.08D-01  5.55D-01  4.58D-01
                    CP:  7.81D-01
 E= -787.998314956016     Delta-E=       -0.000000000050 Rises=F Damp=F
 DIIS: error= 4.33D-08 at cycle   7 NSaved=   7.
 NSaved= 7 IEnMin= 7 EnMin= -787.998314956016     IErMin= 7 ErrMin= 4.33D-08
 ErrMax= 4.33D-08  0.00D+00 EMaxC= 1.00D-01 BMatC= 1.98D-12 BMatP= 4.29D-11
 IDIUse=1 WtCom= 1.00D+00 WtEn= 0.00D+00
 Coeff-Com: -0.279D-03 0.293D-02 0.146D-01 0.229D-01 0.341D-01 0.200D+00
 Coeff-Com:  0.726D+00
 Coeff:     -0.279D-03 0.293D-02 0.146D-01 0.229D-01 0.341D-01 0.200D+00
 Coeff:      0.726D+00
 Gap=     0.207 Goal=   None    Shift=    0.000
 RMSDP=5.77D-09 MaxDP=1.41D-07 DE=-5.05D-11 OVMax= 4.40D-07

 SCF Done:  E(RB3LYP) =  -787.998314956     A.U. after   14 cycles
            NFock= 14  Conv=0.58D-08     -V/T= 2.0087
 KE= 7.811780018415D+02 PE=-4.349210318473D+03 EE= 1.519409113213D+03
 Leave Link  502 at Fri Nov  4 20:39:43 2022, MaxMem=   805306368 cpu:             211.0 elap:              30.2
 (Enter /home/wykgroup/appl/g16/l508.exe)
 QCSCF skips out because SCF is already converged.
 Leave Link  508 at Fri Nov  4 20:39:43 2022, MaxMem=   805306368 cpu:               0.2 elap:               0.1
 (Enter /home/wykgroup/appl/g16/l601.exe)
 Copying SCF densities to generalized density rwf, IOpCl= 0 IROHF=0.

 **********************************************************************

            Population analysis using the SCF Density.

 **********************************************************************

 Orbital symmetries:
       Occupied  (A) (A) (A) (A) (A) (A) (A) (A) (A) (A) (A) (A)
                 (A) (A) (A) (A) (A) (A) (A) (A) (A) (A) (A) (A)
                 (A) (A) (A) (A) (A) (A) (A) (A) (A) (A) (A) (A)
                 (A) (A) (A) (A) (A) (A) (A) (A) (A) (A) (A) (A)
                 (A) (A) (A) (A) (A) (A) (A) (A) (A) (A) (A) (A)
                 (A) (A) (A) (A) (A) (A) (A)
       Virtual   (A) (A) (A) (A) (A) (A) (A) (A) (A) (A) (A) (A)
                 (A) (A) (A) (A) (A) (A) (A) (A) (A) (A) (A) (A)
                 (A) (A) (A) (A) (A) (A) (A) (A) (A) (A) (A) (A)
                 (A) (A) (A) (A) (A) (A) (A) (A) (A) (A) (A) (A)
                 (A) (A) (A) (A) (A) (A) (A) (A) (A) (A) (A) (A)
                 (A) (A) (A) (A) (A) (A) (A) (A) (A) (A) (A) (A)
                 (A) (A) (A) (A) (A) (A) (A) (A) (A) (A) (A) (A)
                 (A) (A) (A) (A) (A) (A) (A) (A) (A) (A) (A) (A)
                 (A) (A) (A) (A) (A) (A) (A) (A) (A) (A) (A) (A)
                 (A) (A) (A) (A) (A) (A) (A) (A) (A) (A) (A) (A)
                 (A) (A) (A) (A) (A) (A) (A) (A) (A) (A) (A) (A)
                 (A) (A) (A) (A) (A) (A) (A) (A) (A) (A) (A) (A)
                 (A) (A) (A) (A) (A) (A) (A) (A) (A) (A) (A) (A)
                 (A) (A) (A) (A) (A) (A) (A) (A) (A) (A) (A) (A)
                 (A) (A) (A) (A) (A) (A) (A) (A) (A) (A) (A) (A)
                 (A) (A) (A) (A) (A) (A) (A) (A) (A) (A) (A) (A)
                 (A) (A) (A) (A) (A) (A) (A) (A) (A) (A) (A) (A)
                 (A) (A) (A) (A) (A) (A) (A) (A) (A) (A) (A) (A)
                 (A) (A) (A) (A) (A) (A) (A) (A) (A) (A) (A) (A)
                 (A) (A) (A) (A) (A) (A) (A) (A) (A) (A) (A) (A)
                 (A) (A) (A) (A) (A) (A) (A) (A) (A) (A) (A) (A)
 The electronic state is 1-A.
 Alpha  occ. eigenvalues --  -19.17638 -14.32420 -10.24407 -10.23933 -10.23671
 Alpha  occ. eigenvalues --  -10.21694 -10.20733 -10.20271 -10.19562 -10.19418
 Alpha  occ. eigenvalues --  -10.19357 -10.19279 -10.19245 -10.19233 -10.19110
 Alpha  occ. eigenvalues --  -10.18730 -10.18273 -10.17753 -10.17744  -1.06667
 Alpha  occ. eigenvalues --   -0.90952  -0.87330  -0.85972  -0.82789  -0.78342
 Alpha  occ. eigenvalues --   -0.75764  -0.75543  -0.74066  -0.70105  -0.69530
 Alpha  occ. eigenvalues --   -0.63365  -0.61887  -0.60567  -0.60251  -0.57711
 Alpha  occ. eigenvalues --   -0.53506  -0.52820  -0.51617  -0.48800  -0.48598
 Alpha  occ. eigenvalues --   -0.47359  -0.47046  -0.45875  -0.45240  -0.44150
 Alpha  occ. eigenvalues --   -0.43279  -0.42829  -0.42590  -0.40748  -0.40216
 Alpha  occ. eigenvalues --   -0.38784  -0.37468  -0.36958  -0.36819  -0.36130
 Alpha  occ. eigenvalues --   -0.35392  -0.35250  -0.34707  -0.34559  -0.32469
 Alpha  occ. eigenvalues --   -0.32315  -0.31956  -0.31224  -0.25903  -0.25559
 Alpha  occ. eigenvalues --   -0.24204  -0.21869
 Alpha virt. eigenvalues --   -0.01138  -0.00684   0.00366   0.01602   0.03811
 Alpha virt. eigenvalues --    0.05177   0.09176   0.09596   0.10511   0.10814
 Alpha virt. eigenvalues --    0.11475   0.12793   0.13495   0.14332   0.14656
 Alpha virt. eigenvalues --    0.15450   0.15888   0.16195   0.16614   0.17036
 Alpha virt. eigenvalues --    0.17643   0.17993   0.18579   0.18855   0.19793
 Alpha virt. eigenvalues --    0.20799   0.20848   0.23581   0.25144   0.26557
 Alpha virt. eigenvalues --    0.27590   0.28174   0.30342   0.31223   0.32465
 Alpha virt. eigenvalues --    0.33090   0.34251   0.34824   0.37133   0.37486
 Alpha virt. eigenvalues --    0.38108   0.44175   0.48110   0.49325   0.51044
 Alpha virt. eigenvalues --    0.51982   0.52184   0.52697   0.52998   0.53612
 Alpha virt. eigenvalues --    0.54310   0.54637   0.55676   0.56293   0.56502
 Alpha virt. eigenvalues --    0.57833   0.58939   0.59199   0.59584   0.60040
 Alpha virt. eigenvalues --    0.60480   0.60901   0.61210   0.61592   0.61707
 Alpha virt. eigenvalues --    0.61984   0.62194   0.63167   0.64481   0.65352
 Alpha virt. eigenvalues --    0.66451   0.66909   0.67996   0.68847   0.71001
 Alpha virt. eigenvalues --    0.72397   0.72938   0.74392   0.75810   0.76750
 Alpha virt. eigenvalues --    0.77224   0.79213   0.80916   0.82019   0.83248
 Alpha virt. eigenvalues --    0.83477   0.83761   0.84103   0.84786   0.85109
 Alpha virt. eigenvalues --    0.85653   0.85874   0.86267   0.87304   0.87985
 Alpha virt. eigenvalues --    0.89434   0.90075   0.90953   0.92098   0.93020
 Alpha virt. eigenvalues --    0.93630   0.94592   0.95115   0.96504   0.96550
 Alpha virt. eigenvalues --    0.97755   0.98016   0.98818   1.00528   1.01591
 Alpha virt. eigenvalues --    1.02713   1.04223   1.05187   1.06181   1.08404
 Alpha virt. eigenvalues --    1.11676   1.12170   1.12674   1.16889   1.17306
 Alpha virt. eigenvalues --    1.19090   1.20733   1.21809   1.25420   1.28663
 Alpha virt. eigenvalues --    1.29252   1.31520   1.32926   1.34344   1.37210
 Alpha virt. eigenvalues --    1.37716   1.40130   1.41992   1.43365   1.44753
 Alpha virt. eigenvalues --    1.45527   1.45951   1.48115   1.48490   1.48725
 Alpha virt. eigenvalues --    1.49905   1.50181   1.51017   1.52733   1.53029
 Alpha virt. eigenvalues --    1.54275   1.54454   1.55352   1.63457   1.68698
 Alpha virt. eigenvalues --    1.68963   1.73243   1.74355   1.74626   1.79895
 Alpha virt. eigenvalues --    1.80337   1.81421   1.82327   1.83343   1.84221
 Alpha virt. eigenvalues --    1.87429   1.88977   1.89685   1.91519   1.92699
 Alpha virt. eigenvalues --    1.93664   1.94184   1.95294   1.96214   1.97559
 Alpha virt. eigenvalues --    1.98049   1.99555   2.00351   2.02521   2.03888
 Alpha virt. eigenvalues --    2.04702   2.06310   2.07889   2.10342   2.10623
 Alpha virt. eigenvalues --    2.11065   2.11379   2.14471   2.15230   2.15971
 Alpha virt. eigenvalues --    2.16558   2.17784   2.19426   2.22074   2.23250
 Alpha virt. eigenvalues --    2.25273   2.25828   2.26787   2.28477   2.31422
 Alpha virt. eigenvalues --    2.33217   2.33717   2.34953   2.37107   2.38156
 Alpha virt. eigenvalues --    2.39364   2.42253   2.44798   2.50078   2.53364
 Alpha virt. eigenvalues --    2.55450   2.56659   2.58988   2.60354   2.63313
 Alpha virt. eigenvalues --    2.67039   2.67412   2.67857   2.70046   2.70662
 Alpha virt. eigenvalues --    2.72887   2.74854   2.75927   2.76937   2.78989
 Alpha virt. eigenvalues --    2.81069   2.81310   2.85781   2.87333   2.92907
 Alpha virt. eigenvalues --    2.94893   2.96408   3.00963   3.09190   3.20457
 Alpha virt. eigenvalues --    3.30266   3.44422   3.46400   4.05858   4.09694
 Alpha virt. eigenvalues --    4.11069   4.11180   4.12896   4.15276   4.17700
 Alpha virt. eigenvalues --    4.21002   4.22079   4.30312   4.32913   4.33950
 Alpha virt. eigenvalues --    4.37453   4.39519   4.49953   4.51083   4.69085
 Alpha virt. eigenvalues --    4.77295   4.79183
          Condensed to atoms (all electrons):
               1          2          3          4          5          6
     1  C    4.887968   0.251374  -0.043726  -0.006440   0.000325  -0.000014
     2  O    0.251374   8.198926   0.277261  -0.064229   0.003921   0.000405
     3  C   -0.043726   0.277261   4.519914   0.475353   0.008330  -0.045866
     4  C   -0.006440  -0.064229   0.475353   5.106061   0.506605  -0.042154
     5  C    0.000325   0.003921   0.008330   0.506605   4.864909   0.535143
     6  C   -0.000014   0.000405  -0.045866  -0.042154   0.535143   4.965842
     7  C   -0.000101   0.002615  -0.005286  -0.036614  -0.011417   0.545936
     8  C    0.000003  -0.000073   0.006624   0.000595   0.007400  -0.059067
     9  C   -0.000000   0.000001  -0.000116   0.000016  -0.000084  -0.004534
    10  C    0.000000  -0.000000   0.000002  -0.000000   0.000003   0.000087
    11  C   -0.000000  -0.000000  -0.000000   0.000000  -0.000000  -0.000009
    12  N   -0.000000  -0.000000  -0.000000   0.000000  -0.000000  -0.000000
    13  C   -0.000000  -0.000000  -0.000000   0.000000  -0.000000  -0.000005
    14  C   -0.000000  -0.000000   0.000000   0.000000  -0.000000  -0.000001
    15  C    0.000000   0.000000  -0.000000   0.000000  -0.000000  -0.000000
    16  C    0.000000  -0.000000   0.000000  -0.000000   0.000000   0.000000
    17  C   -0.000000   0.000000  -0.000000  -0.000000   0.000000  -0.000000
    18  C   -0.000000   0.000000  -0.000000   0.000000   0.000000  -0.000000
    19  C    0.004182  -0.050048   0.515930  -0.078938  -0.047458  -0.044260
    20  H    0.387839  -0.034873   0.003311   0.000226   0.000003   0.000000
    21  H    0.363402  -0.036416  -0.004524   0.004873  -0.000182  -0.000007
    22  H    0.363254  -0.036705  -0.004501   0.004938  -0.000162  -0.000007
    23  H    0.006290  -0.008017  -0.047289   0.353754  -0.041449   0.004749
    24  H   -0.000008  -0.000055   0.003192  -0.040313   0.354588  -0.038257
    25  H   -0.000000   0.000003   0.000489   0.005598  -0.046873   0.355914
    26  H    0.000000  -0.000001   0.000028   0.000002  -0.000209   0.003754
    27  H   -0.000000   0.000000  -0.000196   0.000018   0.000093  -0.004948
    28  H   -0.000000   0.000000  -0.000017  -0.000008  -0.000152   0.003992
    29  H   -0.000000  -0.000001  -0.000155   0.000001  -0.000019  -0.000083
    30  H   -0.000000   0.000000  -0.000000  -0.000000   0.000000   0.000003
    31  H    0.000000  -0.000000   0.000000   0.000000   0.000000   0.000000
    32  H    0.000000  -0.000000   0.000000  -0.000000   0.000000   0.000000
    33  H   -0.000000  -0.000000   0.000000  -0.000000  -0.000000   0.000000
    34  H    0.000000  -0.000000   0.000000  -0.000000   0.000000   0.000000
    35  H    0.000000  -0.000000   0.000000   0.000000   0.000000   0.000000
    36  H   -0.000242   0.000503  -0.039655   0.008159  -0.000201   0.006671
               7          8          9         10         11         12
     1  C   -0.000101   0.000003  -0.000000   0.000000  -0.000000  -0.000000
     2  O    0.002615  -0.000073   0.000001  -0.000000  -0.000000  -0.000000
     3  C   -0.005286   0.006624  -0.000116   0.000002  -0.000000  -0.000000
     4  C   -0.036614   0.000595   0.000016  -0.000000   0.000000   0.000000
     5  C   -0.011417   0.007400  -0.000084   0.000003  -0.000000  -0.000000
     6  C    0.545936  -0.059067  -0.004534   0.000087  -0.000009  -0.000000
     7  C    4.628265   0.349608  -0.041778   0.004353   0.000242   0.000028
     8  C    0.349608   5.201550   0.341107  -0.038457  -0.005341  -0.001363
     9  C   -0.041778   0.341107   5.112856   0.327533  -0.045419  -0.002104
    10  C    0.004353  -0.038457   0.327533   5.283776   0.245974  -0.089785
    11  C    0.000242  -0.005341  -0.045419   0.245974   4.638102   0.886070
    12  N    0.000028  -0.001363  -0.002104  -0.089785   0.886070   6.688951
    13  C   -0.000118   0.004278  -0.043940   0.346591  -0.034707  -0.003818
    14  C   -0.000003   0.000030  -0.003634  -0.045132   0.002381  -0.000077
    15  C    0.000000   0.000002  -0.000195   0.006850  -0.000271   0.000000
    16  C    0.000000  -0.000000   0.000018   0.000591   0.000013   0.000001
    17  C   -0.000000   0.000001   0.000112   0.006211   0.000228   0.000015
    18  C   -0.000007   0.000134  -0.004361  -0.064120  -0.008562  -0.001746
    19  C    0.540028  -0.055932  -0.005423   0.000166  -0.000039  -0.000008
    20  H    0.000002  -0.000000  -0.000000  -0.000000  -0.000000   0.000000
    21  H    0.000011  -0.000000   0.000000   0.000000  -0.000000  -0.000000
    22  H   -0.000002   0.000000  -0.000000  -0.000000   0.000000   0.000000
    23  H    0.000759   0.000008   0.000000  -0.000000   0.000000   0.000000
    24  H    0.003699  -0.000230  -0.000001  -0.000000  -0.000000  -0.000000
    25  H   -0.048766  -0.010206   0.000272  -0.000055  -0.000000   0.000000
    26  H   -0.026377   0.359463  -0.037460  -0.007150   0.010315   0.001840
    27  H   -0.029799   0.359098  -0.041354  -0.002916  -0.001284  -0.000005
    28  H   -0.001319  -0.037918   0.367411  -0.037882   0.005883  -0.000037
    29  H   -0.002341  -0.037286   0.369244  -0.028266  -0.010052  -0.000027
    30  H   -0.000002  -0.004042  -0.039232   0.367915  -0.047930  -0.001107
    31  H    0.000000  -0.000035   0.000164  -0.011126   0.000350   0.000000
    32  H    0.000000  -0.000000   0.000001  -0.000203   0.000002   0.000000
    33  H   -0.000000  -0.000000   0.000000   0.000008   0.000000   0.000000
    34  H    0.000000  -0.000000  -0.000001  -0.000207  -0.000002   0.000000
    35  H   -0.000000  -0.000074  -0.000014  -0.009850   0.007872   0.001398
    36  H   -0.048171  -0.010325   0.000272  -0.000066   0.000046   0.000008
              13         14         15         16         17         18
     1  C   -0.000000  -0.000000   0.000000   0.000000  -0.000000  -0.000000
     2  O   -0.000000  -0.000000   0.000000  -0.000000   0.000000   0.000000
     3  C   -0.000000   0.000000  -0.000000   0.000000  -0.000000  -0.000000
     4  C    0.000000   0.000000   0.000000  -0.000000  -0.000000   0.000000
     5  C   -0.000000  -0.000000  -0.000000   0.000000   0.000000   0.000000
     6  C   -0.000005  -0.000001  -0.000000   0.000000  -0.000000  -0.000000
     7  C   -0.000118  -0.000003   0.000000   0.000000  -0.000000  -0.000007
     8  C    0.004278   0.000030   0.000002  -0.000000   0.000001   0.000134
     9  C   -0.043940  -0.003634  -0.000195   0.000018   0.000112  -0.004361
    10  C    0.346591  -0.045132   0.006850   0.000591   0.006211  -0.064120
    11  C   -0.034707   0.002381  -0.000271   0.000013   0.000228  -0.008562
    12  N   -0.003818  -0.000077   0.000000   0.000001   0.000015  -0.001746
    13  C    4.664617   0.552680  -0.016452  -0.036704  -0.015292   0.538899
    14  C    0.552680   4.953451   0.527044  -0.037417  -0.047222  -0.044793
    15  C   -0.016452   0.527044   4.854340   0.557040  -0.024075  -0.049100
    16  C   -0.036704  -0.037417   0.557040   4.839894   0.554088  -0.037154
    17  C   -0.015292  -0.047222  -0.024075   0.554088   4.847825   0.530639
    18  C    0.538899  -0.044793  -0.049100  -0.037154   0.530639   4.968153
    19  C   -0.000004  -0.000000  -0.000000   0.000000  -0.000000  -0.000002
    20  H   -0.000000   0.000000   0.000000  -0.000000   0.000000   0.000000
    21  H   -0.000000  -0.000000   0.000000   0.000000   0.000000   0.000000
    22  H    0.000000   0.000000  -0.000000  -0.000000  -0.000000  -0.000000
    23  H   -0.000000  -0.000000   0.000000  -0.000000   0.000000   0.000000
    24  H    0.000000   0.000000   0.000000  -0.000000   0.000000   0.000000
    25  H    0.000001   0.000000   0.000000   0.000000   0.000000  -0.000000
    26  H    0.000154  -0.000003  -0.000000   0.000000  -0.000000  -0.000012
    27  H   -0.000003  -0.000003   0.000000  -0.000000   0.000000   0.000006
    28  H    0.000249   0.003043  -0.000140  -0.000002  -0.000063  -0.000333
    29  H   -0.006243  -0.000104   0.000013  -0.000005  -0.000044   0.005216
    30  H   -0.033978  -0.006295   0.000177   0.000003  -0.000164   0.005701
    31  H   -0.047666   0.355202  -0.045469   0.005110   0.000350   0.006547
    32  H    0.004124  -0.040394   0.357676  -0.043658   0.004812   0.000961
    33  H    0.000774   0.005120  -0.044334   0.360520  -0.043975   0.005139
    34  H    0.003691   0.001005   0.004798  -0.043425   0.358527  -0.039685
    35  H   -0.048425   0.006044   0.000416   0.004723  -0.040061   0.356087
    36  H    0.000002   0.000000   0.000000   0.000000  -0.000000  -0.000001
              19         20         21         22         23         24
     1  C    0.004182   0.387839   0.363402   0.363254   0.006290  -0.000008
     2  O   -0.050048  -0.034873  -0.036416  -0.036705  -0.008017  -0.000055
     3  C    0.515930   0.003311  -0.004524  -0.004501  -0.047289   0.003192
     4  C   -0.078938   0.000226   0.004873   0.004938   0.353754  -0.040313
     5  C   -0.047458   0.000003  -0.000182  -0.000162  -0.041449   0.354588
     6  C   -0.044260   0.000000  -0.000007  -0.000007   0.004749  -0.038257
     7  C    0.540028   0.000002   0.000011  -0.000002   0.000759   0.003699
     8  C   -0.055932  -0.000000  -0.000000   0.000000   0.000008  -0.000230
     9  C   -0.005423  -0.000000   0.000000  -0.000000   0.000000  -0.000001
    10  C    0.000166  -0.000000   0.000000  -0.000000  -0.000000  -0.000000
    11  C   -0.000039  -0.000000  -0.000000   0.000000   0.000000  -0.000000
    12  N   -0.000008   0.000000  -0.000000   0.000000   0.000000  -0.000000
    13  C   -0.000004  -0.000000  -0.000000   0.000000  -0.000000   0.000000
    14  C   -0.000000   0.000000  -0.000000   0.000000  -0.000000   0.000000
    15  C   -0.000000   0.000000   0.000000  -0.000000   0.000000   0.000000
    16  C    0.000000  -0.000000   0.000000  -0.000000  -0.000000  -0.000000
    17  C   -0.000000   0.000000   0.000000  -0.000000   0.000000   0.000000
    18  C   -0.000002   0.000000   0.000000  -0.000000   0.000000   0.000000
    19  C    5.096390  -0.000113   0.000048   0.000030   0.004846   0.001167
    20  H   -0.000113   0.538507  -0.031919  -0.032298  -0.000104  -0.000000
    21  H    0.000048  -0.031919   0.602398  -0.050014   0.001766   0.000003
    22  H    0.000030  -0.032298  -0.050014   0.603975   0.001837   0.000003
    23  H    0.004846  -0.000104   0.001766   0.001837   0.601210  -0.006195
    24  H    0.001167  -0.000000   0.000003   0.000003  -0.006195   0.600539
    25  H    0.006486  -0.000000   0.000000   0.000000  -0.000194  -0.005748
    26  H   -0.003923  -0.000000   0.000000  -0.000000  -0.000000   0.000003
    27  H    0.003988   0.000000  -0.000000   0.000000  -0.000000  -0.000006
    28  H   -0.000026  -0.000000   0.000000  -0.000000  -0.000000   0.000004
    29  H    0.004666   0.000000  -0.000000   0.000000  -0.000000   0.000000
    30  H   -0.000000   0.000000   0.000000  -0.000000   0.000000  -0.000000
    31  H   -0.000000  -0.000000  -0.000000   0.000000  -0.000000  -0.000000
    32  H    0.000000  -0.000000   0.000000  -0.000000   0.000000  -0.000000
    33  H    0.000000   0.000000  -0.000000   0.000000  -0.000000   0.000000
    34  H    0.000000  -0.000000  -0.000000   0.000000   0.000000  -0.000000
    35  H   -0.000001  -0.000000   0.000000  -0.000000   0.000000  -0.000000
    36  H    0.343160  -0.000033   0.000032   0.000035  -0.000178   0.000020
              25         26         27         28         29         30
     1  C   -0.000000   0.000000  -0.000000  -0.000000  -0.000000  -0.000000
     2  O    0.000003  -0.000001   0.000000   0.000000  -0.000001   0.000000
     3  C    0.000489   0.000028  -0.000196  -0.000017  -0.000155  -0.000000
     4  C    0.005598   0.000002   0.000018  -0.000008   0.000001  -0.000000
     5  C   -0.046873  -0.000209   0.000093  -0.000152  -0.000019   0.000000
     6  C    0.355914   0.003754  -0.004948   0.003992  -0.000083   0.000003
     7  C   -0.048766  -0.026377  -0.029799  -0.001319  -0.002341  -0.000002
     8  C   -0.010206   0.359463   0.359098  -0.037918  -0.037286  -0.004042
     9  C    0.000272  -0.037460  -0.041354   0.367411   0.369244  -0.039232
    10  C   -0.000055  -0.007150  -0.002916  -0.037882  -0.028266   0.367915
    11  C   -0.000000   0.010315  -0.001284   0.005883  -0.010052  -0.047930
    12  N    0.000000   0.001840  -0.000005  -0.000037  -0.000027  -0.001107
    13  C    0.000001   0.000154  -0.000003   0.000249  -0.006243  -0.033978
    14  C    0.000000  -0.000003  -0.000003   0.003043  -0.000104  -0.006295
    15  C    0.000000  -0.000000   0.000000  -0.000140   0.000013   0.000177
    16  C    0.000000   0.000000  -0.000000  -0.000002  -0.000005   0.000003
    17  C    0.000000  -0.000000   0.000000  -0.000063  -0.000044  -0.000164
    18  C   -0.000000  -0.000012   0.000006  -0.000333   0.005216   0.005701
    19  C    0.006486  -0.003923   0.003988  -0.000026   0.004666  -0.000000
    20  H   -0.000000  -0.000000   0.000000  -0.000000   0.000000   0.000000
    21  H    0.000000   0.000000  -0.000000   0.000000  -0.000000   0.000000
    22  H    0.000000  -0.000000   0.000000  -0.000000   0.000000  -0.000000
    23  H   -0.000194  -0.000000  -0.000000  -0.000000  -0.000000   0.000000
    24  H   -0.005748   0.000003  -0.000006   0.000004   0.000000  -0.000000
    25  H    0.622636   0.000088   0.005755   0.000776   0.000039   0.000001
    26  H    0.000088   0.552777  -0.032085   0.005551  -0.004319  -0.000414
    27  H    0.005755  -0.032085   0.594471  -0.004555   0.005716   0.005737
    28  H    0.000776   0.005551  -0.004555   0.570389  -0.030600  -0.003319
    29  H    0.000039  -0.004319   0.005716  -0.030600   0.563533   0.005448
    30  H    0.000001  -0.000414   0.005737  -0.003319   0.005448   0.563786
    31  H   -0.000000   0.000001  -0.000003   0.000398  -0.000001   0.006927
    32  H   -0.000000  -0.000000  -0.000000   0.000002   0.000000  -0.000010
    33  H   -0.000000   0.000000   0.000000  -0.000000  -0.000000  -0.000000
    34  H   -0.000000  -0.000000  -0.000000   0.000000   0.000002   0.000003
    35  H   -0.000000  -0.000000   0.000001   0.000125   0.001813   0.000174
    36  H   -0.000164   0.004910   0.000116   0.000047   0.000957   0.000000
              31         32         33         34         35         36
     1  C    0.000000   0.000000  -0.000000   0.000000   0.000000  -0.000242
     2  O   -0.000000  -0.000000  -0.000000  -0.000000  -0.000000   0.000503
     3  C    0.000000   0.000000   0.000000   0.000000   0.000000  -0.039655
     4  C    0.000000  -0.000000  -0.000000  -0.000000   0.000000   0.008159
     5  C    0.000000   0.000000  -0.000000   0.000000   0.000000  -0.000201
     6  C    0.000000   0.000000   0.000000   0.000000   0.000000   0.006671
     7  C    0.000000   0.000000  -0.000000   0.000000  -0.000000  -0.048171
     8  C   -0.000035  -0.000000  -0.000000  -0.000000  -0.000074  -0.010325
     9  C    0.000164   0.000001   0.000000  -0.000001  -0.000014   0.000272
    10  C   -0.011126  -0.000203   0.000008  -0.000207  -0.009850  -0.000066
    11  C    0.000350   0.000002   0.000000  -0.000002   0.007872   0.000046
    12  N    0.000000   0.000000   0.000000   0.000000   0.001398   0.000008
    13  C   -0.047666   0.004124   0.000774   0.003691  -0.048425   0.000002
    14  C    0.355202  -0.040394   0.005120   0.001005   0.006044   0.000000
    15  C   -0.045469   0.357676  -0.044334   0.004798   0.000416   0.000000
    16  C    0.005110  -0.043658   0.360520  -0.043425   0.004723   0.000000
    17  C    0.000350   0.004812  -0.043975   0.358527  -0.040061  -0.000000
    18  C    0.006547   0.000961   0.005139  -0.039685   0.356087  -0.000001
    19  C   -0.000000   0.000000   0.000000   0.000000  -0.000001   0.343160
    20  H   -0.000000  -0.000000   0.000000  -0.000000  -0.000000  -0.000033
    21  H   -0.000000   0.000000  -0.000000  -0.000000   0.000000   0.000032
    22  H    0.000000  -0.000000   0.000000   0.000000  -0.000000   0.000035
    23  H   -0.000000   0.000000  -0.000000   0.000000   0.000000  -0.000178
[...]
    32  H    0.000000  -0.000000   0.000000  -0.000000   0.000000   0.000000
    33  H   -0.000000  -0.000000   0.000000  -0.000000   0.000000   0.000000
    34  H    0.000000  -0.000000   0.000000  -0.000000   0.000000   0.000000
    35  H    0.000000  -0.000000   0.000000  -0.000000   0.000000   0.000000
    36  H   -0.000226   0.000524  -0.038674   0.007522  -0.000184   0.006128
               7          8          9         10         11         12
     1  C   -0.000102   0.000003  -0.000000   0.000000  -0.000000  -0.000000
     2  O    0.002528  -0.000066   0.000000  -0.000000  -0.000000   0.000000
     3  C   -0.007442   0.006093  -0.000110   0.000002  -0.000000  -0.000000
     4  C   -0.034034   0.000532   0.000013  -0.000000   0.000000   0.000000
     5  C   -0.013093   0.006619  -0.000047   0.000002  -0.000000  -0.000000
     6  C    0.539373  -0.057457  -0.003943   0.000074  -0.000005  -0.000000
     7  C    4.639920   0.348191  -0.037361   0.003627   0.000284   0.000029
     8  C    0.348191   5.187712   0.339693  -0.033685  -0.004867  -0.001220
     9  C   -0.037361   0.339693   5.104812   0.326059  -0.042864  -0.001775
    10  C    0.003627  -0.033685   0.326059   5.277763   0.246997  -0.083912
    11  C    0.000284  -0.004867  -0.042864   0.246997   4.657046   0.851378
    12  N    0.000029  -0.001220  -0.001775  -0.083912   0.851378   6.721172
    13  C   -0.000088   0.003664  -0.040145   0.341910  -0.030448  -0.002332
    14  C   -0.000005   0.000090  -0.004610  -0.045762   0.002797  -0.000074
    15  C    0.000000   0.000002  -0.000142   0.006010  -0.000223  -0.000000
    16  C    0.000000  -0.000000   0.000020   0.000474   0.000008   0.000000
    17  C   -0.000000   0.000001   0.000013   0.005947   0.000200   0.000017
    18  C   -0.000003   0.000053  -0.003344  -0.061786  -0.006843  -0.001370
    19  C    0.537749  -0.051692  -0.004039   0.000094  -0.000032  -0.000005
    20  H    0.000002  -0.000000  -0.000000  -0.000000  -0.000000   0.000000
    21  H    0.000008  -0.000000   0.000000   0.000000  -0.000000  -0.000000
    22  H   -0.000001   0.000000  -0.000000  -0.000000   0.000000   0.000000
    23  H    0.000659   0.000007   0.000000   0.000000   0.000000   0.000000
    24  H    0.003492  -0.000203  -0.000001  -0.000000  -0.000000  -0.000000
    25  H   -0.047431  -0.009104   0.000285  -0.000055  -0.000000   0.000000
    26  H   -0.026501   0.358746  -0.036424  -0.006501   0.009483   0.001976
    27  H   -0.030004   0.359079  -0.042526  -0.002595  -0.001295  -0.000025
    28  H   -0.001451  -0.037252   0.365688  -0.037030   0.005796  -0.000021
    29  H   -0.001860  -0.035179   0.366813  -0.029687  -0.009097  -0.000019
    30  H   -0.000034  -0.003632  -0.040587   0.364609  -0.047166  -0.000787
    31  H    0.000000  -0.000049   0.000135  -0.009926   0.000339   0.000001
    32  H    0.000000  -0.000000   0.000000  -0.000178   0.000002   0.000000
    33  H   -0.000000  -0.000000   0.000000   0.000007   0.000000   0.000000
    34  H    0.000000  -0.000000  -0.000001  -0.000180  -0.000001   0.000000
    35  H   -0.000000  -0.000036   0.000125  -0.010056   0.009060   0.001884
    36  H   -0.045636  -0.009493   0.000273  -0.000042   0.000018   0.000003
              13         14         15         16         17         18
     1  C   -0.000000  -0.000000  -0.000000   0.000000  -0.000000  -0.000000
     2  O    0.000000  -0.000000   0.000000  -0.000000   0.000000   0.000000
     3  C   -0.000000   0.000000  -0.000000   0.000000   0.000000  -0.000000
     4  C    0.000000   0.000000   0.000000  -0.000000   0.000000   0.000000
     5  C   -0.000000  -0.000000  -0.000000   0.000000   0.000000   0.000000
     6  C   -0.000003  -0.000001  -0.000000   0.000000   0.000000  -0.000000
     7  C   -0.000088  -0.000005   0.000000   0.000000  -0.000000  -0.000003
     8  C    0.003664   0.000090   0.000002  -0.000000   0.000001   0.000053
     9  C   -0.040145  -0.004610  -0.000142   0.000020   0.000013  -0.003344
    10  C    0.341910  -0.045762   0.006010   0.000474   0.005947  -0.061786
    11  C   -0.030448   0.002797  -0.000223   0.000008   0.000200  -0.006843
    12  N   -0.002332  -0.000074  -0.000000   0.000000   0.000017  -0.001370
    13  C    4.678869   0.541273  -0.018173  -0.034761  -0.017371   0.541796
    14  C    0.541273   4.955446   0.527278  -0.036440  -0.044667  -0.042867
    15  C   -0.018173   0.527278   4.860344   0.550380  -0.025409  -0.046063
    16  C   -0.034761  -0.036440   0.550380   4.847651   0.549900  -0.036516
    17  C   -0.017371  -0.044667  -0.025409   0.549900   4.860231   0.524041
    18  C    0.541796  -0.042867  -0.046063  -0.036516   0.524041   4.966503
    19  C   -0.000002  -0.000000  -0.000000   0.000000  -0.000000  -0.000001
    20  H    0.000000   0.000000   0.000000  -0.000000   0.000000   0.000000
    21  H   -0.000000  -0.000000   0.000000   0.000000  -0.000000   0.000000
    22  H    0.000000   0.000000  -0.000000  -0.000000   0.000000  -0.000000
    23  H   -0.000000   0.000000   0.000000  -0.000000   0.000000   0.000000
    24  H    0.000000   0.000000   0.000000  -0.000000   0.000000   0.000000
    25  H    0.000001   0.000000   0.000000   0.000000   0.000000  -0.000000
    26  H    0.000067  -0.000001  -0.000000   0.000000  -0.000000  -0.000005
    27  H    0.000032  -0.000005   0.000000   0.000000  -0.000000   0.000004
    28  H   -0.001180   0.004001  -0.000161  -0.000000  -0.000037  -0.000232
    29  H   -0.004153  -0.000161   0.000010  -0.000008  -0.000049   0.004293
    30  H   -0.034013  -0.006219   0.000158   0.000005  -0.000158   0.005103
    31  H   -0.048181   0.354980  -0.043758   0.004821   0.000306   0.006111
    32  H    0.003886  -0.039515   0.357498  -0.042369   0.004499   0.000838
    33  H    0.000699   0.004750  -0.042905   0.359775  -0.042479   0.004737
    34  H    0.003479   0.000883   0.004502  -0.042199   0.358064  -0.038505
    35  H   -0.045652   0.005745   0.000352   0.004459  -0.040032   0.355147
    36  H    0.000001   0.000000   0.000000   0.000000   0.000000  -0.000000
              19         20         21         22         23         24
     1  C    0.004034   0.386583   0.362622   0.362468   0.006144  -0.000007
     2  O   -0.049233  -0.033623  -0.035396  -0.035596  -0.007765  -0.000052
     3  C    0.513958   0.003262  -0.004437  -0.004430  -0.046057   0.002990
     4  C   -0.076368   0.000249   0.004662   0.004757   0.353866  -0.039341
     5  C   -0.044075   0.000001  -0.000169  -0.000145  -0.040161   0.354233
     6  C   -0.045083   0.000000  -0.000007  -0.000007   0.004380  -0.037475
     7  C    0.537749   0.000002   0.000008  -0.000001   0.000659   0.003492
     8  C   -0.051692  -0.000000  -0.000000   0.000000   0.000007  -0.000203
     9  C   -0.004039  -0.000000   0.000000  -0.000000   0.000000  -0.000001
    10  C    0.000094  -0.000000   0.000000  -0.000000   0.000000  -0.000000
    11  C   -0.000032  -0.000000  -0.000000   0.000000   0.000000  -0.000000
    12  N   -0.000005   0.000000  -0.000000   0.000000   0.000000  -0.000000
    13  C   -0.000002   0.000000  -0.000000   0.000000  -0.000000   0.000000
    14  C   -0.000000   0.000000  -0.000000   0.000000   0.000000   0.000000
    15  C   -0.000000   0.000000   0.000000  -0.000000   0.000000   0.000000
    16  C    0.000000  -0.000000   0.000000  -0.000000  -0.000000  -0.000000
    17  C   -0.000000   0.000000  -0.000000   0.000000   0.000000   0.000000
    18  C   -0.000001   0.000000   0.000000  -0.000000   0.000000   0.000000
    19  C    5.090092  -0.000105   0.000044   0.000023   0.004519   0.001043
    20  H   -0.000105   0.537125  -0.031737  -0.031984  -0.000092  -0.000000
    21  H    0.000044  -0.031737   0.600564  -0.049824   0.001758   0.000002
    22  H    0.000023  -0.031984  -0.049824   0.601779   0.001776   0.000003
    23  H    0.004519  -0.000092   0.001758   0.001776   0.596672  -0.005544
    24  H    0.001043  -0.000000   0.000002   0.000003  -0.005544   0.597122
    25  H    0.005958  -0.000000   0.000000   0.000000  -0.000173  -0.005352
    26  H   -0.003864  -0.000000   0.000000  -0.000000  -0.000000   0.000003
    27  H    0.003550   0.000000  -0.000000   0.000000  -0.000000  -0.000005
    28  H   -0.000036  -0.000000   0.000000  -0.000000  -0.000000   0.000004
    29  H    0.003675   0.000000  -0.000000   0.000000  -0.000000   0.000000
    30  H    0.000001   0.000000   0.000000  -0.000000   0.000000  -0.000000
    31  H   -0.000000  -0.000000  -0.000000   0.000000  -0.000000  -0.000000
    32  H    0.000000  -0.000000   0.000000  -0.000000   0.000000  -0.000000
    33  H    0.000000   0.000000  -0.000000   0.000000  -0.000000   0.000000
    34  H    0.000000  -0.000000  -0.000000   0.000000   0.000000  -0.000000
    35  H    0.000000  -0.000000   0.000000  -0.000000  -0.000000  -0.000000
    36  H    0.343147  -0.000029   0.000029   0.000032  -0.000162   0.000017
              25         26         27         28         29         30
     1  C   -0.000000   0.000000  -0.000000  -0.000000  -0.000000  -0.000000
     2  O    0.000002  -0.000001   0.000000   0.000000  -0.000000   0.000000
     3  C    0.000438   0.000056  -0.000182  -0.000009  -0.000109  -0.000000
     4  C    0.005184   0.000001   0.000015  -0.000006  -0.000002  -0.000000
     5  C   -0.045112  -0.000190   0.000096  -0.000131  -0.000011   0.000000
     6  C    0.355562   0.003690  -0.004721   0.003858  -0.000119   0.000001
     7  C   -0.047431  -0.026501  -0.030004  -0.001451  -0.001860  -0.000034
     8  C   -0.009104   0.358746   0.359079  -0.037252  -0.035179  -0.003632
     9  C    0.000285  -0.036424  -0.042526   0.365688   0.366813  -0.040587
    10  C   -0.000055  -0.006501  -0.002595  -0.037030  -0.029687   0.364609
    11  C   -0.000000   0.009483  -0.001295   0.005796  -0.009097  -0.047166
    12  N    0.000000   0.001976  -0.000025  -0.000021  -0.000019  -0.000787
    13  C    0.000001   0.000067   0.000032  -0.001180  -0.004153  -0.034013
    14  C    0.000000  -0.000001  -0.000005   0.004001  -0.000161  -0.006219
    15  C    0.000000  -0.000000   0.000000  -0.000161   0.000010   0.000158
    16  C    0.000000   0.000000   0.000000  -0.000000  -0.000008   0.000005
    17  C    0.000000  -0.000000  -0.000000  -0.000037  -0.000049  -0.000158
    18  C   -0.000000  -0.000005   0.000004  -0.000232   0.004293   0.005103
    19  C    0.005958  -0.003864   0.003550  -0.000036   0.003675   0.000001
    20  H   -0.000000  -0.000000   0.000000  -0.000000   0.000000   0.000000
    21  H    0.000000   0.000000  -0.000000   0.000000  -0.000000   0.000000
    22  H    0.000000  -0.000000   0.000000  -0.000000   0.000000  -0.000000
    23  H   -0.000173  -0.000000  -0.000000  -0.000000  -0.000000   0.000000
    24  H   -0.005352   0.000003  -0.000005   0.000004   0.000000  -0.000000
    25  H    0.617948   0.000070   0.005103   0.000792   0.000035   0.000003
    26  H    0.000070   0.555587  -0.033650   0.005388  -0.004407  -0.000389
    27  H    0.005103  -0.033650   0.598018  -0.004293   0.005593   0.005746
    28  H    0.000792   0.005388  -0.004293   0.574162  -0.032023  -0.003728
    29  H    0.000035  -0.004407   0.005593  -0.032023   0.567624   0.005577
    30  H    0.000003  -0.000389   0.005746  -0.003728   0.005577   0.567501
    31  H    0.000000   0.000001   0.000000   0.000768   0.000008   0.006310
    32  H   -0.000000  -0.000000  -0.000000   0.000002   0.000000  -0.000008
    33  H   -0.000000   0.000000   0.000000  -0.000000  -0.000000  -0.000000
    34  H   -0.000000  -0.000000   0.000000   0.000000   0.000002   0.000003
    35  H   -0.000000  -0.000001   0.000000   0.000056   0.000805   0.000172
    36  H   -0.000151   0.004848   0.000096   0.000033   0.000582   0.000000
              31         32         33         34         35         36
     1  C    0.000000   0.000000  -0.000000   0.000000   0.000000  -0.000226
     2  O   -0.000000  -0.000000  -0.000000  -0.000000  -0.000000   0.000524
     3  C    0.000000   0.000000   0.000000   0.000000   0.000000  -0.038674
     4  C    0.000000  -0.000000  -0.000000  -0.000000  -0.000000   0.007522
     5  C   -0.000000   0.000000   0.000000   0.000000   0.000000  -0.000184
     6  C    0.000000   0.000000   0.000000   0.000000   0.000000   0.006128
     7  C    0.000000   0.000000  -0.000000   0.000000  -0.000000  -0.045636
     8  C   -0.000049  -0.000000  -0.000000  -0.000000  -0.000036  -0.009493
     9  C    0.000135   0.000000   0.000000  -0.000001   0.000125   0.000273
    10  C   -0.009926  -0.000178   0.000007  -0.000180  -0.010056  -0.000042
    11  C    0.000339   0.000002   0.000000  -0.000001   0.009060   0.000018
    12  N    0.000001   0.000000   0.000000   0.000000   0.001884   0.000003
    13  C   -0.048181   0.003886   0.000699   0.003479  -0.045652   0.000001
    14  C    0.354980  -0.039515   0.004750   0.000883   0.005745   0.000000
    15  C   -0.043758   0.357498  -0.042905   0.004502   0.000352   0.000000
    16  C    0.004821  -0.042369   0.359775  -0.042199   0.004459   0.000000
    17  C    0.000306   0.004499  -0.042479   0.358064  -0.040032   0.000000
    18  C    0.006111   0.000838   0.004737  -0.038505   0.355147  -0.000000
    19  C   -0.000000   0.000000   0.000000   0.000000   0.000000   0.343147
    20  H   -0.000000  -0.000000   0.000000  -0.000000  -0.000000  -0.000029
    21  H   -0.000000   0.000000  -0.000000  -0.000000   0.000000   0.000029
    22  H    0.000000  -0.000000   0.000000   0.000000  -0.000000   0.000032
    23  H   -0.000000   0.000000  -0.000000   0.000000  -0.000000  -0.000162
    24  H   -0.000000  -0.000000   0.000000  -0.000000  -0.000000   0.000017
    25  H    0.000000  -0.000000  -0.000000  -0.000000  -0.000000  -0.000151
    26  H    0.000001  -0.000000   0.000000  -0.000000  -0.000001   0.004848
    27  H    0.000000  -0.000000   0.000000   0.000000   0.000000   0.000096
    28  H    0.000768   0.000002  -0.000000   0.000000   0.000056   0.000033
    29  H    0.000008   0.000000  -0.000000   0.000002   0.000805   0.000582
    30  H    0.006310  -0.000008  -0.000000   0.000003   0.000172   0.000000
    31  H    0.606764  -0.005618  -0.000177   0.000017  -0.000158  -0.000000
    32  H   -0.005618   0.591711  -0.005466  -0.000184   0.000017  -0.000000
    33  H   -0.000177  -0.005466   0.592027  -0.005427  -0.000168   0.000000
    34  H    0.000017  -0.000184  -0.005427   0.586473  -0.005060  -0.000000
    35  H   -0.000158   0.000017  -0.000168  -0.005060   0.572074  -0.000000
    36  H   -0.000000  -0.000000   0.000000  -0.000000  -0.000000   0.593762
 Mulliken charges:
               1
     1  C   -0.214654
     2  O   -0.506841
     3  C    0.380327
     4  C   -0.197983
     5  C   -0.136042
     6  C   -0.182159
     7  C    0.169182
     8  C   -0.366550
     9  C   -0.246011
    10  C   -0.252181
    11  C    0.359435
    12  N   -0.484920
    13  C    0.160827
    14  C   -0.176915
    15  C   -0.129699
    16  C   -0.125201
    17  C   -0.133017
    18  C   -0.171093
    19  C   -0.233354
    20  H    0.170348
    21  H    0.151880
    22  H    0.151148
    23  H    0.130175
    24  H    0.129070
    25  H    0.115996
    26  H    0.172020
    27  H    0.141969
    28  H    0.157041
    29  H    0.161865
    30  H    0.181532
    31  H    0.127307
    32  H    0.134885
    33  H    0.134627
    34  H    0.138136
    35  H    0.151268
    36  H    0.137583
 Sum of Mulliken charges =  -0.00000
 Mulliken charges with hydrogens summed into heavy atoms:
               1
     1  C    0.258722
     2  O   -0.506841
     3  C    0.380327
     4  C   -0.067808
     5  C   -0.006972
     6  C   -0.066164
     7  C    0.169182
     8  C   -0.052562
     9  C    0.072895
    10  C   -0.070649
    11  C    0.359435
    12  N   -0.484920
    13  C    0.160827
    14  C   -0.049608
    15  C    0.005186
    16  C    0.009426
    17  C    0.005119
    18  C   -0.019825
    19  C   -0.095771
 Electronic spatial extent (au):  <R**2>=           7871.9870
 Charge=              0.0000 electrons
 Dipole moment (field-independent basis, Debye):
    X=             -1.1625    Y=             -4.4280    Z=              0.7232  Tot=              4.6349
 Quadrupole moment (field-independent basis, Debye-Ang):
   XX=            -92.4390   YY=           -122.5615   ZZ=           -105.4904
   XY=             -6.9630   XZ=             -2.2575   YZ=              6.3871
 Traceless Quadrupole moment (field-independent basis, Debye-Ang):
   XX=             14.3914   YY=            -15.7312   ZZ=              1.3399
   XY=             -6.9630   XZ=             -2.2575   YZ=              6.3871
 Octapole moment (field-independent basis, Debye-Ang**2):
  XXX=           -114.3702  YYY=            -61.5910  ZZZ=             13.9196  XYY=            -31.6466
  XXY=            -56.2204  XXZ=             70.6715  XZZ=              2.2283  YZZ=             -1.8618
  YYZ=             10.8947  XYZ=              9.4355
 Hexadecapole moment (field-independent basis, Debye-Ang**3):
 XXXX=          -7592.8504 YYYY=          -1398.5490 ZZZZ=           -931.1572 XXXY=           -135.5454
 XXXZ=           -162.4248 YYYX=           -140.1735 YYYZ=             80.4261 ZZZX=            -45.4144
 ZZZY=             22.1432 XXYY=          -1596.7133 XXZZ=          -1439.4353 YYZZ=           -363.7056
 XXYZ=             29.8013 YYXZ=             28.2817 ZZXY=            -10.8940
 N-N= 1.245929162868D+03 E-N=-4.319209644544D+03  KE= 7.804315308734D+02
 No NMR shielding tensors so no spin-rotation constants.
 Leave Link  601 at Fri Nov  4 20:46:49 2022, MaxMem=   805306368 cpu:               0.8 elap:               0.1
 (Enter /home/wykgroup/appl/g16/l9999.exe)
 1\1\GINC-NODE91\FOpt\RB3LYP\6-31G(d)\C17H17N1O1\WYKGROUP\04-Nov-2022\0
 \\#p b3lyp/6-31g(d) opt SCF=XQC\\Gaussian input prepared by ASE\\0,1\C
 ,-5.6542984217,-1.9106305298,-0.2299112689\O,-4.4304621356,-1.59890211
 15,0.4149003402\C,-3.7468984955,-0.4902066548,0.003494412\C,-4.1645449
 613,0.3672867235,-1.0204675873\C,-3.3733917058,1.4740805969,-1.3430955
 282\C,-2.1856065439,1.7297491008,-0.6650956749\C,-1.7619666402,0.87123
 90742,0.362611582\C,-0.4511671925,1.1132657648,1.0820634732\C,0.736090
 2898,0.4452391641,0.3629793358\C,2.1099127452,0.6998696968,1.047994723
 2\C,2.1022186914,0.1808870364,2.4255954215\N,2.07172105,-0.2420684667,
 3.5066805758\C,3.2628961819,0.1227306375,0.2290239864\C,3.9061102112,0
 .9328521382,-0.7139065862\C,4.9212227346,0.4163395615,-1.5196461326\C,
 5.3069967269,-0.9185669271,-1.3881581519\C,4.6727778627,-1.7311768747,
 -0.4468947608\C,3.6561325508,-1.2144779035,0.3569347735\C,-2.550060980
 1,-0.2322373426,0.6873601757\H,-6.0233382299,-2.8184620929,0.250959770
 7\H,-6.3936695583,-1.1083220912,-0.1044782819\H,-5.5100462273,-2.10184
 66638,-1.301756377\H,-5.0878630776,0.1902487146,-1.5598095171\H,-3.699
 9897197,2.1442511999,-2.1342019913\H,-1.5863829958,2.5992393351,-0.924
 5708174\H,-0.5125841285,0.7328374169,2.1083964599\H,-0.2640520598,2.19
 31446951,1.1553087952\H,0.8102584324,0.8217879239,-0.6637262275\H,0.57
 0368454,-0.6358169248,0.2904161623\H,2.2512129132,1.7868676717,1.12314
 33005\H,3.6125934911,1.975422315,-0.8173753832\H,5.4138846587,1.058910
 226,-2.2443823291\H,6.1006473797,-1.3214711223,-2.0113240409\H,4.97165
 45316,-2.7696538741,-0.3331415019\H,3.1767542806,-1.8490857134,1.09774
 09231\H,-2.2571291125,-0.9133246993,1.481849947\\Version=ES64L-G16RevB
 .01\State=1-A\HF=-788.0030463\RMSD=6.274e-09\RMSF=9.456e-06\Dipole=-0.
 4372933,0.3226556,-1.7406309\Quadrupole=10.7367235,2.6397445,-13.37646
 8,3.4302958,-3.9693707,0.4341396\PG=C01 [X(C17H17N1O1)]\\@


 TO ERR IS HUMAN - AND TO BLAME IT ON A COMPUTER IS EVEN MORE SO.
 Job cpu time:       0 days  0 hours 51 minutes 26.1 seconds.
 Elapsed time:       0 days  0 hours  7 minutes 38.3 seconds.
 File lengths (MBytes):  RWF=     69 Int=      0 D2E=      0 Chk=     10 Scr=      1
 Normal termination of Gaussian 16 at Fri Nov  4 20:46:49 2022.
