 Entering Gaussian System, Link 0=/home/wykgroup/appl/g16/g16
 Input=./calculation/no_transfer_pubchem_sampling_4_b3lyp/134329536.com
 Output=./calculation/no_transfer_pubchem_sampling_4_b3lyp/134329536.log
 Initial command:
 /home/wykgroup/appl/g16/l1.exe "/userdata/scratch/wykgroup/khs/./calculation/no_transfer_pubchem_sampling_4_b3lyp/134329536/Gau-31607.inp" -scrdir="/userdata/scratch/wykgroup/khs/./calculation/no_transfer_pubchem_sampling_4_b3lyp/134329536/"
 Entering Link 1 = /home/wykgroup/appl/g16/l1.exe PID=     31608.
  
 Copyright (c) 1988-2017, Gaussian, Inc.  All Rights Reserved.
  
 This is part of the Gaussian(R) 16 program.  It is based on
 the Gaussian(R) 09 system (copyright 2009, Gaussian, Inc.),
 the Gaussian(R) 03 system (copyright 2003, Gaussian, Inc.),
 the Gaussian(R) 98 system (copyright 1998, Gaussian, Inc.),
 the Gaussian(R) 94 system (copyright 1995, Gaussian, Inc.),
 the Gaussian 92(TM) system (copyright 1992, Gaussian, Inc.),
 the Gaussian 90(TM) system (copyright 1990, Gaussian, Inc.),
 the Gaussian 88(TM) system (copyright 1988, Gaussian, Inc.),
 the Gaussian 86(TM) system (copyright 1986, Carnegie Mellon
 University), and the Gaussian 82(TM) system (copyright 1983,
 Carnegie Mellon University). Gaussian is a federally registered
 trademark of Gaussian, Inc.
  
 This software contains proprietary and confidential information,
 including trade secrets, belonging to Gaussian, Inc.
  
 This software is provided under written license and may be
 used, copied, transmitted, or stored only in accord with that
 written license.
  
 The following legend is applicable only to US Government
 contracts under FAR:
  
                    RESTRICTED RIGHTS LEGEND
  
 Use, reproduction and disclosure by the US Government is
 subject to restrictions as set forth in subparagraphs (a)
 and (c) of the Commercial Computer Software - Restricted
 Rights clause in FAR 52.227-19.
  
 Gaussian, Inc.
 340 Quinnipiac St., Bldg. 40, Wallingford CT 06492
  
  
 ---------------------------------------------------------------
 Warning -- This program may not be used in any manner that
 competes with the business of Gaussian, Inc. or will provide
 assistance to any competitor of Gaussian, Inc.  The licensee
 of this program is prohibited from giving any competitor of
 Gaussian, Inc. access to this program.  By using this program,
 the user acknowledges that Gaussian, Inc. is engaged in the
 business of creating and licensing software in the field of
 computational chemistry and represents and warrants to the
 licensee that it is not a competitor of Gaussian, Inc. and that
 it will not use this program in any manner prohibited above.
 ---------------------------------------------------------------
  

 Cite this work as:
 Gaussian 16, Revision B.01,
 M. J. Frisch, G. W. Trucks, H. B. Schlegel, G. E. Scuseria, 
 M. A. Robb, J. R. Cheeseman, G. Scalmani, V. Barone, 
 G. A. Petersson, H. Nakatsuji, X. Li, M. Caricato, A. V. Marenich, 
 J. Bloino, B. G. Janesko, R. Gomperts, B. Mennucci, H. P. Hratchian, 
 J. V. Ortiz, A. F. Izmaylov, J. L. Sonnenberg, D. Williams-Young, 
 F. Ding, F. Lipparini, F. Egidi, J. Goings, B. Peng, A. Petrone, 
 T. Henderson, D. Ranasinghe, V. G. Zakrzewski, J. Gao, N. Rega, 
 G. Zheng, W. Liang, M. Hada, M. Ehara, K. Toyota, R. Fukuda, 
 J. Hasegawa, M. Ishida, T. Nakajima, Y. Honda, O. Kitao, H. Nakai, 
 T. Vreven, K. Throssell, J. A. Montgomery, Jr., J. E. Peralta, 
 F. Ogliaro, M. J. Bearpark, J. J. Heyd, E. N. Brothers, K. N. Kudin, 
 V. N. Staroverov, T. A. Keith, R. Kobayashi, J. Normand, 
 K. Raghavachari, A. P. Rendell, J. C. Burant, S. S. Iyengar, 
 J. Tomasi, M. Cossi, J. M. Millam, M. Klene, C. Adamo, R. Cammi, 
 J. W. Ochterski, R. L. Martin, K. Morokuma, O. Farkas, 
 J. B. Foresman, and D. J. Fox, Gaussian, Inc., Wallingford CT, 2016.
 
 ******************************************
 Gaussian 16:  ES64L-G16RevB.01 20-Dec-2017
                 4-Nov-2022 
 ******************************************
 %chk=./calculation/no_transfer_pubchem_sampling_4_b3lyp/134329536.chk
 %nprocshared=7
 Will use up to    7 processors via shared memory.
 %mem=6GB
 -----------------------------
 #p b3lyp/6-31g(d) opt SCF=XQC
 -----------------------------
 1/18=20,19=15,26=3,38=1/1,3;
 2/9=110,12=2,17=6,18=5,40=1/2;
 3/5=1,6=6,7=1,11=2,25=1,30=1,71=1,74=-5/1,2,3;
 4//1;
 5/5=2,8=3,13=1,38=5/2,8;
 6/7=2,8=2,9=2,10=2,28=1/1;
 7//1,2,3,16;
 1/18=20,19=15,26=3/3(2);
 2/9=110/2;
 99//99;
 2/9=110/2;
 3/5=1,6=6,7=1,11=2,25=1,30=1,71=1,74=-5/1,2,3;
 4/5=5,16=3,69=1/1;
 5/5=2,8=3,13=1,38=5/2,8;
 7//1,2,3,16;
 1/18=20,19=15,26=3/3(-5);
 2/9=110/2;
 6/7=2,8=2,9=2,10=2,19=2,28=1/1;
 99/9=1/99;
 Leave Link    1 at Fri Nov  4 20:43:41 2022, MaxMem=   805306368 cpu:               0.9 elap:               0.2
 (Enter /home/wykgroup/appl/g16/l101.exe)
 ------------------------------
 Gaussian input prepared by ASE
 ------------------------------
 Symbolic Z-matrix:
 Charge =  0 Multiplicity = 1
 C                    -6.74233   1.53592  -0.47748 
 C                    -5.9174    0.4108    0.06207 
 C                    -4.52865   0.48893   0.08503 
 C                    -3.77065  -0.57034   0.58444 
 C                    -2.31792  -0.54402   0.61661 
 N                    -1.63441  -1.07611   1.68785 
 C                    -0.30245  -0.91068   1.49408 
 C                     0.76871  -1.26142   2.30424 
 C                     2.02601  -0.95021   1.84279 
 F                     3.07034  -1.29301   2.63653 
 C                     2.27048  -0.30198   0.62071 
 C                     3.66482   0.02754   0.15629 
 C                     4.35945   1.04007   1.08216 
 C                     5.87275   1.03789   0.81176 
 N                     6.10428   0.59784  -0.55127 
 C                     5.84132  -0.82424  -0.71667 
 C                     4.55658  -1.21155   0.02716 
 C                     1.18521   0.03432  -0.16376 
 C                    -0.11638  -0.26276   0.24793 
 C                    -1.4171   -0.04491  -0.30253 
 C                    -1.73801   0.51607  -1.65586 
 C                    -1.36028   1.99722  -1.74028 
 C                    -1.04779  -0.29243  -2.75821 
 C                    -4.50651  -1.65671   1.07172 
 F                    -3.86981  -2.73078   1.59808 
 C                    -5.88594  -1.65658   1.01834 
 N                    -6.5755   -0.64737   0.51825 
 H                    -6.49072   1.72382  -1.51969 
 H                    -7.79459   1.28035  -0.40251 
 H                    -6.55208   2.44805   0.08527 
 H                    -4.03664   1.38446  -0.25873 
 H                    -2.0599   -1.52863   2.47887 
 H                     0.6394   -1.75665   3.25331 
 H                     3.59377   0.47789  -0.83816 
 H                     4.1791    0.78799   2.12654 
 H                     3.94205   2.03095   0.89772 
 H                     6.38233   0.38893   1.54493 
 H                     6.27578   2.04646   0.92488 
 H                     7.05174   0.81029  -0.84404 
 H                     6.6726   -1.45225  -0.3521 
 H                     5.73008  -1.00664  -1.79046 
 H                     4.79836  -1.59019   1.01989 
 H                     4.03405  -2.00058  -0.51603 
 H                     1.36266   0.54108  -1.0993 
 H                    -2.81721   0.42253  -1.81608 
 H                    -0.2919    2.12956  -1.59632 
 H                    -1.63221   2.40053  -2.71334 
 H                    -1.87702   2.56836  -0.97144 
 H                     0.03234  -0.21956  -2.68423 
 H                    -1.35312   0.07617  -3.73519 
 H                    -1.32522  -1.34146  -2.68282 
 H                    -6.45248  -2.49939   1.38904 
 
 ITRead=  0  0  0  0  0  0  0  0  0  0  0  0  0  0  0  0  0  0  0  0
 ITRead=  0  0  0  0  0  0  0  0  0  0  0  0  0  0  0  0  0  0  0  0
 ITRead=  0  0  0  0  0  0  0  0  0  0  0  0
 MicOpt= -1 -1 -1 -1 -1 -1 -1 -1 -1 -1 -1 -1 -1 -1 -1 -1 -1 -1 -1 -1
 MicOpt= -1 -1 -1 -1 -1 -1 -1 -1 -1 -1 -1 -1 -1 -1 -1 -1 -1 -1 -1 -1
 MicOpt= -1 -1 -1 -1 -1 -1 -1 -1 -1 -1 -1 -1
 NAtoms=     52 NQM=       52 NQMF=       0 NMMI=      0 NMMIF=      0
                NMic=       0 NMicF=      0.
                    Isotopes and Nuclear Properties:
 (Nuclear quadrupole moments (NQMom) in fm**2, nuclear magnetic moments (NMagM)
  in nuclear magnetons)

  Atom         1           2           3           4           5           6           7           8           9          10
 IAtWgt=          12          12          12          12          12          14          12          12          12          19
 AtmWgt=  12.0000000  12.0000000  12.0000000  12.0000000  12.0000000  14.0030740  12.0000000  12.0000000  12.0000000  18.9984032
 NucSpn=           0           0           0           0           0           2           0           0           0           1
 AtZEff=  -0.0000000  -0.0000000  -0.0000000  -0.0000000  -0.0000000  -0.0000000  -0.0000000  -0.0000000  -0.0000000  -0.0000000
 NQMom=    0.0000000   0.0000000   0.0000000   0.0000000   0.0000000   2.0440000   0.0000000   0.0000000   0.0000000   0.0000000
 NMagM=    0.0000000   0.0000000   0.0000000   0.0000000   0.0000000   0.4037610   0.0000000   0.0000000   0.0000000   2.6288670
 AtZNuc=   6.0000000   6.0000000   6.0000000   6.0000000   6.0000000   7.0000000   6.0000000   6.0000000   6.0000000   9.0000000

  Atom        11          12          13          14          15          16          17          18          19          20
 IAtWgt=          12          12          12          12          14          12          12          12          12          12
 AtmWgt=  12.0000000  12.0000000  12.0000000  12.0000000  14.0030740  12.0000000  12.0000000  12.0000000  12.0000000  12.0000000
 NucSpn=           0           0           0           0           2           0           0           0           0           0
 AtZEff=  -0.0000000  -0.0000000  -0.0000000  -0.0000000  -0.0000000  -0.0000000  -0.0000000  -0.0000000  -0.0000000  -0.0000000
 NQMom=    0.0000000   0.0000000   0.0000000   0.0000000   2.0440000   0.0000000   0.0000000   0.0000000   0.0000000   0.0000000
 NMagM=    0.0000000   0.0000000   0.0000000   0.0000000   0.4037610   0.0000000   0.0000000   0.0000000   0.0000000   0.0000000
 AtZNuc=   6.0000000   6.0000000   6.0000000   6.0000000   7.0000000   6.0000000   6.0000000   6.0000000   6.0000000   6.0000000

  Atom        21          22          23          24          25          26          27          28          29          30
 IAtWgt=          12          12          12          12          19          12          14           1           1           1
 AtmWgt=  12.0000000  12.0000000  12.0000000  12.0000000  18.9984032  12.0000000  14.0030740   1.0078250   1.0078250   1.0078250
 NucSpn=           0           0           0           0           1           0           2           1           1           1
 AtZEff=  -0.0000000  -0.0000000  -0.0000000  -0.0000000  -0.0000000  -0.0000000  -0.0000000  -0.0000000  -0.0000000  -0.0000000
 NQMom=    0.0000000   0.0000000   0.0000000   0.0000000   0.0000000   0.0000000   2.0440000   0.0000000   0.0000000   0.0000000
 NMagM=    0.0000000   0.0000000   0.0000000   0.0000000   2.6288670   0.0000000   0.4037610   2.7928460   2.7928460   2.7928460
 AtZNuc=   6.0000000   6.0000000   6.0000000   6.0000000   9.0000000   6.0000000   7.0000000   1.0000000   1.0000000   1.0000000

  Atom        31          32          33          34          35          36          37          38          39          40
 IAtWgt=           1           1           1           1           1           1           1           1           1           1
 AtmWgt=   1.0078250   1.0078250   1.0078250   1.0078250   1.0078250   1.0078250   1.0078250   1.0078250   1.0078250   1.0078250
 NucSpn=           1           1           1           1           1           1           1           1           1           1
 AtZEff=  -0.0000000  -0.0000000  -0.0000000  -0.0000000  -0.0000000  -0.0000000  -0.0000000  -0.0000000  -0.0000000  -0.0000000
 NQMom=    0.0000000   0.0000000   0.0000000   0.0000000   0.0000000   0.0000000   0.0000000   0.0000000   0.0000000   0.0000000
 NMagM=    2.7928460   2.7928460   2.7928460   2.7928460   2.7928460   2.7928460   2.7928460   2.7928460   2.7928460   2.7928460
 AtZNuc=   1.0000000   1.0000000   1.0000000   1.0000000   1.0000000   1.0000000   1.0000000   1.0000000   1.0000000   1.0000000

  Atom        41          42          43          44          45          46          47          48          49          50
 IAtWgt=           1           1           1           1           1           1           1           1           1           1
 AtmWgt=   1.0078250   1.0078250   1.0078250   1.0078250   1.0078250   1.0078250   1.0078250   1.0078250   1.0078250   1.0078250
 NucSpn=           1           1           1           1           1           1           1           1           1           1
 AtZEff=  -0.0000000  -0.0000000  -0.0000000  -0.0000000  -0.0000000  -0.0000000  -0.0000000  -0.0000000  -0.0000000  -0.0000000
 NQMom=    0.0000000   0.0000000   0.0000000   0.0000000   0.0000000   0.0000000   0.0000000   0.0000000   0.0000000   0.0000000
 NMagM=    2.7928460   2.7928460   2.7928460   2.7928460   2.7928460   2.7928460   2.7928460   2.7928460   2.7928460   2.7928460
 AtZNuc=   1.0000000   1.0000000   1.0000000   1.0000000   1.0000000   1.0000000   1.0000000   1.0000000   1.0000000   1.0000000

  Atom        51          52
 IAtWgt=           1           1
 AtmWgt=   1.0078250   1.0078250
 NucSpn=           1           1
 AtZEff=  -0.0000000  -0.0000000
 NQMom=    0.0000000   0.0000000
 NMagM=    2.7928460   2.7928460
 AtZNuc=   1.0000000   1.0000000
 Leave Link  101 at Fri Nov  4 20:43:41 2022, MaxMem=   805306368 cpu:               1.3 elap:               0.2
 (Enter /home/wykgroup/appl/g16/l103.exe)

 GradGradGradGradGradGradGradGradGradGradGradGradGradGradGradGradGradGrad
 Berny optimization.
 Initialization pass.
                           ----------------------------
                           !    Initial Parameters    !
                           ! (Angstroms and Degrees)  !
 --------------------------                            --------------------------
 ! Name  Definition              Value          Derivative Info.                !
 --------------------------------------------------------------------------------
 ! R1    R(1,2)                  1.4958         estimate D2E/DX2                !
 ! R2    R(1,28)                 1.0885         estimate D2E/DX2                !
 ! R3    R(1,29)                 1.0854         estimate D2E/DX2                !
 ! R4    R(1,30)                 1.0885         estimate D2E/DX2                !
 ! R5    R(2,3)                  1.3911         estimate D2E/DX2                !
 ! R6    R(2,27)                 1.327          estimate D2E/DX2                !
 ! R7    R(3,4)                  1.395          estimate D2E/DX2                !
 ! R8    R(3,31)                 1.0781         estimate D2E/DX2                !
 ! R9    R(4,5)                  1.4533         estimate D2E/DX2                !
 ! R10   R(4,24)                 1.3997         estimate D2E/DX2                !
 ! R11   R(5,6)                  1.3776         estimate D2E/DX2                !
 ! R12   R(5,20)                 1.3804         estimate D2E/DX2                !
 ! R13   R(6,7)                  1.3561         estimate D2E/DX2                !
 ! R14   R(6,32)                 1.0057         estimate D2E/DX2                !
 ! R15   R(7,8)                  1.3881         estimate D2E/DX2                !
 ! R16   R(7,19)                 1.4168         estimate D2E/DX2                !
 ! R17   R(8,9)                  1.375          estimate D2E/DX2                !
 ! R18   R(8,33)                 1.0783         estimate D2E/DX2                !
 ! R19   R(9,10)                 1.3558         estimate D2E/DX2                !
 ! R20   R(9,11)                 1.4048         estimate D2E/DX2                !
 ! R21   R(11,12)                1.5061         estimate D2E/DX2                !
 ! R22   R(11,18)                1.3807         estimate D2E/DX2                !
 ! R23   R(12,13)                1.5378         estimate D2E/DX2                !
 ! R24   R(12,17)                1.5321         estimate D2E/DX2                !
 ! R25   R(12,34)                1.094          estimate D2E/DX2                !
 ! R26   R(13,14)                1.5373         estimate D2E/DX2                !
 ! R27   R(13,35)                1.0894         estimate D2E/DX2                !
 ! R28   R(13,36)                1.0909         estimate D2E/DX2                !
 ! R29   R(14,15)                1.4509         estimate D2E/DX2                !
 ! R30   R(14,37)                1.1038         estimate D2E/DX2                !
 ! R31   R(14,38)                1.092          estimate D2E/DX2                !
 ! R32   R(15,16)                1.4556         estimate D2E/DX2                !
 ! R33   R(15,39)                1.0142         estimate D2E/DX2                !
 ! R34   R(16,17)                1.5342         estimate D2E/DX2                !
 ! R35   R(16,40)                1.1038         estimate D2E/DX2                !
 ! R36   R(16,41)                1.0948         estimate D2E/DX2                !
 ! R37   R(17,42)                1.0896         estimate D2E/DX2                !
 ! R38   R(17,43)                1.0912         estimate D2E/DX2                !
 ! R39   R(18,19)                1.3971         estimate D2E/DX2                !
 ! R40   R(18,44)                1.0787         estimate D2E/DX2                !
 ! R41   R(19,20)                1.4291         estimate D2E/DX2                !
 ! R42   R(20,21)                1.4997         estimate D2E/DX2                !
 ! R43   R(21,22)                1.5309         estimate D2E/DX2                !
 ! R44   R(21,23)                1.5314         estimate D2E/DX2                !
 ! R45   R(21,45)                1.095          estimate D2E/DX2                !
 ! R46   R(22,46)                1.0861         estimate D2E/DX2                !
 ! R47   R(22,47)                1.0879         estimate D2E/DX2                !
 ! R48   R(22,48)                1.0883         estimate D2E/DX2                !
 ! R49   R(23,49)                1.0851         estimate D2E/DX2                !
 ! R50   R(23,50)                1.0879         estimate D2E/DX2                !
 ! R51   R(23,51)                1.0877         estimate D2E/DX2                !
 ! R52   R(24,25)                1.355          estimate D2E/DX2                !
 ! R53   R(24,26)                1.3805         estimate D2E/DX2                !
 ! R54   R(26,27)                1.3206         estimate D2E/DX2                !
 ! R55   R(26,52)                1.0811         estimate D2E/DX2                !
 ! A1    A(2,1,28)             110.3484         estimate D2E/DX2                !
 ! A2    A(2,1,29)             109.4276         estimate D2E/DX2                !
 ! A3    A(2,1,30)             110.329          estimate D2E/DX2                !
 ! A4    A(28,1,29)            109.3212         estimate D2E/DX2                !
 ! A5    A(28,1,30)            108.0564         estimate D2E/DX2                !
 ! A6    A(29,1,30)            109.3317         estimate D2E/DX2                !
 ! A7    A(1,2,3)              120.9474         estimate D2E/DX2                !
 ! A8    A(1,2,27)             116.7623         estimate D2E/DX2                !
 ! A9    A(3,2,27)             122.2891         estimate D2E/DX2                !
 ! A10   A(2,3,4)              120.3779         estimate D2E/DX2                !
 ! A11   A(2,3,31)             119.801          estimate D2E/DX2                !
 ! A12   A(4,3,31)             119.7976         estimate D2E/DX2                !
 ! A13   A(3,4,5)              122.5016         estimate D2E/DX2                !
 ! A14   A(3,4,24)             115.3613         estimate D2E/DX2                !
 ! A15   A(5,4,24)             122.1312         estimate D2E/DX2                !
 ! A16   A(4,5,6)              120.4084         estimate D2E/DX2                !
 ! A17   A(4,5,20)             130.1013         estimate D2E/DX2                !
 ! A18   A(6,5,20)             109.4903         estimate D2E/DX2                !
 ! A19   A(5,6,7)              109.2129         estimate D2E/DX2                !
 ! A20   A(5,6,32)             125.132          estimate D2E/DX2                !
 ! A21   A(7,6,32)             125.6476         estimate D2E/DX2                !
 ! A22   A(6,7,8)              130.0696         estimate D2E/DX2                !
 ! A23   A(6,7,19)             108.0871         estimate D2E/DX2                !
 ! A24   A(8,7,19)             121.8412         estimate D2E/DX2                !
 ! A25   A(7,8,9)              116.9084         estimate D2E/DX2                !
 ! A26   A(7,8,33)             122.4946         estimate D2E/DX2                !
 ! A27   A(9,8,33)             120.5969         estimate D2E/DX2                !
 ! A28   A(8,9,10)             116.7845         estimate D2E/DX2                !
 ! A29   A(8,9,11)             123.7468         estimate D2E/DX2                !
 ! A30   A(10,9,11)            119.4675         estimate D2E/DX2                !
 ! A31   A(9,11,12)            122.026          estimate D2E/DX2                !
 ! A32   A(9,11,18)            118.0266         estimate D2E/DX2                !
 ! A33   A(12,11,18)           119.9474         estimate D2E/DX2                !
 ! A34   A(11,12,13)           112.1211         estimate D2E/DX2                !
 ! A35   A(11,12,17)           112.824          estimate D2E/DX2                !
 ! A36   A(11,12,34)           108.0732         estimate D2E/DX2                !
 ! A37   A(13,12,17)           108.6833         estimate D2E/DX2                !
 ! A38   A(13,12,34)           107.7927         estimate D2E/DX2                !
 ! A39   A(17,12,34)           107.105          estimate D2E/DX2                !
 ! A40   A(12,13,14)           109.7438         estimate D2E/DX2                !
 ! A41   A(12,13,35)           110.4902         estimate D2E/DX2                !
 ! A42   A(12,13,36)           108.8708         estimate D2E/DX2                !
 ! A43   A(14,13,35)           109.3449         estimate D2E/DX2                !
 ! A44   A(14,13,36)           110.3771         estimate D2E/DX2                !
 ! A45   A(35,13,36)           107.994          estimate D2E/DX2                !
 ! A46   A(13,14,15)           108.8299         estimate D2E/DX2                !
 ! A47   A(13,14,37)           109.7837         estimate D2E/DX2                !
 ! A48   A(13,14,38)           110.1084         estimate D2E/DX2                !
 ! A49   A(15,14,37)           111.8397         estimate D2E/DX2                !
 ! A50   A(15,14,38)           108.5745         estimate D2E/DX2                !
 ! A51   A(37,14,38)           107.6875         estimate D2E/DX2                !
 ! A52   A(14,15,16)           111.9763         estimate D2E/DX2                !
 ! A53   A(14,15,39)           110.9006         estimate D2E/DX2                !
 ! A54   A(16,15,39)           109.9147         estimate D2E/DX2                !
 ! A55   A(15,16,17)           110.0488         estimate D2E/DX2                !
 ! A56   A(15,16,40)           112.4746         estimate D2E/DX2                !
 ! A57   A(15,16,41)           107.0116         estimate D2E/DX2                !
 ! A58   A(17,16,40)           109.0792         estimate D2E/DX2                !
 ! A59   A(17,16,41)           110.3872         estimate D2E/DX2                !
 ! A60   A(40,16,41)           107.7988         estimate D2E/DX2                !
 ! A61   A(12,17,16)           108.9109         estimate D2E/DX2                !
 ! A62   A(12,17,42)           109.4754         estimate D2E/DX2                !
 ! A63   A(12,17,43)           110.3674         estimate D2E/DX2                !
 ! A64   A(16,17,42)           110.0978         estimate D2E/DX2                !
 ! A65   A(16,17,43)           110.0107         estimate D2E/DX2                !
 ! A66   A(42,17,43)           107.9698         estimate D2E/DX2                !
 ! A67   A(11,18,19)           120.8692         estimate D2E/DX2                !
 ! A68   A(11,18,44)           118.5488         estimate D2E/DX2                !
 ! A69   A(19,18,44)           120.5795         estimate D2E/DX2                !
 ! A70   A(7,19,18)            118.6058         estimate D2E/DX2                !
 ! A71   A(7,19,20)            106.7959         estimate D2E/DX2                !
 ! A72   A(18,19,20)           134.59           estimate D2E/DX2                !
 ! A73   A(5,20,19)            106.4022         estimate D2E/DX2                !
 ! A74   A(5,20,21)            126.6178         estimate D2E/DX2                !
 ! A75   A(19,20,21)           126.8235         estimate D2E/DX2                !
 ! A76   A(20,21,22)           111.0306         estimate D2E/DX2                !
 ! A77   A(20,21,23)           110.8326         estimate D2E/DX2                !
 ! A78   A(20,21,45)           108.1176         estimate D2E/DX2                !
 ! A79   A(22,21,23)           111.0936         estimate D2E/DX2                !
 ! A80   A(22,21,45)           108.5265         estimate D2E/DX2                !
 ! A81   A(23,21,45)           107.0836         estimate D2E/DX2                !
 ! A82   A(21,22,46)           110.688          estimate D2E/DX2                !
 ! A83   A(21,22,47)           110.2635         estimate D2E/DX2                !
 ! A84   A(21,22,48)           110.5886         estimate D2E/DX2                !
 ! A85   A(46,22,47)           108.6183         estimate D2E/DX2                !
 ! A86   A(46,22,48)           108.028          estimate D2E/DX2                !
 ! A87   A(47,22,48)           108.5822         estimate D2E/DX2                !
 ! A88   A(21,23,49)           111.3524         estimate D2E/DX2                !
 ! A89   A(21,23,50)           109.9412         estimate D2E/DX2                !
 ! A90   A(21,23,51)           110.1407         estimate D2E/DX2                !
 ! A91   A(49,23,50)           108.532          estimate D2E/DX2                !
 ! A92   A(49,23,51)           108.296          estimate D2E/DX2                !
 ! A93   A(50,23,51)           108.5069         estimate D2E/DX2                !
 ! A94   A(4,24,25)            120.2274         estimate D2E/DX2                !
 ! A95   A(4,24,26)            120.784          estimate D2E/DX2                !
 ! A96   A(25,24,26)           118.9876         estimate D2E/DX2                !
 ! A97   A(24,26,27)           122.4432         estimate D2E/DX2                !
 ! A98   A(24,26,52)           120.686          estimate D2E/DX2                !
 ! A99   A(27,26,52)           116.8706         estimate D2E/DX2                !
 ! A100  A(2,27,26)            118.7247         estimate D2E/DX2                !
 ! D1    D(28,1,2,3)            59.8833         estimate D2E/DX2                !
 ! D2    D(28,1,2,27)         -120.4977         estimate D2E/DX2                !
 ! D3    D(29,1,2,3)          -179.7857         estimate D2E/DX2                !
 ! D4    D(29,1,2,27)           -0.1666         estimate D2E/DX2                !
 ! D5    D(30,1,2,3)           -59.4537         estimate D2E/DX2                !
 ! D6    D(30,1,2,27)          120.1654         estimate D2E/DX2                !
 ! D7    D(1,2,3,4)           -179.6626         estimate D2E/DX2                !
 ! D8    D(1,2,3,31)             2.1058         estimate D2E/DX2                !
 ! D9    D(27,2,3,4)             0.7398         estimate D2E/DX2                !
 ! D10   D(27,2,3,31)         -177.4918         estimate D2E/DX2                !
 ! D11   D(1,2,27,26)         -179.1926         estimate D2E/DX2                !
 ! D12   D(3,2,27,26)            0.4209         estimate D2E/DX2                !
 ! D13   D(2,3,4,5)            179.3023         estimate D2E/DX2                !
 ! D14   D(2,3,4,24)            -1.5614         estimate D2E/DX2                !
 ! D15   D(31,3,4,5)            -2.466          estimate D2E/DX2                !
 ! D16   D(31,3,4,24)          176.6703         estimate D2E/DX2                !
 ! D17   D(3,4,5,6)            141.5058         estimate D2E/DX2                !
 ! D18   D(3,4,5,20)           -38.559          estimate D2E/DX2                !
 ! D19   D(24,4,5,6)           -37.5727         estimate D2E/DX2                !
 ! D20   D(24,4,5,20)          142.3626         estimate D2E/DX2                !
 ! D21   D(3,4,24,25)         -179.016          estimate D2E/DX2                !
 ! D22   D(3,4,24,26)            1.3432         estimate D2E/DX2                !
 ! D23   D(5,4,24,25)            0.1239         estimate D2E/DX2                !
 ! D24   D(5,4,24,26)         -179.5169         estimate D2E/DX2                !
 ! D25   D(4,5,6,7)           -178.958          estimate D2E/DX2                !
 ! D26   D(4,5,6,32)             1.9901         estimate D2E/DX2                !
 ! D27   D(20,5,6,7)             1.0945         estimate D2E/DX2                !
 ! D28   D(20,5,6,32)         -177.9573         estimate D2E/DX2                !
 ! D29   D(4,5,20,19)          179.0049         estimate D2E/DX2                !
 ! D30   D(4,5,20,21)           -5.3109         estimate D2E/DX2                !
 ! D31   D(6,5,20,19)           -1.0544         estimate D2E/DX2                !
 ! D32   D(6,5,20,21)          174.6299         estimate D2E/DX2                !
 ! D33   D(5,6,7,8)            178.7925         estimate D2E/DX2                !
 ! D34   D(5,6,7,19)            -0.6653         estimate D2E/DX2                !
 ! D35   D(32,6,7,8)            -2.1618         estimate D2E/DX2                !
 ! D36   D(32,6,7,19)          178.3805         estimate D2E/DX2                !
 ! D37   D(6,7,8,9)           -179.3512         estimate D2E/DX2                !
 ! D38   D(6,7,8,33)             0.7478         estimate D2E/DX2                !
 ! D39   D(19,7,8,9)             0.042          estimate D2E/DX2                !
 ! D40   D(19,7,8,33)         -179.859          estimate D2E/DX2                !
 ! D41   D(6,7,19,18)          179.1083         estimate D2E/DX2                !
 ! D42   D(6,7,19,20)            0.0113         estimate D2E/DX2                !
 ! D43   D(8,7,19,18)           -0.4033         estimate D2E/DX2                !
 ! D44   D(8,7,19,20)         -179.5002         estimate D2E/DX2                !
 ! D45   D(7,8,9,10)           179.9523         estimate D2E/DX2                !
 ! D46   D(7,8,9,11)             0.3559         estimate D2E/DX2                !
 ! D47   D(33,8,9,10)           -0.1447         estimate D2E/DX2                !
 ! D48   D(33,8,9,11)         -179.7411         estimate D2E/DX2                !
 ! D49   D(8,9,11,12)          179.6438         estimate D2E/DX2                !
 ! D50   D(8,9,11,18)           -0.3739         estimate D2E/DX2                !
 ! D51   D(10,9,11,12)           0.0576         estimate D2E/DX2                !
 ! D52   D(10,9,11,18)        -179.9601         estimate D2E/DX2                !
 ! D53   D(9,11,12,13)         -64.2658         estimate D2E/DX2                !
 ! D54   D(9,11,12,17)          58.8434         estimate D2E/DX2                !
 ! D55   D(9,11,12,34)         177.0733         estimate D2E/DX2                !
 ! D56   D(18,11,12,13)        115.7522         estimate D2E/DX2                !
 ! D57   D(18,11,12,17)       -121.1385         estimate D2E/DX2                !
 ! D58   D(18,11,12,34)         -2.9086         estimate D2E/DX2                !
 ! D59   D(9,11,18,19)          -0.016          estimate D2E/DX2                !
 ! D60   D(9,11,18,44)         179.4028         estimate D2E/DX2                !
 ! D61   D(12,11,18,19)        179.9667         estimate D2E/DX2                !
 ! D62   D(12,11,18,44)         -0.6146         estimate D2E/DX2                !
 ! D63   D(11,12,13,14)        163.9768         estimate D2E/DX2                !
 ! D64   D(11,12,13,35)         43.3238         estimate D2E/DX2                !
 ! D65   D(11,12,13,36)        -75.1167         estimate D2E/DX2                !
 ! D66   D(17,12,13,14)         38.5633         estimate D2E/DX2                !
 ! D67   D(17,12,13,35)        -82.0897         estimate D2E/DX2                !
 ! D68   D(17,12,13,36)        159.4699         estimate D2E/DX2                !
 ! D69   D(34,12,13,14)        -77.1969         estimate D2E/DX2                !
 ! D70   D(34,12,13,35)        162.1502         estimate D2E/DX2                !
 ! D71   D(34,12,13,36)         43.7097         estimate D2E/DX2                !
 ! D72   D(11,12,17,16)        168.4312         estimate D2E/DX2                !
 ! D73   D(11,12,17,42)        -71.1428         estimate D2E/DX2                !
 ! D74   D(11,12,17,43)         47.5654         estimate D2E/DX2                !
 ! D75   D(13,12,17,16)        -66.5674         estimate D2E/DX2                !
 ! D76   D(13,12,17,42)         53.8586         estimate D2E/DX2                !
 ! D77   D(13,12,17,43)        172.5668         estimate D2E/DX2                !
 ! D78   D(34,12,17,16)         49.6362         estimate D2E/DX2                !
 ! D79   D(34,12,17,42)        170.0623         estimate D2E/DX2                !
 ! D80   D(34,12,17,43)        -71.2295         estimate D2E/DX2                !
 ! D81   D(12,13,14,15)         25.7704         estimate D2E/DX2                !
 ! D82   D(12,13,14,37)        -96.9379         estimate D2E/DX2                !
 ! D83   D(12,13,14,38)        144.6679         estimate D2E/DX2                !
 ! D84   D(35,13,14,15)        147.114          estimate D2E/DX2                !
 ! D85   D(35,13,14,37)         24.4058         estimate D2E/DX2                !
 ! D86   D(35,13,14,38)        -93.9884         estimate D2E/DX2                !
 ! D87   D(36,13,14,15)        -94.2226         estimate D2E/DX2                !
 ! D88   D(36,13,14,37)        143.0691         estimate D2E/DX2                !
 ! D89   D(36,13,14,38)         24.675          estimate D2E/DX2                !
 ! D90   D(13,14,15,16)        -71.5862         estimate D2E/DX2                !
 ! D91   D(13,14,15,39)        165.2329         estimate D2E/DX2                !
 ! D92   D(37,14,15,16)         49.8754         estimate D2E/DX2                !
 ! D93   D(37,14,15,39)        -73.3054         estimate D2E/DX2                !
 ! D94   D(38,14,15,16)        168.5597         estimate D2E/DX2                !
 ! D95   D(38,14,15,39)         45.3788         estimate D2E/DX2                !
 ! D96   D(14,15,16,17)         42.6415         estimate D2E/DX2                !
 ! D97   D(14,15,16,40)        -79.1974         estimate D2E/DX2                !
 ! D98   D(14,15,16,41)        162.6054         estimate D2E/DX2                !
 ! D99   D(39,15,16,17)        166.3774         estimate D2E/DX2                !
 ! D100  D(39,15,16,40)         44.5385         estimate D2E/DX2                !
 ! D101  D(39,15,16,41)        -73.6587         estimate D2E/DX2                !
 ! D102  D(15,16,17,12)         24.9641         estimate D2E/DX2                !
 ! D103  D(15,16,17,42)        -95.0777         estimate D2E/DX2                !
 ! D104  D(15,16,17,43)        146.0484         estimate D2E/DX2                !
 ! D105  D(40,16,17,12)        148.7995         estimate D2E/DX2                !
 ! D106  D(40,16,17,42)         28.7577         estimate D2E/DX2                !
 ! D107  D(40,16,17,43)        -90.1162         estimate D2E/DX2                !
 ! D108  D(41,16,17,12)        -92.9323         estimate D2E/DX2                !
 ! D109  D(41,16,17,42)        147.0259         estimate D2E/DX2                !
 ! D110  D(41,16,17,43)         28.1519         estimate D2E/DX2                !
 ! D111  D(11,18,19,7)           0.3844         estimate D2E/DX2                !
 ! D112  D(11,18,19,20)        179.1703         estimate D2E/DX2                !
 ! D113  D(44,18,19,7)        -179.0226         estimate D2E/DX2                !
 ! D114  D(44,18,19,20)         -0.2366         estimate D2E/DX2                !
 ! D115  D(7,19,20,5)            0.6354         estimate D2E/DX2                !
 ! D116  D(7,19,20,21)        -175.0373         estimate D2E/DX2                !
 ! D117  D(18,19,20,5)        -178.2513         estimate D2E/DX2                !
 ! D118  D(18,19,20,21)          6.0761         estimate D2E/DX2                !
 ! D119  D(5,20,21,22)         116.4348         estimate D2E/DX2                !
 ! D120  D(5,20,21,23)        -119.5891         estimate D2E/DX2                !
 ! D121  D(5,20,21,45)          -2.5104         estimate D2E/DX2                !
 ! D122  D(19,20,21,22)        -68.7393         estimate D2E/DX2                !
 ! D123  D(19,20,21,23)         55.2367         estimate D2E/DX2                !
 ! D124  D(19,20,21,45)        172.3154         estimate D2E/DX2                !
 ! D125  D(20,21,22,46)         61.8999         estimate D2E/DX2                !
 ! D126  D(20,21,22,47)       -177.8882         estimate D2E/DX2                !
 ! D127  D(20,21,22,48)        -57.7857         estimate D2E/DX2                !
 ! D128  D(23,21,22,46)        -61.9274         estimate D2E/DX2                !
 ! D129  D(23,21,22,47)         58.2845         estimate D2E/DX2                !
 ! D130  D(23,21,22,48)        178.387          estimate D2E/DX2                !
 ! D131  D(45,21,22,46)       -179.4009         estimate D2E/DX2                !
 ! D132  D(45,21,22,47)        -59.1891         estimate D2E/DX2                !
 ! D133  D(45,21,22,48)         60.9135         estimate D2E/DX2                !
 ! D134  D(20,21,23,49)        -64.1976         estimate D2E/DX2                !
 ! D135  D(20,21,23,50)        175.4803         estimate D2E/DX2                !
 ! D136  D(20,21,23,51)         55.961          estimate D2E/DX2                !
 ! D137  D(22,21,23,49)         59.7425         estimate D2E/DX2                !
 ! D138  D(22,21,23,50)        -60.5796         estimate D2E/DX2                !
 ! D139  D(22,21,23,51)        179.901          estimate D2E/DX2                !
 ! D140  D(45,21,23,49)        178.0908         estimate D2E/DX2                !
 ! D141  D(45,21,23,50)         57.7687         estimate D2E/DX2                !
 ! D142  D(45,21,23,51)        -61.7507         estimate D2E/DX2                !
 ! D143  D(4,24,26,27)          -0.2621         estimate D2E/DX2                !
 ! D144  D(4,24,26,52)         179.5831         estimate D2E/DX2                !
 ! D145  D(25,24,26,27)       -179.9073         estimate D2E/DX2                !
 ! D146  D(25,24,26,52)         -0.0621         estimate D2E/DX2                !
 ! D147  D(24,26,27,2)          -0.6592         estimate D2E/DX2                !
 ! D148  D(52,26,27,2)         179.49           estimate D2E/DX2                !
 --------------------------------------------------------------------------------
 Trust Radius=3.00D-01 FncErr=1.00D-07 GrdErr=1.00D-06 EigMax=2.50D+02 EigMin=1.00D-04
 Number of steps in this run=    312 maximum allowed number of steps=    312.
 GradGradGradGradGradGradGradGradGradGradGradGradGradGradGradGradGradGrad

 Leave Link  103 at Fri Nov  4 20:43:41 2022, MaxMem=   805306368 cpu:               0.3 elap:               0.1
 (Enter /home/wykgroup/appl/g16/l202.exe)
 Stoichiometry    C22H25F2N3
 Framework group  C1[X(C22H25F2N3)]
 Deg. of freedom   150
 Full point group                 C1      NOp   1
 Largest Abelian subgroup         C1      NOp   1
 Largest concise Abelian subgroup C1      NOp   1
                         Standard orientation:                         
 ---------------------------------------------------------------------
 Center     Atomic      Atomic             Coordinates (Angstroms)
 Number     Number       Type             X           Y           Z
 ---------------------------------------------------------------------
      1          6           0        6.378894    1.766032   -1.138140
      2          6           0        5.572794    0.648356   -0.556304
      3          6           0        4.182342    0.676344   -0.589733
      4          6           0        3.442220   -0.369132   -0.037274
      5          6           0        1.988941   -0.380307   -0.033524
      6          7           0        1.300078   -1.553509   -0.250159
      7          6           0       -0.031958   -1.300756   -0.221230
      8          6           0       -1.108198   -2.157049   -0.408958
      9          6           0       -2.364510   -1.603404   -0.333076
     10          9           0       -3.413833   -2.441824   -0.517807
     11          6           0       -2.603412   -0.241072   -0.087268
     12          6           0       -3.997107    0.325967   -0.019841
     13          6           0       -4.732918    0.215664   -1.365708
     14          6           0       -6.240692    0.425769   -1.151986
     15          7           0       -6.437124    1.231371    0.038618
     16          6           0       -6.136013    0.489369    1.254176
     17          6           0       -4.855369   -0.333878    1.064249
     18          6           0       -1.513167    0.586090    0.095658
     19          6           0       -0.212059    0.080459    0.037822
     20          6           0        1.092349    0.650461    0.164060
     21          6           0        1.423044    2.063603    0.542031
     22          6           0        1.010163    3.038927   -0.563362
     23          6           0        0.772707    2.436633    1.877373
     24          6           0        4.196142   -1.419676    0.498522
     25          9           0        3.577158   -2.495354    1.042442
     26          6           0        5.575871   -1.375625    0.489157
     27          7           0        6.248846   -0.360430   -0.021307
     28          1           0        6.141117    2.703794   -0.639255
     29          1           0        7.435697    1.551374   -1.014530
     30          1           0        6.156118    1.881418   -2.197346
     31          1           0        3.674362    1.496774   -1.070441
     32          1           0        1.722660   -2.455165   -0.391420
     33          1           0       -0.983384   -3.210096   -0.604466
     34          1           0       -3.919737    1.387555    0.232829
     35          1           0       -4.564823   -0.763310   -1.813114
     36          1           0       -4.337100    0.970051   -2.047101
     37          1           0       -6.746842   -0.552049   -1.074265
     38          1           0       -6.670609    0.955030   -2.004918
     39          1           0       -7.384253    1.591636    0.079485
     40          1           0       -6.957719   -0.185039    1.551327
     41          1           0       -6.001338    1.225233    2.053571
     42          1           0       -5.105137   -1.350313    0.761260
     43          1           0       -4.303874   -0.388696    2.004203
     44          1           0       -1.686620    1.635464    0.275238
     45          1           0        2.506900    2.134109    0.681274
     46          1           0       -0.063555    3.005094   -0.723571
     47          1           0        1.289107    4.055023   -0.292816
     48          1           0        1.498891    2.783259   -1.501498
     49          1           0       -0.310047    2.421523    1.807380
     50          1           0        1.085970    3.434567    2.176690
     51          1           0        1.074753    1.733564    2.650395
     52          1           0        6.156560   -2.184862    0.909455
 ---------------------------------------------------------------------
 Rotational constants (GHZ):           0.4661539           0.0823398           0.0747889
 Leave Link  202 at Fri Nov  4 20:43:41 2022, MaxMem=   805306368 cpu:               0.3 elap:               0.1
 (Enter /home/wykgroup/appl/g16/l301.exe)
 Standard basis: 6-31G(d) (6D, 7F)
 Ernie: Thresh=  0.10000D-02 Tol=  0.10000D-05 Strict=F.
 There are   455 symmetry adapted cartesian basis functions of A   symmetry.
 There are   455 symmetry adapted basis functions of A   symmetry.
   455 basis functions,   856 primitive gaussians,   455 cartesian basis functions
    98 alpha electrons       98 beta electrons
       nuclear repulsion energy      2442.4474068667 Hartrees.
 IExCor=  402 DFT=T Ex+Corr=B3LYP ExCW=0 ScaHFX=  0.200000
 ScaDFX=  0.800000  0.720000  1.000000  0.810000 ScalE2=  1.000000  1.000000
 IRadAn=      5 IRanWt=     -1 IRanGd=            0 ICorTp=0 IEmpDi=  4
 NAtoms=   52 NActive=   52 NUniq=   52 SFac= 1.00D+00 NAtFMM=   60 NAOKFM=F Big=F
 Integral buffers will be    131072 words long.
 Raffenetti 2 integral format.
 Two-electron integral symmetry is turned on.
 Leave Link  301 at Fri Nov  4 20:43:41 2022, MaxMem=   805306368 cpu:               0.5 elap:               0.1
 (Enter /home/wykgroup/appl/g16/l302.exe)
 NPDir=0 NMtPBC=     1 NCelOv=     1 NCel=       1 NClECP=     1 NCelD=      1
         NCelK=      1 NCelE2=     1 NClLst=     1 CellRange=     0.0.
 One-electron integrals computed using PRISM.
 One-electron integral symmetry used in STVInt
 NBasis=   455 RedAO= T EigKep=  2.71D-04  NBF=   455
 NBsUse=   455 1.00D-06 EigRej= -1.00D+00 NBFU=   455
 Precomputing XC quadrature grid using
 IXCGrd= 4 IRadAn=           5 IRanWt=          -1 IRanGd=           0 AccXCQ= 0.00D+00.
 Generated NRdTot=       0 NPtTot=           0 NUsed=           0 NTot=          32
 NSgBfM=   445   445   445   445   445 MxSgAt=    52 MxSgA2=    52.
 Leave Link  302 at Fri Nov  4 20:43:42 2022, MaxMem=   805306368 cpu:               6.7 elap:               1.1
 (Enter /home/wykgroup/appl/g16/l303.exe)
 DipDrv:  MaxL=1.
 Leave Link  303 at Fri Nov  4 20:43:42 2022, MaxMem=   805306368 cpu:               0.9 elap:               0.2
 (Enter /home/wykgroup/appl/g16/l401.exe)
 ExpMin= 1.61D-01 ExpMax= 7.00D+03 ExpMxC= 1.05D+03 IAcc=3 IRadAn=         5 AccDes= 0.00D+00
 Harris functional with IExCor=  402 and IRadAn=       5 diagonalized for initial guess.
 HarFok:  IExCor=  402 AccDes= 0.00D+00 IRadAn=         5 IDoV= 1 UseB2=F ITyADJ=14
 ICtDFT=  3500011 ScaDFX=  1.000000  1.000000  1.000000  1.000000
 FoFCou: FMM=F IPFlag=           0 FMFlag=      100000 FMFlg1=           0
         NFxFlg=           0 DoJE=T BraDBF=F KetDBF=T FulRan=T
         wScrn=  0.000000 ICntrl=       500 IOpCl=  0 I1Cent=   200000004 NGrid=           0
         NMat0=    1 NMatS0=      1 NMatT0=    0 NMatD0=    1 NMtDS0=    0 NMtDT0=    0
 Petite list used in FoFCou.
 Harris En= -1217.32985023793    
 JPrj=0 DoOrth=F DoCkMO=F.
 Leave Link  401 at Fri Nov  4 20:43:46 2022, MaxMem=   805306368 cpu:              23.4 elap:               3.4
 (Enter /home/wykgroup/appl/g16/l502.exe)
 Integral symmetry usage will be decided dynamically.
 Closed shell SCF:
 Using DIIS extrapolation, IDIIS=  1040.
 NGot=   805306368 LenX=   804884012 LenY=   804676532
 Requested convergence on RMS density matrix=1.00D-08 within  32 cycles.
 Requested convergence on MAX density matrix=1.00D-06.
 Requested convergence on             energy=1.00D-06.
 No special actions if energy rises.
 Fock matrices will be formed incrementally for  20 cycles.
 Integral accuracy reduced to 1.0D-05 until final iterations.

 Cycle   1  Pass 0  IDiag  1:
 FoFJK:  IHMeth= 1 ICntrl=       0 DoSepK=F KAlg= 0 I1Cent=           0 FoldK=F
 IRaf= 670000000 NMat=       1 IRICut=       1 DoRegI=T DoRafI=F ISym2E= 0 IDoP0=0 IntGTp=1.
 FoFCou: FMM=F IPFlag=           0 FMFlag=      100000 FMFlg1=           0
         NFxFlg=           0 DoJE=F BraDBF=F KetDBF=F FulRan=T
         wScrn=  0.000000 ICntrl=         0 IOpCl=  0 I1Cent=           0 NGrid=           0
         NMat0=    1 NMatS0=      1 NMatT0=    0 NMatD0=    1 NMtDS0=    0 NMtDT0=    0
 Symmetry not used in FoFCou.
 E= -1216.69038458614    
 DIIS: error= 3.32D-02 at cycle   1 NSaved=   1.
 NSaved= 1 IEnMin= 1 EnMin= -1216.69038458614     IErMin= 1 ErrMin= 3.32D-02
 ErrMax= 3.32D-02  0.00D+00 EMaxC= 1.00D-01 BMatC= 6.10D-01 BMatP= 6.10D-01
 IDIUse=3 WtCom= 6.68D-01 WtEn= 3.32D-01
 Coeff-Com:  0.100D+01
 Coeff-En:   0.100D+01
 Coeff:      0.100D+01
 Gap=     0.154 Goal=   None    Shift=    0.000
 GapD=    0.154 DampG=1.000 DampE=0.500 DampFc=0.5000 IDamp=-1.
 Damping current iteration by 5.00D-01
 RMSDP=4.44D-03 MaxDP=1.62D-01              OVMax= 2.53D-01

 Cycle   2  Pass 0  IDiag  1:
 RMSU=  2.18D-03    CP:  9.74D-01
 E= -1216.95241771940     Delta-E=       -0.262033133254 Rises=F Damp=T
 DIIS: error= 5.82D-03 at cycle   2 NSaved=   2.
 NSaved= 2 IEnMin= 2 EnMin= -1216.95241771940     IErMin= 2 ErrMin= 5.82D-03
 ErrMax= 5.82D-03  0.00D+00 EMaxC= 1.00D-01 BMatC= 5.36D-02 BMatP= 6.10D-01
 IDIUse=3 WtCom= 9.42D-01 WtEn= 5.82D-02
 Coeff-Com:  0.872D-01 0.913D+00
 Coeff-En:   0.167D+00 0.833D+00
 Coeff:      0.918D-01 0.908D+00
 Gap=     0.200 Goal=   None    Shift=    0.000
 RMSDP=1.66D-03 MaxDP=7.95D-02 DE=-2.62D-01 OVMax= 2.68D-01

 Cycle   3  Pass 0  IDiag  1:
 RMSU=  1.55D-03    CP:  9.58D-01  7.55D-01
 E= -1217.26108991041     Delta-E=       -0.308672191012 Rises=F Damp=F
 DIIS: error= 1.02D-02 at cycle   3 NSaved=   3.
 NSaved= 3 IEnMin= 3 EnMin= -1217.26108991041     IErMin= 2 ErrMin= 5.82D-03
 ErrMax= 1.02D-02  0.00D+00 EMaxC= 1.00D-01 BMatC= 6.55D-02 BMatP= 5.36D-02
 IDIUse=2 WtCom= 0.00D+00 WtEn= 1.00D+00
 Coeff-En:   0.000D+00 0.000D+00 0.100D+01
 Coeff:      0.000D+00 0.000D+00 0.100D+01
 Gap=     0.145 Goal=   None    Shift=    0.000
 RMSDP=2.16D-03 MaxDP=1.07D-01 DE=-3.09D-01 OVMax= 2.94D-01

 Cycle   4  Pass 0  IDiag  1:
 RMSU=  1.17D-03    CP:  9.62D-01  1.20D+00  1.25D-02
 E= -1216.99529960154     Delta-E=        0.265790308867 Rises=F Damp=F
 DIIS: error= 2.26D-02 at cycle   4 NSaved=   4.
 NSaved= 4 IEnMin= 3 EnMin= -1217.26108991041     IErMin= 2 ErrMin= 5.82D-03
 ErrMax= 2.26D-02  0.00D+00 EMaxC= 1.00D-01 BMatC= 3.13D-01 BMatP= 5.36D-02
 IDIUse=2 WtCom= 0.00D+00 WtEn= 1.00D+00
 Coeff-En:   0.000D+00 0.000D+00 0.774D+00 0.226D+00
 Coeff:      0.000D+00 0.000D+00 0.774D+00 0.226D+00
 Gap=     0.144 Goal=   None    Shift=    0.000
 RMSDP=1.12D-03 MaxDP=5.87D-02 DE= 2.66D-01 OVMax= 1.65D-01

 Cycle   5  Pass 0  IDiag  1:
 RMSU=  2.18D-04    CP:  9.61D-01  9.61D-01  5.01D-01  4.80D-01
 E= -1217.30815487042     Delta-E=       -0.312855268881 Rises=F Damp=F
 DIIS: error= 5.63D-03 at cycle   5 NSaved=   5.
 NSaved= 5 IEnMin= 5 EnMin= -1217.30815487042     IErMin= 5 ErrMin= 5.63D-03
 ErrMax= 5.63D-03  0.00D+00 EMaxC= 1.00D-01 BMatC= 2.17D-02 BMatP= 5.36D-02
 IDIUse=3 WtCom= 9.44D-01 WtEn= 5.63D-02
 Coeff-Com:  0.447D-02-0.358D-04 0.315D+00-0.467D-01 0.727D+00
 Coeff-En:   0.000D+00 0.000D+00 0.297D+00 0.000D+00 0.703D+00
 Coeff:      0.422D-02-0.338D-04 0.314D+00-0.440D-01 0.726D+00
 Gap=     0.163 Goal=   None    Shift=    0.000
 RMSDP=3.99D-04 MaxDP=1.85D-02 DE=-3.13D-01 OVMax= 5.36D-02

 Cycle   6  Pass 0  IDiag  1:
 RMSU=  6.20D-05    CP:  9.60D-01  8.78D-01  6.83D-01  3.08D-01  7.28D-01
 E= -1217.33092650522     Delta-E=       -0.022771634798 Rises=F Damp=F
 DIIS: error= 3.60D-04 at cycle   6 NSaved=   6.
 NSaved= 6 IEnMin= 6 EnMin= -1217.33092650522     IErMin= 6 ErrMin= 3.60D-04
 ErrMax= 3.60D-04  0.00D+00 EMaxC= 1.00D-01 BMatC= 1.62D-04 BMatP= 2.17D-02
 IDIUse=3 WtCom= 9.96D-01 WtEn= 3.60D-03
 Coeff-Com:  0.109D-02-0.246D-02 0.130D+00-0.493D-01 0.418D+00 0.503D+00
 Coeff-En:   0.000D+00 0.000D+00 0.000D+00 0.000D+00 0.000D+00 0.100D+01
 Coeff:      0.109D-02-0.245D-02 0.130D+00-0.492D-01 0.417D+00 0.504D+00
 Gap=     0.153 Goal=   None    Shift=    0.000
 RMSDP=3.97D-05 MaxDP=1.38D-03 DE=-2.28D-02 OVMax= 4.32D-03

 Cycle   7  Pass 0  IDiag  1:
 RMSU=  2.30D-05    CP:  9.60D-01  8.81D-01  6.80D-01  3.05D-01  7.88D-01
                    CP:  5.37D-01
 E= -1217.33106572861     Delta-E=       -0.000139223393 Rises=F Damp=F
 DIIS: error= 1.59D-04 at cycle   7 NSaved=   7.
 NSaved= 7 IEnMin= 7 EnMin= -1217.33106572861     IErMin= 7 ErrMin= 1.59D-04
 ErrMax= 1.59D-04  0.00D+00 EMaxC= 1.00D-01 BMatC= 1.78D-05 BMatP= 1.62D-04
 IDIUse=3 WtCom= 9.98D-01 WtEn= 1.59D-03
 Coeff-Com:  0.339D-03-0.745D-03 0.568D-01-0.284D-01 0.206D+00 0.317D+00
 Coeff-Com:  0.449D+00
 Coeff-En:   0.000D+00 0.000D+00 0.000D+00 0.000D+00 0.000D+00 0.629D-01
 Coeff-En:   0.937D+00
 Coeff:      0.339D-03-0.744D-03 0.567D-01-0.283D-01 0.205D+00 0.317D+00
 Coeff:      0.450D+00
 Gap=     0.153 Goal=   None    Shift=    0.000
 RMSDP=1.40D-05 MaxDP=5.15D-04 DE=-1.39D-04 OVMax= 1.63D-03

 Cycle   8  Pass 0  IDiag  1:
 RMSU=  6.04D-06    CP:  9.60D-01  8.80D-01  6.82D-01  3.05D-01  7.92D-01
                    CP:  5.93D-01  4.92D-01
 E= -1217.33108484899     Delta-E=       -0.000019120374 Rises=F Damp=F
 DIIS: error= 3.71D-05 at cycle   8 NSaved=   8.
 NSaved= 8 IEnMin= 8 EnMin= -1217.33108484899     IErMin= 8 ErrMin= 3.71D-05
 ErrMax= 3.71D-05  0.00D+00 EMaxC= 1.00D-01 BMatC= 1.04D-06 BMatP= 1.78D-05
 IDIUse=1 WtCom= 1.00D+00 WtEn= 0.00D+00
 Coeff-Com:  0.112D-03-0.250D-03 0.153D-01-0.902D-02 0.588D-01 0.106D+00
 Coeff-Com:  0.233D+00 0.595D+00
 Coeff:      0.112D-03-0.250D-03 0.153D-01-0.902D-02 0.588D-01 0.106D+00
 Coeff:      0.233D+00 0.595D+00
 Gap=     0.153 Goal=   None    Shift=    0.000
 RMSDP=3.30D-06 MaxDP=1.64D-04 DE=-1.91D-05 OVMax= 3.27D-04

 Initial convergence to 1.0D-05 achieved.  Increase integral accuracy.
 Cycle   9  Pass 1  IDiag  1:
 E= -1217.33109761853     Delta-E=       -0.000012769538 Rises=F Damp=F
 DIIS: error= 1.69D-04 at cycle   1 NSaved=   1.
 NSaved= 1 IEnMin= 1 EnMin= -1217.33109761853     IErMin= 1 ErrMin= 1.69D-04
 ErrMax= 1.69D-04  0.00D+00 EMaxC= 1.00D-01 BMatC= 2.78D-06 BMatP= 2.78D-06
 IDIUse=3 WtCom= 9.98D-01 WtEn= 1.69D-03
 Coeff-Com:  0.100D+01
 Coeff-En:   0.100D+01
 Coeff:      0.100D+01
 Gap=     0.153 Goal=   None    Shift=    0.000
 RMSDP=3.30D-06 MaxDP=1.64D-04 DE=-1.28D-05 OVMax= 3.76D-04

 Cycle  10  Pass 1  IDiag  1:
 RMSU=  8.16D-05    CP:  1.00D+00
 E= -1217.33109962111     Delta-E=       -0.000002002587 Rises=F Damp=F
 DIIS: error= 1.99D-05 at cycle   2 NSaved=   2.
 NSaved= 2 IEnMin= 2 EnMin= -1217.33109962111     IErMin= 2 ErrMin= 1.99D-05
 ErrMax= 1.99D-05  0.00D+00 EMaxC= 1.00D-01 BMatC= 4.26D-07 BMatP= 2.78D-06
 IDIUse=1 WtCom= 1.00D+00 WtEn= 0.00D+00
 Coeff-Com:  0.176D+00 0.824D+00
 Coeff:      0.176D+00 0.824D+00
 Gap=     0.153 Goal=   None    Shift=    0.000
 RMSDP=4.23D-06 MaxDP=2.40D-04 DE=-2.00D-06 OVMax= 5.28D-04

 Cycle  11  Pass 1  IDiag  1:
 RMSU=  4.16D-06    CP:  1.00D+00  1.01D+00
 E= -1217.33109916498     Delta-E=        0.000000456137 Rises=F Damp=F
 DIIS: error= 3.07D-05 at cycle   3 NSaved=   3.
 NSaved= 3 IEnMin= 2 EnMin= -1217.33109962111     IErMin= 2 ErrMin= 1.99D-05
 ErrMax= 3.07D-05  0.00D+00 EMaxC= 1.00D-01 BMatC= 8.35D-07 BMatP= 4.26D-07
 IDIUse=1 WtCom= 1.00D+00 WtEn= 0.00D+00
 Coeff-Com:  0.200D-02 0.584D+00 0.414D+00
 Coeff:      0.200D-02 0.584D+00 0.414D+00
 Gap=     0.153 Goal=   None    Shift=    0.000
 RMSDP=2.59D-06 MaxDP=1.52D-04 DE= 4.56D-07 OVMax= 3.62D-04

 Cycle  12  Pass 1  IDiag  1:
 RMSU=  6.29D-07    CP:  1.00D+00  1.01D+00  3.98D-01
 E= -1217.33110005774     Delta-E=       -0.000000892766 Rises=F Damp=F
 DIIS: error= 4.02D-06 at cycle   4 NSaved=   4.
 NSaved= 4 IEnMin= 4 EnMin= -1217.33110005774     IErMin= 4 ErrMin= 4.02D-06
 ErrMax= 4.02D-06  0.00D+00 EMaxC= 1.00D-01 BMatC= 1.78D-08 BMatP= 4.26D-07
 IDIUse=1 WtCom= 1.00D+00 WtEn= 0.00D+00
 Coeff-Com: -0.324D-02 0.343D+00 0.258D+00 0.403D+00
 Coeff:     -0.324D-02 0.343D+00 0.258D+00 0.403D+00
 Gap=     0.153 Goal=   None    Shift=    0.000
 RMSDP=3.78D-07 MaxDP=2.14D-05 DE=-8.93D-07 OVMax= 3.91D-05

 Cycle  13  Pass 1  IDiag  1:
 RMSU=  1.29D-07    CP:  1.00D+00  1.01D+00  4.25D-01  4.63D-01
 E= -1217.33110007542     Delta-E=       -0.000000017673 Rises=F Damp=F
 DIIS: error= 4.31D-07 at cycle   5 NSaved=   5.
 NSaved= 5 IEnMin= 5 EnMin= -1217.33110007542     IErMin= 5 ErrMin= 4.31D-07
 ErrMax= 4.31D-07  0.00D+00 EMaxC= 1.00D-01 BMatC= 2.78D-10 BMatP= 1.78D-08
 IDIUse=1 WtCom= 1.00D+00 WtEn= 0.00D+00
 Coeff-Com: -0.187D-02 0.180D+00 0.136D+00 0.224D+00 0.461D+00
 Coeff:     -0.187D-02 0.180D+00 0.136D+00 0.224D+00 0.461D+00
 Gap=     0.153 Goal=   None    Shift=    0.000
 RMSDP=5.16D-08 MaxDP=2.57D-06 DE=-1.77D-08 OVMax= 5.32D-06

 Cycle  14  Pass 1  IDiag  1:
 RMSU=  4.30D-08    CP:  1.00D+00  1.01D+00  4.23D-01  4.69D-01  7.92D-01
 E= -1217.33110007569     Delta-E=       -0.000000000276 Rises=F Damp=F
 DIIS: error= 1.07D-07 at cycle   6 NSaved=   6.
 NSaved= 6 IEnMin= 6 EnMin= -1217.33110007569     IErMin= 6 ErrMin= 1.07D-07
 ErrMax= 1.07D-07  0.00D+00 EMaxC= 1.00D-01 BMatC= 1.20D-11 BMatP= 2.78D-10
 IDIUse=1 WtCom= 1.00D+00 WtEn= 0.00D+00
 Coeff-Com: -0.537D-03 0.495D-01 0.374D-01 0.613D-01 0.207D+00 0.646D+00
 Coeff:     -0.537D-03 0.495D-01 0.374D-01 0.613D-01 0.207D+00 0.646D+00
 Gap=     0.153 Goal=   None    Shift=    0.000
 RMSDP=1.34D-08 MaxDP=7.37D-07 DE=-2.76D-10 OVMax= 1.45D-06

 Cycle  15  Pass 1  IDiag  1:
 RMSU=  1.07D-08    CP:  1.00D+00  1.01D+00  4.23D-01  4.66D-01  8.42D-01
                    CP:  8.99D-01
 E= -1217.33110007568     Delta-E=        0.000000000011 Rises=F Damp=F
 DIIS: error= 4.34D-08 at cycle   7 NSaved=   7.
 NSaved= 7 IEnMin= 6 EnMin= -1217.33110007569     IErMin= 7 ErrMin= 4.34D-08
 ErrMax= 4.34D-08  0.00D+00 EMaxC= 1.00D-01 BMatC= 2.99D-12 BMatP= 1.20D-11
 IDIUse=1 WtCom= 1.00D+00 WtEn= 0.00D+00
 Coeff-Com:  0.839D-04-0.953D-02-0.704D-02-0.129D-01 0.239D-01 0.371D+00
 Coeff-Com:  0.634D+00
 Coeff:      0.839D-04-0.953D-02-0.704D-02-0.129D-01 0.239D-01 0.371D+00
 Coeff:      0.634D+00
 Gap=     0.153 Goal=   None    Shift=    0.000
 RMSDP=5.50D-09 MaxDP=2.51D-07 DE= 1.14D-11 OVMax= 7.59D-07

 SCF Done:  E(RB3LYP) =  -1217.33110008     A.U. after   15 cycles
            NFock= 15  Conv=0.55D-08     -V/T= 2.0084
 KE= 1.207146737715D+03 PE=-7.719556628637D+03 EE= 2.852631383980D+03
 Leave Link  502 at Fri Nov  4 20:45:03 2022, MaxMem=   805306368 cpu:             539.9 elap:              77.4
 (Enter /home/wykgroup/appl/g16/l508.exe)
 QCSCF skips out because SCF is already converged.
 Leave Link  508 at Fri Nov  4 20:45:03 2022, MaxMem=   805306368 cpu:               0.2 elap:               0.1
 (Enter /home/wykgroup/appl/g16/l601.exe)
 Copying SCF densities to generalized density rwf, IOpCl= 0 IROHF=0.

 **********************************************************************

            Population analysis using the SCF Density.

 **********************************************************************

 Orbital symmetries:
       Occupied  (A) (A) (A) (A) (A) (A) (A) (A) (A) (A) (A) (A)
                 (A) (A) (A) (A) (A) (A) (A) (A) (A) (A) (A) (A)
                 (A) (A) (A) (A) (A) (A) (A) (A) (A) (A) (A) (A)
                 (A) (A) (A) (A) (A) (A) (A) (A) (A) (A) (A) (A)
                 (A) (A) (A) (A) (A) (A) (A) (A) (A) (A) (A) (A)
                 (A) (A) (A) (A) (A) (A) (A) (A) (A) (A) (A) (A)
                 (A) (A) (A) (A) (A) (A) (A) (A) (A) (A) (A) (A)
                 (A) (A) (A) (A) (A) (A) (A) (A) (A) (A) (A) (A)
                 (A) (A)
       Virtual   (A) (A) (A) (A) (A) (A) (A) (A) (A) (A) (A) (A)
                 (A) (A) (A) (A) (A) (A) (A) (A) (A) (A) (A) (A)
                 (A) (A) (A) (A) (A) (A) (A) (A) (A) (A) (A) (A)
                 (A) (A) (A) (A) (A) (A) (A) (A) (A) (A) (A) (A)
                 (A) (A) (A) (A) (A) (A) (A) (A) (A) (A) (A) (A)
                 (A) (A) (A) (A) (A) (A) (A) (A) (A) (A) (A) (A)
                 (A) (A) (A) (A) (A) (A) (A) (A) (A) (A) (A) (A)
                 (A) (A) (A) (A) (A) (A) (A) (A) (A) (A) (A) (A)
                 (A) (A) (A) (A) (A) (A) (A) (A) (A) (A) (A) (A)
                 (A) (A) (A) (A) (A) (A) (A) (A) (A) (A) (A) (A)
                 (A) (A) (A) (A) (A) (A) (A) (A) (A) (A) (A) (A)
                 (A) (A) (A) (A) (A) (A) (A) (A) (A) (A) (A) (A)
                 (A) (A) (A) (A) (A) (A) (A) (A) (A) (A) (A) (A)
                 (A) (A) (A) (A) (A) (A) (A) (A) (A) (A) (A) (A)
                 (A) (A) (A) (A) (A) (A) (A) (A) (A) (A) (A) (A)
                 (A) (A) (A) (A) (A) (A) (A) (A) (A) (A) (A) (A)
                 (A) (A) (A) (A) (A) (A) (A) (A) (A) (A) (A) (A)
                 (A) (A) (A) (A) (A) (A) (A) (A) (A) (A) (A) (A)
                 (A) (A) (A) (A) (A) (A) (A) (A) (A) (A) (A) (A)
                 (A) (A) (A) (A) (A) (A) (A) (A) (A) (A) (A) (A)
                 (A) (A) (A) (A) (A) (A) (A) (A) (A) (A) (A) (A)
                 (A) (A) (A) (A) (A) (A) (A) (A) (A) (A) (A) (A)
                 (A) (A) (A) (A) (A) (A) (A) (A) (A) (A) (A) (A)
                 (A) (A) (A) (A) (A) (A) (A) (A) (A) (A) (A) (A)
                 (A) (A) (A) (A) (A) (A) (A) (A) (A) (A) (A) (A)
                 (A) (A) (A) (A) (A) (A) (A) (A) (A) (A) (A) (A)
                 (A) (A) (A) (A) (A) (A) (A) (A) (A) (A) (A) (A)
                 (A) (A) (A) (A) (A) (A) (A) (A) (A) (A) (A) (A)
                 (A) (A) (A) (A) (A) (A) (A) (A) (A) (A) (A) (A)
                 (A) (A) (A) (A) (A) (A) (A) (A) (A)
 The electronic state is 1-A.
 Alpha  occ. eigenvalues --  -24.72206 -24.70039 -14.37908 -14.33026 -14.30564
 Alpha  occ. eigenvalues --  -10.27963 -10.26144 -10.22963 -10.22682 -10.22646
 Alpha  occ. eigenvalues --  -10.22614 -10.22185 -10.20226 -10.19684 -10.19606
 Alpha  occ. eigenvalues --  -10.19289 -10.18923 -10.18592 -10.18530 -10.18301
 Alpha  occ. eigenvalues --  -10.18157 -10.18146 -10.18024 -10.17330 -10.16992
 Alpha  occ. eigenvalues --  -10.16979 -10.16738  -1.23163  -1.21055  -0.99250
 Alpha  occ. eigenvalues --   -0.95658  -0.90541  -0.85624  -0.83526  -0.81579
 Alpha  occ. eigenvalues --   -0.79263  -0.79098  -0.76589  -0.74094  -0.73521
 Alpha  occ. eigenvalues --   -0.72422  -0.70438  -0.68563  -0.66576  -0.64062
 Alpha  occ. eigenvalues --   -0.63207  -0.62077  -0.61569  -0.60127  -0.58999
 Alpha  occ. eigenvalues --   -0.56309  -0.54651  -0.54147  -0.53412  -0.52727
 Alpha  occ. eigenvalues --   -0.50595  -0.50214  -0.48855  -0.47779  -0.47615
 Alpha  occ. eigenvalues --   -0.47141  -0.45862  -0.45583  -0.44955  -0.44681
 Alpha  occ. eigenvalues --   -0.44028  -0.43797  -0.43577  -0.43456  -0.43063
 Alpha  occ. eigenvalues --   -0.41774  -0.40466  -0.40145  -0.39298  -0.39099
 Alpha  occ. eigenvalues --   -0.38822  -0.38624  -0.38497  -0.38174  -0.37745
 Alpha  occ. eigenvalues --   -0.37166  -0.36919  -0.36108  -0.35850  -0.34250
 Alpha  occ. eigenvalues --   -0.33862  -0.32894  -0.32331  -0.31825  -0.30779
 Alpha  occ. eigenvalues --   -0.30500  -0.29364  -0.26986  -0.25888  -0.25270
 Alpha  occ. eigenvalues --   -0.21578  -0.20719  -0.19927
 Alpha virt. eigenvalues --   -0.04628  -0.01212   0.00462   0.02962   0.07189
 Alpha virt. eigenvalues --    0.07622   0.08139   0.08944   0.10063   0.11568
 Alpha virt. eigenvalues --    0.12004   0.12733   0.13076   0.13217   0.13584
 Alpha virt. eigenvalues --    0.13743   0.13986   0.15197   0.15791   0.15963
 Alpha virt. eigenvalues --    0.16149   0.16585   0.17224   0.17810   0.18038
 Alpha virt. eigenvalues --    0.18114   0.18965   0.19212   0.19626   0.20069
 Alpha virt. eigenvalues --    0.20299   0.20433   0.21367   0.21924   0.22955
 Alpha virt. eigenvalues --    0.23042   0.23896   0.24826   0.25118   0.25937
 Alpha virt. eigenvalues --    0.26861   0.27014   0.27635   0.28082   0.28205
 Alpha virt. eigenvalues --    0.29769   0.30407   0.31402   0.33401   0.33904
 Alpha virt. eigenvalues --    0.34715   0.35462   0.36898   0.38037   0.40049
 Alpha virt. eigenvalues --    0.41729   0.42107   0.45294   0.46886   0.48629
 Alpha virt. eigenvalues --    0.49915   0.50186   0.50567   0.51002   0.51717
 Alpha virt. eigenvalues --    0.52173   0.52777   0.53243   0.53482   0.54090
 Alpha virt. eigenvalues --    0.54330   0.54910   0.55251   0.55899   0.56147
 Alpha virt. eigenvalues --    0.56525   0.56779   0.57158   0.57489   0.58444
 Alpha virt. eigenvalues --    0.59237   0.59540   0.60447   0.61393   0.62061
 Alpha virt. eigenvalues --    0.62722   0.63289   0.63542   0.64878   0.65168
 Alpha virt. eigenvalues --    0.65292   0.65668   0.66499   0.67248   0.68076
 Alpha virt. eigenvalues --    0.68448   0.69655   0.69973   0.70837   0.71037
 Alpha virt. eigenvalues --    0.72030   0.73661   0.73885   0.74432   0.76172
 Alpha virt. eigenvalues --    0.76562   0.77340   0.78493   0.79605   0.80556
 Alpha virt. eigenvalues --    0.80891   0.82019   0.82745   0.83005   0.83652
 Alpha virt. eigenvalues --    0.83882   0.84523   0.85017   0.85482   0.85613
 Alpha virt. eigenvalues --    0.86090   0.86705   0.86964   0.87290   0.87722
 Alpha virt. eigenvalues --    0.88061   0.88785   0.89530   0.89821   0.90737
 Alpha virt. eigenvalues --    0.91084   0.91370   0.91788   0.92443   0.93045
 Alpha virt. eigenvalues --    0.93538   0.93908   0.94270   0.95017   0.95485
 Alpha virt. eigenvalues --    0.95661   0.96066   0.96221   0.96938   0.97142
 Alpha virt. eigenvalues --    0.98365   0.98590   0.99464   1.00408   1.02289
 Alpha virt. eigenvalues --    1.03717   1.04510   1.05020   1.06393   1.08550
 Alpha virt. eigenvalues --    1.08956   1.11347   1.12651   1.15515   1.18078
 Alpha virt. eigenvalues --    1.18337   1.19298   1.20434   1.21215   1.21660
 Alpha virt. eigenvalues --    1.23409   1.24500   1.24984   1.25768   1.27111
 Alpha virt. eigenvalues --    1.28402   1.28525   1.30355   1.30810   1.33322
 Alpha virt. eigenvalues --    1.34038   1.34581   1.35893   1.36436   1.37950
 Alpha virt. eigenvalues --    1.38498   1.39601   1.41737   1.42061   1.42951
 Alpha virt. eigenvalues --    1.43124   1.43645   1.44994   1.45643   1.47381
 Alpha virt. eigenvalues --    1.47948   1.48820   1.50395   1.50847   1.52284
 Alpha virt. eigenvalues --    1.54356   1.55249   1.57321   1.58303   1.59096
 Alpha virt. eigenvalues --    1.61068   1.62538   1.65731   1.67920   1.68622
 Alpha virt. eigenvalues --    1.70847   1.72231   1.73492   1.75845   1.76440
 Alpha virt. eigenvalues --    1.77144   1.77548   1.78226   1.78365   1.79302
 Alpha virt. eigenvalues --    1.80648   1.81706   1.82469   1.82959   1.83562
 Alpha virt. eigenvalues --    1.84170   1.84806   1.85001   1.85818   1.86498
 Alpha virt. eigenvalues --    1.87561   1.88064   1.89239   1.90740   1.90962
 Alpha virt. eigenvalues --    1.92869   1.93139   1.94226   1.94771   1.95171
 Alpha virt. eigenvalues --    1.96611   1.97486   1.97927   1.98928   1.99728
 Alpha virt. eigenvalues --    2.00294   2.01003   2.01731   2.02859   2.03502
 Alpha virt. eigenvalues --    2.04213   2.05784   2.07703   2.08520   2.10406
 Alpha virt. eigenvalues --    2.10790   2.11907   2.12374   2.13355   2.14056
 Alpha virt. eigenvalues --    2.15584   2.15978   2.16533   2.17740   2.19323
 Alpha virt. eigenvalues --    2.20667   2.21422   2.22794   2.23676   2.24227
 Alpha virt. eigenvalues --    2.25879   2.26902   2.27440   2.28395   2.29627
 Alpha virt. eigenvalues --    2.30697   2.32039   2.32720   2.34896   2.35294
 Alpha virt. eigenvalues --    2.35542   2.36722   2.37191   2.37767   2.39221
 Alpha virt. eigenvalues --    2.39755   2.40381   2.41064   2.41332   2.41365
 Alpha virt. eigenvalues --    2.43759   2.44445   2.45227   2.47528   2.49594
 Alpha virt. eigenvalues --    2.50509   2.51887   2.52869   2.53287   2.55278
 Alpha virt. eigenvalues --    2.55431   2.58972   2.60108   2.61022   2.61455
 Alpha virt. eigenvalues --    2.66307   2.67171   2.69657   2.70678   2.71443
 Alpha virt. eigenvalues --    2.72473   2.73737   2.75259   2.77121   2.77594
 Alpha virt. eigenvalues --    2.78560   2.80224   2.80979   2.83650   2.84252
 Alpha virt. eigenvalues --    2.86211   2.87129   2.90036   2.92005   2.96637
 Alpha virt. eigenvalues --    3.01618   3.04436   3.08581   3.14183   3.14361
 Alpha virt. eigenvalues --    3.21280   3.28017   3.31657   3.47875   3.50494
 Alpha virt. eigenvalues --    4.01373   4.05197   4.08002   4.08768   4.11679
 Alpha virt. eigenvalues --    4.16117   4.16768   4.19496   4.21052   4.24514
 Alpha virt. eigenvalues --    4.25410   4.27129   4.28614   4.29779   4.32944
 Alpha virt. eigenvalues --    4.38405   4.41023   4.41615   4.48790   4.52993
 Alpha virt. eigenvalues --    4.55913   4.60573   4.71205   4.75350   4.84348
 Alpha virt. eigenvalues --    5.56508   5.61802
          Condensed to atoms (all electrons):
 Mulliken charges:
               1
     1  C   -0.519732
     2  C    0.302159
     3  C   -0.217027
     4  C    0.060726
     5  C    0.214126
     6  N   -0.767729
     7  C    0.361086
     8  C   -0.262220
     9  C    0.319721
    10  F   -0.303299
    11  C    0.114852
    12  C   -0.168941
    13  C   -0.260036
    14  C   -0.139187
    15  N   -0.557225
    16  C   -0.117924
    17  C   -0.299795
    18  C   -0.301799
    19  C    0.079371
    20  C    0.066791
    21  C   -0.161962
    22  C   -0.447627
    23  C   -0.443663
    24  C    0.287245
    25  F   -0.297459
    26  C   -0.018468
    27  N   -0.456173
    28  H    0.162587
    29  H    0.179219
    30  H    0.163028
    31  H    0.152642
    32  H    0.330163
    33  H    0.136240
    34  H    0.150087
    35  H    0.144058
    36  H    0.134813
    37  H    0.112911
    38  H    0.134018
    39  H    0.293517
    40  H    0.110887
    41  H    0.134410
    42  H    0.154035
    43  H    0.140500
    44  H    0.134583
    45  H    0.131056
    46  H    0.153250
    47  H    0.141682
    48  H    0.146074
    49  H    0.150305
    50  H    0.140097
    51  H    0.151410
    52  H    0.152616
 Sum of Mulliken charges =  -0.00000
 Mulliken charges with hydrogens summed into heavy atoms:
               1
     1  C   -0.014898
     2  C    0.302159
     3  C   -0.064384
     4  C    0.060726
     5  C    0.214126
     6  N   -0.437565
     7  C    0.361086
     8  C   -0.125980
     9  C    0.319721
    10  F   -0.303299
    11  C    0.114852
    12  C   -0.018854
    13  C    0.018835
    14  C    0.107742
    15  N   -0.263708
    16  C    0.127373
    17  C   -0.005261
    18  C   -0.167216
    19  C    0.079371
    20  C    0.066791
    21  C   -0.030906
    22  C   -0.006621
    23  C   -0.001850
    24  C    0.287245
    25  F   -0.297459
    26  C    0.134148
    27  N   -0.456173
 Electronic spatial extent (au):  <R**2>=          13987.9466
 Charge=             -0.0000 electrons
 Dipole moment (field-independent basis, Debye):
    X=             -0.4916    Y=              0.5093    Z=             -0.6229  Tot=              0.9429
 Quadrupole moment (field-independent basis, Debye-Ang):
   XX=           -158.8848   YY=           -151.1241   ZZ=           -157.9190
   XY=              0.2520   XZ=             -3.7311   YZ=              0.6925
 Traceless Quadrupole moment (field-independent basis, Debye-Ang):
   XX=             -2.9088   YY=              4.8519   ZZ=             -1.9430
   XY=              0.2520   XZ=             -3.7311   YZ=              0.6925
 Octapole moment (field-independent basis, Debye-Ang**2):
  XXX=           -216.8421  YYY=            -48.6016  ZZZ=              2.4510  XYY=             34.1595
  XXY=             25.0906  XXZ=             -7.5637  XZZ=             -4.6053  YZZ=             -7.7636
  YYZ=             -3.7659  XYZ=             -4.4096
 Hexadecapole moment (field-independent basis, Debye-Ang**3):
 XXXX=         -15298.3427 YYYY=          -2224.4957 ZZZZ=           -820.3463 XXXY=            -78.2061
 XXXZ=             -5.2105 YYYX=            -34.1129 YYYZ=             16.4463 ZZZX=             35.1490
 ZZZY=            -19.2600 XXYY=          -2895.9276 XXZZ=          -2660.9851 YYZZ=           -521.1093
 XXYZ=            -69.5284 YYXZ=              2.0754 ZZXY=            -13.2730
 N-N= 2.442447406867D+03 E-N=-7.719556648428D+03  KE= 1.207146737715D+03
 No NMR shielding tensors so no spin-rotation constants.
 Leave Link  601 at Fri Nov  4 20:45:04 2022, MaxMem=   805306368 cpu:               4.4 elap:               0.8
 (Enter /home/wykgroup/appl/g16/l701.exe)
 ... and contract with generalized density number  0.
 Compute integral first derivatives.
 Leave Link  701 at Fri Nov  4 20:45:04 2022, MaxMem=   805306368 cpu:               2.5 elap:               0.4
 (Enter /home/wykgroup/appl/g16/l702.exe)
 L702 exits ... SP integral derivatives will be done elsewhere.
 Leave Link  702 at Fri Nov  4 20:45:04 2022, MaxMem=   805306368 cpu:               0.3 elap:               0.1
 (Enter /home/wykgroup/appl/g16/l703.exe)
 Integral derivatives from FoFJK, PRISM(SPDF).
 Compute integral first derivatives, UseDBF=F ICtDFT=           0.
 Calling FoFJK, ICntrl=      2127 FMM=F ISym2X=0 I1Cent= 0 IOpClX= 0 NMat=1 NMatS=1 NMatT=0.
 FoFJK:  IHMeth= 1 ICntrl=    2127 DoSepK=F KAlg= 0 I1Cent=           0 FoldK=F
 IRaf=         0 NMat=       1 IRICut=       1 DoRegI=T DoRafI=F ISym2E= 0 IDoP0=0 IntGTp=1.
 FoFCou: FMM=F IPFlag=           0 FMFlag=      100000 FMFlg1=         800
         NFxFlg=           0 DoJE=F BraDBF=F KetDBF=F FulRan=T
         wScrn=  0.000000 ICntrl=      2127 IOpCl=  0 I1Cent=           0 NGrid=           0
         NMat0=    1 NMatS0=      1 NMatT0=    0 NMatD0=    1 NMtDS0=    0 NMtDT0=    0
 Symmetry not used in FoFCou.
 Leave Link  703 at Fri Nov  4 20:45:31 2022, MaxMem=   805306368 cpu:             184.5 elap:              26.6
 (Enter /home/wykgroup/appl/g16/l716.exe)
 Dipole        =-1.93396130D-01 2.00374477D-01-2.45073608D-01
 ***** Axes restored to original set *****
 -------------------------------------------------------------------
 Center     Atomic                   Forces (Hartrees/Bohr)
 Number     Number              X              Y              Z
 -------------------------------------------------------------------
      1        6           0.000669385    0.000466391   -0.000215398
      2        6           0.001146230    0.006073088   -0.003435075
      3        6           0.000043651    0.000150758    0.000252256
      4        6           0.001285504   -0.003855438    0.002142847
      5        6          -0.006500975    0.001374073   -0.004380767
      6        7          -0.001892140   -0.004033780    0.008341762
      7        6           0.007919783    0.001172826   -0.001013214
      8        6           0.000497847   -0.002624274    0.004759605
      9        6          -0.003284397   -0.001331203    0.002670120
     10        9           0.004178254   -0.000212377    0.001418655
     11        6           0.007735080    0.001531891   -0.002647536
     12        6          -0.003471005   -0.003158073    0.004813378
     13        6           0.002864608    0.002816091   -0.001288904
     14        6           0.002252059    0.002377772    0.003269856
     15        7           0.003172380    0.006193298   -0.005305988
     16        6           0.003754779   -0.003953495   -0.003636473
     17        6           0.001723219    0.000268254   -0.004110125
     18        6          -0.001651874    0.000228524   -0.001285293
     19        6          -0.003558860   -0.000561165    0.002406401
     20        6          -0.005042006    0.000552500   -0.002412707
     21        6           0.001016971   -0.000051893    0.000719414
     22        6          -0.004393884   -0.001717416   -0.001124281
     23        6          -0.004292691    0.000319303    0.000172859
     24        6           0.000202760   -0.001086917    0.000024932
     25        9           0.001017462   -0.000611810    0.001092487
     26        6           0.004347134   -0.009018864    0.004719231
     27        7          -0.016719203    0.000528779   -0.000683764
     28        1          -0.000344871    0.003049472   -0.005327413
     29        1          -0.004245552    0.000065894   -0.000133787
     30        1          -0.000592428    0.006026316    0.001247190
     31        1           0.002410613    0.003698402   -0.001127910
     32        1          -0.001566904   -0.001150370    0.000411433
     33        1           0.000632585   -0.002284726    0.004680959
     34        1          -0.001589573    0.000527123   -0.000240735
     35        1          -0.001562481    0.000023315    0.002776354
     36        1          -0.001757756    0.003267400    0.000447411
     37        1           0.001836015    0.000508197    0.003090603
     38        1           0.002313817    0.001339336    0.001538489
     39        1           0.001814518    0.000860067   -0.000609595
     40        1           0.001276319   -0.001997421   -0.000631604
     41        1           0.000545336   -0.002878209   -0.001831757
     42        1          -0.001123006   -0.002357178    0.002082860
     43        1          -0.000669075   -0.003435235   -0.000083351
     44        1           0.001254474    0.002009023   -0.003857738
     45        1          -0.000032831    0.000543274   -0.000571538
     46        1           0.005446481    0.002507123    0.000513085
     47        1          -0.000444055    0.003686497   -0.004999552
     48        1          -0.001531145    0.004275735    0.003145672
     49        1           0.005774558   -0.000543119   -0.001259339
     50        1          -0.000351142    0.001231676   -0.005917789
     51        1          -0.000198965   -0.005202407   -0.001064471
     52        1          -0.000315007   -0.005607027    0.002458248
 -------------------------------------------------------------------
 Cartesian Forces:  Max     0.016719203 RMS     0.003264952
 Leave Link  716 at Fri Nov  4 20:45:31 2022, MaxMem=   805306368 cpu:               0.2 elap:               0.0
 (Enter /home/wykgroup/appl/g16/l103.exe)

 GradGradGradGradGradGradGradGradGradGradGradGradGradGradGradGradGradGrad
 Berny optimization.
 FormGI is forming the generalized inverse of G from B-inverse, IUseBI=4.
 Internal  Forces:  Max     0.018403608 RMS     0.003705818
 Search for a local minimum.
 Step number   1 out of a maximum of  312
 All quantities printed in internal units (Hartrees-Bohrs-Radians)
 RMS Force = .37058D-02 SwitMx=.10000D-02 MixMth= 1
 Mixed Optimization -- RFO/linear search
 Second derivative matrix not updated -- first step.
 ITU=  0
     Eigenvalues ---    0.00350   0.00357   0.00361   0.00583   0.00685
     Eigenvalues ---    0.00770   0.00821   0.01284   0.01383   0.01454
     Eigenvalues ---    0.01569   0.01660   0.01847   0.01893   0.01929
     Eigenvalues ---    0.02028   0.02060   0.02104   0.02135   0.02149
     Eigenvalues ---    0.02165   0.02182   0.02189   0.02216   0.02223
     Eigenvalues ---    0.02254   0.02297   0.02299   0.02337   0.02467
     Eigenvalues ---    0.02531   0.02595   0.03488   0.03930   0.03937
     Eigenvalues ---    0.04100   0.04555   0.04829   0.04978   0.05062
     Eigenvalues ---    0.05291   0.05536   0.05598   0.05616   0.05654
     Eigenvalues ---    0.05680   0.05812   0.05863   0.06245   0.06848
     Eigenvalues ---    0.07436   0.07479   0.07670   0.07769   0.08790
     Eigenvalues ---    0.08942   0.09088   0.09438   0.11819   0.12338
     Eigenvalues ---    0.14872   0.15993   0.15997   0.15999   0.16000
     Eigenvalues ---    0.16000   0.16000   0.16000   0.16000   0.16000
     Eigenvalues ---    0.16000   0.16000   0.16000   0.16000   0.16000
     Eigenvalues ---    0.16814   0.17928   0.18142   0.19485   0.20892
     Eigenvalues ---    0.22923   0.23079   0.23705   0.23913   0.24088
     Eigenvalues ---    0.24871   0.24974   0.24996   0.24996   0.24999
     Eigenvalues ---    0.24999   0.25000   0.25000   0.25000   0.25000
     Eigenvalues ---    0.26564   0.27475   0.28207   0.28899   0.29293
     Eigenvalues ---    0.29341   0.31741   0.32406   0.32818   0.33266
[...]
     13          6           0       -4.806375    0.165502   -1.378667
     14          6           0       -6.330248    0.299151   -1.161789
     15          7           0       -6.572153    1.182802   -0.020851
     16          6           0       -6.219973    0.541200    1.253828
     17          6           0       -4.892329   -0.241947    1.116912
     18          6           0       -1.523174    0.598477    0.075359
     19          6           0       -0.207652    0.092820    0.033234
     20          6           0        1.106267    0.679102    0.159102
     21          6           0        1.418577    2.122238    0.491133
     22          6           0        1.045266    3.080407   -0.658480
     23          6           0        0.770109    2.564270    1.819825
     24          6           0        4.229636   -1.458846    0.455080
     25          9           0        3.602134   -2.563698    0.939101
     26          6           0        5.616575   -1.448986    0.435704
     27          7           0        6.325896   -0.418843   -0.028746
     28          1           0        7.110269    2.198020   -0.252723
     29          1           0        7.155749    1.420375   -1.832422
     30          1           0        5.859982    2.579409   -1.456159
     31          1           0        3.753544    1.541929   -0.969133
     32          1           0        1.747136   -2.457575   -0.244594
     33          1           0       -0.997991   -3.238861   -0.516313
     34          1           0       -3.937841    1.403564    0.147187
     35          1           0       -4.588419   -0.809036   -1.826020
     36          1           0       -4.453231    0.931258   -2.078850
     37          1           0       -6.779651   -0.703834   -1.025292
     38          1           0       -6.803093    0.735664   -2.048369
     39          1           0       -7.544358    1.479845    0.000903
     40          1           0       -7.003617   -0.150909    1.614546
     41          1           0       -6.118729    1.330652    2.009837
     42          1           0       -5.093308   -1.299969    0.921229
     43          1           0       -4.337233   -0.198662    2.060746
     44          1           0       -1.698249    1.659104    0.227271
     45          1           0        2.500675    2.199236    0.642774
     46          1           0       -0.030431    3.058239   -0.865110
     47          1           0        1.317069    4.112278   -0.405589
     48          1           0        1.561301    2.808658   -1.586591
     49          1           0       -0.323114    2.555074    1.768707
     50          1           0        1.083244    3.584434    2.072068
     51          1           0        1.070342    1.902983    2.639522
     52          1           0        6.160022   -2.311816    0.816185
 ---------------------------------------------------------------------
 Rotational constants (GHZ):           0.4591800           0.0805067           0.0728479
 Leave Link  202 at Fri Nov  4 21:39:40 2022, MaxMem=   805306368 cpu:               0.1 elap:               0.0
 (Enter /home/wykgroup/appl/g16/l601.exe)
 Copying SCF densities to generalized density rwf, IOpCl= 0 IROHF=0.

 **********************************************************************

            Population analysis using the SCF Density.

 **********************************************************************

 Orbital symmetries:
       Occupied  (A) (A) (A) (A) (A) (A) (A) (A) (A) (A) (A) (A)
                 (A) (A) (A) (A) (A) (A) (A) (A) (A) (A) (A) (A)
                 (A) (A) (A) (A) (A) (A) (A) (A) (A) (A) (A) (A)
                 (A) (A) (A) (A) (A) (A) (A) (A) (A) (A) (A) (A)
                 (A) (A) (A) (A) (A) (A) (A) (A) (A) (A) (A) (A)
                 (A) (A) (A) (A) (A) (A) (A) (A) (A) (A) (A) (A)
                 (A) (A) (A) (A) (A) (A) (A) (A) (A) (A) (A) (A)
                 (A) (A) (A) (A) (A) (A) (A) (A) (A) (A) (A) (A)
                 (A) (A)
       Virtual   (A) (A) (A) (A) (A) (A) (A) (A) (A) (A) (A) (A)
                 (A) (A) (A) (A) (A) (A) (A) (A) (A) (A) (A) (A)
                 (A) (A) (A) (A) (A) (A) (A) (A) (A) (A) (A) (A)
                 (A) (A) (A) (A) (A) (A) (A) (A) (A) (A) (A) (A)
                 (A) (A) (A) (A) (A) (A) (A) (A) (A) (A) (A) (A)
                 (A) (A) (A) (A) (A) (A) (A) (A) (A) (A) (A) (A)
                 (A) (A) (A) (A) (A) (A) (A) (A) (A) (A) (A) (A)
                 (A) (A) (A) (A) (A) (A) (A) (A) (A) (A) (A) (A)
                 (A) (A) (A) (A) (A) (A) (A) (A) (A) (A) (A) (A)
                 (A) (A) (A) (A) (A) (A) (A) (A) (A) (A) (A) (A)
                 (A) (A) (A) (A) (A) (A) (A) (A) (A) (A) (A) (A)
                 (A) (A) (A) (A) (A) (A) (A) (A) (A) (A) (A) (A)
                 (A) (A) (A) (A) (A) (A) (A) (A) (A) (A) (A) (A)
                 (A) (A) (A) (A) (A) (A) (A) (A) (A) (A) (A) (A)
                 (A) (A) (A) (A) (A) (A) (A) (A) (A) (A) (A) (A)
                 (A) (A) (A) (A) (A) (A) (A) (A) (A) (A) (A) (A)
                 (A) (A) (A) (A) (A) (A) (A) (A) (A) (A) (A) (A)
                 (A) (A) (A) (A) (A) (A) (A) (A) (A) (A) (A) (A)
                 (A) (A) (A) (A) (A) (A) (A) (A) (A) (A) (A) (A)
                 (A) (A) (A) (A) (A) (A) (A) (A) (A) (A) (A) (A)
                 (A) (A) (A) (A) (A) (A) (A) (A) (A) (A) (A) (A)
                 (A) (A) (A) (A) (A) (A) (A) (A) (A) (A) (A) (A)
                 (A) (A) (A) (A) (A) (A) (A) (A) (A) (A) (A) (A)
                 (A) (A) (A) (A) (A) (A) (A) (A) (A) (A) (A) (A)
                 (A) (A) (A) (A) (A) (A) (A) (A) (A) (A) (A) (A)
                 (A) (A) (A) (A) (A) (A) (A) (A) (A) (A) (A) (A)
                 (A) (A) (A) (A) (A) (A) (A) (A) (A) (A) (A) (A)
                 (A) (A) (A) (A) (A) (A) (A) (A) (A) (A) (A) (A)
                 (A) (A) (A) (A) (A) (A) (A) (A) (A) (A) (A) (A)
                 (A) (A) (A) (A) (A) (A) (A) (A) (A)
 The electronic state is 1-A.
 Alpha  occ. eigenvalues --  -24.72447 -24.70006 -14.37905 -14.33451 -14.30811
 Alpha  occ. eigenvalues --  -10.28222 -10.26471 -10.23474 -10.23260 -10.23151
 Alpha  occ. eigenvalues --  -10.23101 -10.22655 -10.20637 -10.20017 -10.19890
 Alpha  occ. eigenvalues --  -10.19845 -10.19344 -10.19113 -10.19054 -10.19023
 Alpha  occ. eigenvalues --  -10.18697 -10.18672 -10.18605 -10.17792 -10.17488
 Alpha  occ. eigenvalues --  -10.17392 -10.17084  -1.23276  -1.20842  -0.98482
 Alpha  occ. eigenvalues --   -0.94981  -0.89835  -0.85226  -0.83164  -0.81203
 Alpha  occ. eigenvalues --   -0.78876  -0.78748  -0.76309  -0.73805  -0.73271
 Alpha  occ. eigenvalues --   -0.72278  -0.70310  -0.68379  -0.66455  -0.63935
 Alpha  occ. eigenvalues --   -0.62986  -0.61929  -0.61483  -0.60078  -0.58945
 Alpha  occ. eigenvalues --   -0.56136  -0.54570  -0.53930  -0.53270  -0.52485
 Alpha  occ. eigenvalues --   -0.50505  -0.49903  -0.48586  -0.47757  -0.47539
 Alpha  occ. eigenvalues --   -0.46863  -0.45700  -0.45405  -0.44689  -0.44365
 Alpha  occ. eigenvalues --   -0.43975  -0.43594  -0.43392  -0.43051  -0.42696
 Alpha  occ. eigenvalues --   -0.41731  -0.40341  -0.40185  -0.39240  -0.38994
 Alpha  occ. eigenvalues --   -0.38734  -0.38634  -0.38444  -0.38144  -0.37566
 Alpha  occ. eigenvalues --   -0.37082  -0.36871  -0.35946  -0.35738  -0.34364
 Alpha  occ. eigenvalues --   -0.34043  -0.32884  -0.32270  -0.31741  -0.30791
 Alpha  occ. eigenvalues --   -0.30558  -0.29310  -0.26939  -0.26207  -0.25372
 Alpha  occ. eigenvalues --   -0.21640  -0.20855  -0.20093
 Alpha virt. eigenvalues --   -0.05210  -0.01093   0.00059   0.02558   0.06515
 Alpha virt. eigenvalues --    0.07318   0.08024   0.08933   0.09898   0.11320
 Alpha virt. eigenvalues --    0.11702   0.12698   0.12926   0.13128   0.13467
 Alpha virt. eigenvalues --    0.13658   0.13895   0.14678   0.15010   0.15514
 Alpha virt. eigenvalues --    0.15845   0.16768   0.17261   0.17322   0.17527
 Alpha virt. eigenvalues --    0.17782   0.18537   0.18912   0.19327   0.19565
 Alpha virt. eigenvalues --    0.19787   0.20055   0.20938   0.21519   0.22460
 Alpha virt. eigenvalues --    0.22728   0.23265   0.23724   0.24471   0.25204
 Alpha virt. eigenvalues --    0.26076   0.26584   0.27103   0.27258   0.27620
 Alpha virt. eigenvalues --    0.28820   0.29306   0.30734   0.33180   0.33417
 Alpha virt. eigenvalues --    0.34401   0.35418   0.36257   0.36567   0.39087
 Alpha virt. eigenvalues --    0.41534   0.42050   0.44316   0.46341   0.48459
 Alpha virt. eigenvalues --    0.49415   0.50119   0.50213   0.50941   0.51455
 Alpha virt. eigenvalues --    0.51616   0.52243   0.52917   0.53079   0.53644
 Alpha virt. eigenvalues --    0.54008   0.54481   0.54812   0.55362   0.55508
 Alpha virt. eigenvalues --    0.56154   0.56546   0.56844   0.57382   0.58190
 Alpha virt. eigenvalues --    0.59172   0.59486   0.59927   0.61008   0.62261
 Alpha virt. eigenvalues --    0.62455   0.62620   0.63292   0.64268   0.64723
 Alpha virt. eigenvalues --    0.65118   0.65695   0.66037   0.66596   0.67067
 Alpha virt. eigenvalues --    0.67916   0.68349   0.68819   0.69949   0.70101
 Alpha virt. eigenvalues --    0.70926   0.73082   0.74134   0.74724   0.75209
 Alpha virt. eigenvalues --    0.75950   0.77103   0.78115   0.79254   0.79994
 Alpha virt. eigenvalues --    0.80368   0.81918   0.82086   0.82864   0.83229
 Alpha virt. eigenvalues --    0.83597   0.83983   0.84623   0.85218   0.85381
 Alpha virt. eigenvalues --    0.86138   0.86620   0.86908   0.86987   0.87364
 Alpha virt. eigenvalues --    0.87843   0.88204   0.88752   0.89480   0.89687
 Alpha virt. eigenvalues --    0.90547   0.90741   0.91450   0.92003   0.92844
 Alpha virt. eigenvalues --    0.93073   0.93335   0.93470   0.94104   0.94931
 Alpha virt. eigenvalues --    0.95229   0.95474   0.95975   0.96259   0.96791
 Alpha virt. eigenvalues --    0.97823   0.98604   0.99740   1.00072   1.01587
 Alpha virt. eigenvalues --    1.03062   1.03475   1.04055   1.05382   1.08236
 Alpha virt. eigenvalues --    1.08584   1.10392   1.12396   1.13473   1.15722
 Alpha virt. eigenvalues --    1.17416   1.18351   1.18517   1.19962   1.22384
 Alpha virt. eigenvalues --    1.22997   1.23744   1.24312   1.25486   1.26107
 Alpha virt. eigenvalues --    1.26478   1.28983   1.29710   1.31160   1.33041
 Alpha virt. eigenvalues --    1.33678   1.34536   1.36306   1.36824   1.37596
 Alpha virt. eigenvalues --    1.38248   1.39320   1.40552   1.41875   1.42521
 Alpha virt. eigenvalues --    1.43016   1.43694   1.44557   1.45418   1.46593
 Alpha virt. eigenvalues --    1.47608   1.48323   1.48800   1.50045   1.51300
 Alpha virt. eigenvalues --    1.52391   1.53707   1.56115   1.56944   1.57762
 Alpha virt. eigenvalues --    1.59759   1.61527   1.64469   1.67506   1.67997
 Alpha virt. eigenvalues --    1.70912   1.71727   1.72674   1.74546   1.74986
 Alpha virt. eigenvalues --    1.75508   1.76095   1.76837   1.77208   1.77958
 Alpha virt. eigenvalues --    1.79723   1.80139   1.81072   1.81373   1.82239
 Alpha virt. eigenvalues --    1.82739   1.83552   1.83685   1.84549   1.86341
 Alpha virt. eigenvalues --    1.86787   1.87207   1.88291   1.88879   1.89606
 Alpha virt. eigenvalues --    1.91658   1.92001   1.92950   1.93109   1.94123
 Alpha virt. eigenvalues --    1.95772   1.95947   1.97142   1.97937   1.98419
 Alpha virt. eigenvalues --    1.98719   1.99808   2.00488   2.01284   2.02450
 Alpha virt. eigenvalues --    2.03073   2.04508   2.06118   2.06903   2.08416
 Alpha virt. eigenvalues --    2.09326   2.09888   2.11131   2.11757   2.12973
 Alpha virt. eigenvalues --    2.14895   2.15919   2.16026   2.18343   2.19327
 Alpha virt. eigenvalues --    2.19853   2.20462   2.21849   2.22318   2.23655
 Alpha virt. eigenvalues --    2.23809   2.24794   2.25981   2.26698   2.27550
 Alpha virt. eigenvalues --    2.28902   2.30254   2.30825   2.31580   2.32353
 Alpha virt. eigenvalues --    2.34411   2.35172   2.35434   2.35935   2.37215
 Alpha virt. eigenvalues --    2.38156   2.39019   2.39718   2.40164   2.41286
 Alpha virt. eigenvalues --    2.41860   2.42856   2.43844   2.46096   2.47843
 Alpha virt. eigenvalues --    2.48782   2.50661   2.51288   2.51707   2.53798
 Alpha virt. eigenvalues --    2.54208   2.57242   2.58264   2.59261   2.60130
 Alpha virt. eigenvalues --    2.64938   2.65920   2.67674   2.68772   2.69983
 Alpha virt. eigenvalues --    2.71178   2.72084   2.73368   2.75294   2.76280
 Alpha virt. eigenvalues --    2.77066   2.78209   2.79529   2.81266   2.81717
 Alpha virt. eigenvalues --    2.84163   2.85976   2.88856   2.90338   2.94989
 Alpha virt. eigenvalues --    2.99137   3.02585   3.07129   3.12560   3.13588
 Alpha virt. eigenvalues --    3.17947   3.25752   3.28910   3.44219   3.46803
 Alpha virt. eigenvalues --    3.98109   4.04651   4.06334   4.07546   4.10787
 Alpha virt. eigenvalues --    4.14316   4.15161   4.17861   4.18851   4.22640
 Alpha virt. eigenvalues --    4.23726   4.25681   4.28308   4.28707   4.30660
 Alpha virt. eigenvalues --    4.37070   4.40022   4.41635   4.47868   4.51644
 Alpha virt. eigenvalues --    4.54302   4.59454   4.69732   4.73822   4.82256
 Alpha virt. eigenvalues --    5.50348   5.54497
          Condensed to atoms (all electrons):
 Mulliken charges:
               1
     1  C   -0.504526
     2  C    0.298738
     3  C   -0.230553
     4  C    0.075602
     5  C    0.210290
     6  N   -0.769574
     7  C    0.354729
     8  C   -0.256271
     9  C    0.319410
    10  F   -0.305108
    11  C    0.108024
    12  C   -0.161744
    13  C   -0.259073
    14  C   -0.141069
    15  N   -0.558431
    16  C   -0.118017
    17  C   -0.299407
    18  C   -0.300494
    19  C    0.074036
    20  C    0.065069
    21  C   -0.157862
    22  C   -0.448452
    23  C   -0.445003
    24  C    0.283993
    25  F   -0.300596
    26  C   -0.015572
    27  N   -0.460945
    28  H    0.173992
    29  H    0.174281
    30  H    0.150476
    31  H    0.154876
    32  H    0.333810
    33  H    0.140520
    34  H    0.146600
    35  H    0.142984
    36  H    0.135692
    37  H    0.114575
    38  H    0.134663
    39  H    0.294117
    40  H    0.112816
    41  H    0.135491
    42  H    0.152727
    43  H    0.139828
    44  H    0.135013
    45  H    0.133232
    46  H    0.152310
    47  H    0.141806
    48  H    0.146378
    49  H    0.149545
    50  H    0.140473
    51  H    0.151437
    52  H    0.155165
 Sum of Mulliken charges =  -0.00000
 Mulliken charges with hydrogens summed into heavy atoms:
               1
     1  C   -0.005777
     2  C    0.298738
     3  C   -0.075677
     4  C    0.075602
     5  C    0.210290
     6  N   -0.435764
     7  C    0.354729
     8  C   -0.115751
     9  C    0.319410
    10  F   -0.305108
    11  C    0.108024
    12  C   -0.015144
    13  C    0.019602
    14  C    0.108170
    15  N   -0.264314
    16  C    0.130290
    17  C   -0.006853
    18  C   -0.165481
    19  C    0.074036
    20  C    0.065069
    21  C   -0.024630
    22  C   -0.007959
    23  C   -0.003549
    24  C    0.283993
    25  F   -0.300596
    26  C    0.139593
    27  N   -0.460945
 Electronic spatial extent (au):  <R**2>=          14319.3748
 Charge=             -0.0000 electrons
 Dipole moment (field-independent basis, Debye):
    X=             -0.4098    Y=              0.5615    Z=             -0.3464  Tot=              0.7767
 Quadrupole moment (field-independent basis, Debye-Ang):
   XX=           -158.1801   YY=           -151.1305   ZZ=           -158.4077
   XY=              1.6796   XZ=             -3.3736   YZ=              0.3560
 Traceless Quadrupole moment (field-independent basis, Debye-Ang):
   XX=             -2.2740   YY=              4.7756   ZZ=             -2.5016
   XY=              1.6796   XZ=             -3.3736   YZ=              0.3560
 Octapole moment (field-independent basis, Debye-Ang**2):
  XXX=           -218.1768  YYY=            -49.4386  ZZZ=              3.2815  XYY=             38.4501
  XXY=             24.8148  XXZ=             -7.2475  XZZ=             -6.8057  YZZ=             -7.8359
  YYZ=             -2.1425  XYZ=             -6.3640
 Hexadecapole moment (field-independent basis, Debye-Ang**3):
 XXXX=         -15608.7793 YYYY=          -2295.7277 ZZZZ=           -797.2045 XXXY=             11.6765
 XXXZ=            -18.9111 YYYX=            -31.6534 YYYZ=              9.3041 ZZZX=             36.2067
 ZZZY=            -16.0698 XXYY=          -2983.3491 XXZZ=          -2712.8991 YYZZ=           -530.5552
 XXYZ=            -61.0487 YYXZ=              0.1797 ZZXY=            -13.2052
 N-N= 2.419050180305D+03 E-N=-7.671934812297D+03  KE= 1.206198080785D+03
 No NMR shielding tensors so no spin-rotation constants.
 Leave Link  601 at Fri Nov  4 21:39:40 2022, MaxMem=   805306368 cpu:               1.5 elap:               0.3
 (Enter /home/wykgroup/appl/g16/l9999.exe)
 1\1\GINC-NODE92\FOpt\RB3LYP\6-31G(d)\C22H25F2N3\WYKGROUP\04-Nov-2022\0
 \\#p b3lyp/6-31g(d) opt SCF=XQC\\Gaussian input prepared by ASE\\0,1\C
 ,-6.8436166432,1.4569010442,-0.5590955923\C,-5.993303339,0.3642358455,
 0.0408229221\C,-4.597768026,0.4406247784,0.0360762795\C,-3.8090442187,
 -0.5865809896,0.5884606158\C,-2.3439908093,-0.5515008644,0.598108316\N
 ,-1.6475345763,-1.0878256617,1.6807296189\C,-0.3030431492,-0.920193141
 4,1.4926512497\C,0.7742741428,-1.2880703991,2.3069040545\C,2.033994981
 2,-0.9647072394,1.8436909806\F,3.0911531628,-1.314224478,2.6258402502\
 C,2.2934762039,-0.2951554304,0.6249803532\C,3.7034559459,0.0400009124,
 0.1712752197\C,4.4315902084,1.0327797397,1.1210310594\C,5.9611203024,0
 .9779762543,0.9097970469\N,6.2360778503,0.6048376895,-0.4781025113\C,5
 .9233363753,-0.8075987905,-0.7383084172\C,4.5932421168,-1.2025505502,-
 0.0530574013\C,1.1930930573,0.0507997424,-0.1552603071\C,-0.1224085554
 ,-0.2525600887,0.2515460322\C,-1.4327400533,-0.0329762262,-0.314815477
 4\C,-1.7368797048,0.5625148392,-1.672502471\C,-1.3996820817,2.06611013
 36,-1.7400069602\C,-1.049284129,-0.2161195427,-2.8136718771\C,-4.54284
 63792,-1.6333922615,1.1615855777\F,-3.8995375759,-2.6689769177,1.76362
 47914\C,-5.9297517834,-1.6465048681,1.1417390401\N,-6.6541512274,-0.67
 35323821,0.5862075662\H,-7.4484956977,1.0603226206,-1.382585335\H,-7.5
 404802322,1.8524105151,0.1878873704\H,-6.2355529829,2.2816621401,-0.94
 20919703\H,-4.113981747,1.3210191149,-0.3704802913\H,-2.0811874923,-1.
 6139770725,2.4224050192\H,0.6555749922,-1.7988420286,3.2566240517\H,3.
 6077242309,0.5379658046,-0.8003706318\H,4.2015894691,0.7981141346,2.16
 47676297\H,4.0564658259,2.0437274911,0.92452131\H,6.4158030398,0.27669
 34291,1.6364597706\H,6.4064451085,1.9601798677,1.1024412389\H,7.208089
 1689,0.7903941928,-0.711880218\H,6.7184373987,-1.4925134038,-0.3891147
 525\H,5.8438328899,-0.9386527488,-1.8252941748\H,4.7896823047,-1.67794
 06467,0.913125976\H,4.0667734643,-1.943814613,-0.6647643018\H,1.371213
 5327,0.5720582942,-1.0907923094\H,-2.8140227634,0.4608560696,-1.843641
 0154\H,-0.3306682669,2.2445003592,-1.5796983374\H,-1.6651545396,2.4783
 308981,-2.7209184259\H,-1.9430699011,2.6307006097,-0.9735245801\H,0.04
 19139535,-0.1536382887,-2.7569592799\H,-1.3560730676,0.1885469833,-3.7
 85547133\H,-1.3237823169,-1.2758794729,-2.783617162\H,-6.4603094666,-2
 .4829433967,1.592798593\\Version=ES64L-G16RevB.01\State=1-A\HF=-1217.3
 372598\RMSD=5.195e-09\RMSF=2.748e-06\Dipole=0.1567443,0.2457312,-0.091
 7531\Quadrupole=-1.5363411,-0.2923426,1.8286837,-2.7457418,-0.5070068,
 -2.5867589\PG=C01 [X(C22H25F2N3)]\\@


 WE STILL HAVE JUDGEMENT HERE,
 THAT WE TEACH BUT BLOODY INSTRUCTIONS,
 WHICH, BEING TAUGHT,
 RETURN TO PLAGUE THE INVENTOR.
           MACBETH ACT I, SCENE VII
 Job cpu time:       0 days  6 hours 25 minutes 41.5 seconds.
 Elapsed time:       0 days  0 hours 55 minutes 55.2 seconds.
 File lengths (MBytes):  RWF=    134 Int=      0 D2E=      0 Chk=     19 Scr=      1
 Normal termination of Gaussian 16 at Fri Nov  4 21:39:40 2022.
