 Entering Gaussian System, Link 0=/home/wykgroup/appl/g16/g16
 Input=./calculation/no_transfer_pubchem_sampling_4_b3lyp/23253513.com
 Output=./calculation/no_transfer_pubchem_sampling_4_b3lyp/23253513.log
 Initial command:
 /home/wykgroup/appl/g16/l1.exe "/userdata/scratch/wykgroup/khs/./calculation/no_transfer_pubchem_sampling_4_b3lyp/23253513/Gau-7182.inp" -scrdir="/userdata/scratch/wykgroup/khs/./calculation/no_transfer_pubchem_sampling_4_b3lyp/23253513/"
 Entering Link 1 = /home/wykgroup/appl/g16/l1.exe PID=      7183.
  
 Copyright (c) 1988-2017, Gaussian, Inc.  All Rights Reserved.
  
 This is part of the Gaussian(R) 16 program.  It is based on
 the Gaussian(R) 09 system (copyright 2009, Gaussian, Inc.),
 the Gaussian(R) 03 system (copyright 2003, Gaussian, Inc.),
 the Gaussian(R) 98 system (copyright 1998, Gaussian, Inc.),
 the Gaussian(R) 94 system (copyright 1995, Gaussian, Inc.),
 the Gaussian 92(TM) system (copyright 1992, Gaussian, Inc.),
 the Gaussian 90(TM) system (copyright 1990, Gaussian, Inc.),
 the Gaussian 88(TM) system (copyright 1988, Gaussian, Inc.),
 the Gaussian 86(TM) system (copyright 1986, Carnegie Mellon
 University), and the Gaussian 82(TM) system (copyright 1983,
 Carnegie Mellon University). Gaussian is a federally registered
 trademark of Gaussian, Inc.
  
 This software contains proprietary and confidential information,
 including trade secrets, belonging to Gaussian, Inc.
  
 This software is provided under written license and may be
 used, copied, transmitted, or stored only in accord with that
 written license.
  
 The following legend is applicable only to US Government
 contracts under FAR:
  
                    RESTRICTED RIGHTS LEGEND
  
 Use, reproduction and disclosure by the US Government is
 subject to restrictions as set forth in subparagraphs (a)
 and (c) of the Commercial Computer Software - Restricted
 Rights clause in FAR 52.227-19.
  
 Gaussian, Inc.
 340 Quinnipiac St., Bldg. 40, Wallingford CT 06492
  
  
 ---------------------------------------------------------------
 Warning -- This program may not be used in any manner that
 competes with the business of Gaussian, Inc. or will provide
 assistance to any competitor of Gaussian, Inc.  The licensee
 of this program is prohibited from giving any competitor of
 Gaussian, Inc. access to this program.  By using this program,
 the user acknowledges that Gaussian, Inc. is engaged in the
 business of creating and licensing software in the field of
 computational chemistry and represents and warrants to the
 licensee that it is not a competitor of Gaussian, Inc. and that
 it will not use this program in any manner prohibited above.
 ---------------------------------------------------------------
  

 Cite this work as:
 Gaussian 16, Revision B.01,
 M. J. Frisch, G. W. Trucks, H. B. Schlegel, G. E. Scuseria, 
 M. A. Robb, J. R. Cheeseman, G. Scalmani, V. Barone, 
 G. A. Petersson, H. Nakatsuji, X. Li, M. Caricato, A. V. Marenich, 
 J. Bloino, B. G. Janesko, R. Gomperts, B. Mennucci, H. P. Hratchian, 
 J. V. Ortiz, A. F. Izmaylov, J. L. Sonnenberg, D. Williams-Young, 
 F. Ding, F. Lipparini, F. Egidi, J. Goings, B. Peng, A. Petrone, 
 T. Henderson, D. Ranasinghe, V. G. Zakrzewski, J. Gao, N. Rega, 
 G. Zheng, W. Liang, M. Hada, M. Ehara, K. Toyota, R. Fukuda, 
 J. Hasegawa, M. Ishida, T. Nakajima, Y. Honda, O. Kitao, H. Nakai, 
 T. Vreven, K. Throssell, J. A. Montgomery, Jr., J. E. Peralta, 
 F. Ogliaro, M. J. Bearpark, J. J. Heyd, E. N. Brothers, K. N. Kudin, 
 V. N. Staroverov, T. A. Keith, R. Kobayashi, J. Normand, 
 K. Raghavachari, A. P. Rendell, J. C. Burant, S. S. Iyengar, 
 J. Tomasi, M. Cossi, J. M. Millam, M. Klene, C. Adamo, R. Cammi, 
 J. W. Ochterski, R. L. Martin, K. Morokuma, O. Farkas, 
 J. B. Foresman, and D. J. Fox, Gaussian, Inc., Wallingford CT, 2016.
 
 ******************************************
 Gaussian 16:  ES64L-G16RevB.01 20-Dec-2017
                 4-Nov-2022 
 ******************************************
 %chk=./calculation/no_transfer_pubchem_sampling_4_b3lyp/23253513.chk
 %nprocshared=7
 Will use up to    7 processors via shared memory.
 %mem=6GB
 -----------------------------
 #p b3lyp/6-31g(d) opt SCF=XQC
 -----------------------------
 1/18=20,19=15,26=3,38=1/1,3;
 2/9=110,12=2,17=6,18=5,40=1/2;
 3/5=1,6=6,7=1,11=2,25=1,30=1,71=1,74=-5/1,2,3;
 4//1;
 5/5=2,8=3,13=1,38=5/2,8;
 6/7=2,8=2,9=2,10=2,28=1/1;
 7//1,2,3,16;
 1/18=20,19=15,26=3/3(2);
 2/9=110/2;
 99//99;
 2/9=110/2;
 3/5=1,6=6,7=1,11=2,25=1,30=1,71=1,74=-5/1,2,3;
 4/5=5,16=3,69=1/1;
 5/5=2,8=3,13=1,38=5/2,8;
 7//1,2,3,16;
 1/18=20,19=15,26=3/3(-5);
 2/9=110/2;
 6/7=2,8=2,9=2,10=2,19=2,28=1/1;
 99/9=1/99;
 Leave Link    1 at Fri Nov  4 20:50:26 2022, MaxMem=   805306368 cpu:               0.9 elap:               0.1
 (Enter /home/wykgroup/appl/g16/l101.exe)
 ------------------------------
 Gaussian input prepared by ASE
 ------------------------------
 Symbolic Z-matrix:
 Charge =  0 Multiplicity = 1
 C                    -2.59062  -1.1373   -2.02633 
 C                    -1.38867  -1.86491  -1.43802 
 C                    -0.81882  -1.34886  -0.106 
 C                     0.252    -2.37724   0.32586 
 O                     0.08686  -3.57233   0.33605 
 C                     1.46884  -1.64789   0.67891 
 C                     2.64167  -2.1556    1.20976 
 C                     3.67314  -1.26133   1.48492 
 O                     4.79737  -1.80267   2.01819 
 C                     5.86376  -0.95875   2.38001 
 C                     3.51907   0.09784   1.20413 
 C                     2.339     0.5964    0.65655 
 O                     2.12466   1.89948   0.34131 
 C                     3.12306   2.84563   0.63922 
 C                     1.30187  -0.29745   0.40398 
 C                    -0.07326   0.02591  -0.14091 
 C                     0.08917   0.63201  -1.51961 
 C                    -0.62835   1.73681  -1.9554 
 C                    -0.42237   2.25906  -3.22154 
 C                     0.50377   1.68724  -4.07397 
 C                     1.22902   0.58766  -3.64824 
 C                     1.02602   0.06883  -2.38335 
 C                    -0.7304    0.98302   0.89019 
 C                    -0.53354   0.252     2.21757 
 O                     0.09506   0.67362   3.14872 
 O                    -1.13887  -0.93272   2.24661 
 C                    -1.87574  -1.28875   1.04643 
 C                    -2.5523   -2.61716   1.34348 
 C                    -2.84406  -0.15702   0.80599 
 C                    -4.22669  -0.22879   0.76409 
 C                    -4.96017   0.93787   0.62734 
 C                    -4.32592   2.16871   0.56508 
 C                    -2.94622   2.24703   0.63296 
 C                    -2.20882   1.07843   0.73443 
 H                    -2.76851  -1.51342  -3.03173 
 H                    -2.41445  -0.06771  -2.09272 
 H                    -3.48871  -1.30405  -1.44061 
 H                    -0.57692  -1.83484  -2.16848 
 H                    -1.64177  -2.91716  -1.28894 
 H                     2.75575  -3.2051    1.4212 
 H                     6.61937  -1.61245   2.81263 
 H                     5.55646  -0.21997   3.12684 
 H                     6.28788  -0.44747   1.50931 
 H                     4.32581   0.77738   1.42142 
 H                     4.04613   2.64431   0.08621 
 H                     3.3332    2.87909   1.71253 
 H                     2.71924   3.80541   0.32106 
 H                    -1.35935   2.20069  -1.31459 
 H                    -0.99209   3.11997  -3.53991 
 H                     0.66283   2.09616  -5.06065 
 H                     1.95954   0.13335  -4.30159 
 H                     1.61021  -0.781    -2.0587 
 H                    -0.22151   1.94568   0.90337 
 H                    -3.19512  -2.90796   0.5187 
 H                    -1.81064  -3.39391   1.50217 
 H                    -3.14363  -2.51457   2.24986 
 H                    -4.73672  -1.17609   0.84241 
 H                    -6.03788   0.8877    0.58751 
 H                    -4.91132   3.07171   0.47775 
 H                    -2.4473    3.20549   0.61653 
 
 ITRead=  0  0  0  0  0  0  0  0  0  0  0  0  0  0  0  0  0  0  0  0
 ITRead=  0  0  0  0  0  0  0  0  0  0  0  0  0  0  0  0  0  0  0  0
 ITRead=  0  0  0  0  0  0  0  0  0  0  0  0  0  0  0  0  0  0  0  0
 MicOpt= -1 -1 -1 -1 -1 -1 -1 -1 -1 -1 -1 -1 -1 -1 -1 -1 -1 -1 -1 -1
 MicOpt= -1 -1 -1 -1 -1 -1 -1 -1 -1 -1 -1 -1 -1 -1 -1 -1 -1 -1 -1 -1
 MicOpt= -1 -1 -1 -1 -1 -1 -1 -1 -1 -1 -1 -1 -1 -1 -1 -1 -1 -1 -1 -1
 NAtoms=     60 NQM=       60 NQMF=       0 NMMI=      0 NMMIF=      0
                NMic=       0 NMicF=      0.
                    Isotopes and Nuclear Properties:
 (Nuclear quadrupole moments (NQMom) in fm**2, nuclear magnetic moments (NMagM)
  in nuclear magnetons)

  Atom         1           2           3           4           5           6           7           8           9          10
 IAtWgt=          12          12          12          12          16          12          12          12          16          12
 AtmWgt=  12.0000000  12.0000000  12.0000000  12.0000000  15.9949146  12.0000000  12.0000000  12.0000000  15.9949146  12.0000000
 NucSpn=           0           0           0           0           0           0           0           0           0           0
 AtZEff=  -0.0000000  -0.0000000  -0.0000000  -0.0000000  -0.0000000  -0.0000000  -0.0000000  -0.0000000  -0.0000000  -0.0000000
 NQMom=    0.0000000   0.0000000   0.0000000   0.0000000   0.0000000   0.0000000   0.0000000   0.0000000   0.0000000   0.0000000
 NMagM=    0.0000000   0.0000000   0.0000000   0.0000000   0.0000000   0.0000000   0.0000000   0.0000000   0.0000000   0.0000000
 AtZNuc=   6.0000000   6.0000000   6.0000000   6.0000000   8.0000000   6.0000000   6.0000000   6.0000000   8.0000000   6.0000000

  Atom        11          12          13          14          15          16          17          18          19          20
 IAtWgt=          12          12          16          12          12          12          12          12          12          12
 AtmWgt=  12.0000000  12.0000000  15.9949146  12.0000000  12.0000000  12.0000000  12.0000000  12.0000000  12.0000000  12.0000000
 NucSpn=           0           0           0           0           0           0           0           0           0           0
 AtZEff=  -0.0000000  -0.0000000  -0.0000000  -0.0000000  -0.0000000  -0.0000000  -0.0000000  -0.0000000  -0.0000000  -0.0000000
 NQMom=    0.0000000   0.0000000   0.0000000   0.0000000   0.0000000   0.0000000   0.0000000   0.0000000   0.0000000   0.0000000
 NMagM=    0.0000000   0.0000000   0.0000000   0.0000000   0.0000000   0.0000000   0.0000000   0.0000000   0.0000000   0.0000000
 AtZNuc=   6.0000000   6.0000000   8.0000000   6.0000000   6.0000000   6.0000000   6.0000000   6.0000000   6.0000000   6.0000000

  Atom        21          22          23          24          25          26          27          28          29          30
 IAtWgt=          12          12          12          12          16          16          12          12          12          12
 AtmWgt=  12.0000000  12.0000000  12.0000000  12.0000000  15.9949146  15.9949146  12.0000000  12.0000000  12.0000000  12.0000000
 NucSpn=           0           0           0           0           0           0           0           0           0           0
 AtZEff=  -0.0000000  -0.0000000  -0.0000000  -0.0000000  -0.0000000  -0.0000000  -0.0000000  -0.0000000  -0.0000000  -0.0000000
 NQMom=    0.0000000   0.0000000   0.0000000   0.0000000   0.0000000   0.0000000   0.0000000   0.0000000   0.0000000   0.0000000
 NMagM=    0.0000000   0.0000000   0.0000000   0.0000000   0.0000000   0.0000000   0.0000000   0.0000000   0.0000000   0.0000000
 AtZNuc=   6.0000000   6.0000000   6.0000000   6.0000000   8.0000000   8.0000000   6.0000000   6.0000000   6.0000000   6.0000000

  Atom        31          32          33          34          35          36          37          38          39          40
 IAtWgt=          12          12          12          12           1           1           1           1           1           1
 AtmWgt=  12.0000000  12.0000000  12.0000000  12.0000000   1.0078250   1.0078250   1.0078250   1.0078250   1.0078250   1.0078250
 NucSpn=           0           0           0           0           1           1           1           1           1           1
 AtZEff=  -0.0000000  -0.0000000  -0.0000000  -0.0000000  -0.0000000  -0.0000000  -0.0000000  -0.0000000  -0.0000000  -0.0000000
 NQMom=    0.0000000   0.0000000   0.0000000   0.0000000   0.0000000   0.0000000   0.0000000   0.0000000   0.0000000   0.0000000
 NMagM=    0.0000000   0.0000000   0.0000000   0.0000000   2.7928460   2.7928460   2.7928460   2.7928460   2.7928460   2.7928460
 AtZNuc=   6.0000000   6.0000000   6.0000000   6.0000000   1.0000000   1.0000000   1.0000000   1.0000000   1.0000000   1.0000000

  Atom        41          42          43          44          45          46          47          48          49          50
 IAtWgt=           1           1           1           1           1           1           1           1           1           1
 AtmWgt=   1.0078250   1.0078250   1.0078250   1.0078250   1.0078250   1.0078250   1.0078250   1.0078250   1.0078250   1.0078250
 NucSpn=           1           1           1           1           1           1           1           1           1           1
 AtZEff=  -0.0000000  -0.0000000  -0.0000000  -0.0000000  -0.0000000  -0.0000000  -0.0000000  -0.0000000  -0.0000000  -0.0000000
 NQMom=    0.0000000   0.0000000   0.0000000   0.0000000   0.0000000   0.0000000   0.0000000   0.0000000   0.0000000   0.0000000
 NMagM=    2.7928460   2.7928460   2.7928460   2.7928460   2.7928460   2.7928460   2.7928460   2.7928460   2.7928460   2.7928460
 AtZNuc=   1.0000000   1.0000000   1.0000000   1.0000000   1.0000000   1.0000000   1.0000000   1.0000000   1.0000000   1.0000000

  Atom        51          52          53          54          55          56          57          58          59          60
 IAtWgt=           1           1           1           1           1           1           1           1           1           1
 AtmWgt=   1.0078250   1.0078250   1.0078250   1.0078250   1.0078250   1.0078250   1.0078250   1.0078250   1.0078250   1.0078250
 NucSpn=           1           1           1           1           1           1           1           1           1           1
 AtZEff=  -0.0000000  -0.0000000  -0.0000000  -0.0000000  -0.0000000  -0.0000000  -0.0000000  -0.0000000  -0.0000000  -0.0000000
 NQMom=    0.0000000   0.0000000   0.0000000   0.0000000   0.0000000   0.0000000   0.0000000   0.0000000   0.0000000   0.0000000
 NMagM=    2.7928460   2.7928460   2.7928460   2.7928460   2.7928460   2.7928460   2.7928460   2.7928460   2.7928460   2.7928460
 AtZNuc=   1.0000000   1.0000000   1.0000000   1.0000000   1.0000000   1.0000000   1.0000000   1.0000000   1.0000000   1.0000000
 Leave Link  101 at Fri Nov  4 20:50:26 2022, MaxMem=   805306368 cpu:               1.4 elap:               0.2
 (Enter /home/wykgroup/appl/g16/l103.exe)

 GradGradGradGradGradGradGradGradGradGradGradGradGradGradGradGradGradGrad
 Berny optimization.
 Initialization pass.
                           ----------------------------
                           !    Initial Parameters    !
                           ! (Angstroms and Degrees)  !
 --------------------------                            --------------------------
 ! Name  Definition              Value          Derivative Info.                !
 --------------------------------------------------------------------------------
 ! R1    R(1,2)                  1.5232         estimate D2E/DX2                !
 ! R2    R(1,35)                 1.0881         estimate D2E/DX2                !
 ! R3    R(1,36)                 1.086          estimate D2E/DX2                !
 ! R4    R(1,37)                 1.0851         estimate D2E/DX2                !
 ! R5    R(2,3)                  1.538          estimate D2E/DX2                !
 ! R6    R(2,38)                 1.0924         estimate D2E/DX2                !
 ! R7    R(2,39)                 1.0925         estimate D2E/DX2                !
 ! R8    R(3,4)                  1.5462         estimate D2E/DX2                !
 ! R9    R(3,16)                 1.5643         estimate D2E/DX2                !
 ! R10   R(3,27)                 1.5649         estimate D2E/DX2                !
 ! R11   R(4,5)                  1.2065         estimate D2E/DX2                !
 ! R12   R(4,6)                  1.4619         estimate D2E/DX2                !
 ! R13   R(6,7)                  1.3839         estimate D2E/DX2                !
 ! R14   R(6,15)                 1.3882         estimate D2E/DX2                !
 ! R15   R(7,8)                  1.3926         estimate D2E/DX2                !
 ! R16   R(7,40)                 1.0766         estimate D2E/DX2                !
 ! R17   R(8,9)                  1.357          estimate D2E/DX2                !
 ! R18   R(8,11)                 1.3964         estimate D2E/DX2                !
 ! R19   R(9,10)                 1.4072         estimate D2E/DX2                !
 ! R20   R(10,41)                1.0888         estimate D2E/DX2                !
 ! R21   R(10,42)                1.0945         estimate D2E/DX2                !
 ! R22   R(10,43)                1.0952         estimate D2E/DX2                !
 ! R23   R(11,12)                1.3932         estimate D2E/DX2                !
 ! R24   R(11,44)                1.077          estimate D2E/DX2                !
 ! R25   R(12,13)                1.3577         estimate D2E/DX2                !
 ! R26   R(12,15)                1.3923         estimate D2E/DX2                !
 ! R27   R(13,14)                1.4074         estimate D2E/DX2                !
 ! R28   R(14,45)                1.0947         estimate D2E/DX2                !
 ! R29   R(14,46)                1.0942         estimate D2E/DX2                !
 ! R30   R(14,47)                1.0888         estimate D2E/DX2                !
 ! R31   R(15,16)                1.5141         estimate D2E/DX2                !
 ! R32   R(16,17)                1.5148         estimate D2E/DX2                !
 ! R33   R(16,23)                1.5528         estimate D2E/DX2                !
 ! R34   R(17,18)                1.3876         estimate D2E/DX2                !
 ! R35   R(17,22)                1.3932         estimate D2E/DX2                !
 ! R36   R(18,19)                1.385          estimate D2E/DX2                !
 ! R37   R(18,48)                1.0771         estimate D2E/DX2                !
 ! R38   R(19,20)                1.3825         estimate D2E/DX2                !
 ! R39   R(19,49)                1.0803         estimate D2E/DX2                !
 ! R40   R(20,21)                1.3843         estimate D2E/DX2                !
 ! R41   R(20,50)                1.0798         estimate D2E/DX2                !
 ! R42   R(21,22)                1.3821         estimate D2E/DX2                !
 ! R43   R(21,51)                1.0802         estimate D2E/DX2                !
 ! R44   R(22,52)                1.0812         estimate D2E/DX2                !
 ! R45   R(23,24)                1.5281         estimate D2E/DX2                !
 ! R46   R(23,34)                1.4897         estimate D2E/DX2                !
 ! R47   R(23,53)                1.089          estimate D2E/DX2                !
 ! R48   R(24,25)                1.2            estimate D2E/DX2                !
 ! R49   R(24,26)                1.3307         estimate D2E/DX2                !
 ! R50   R(26,27)                1.4526         estimate D2E/DX2                !
 ! R51   R(27,28)                1.5201         estimate D2E/DX2                !
 ! R52   R(27,29)                1.5087         estimate D2E/DX2                !
 ! R53   R(28,54)                1.0854         estimate D2E/DX2                !
 ! R54   R(28,55)                1.0856         estimate D2E/DX2                !
 ! R55   R(28,56)                1.0871         estimate D2E/DX2                !
 ! R56   R(29,30)                1.3851         estimate D2E/DX2                !
 ! R57   R(29,34)                1.391          estimate D2E/DX2                !
 ! R58   R(30,31)                1.3849         estimate D2E/DX2                !
 ! R59   R(30,57)                1.0787         estimate D2E/DX2                !
 ! R60   R(31,32)                1.386          estimate D2E/DX2                !
 ! R61   R(31,58)                1.0796         estimate D2E/DX2                !
 ! R62   R(32,33)                1.3836         estimate D2E/DX2                !
 ! R63   R(32,59)                1.0797         estimate D2E/DX2                !
 ! R64   R(33,34)                1.3855         estimate D2E/DX2                !
 ! R65   R(33,60)                1.0807         estimate D2E/DX2                !
 ! A1    A(2,1,35)             108.7089         estimate D2E/DX2                !
 ! A2    A(2,1,36)             111.4729         estimate D2E/DX2                !
 ! A3    A(2,1,37)             111.7898         estimate D2E/DX2                !
 ! A4    A(35,1,36)            108.0874         estimate D2E/DX2                !
 ! A5    A(35,1,37)            108.0788         estimate D2E/DX2                !
 ! A6    A(36,1,37)            108.5789         estimate D2E/DX2                !
 ! A7    A(1,2,3)              117.8138         estimate D2E/DX2                !
 ! A8    A(1,2,38)             108.3571         estimate D2E/DX2                !
 ! A9    A(1,2,39)             109.2676         estimate D2E/DX2                !
 ! A10   A(3,2,38)             107.1313         estimate D2E/DX2                !
 ! A11   A(3,2,39)             106.9083         estimate D2E/DX2                !
 ! A12   A(38,2,39)            106.8525         estimate D2E/DX2                !
 ! A13   A(2,3,4)              105.9824         estimate D2E/DX2                !
 ! A14   A(2,3,16)             116.8817         estimate D2E/DX2                !
 ! A15   A(2,3,27)             113.6074         estimate D2E/DX2                !
 ! A16   A(4,3,16)             105.1101         estimate D2E/DX2                !
 ! A17   A(4,3,27)             106.7148         estimate D2E/DX2                !
 ! A18   A(16,3,27)            107.7329         estimate D2E/DX2                !
 ! A19   A(3,4,5)              124.4982         estimate D2E/DX2                !
 ! A20   A(3,4,6)              108.1842         estimate D2E/DX2                !
 ! A21   A(5,4,6)              127.3059         estimate D2E/DX2                !
 ! A22   A(4,6,7)              127.9527         estimate D2E/DX2                !
 ! A23   A(4,6,15)             109.7172         estimate D2E/DX2                !
 ! A24   A(7,6,15)             122.33           estimate D2E/DX2                !
 ! A25   A(6,7,8)              117.8995         estimate D2E/DX2                !
 ! A26   A(6,7,40)             121.5172         estimate D2E/DX2                !
 ! A27   A(8,7,40)             120.5761         estimate D2E/DX2                !
 ! A28   A(7,8,9)              115.7923         estimate D2E/DX2                !
 ! A29   A(7,8,11)             120.2374         estimate D2E/DX2                !
 ! A30   A(9,8,11)             123.9687         estimate D2E/DX2                !
 ! A31   A(8,9,10)             119.3159         estimate D2E/DX2                !
 ! A32   A(9,10,41)            105.5458         estimate D2E/DX2                !
 ! A33   A(9,10,42)            111.5593         estimate D2E/DX2                !
 ! A34   A(9,10,43)            111.6552         estimate D2E/DX2                !
 ! A35   A(41,10,42)           109.2068         estimate D2E/DX2                !
 ! A36   A(41,10,43)           109.1137         estimate D2E/DX2                !
 ! A37   A(42,10,43)           109.6391         estimate D2E/DX2                !
 ! A38   A(8,11,12)            121.3864         estimate D2E/DX2                !
 ! A39   A(8,11,44)            119.4027         estimate D2E/DX2                !
 ! A40   A(12,11,44)           119.2094         estimate D2E/DX2                !
 ! A41   A(11,12,13)           124.6418         estimate D2E/DX2                !
 ! A42   A(11,12,15)           118.1982         estimate D2E/DX2                !
 ! A43   A(13,12,15)           117.159          estimate D2E/DX2                !
 ! A44   A(12,13,14)           118.9524         estimate D2E/DX2                !
 ! A45   A(13,14,45)           111.5682         estimate D2E/DX2                !
 ! A46   A(13,14,46)           111.3727         estimate D2E/DX2                !
 ! A47   A(13,14,47)           105.5244         estimate D2E/DX2                !
 ! A48   A(45,14,46)           109.8287         estimate D2E/DX2                !
 ! A49   A(45,14,47)           109.1            estimate D2E/DX2                !
 ! A50   A(46,14,47)           109.3239         estimate D2E/DX2                !
 ! A51   A(6,15,12)            119.9348         estimate D2E/DX2                !
 ! A52   A(6,15,16)            112.8467         estimate D2E/DX2                !
 ! A53   A(12,15,16)           127.2096         estimate D2E/DX2                !
 ! A54   A(3,16,15)            103.718          estimate D2E/DX2                !
 ! A55   A(3,16,17)            115.028          estimate D2E/DX2                !
 ! A56   A(3,16,23)            108.977          estimate D2E/DX2                !
 ! A57   A(15,16,17)           108.398          estimate D2E/DX2                !
 ! A58   A(15,16,23)           106.083          estimate D2E/DX2                !
 ! A59   A(17,16,23)           113.7744         estimate D2E/DX2                !
 ! A60   A(16,17,18)           123.2976         estimate D2E/DX2                !
 ! A61   A(16,17,22)           118.3365         estimate D2E/DX2                !
 ! A62   A(18,17,22)           118.3519         estimate D2E/DX2                !
 ! A63   A(17,18,19)           120.6927         estimate D2E/DX2                !
 ! A64   A(17,18,48)           120.4645         estimate D2E/DX2                !
 ! A65   A(19,18,48)           118.8422         estimate D2E/DX2                !
 ! A66   A(18,19,20)           120.4855         estimate D2E/DX2                !
 ! A67   A(18,19,49)           119.4366         estimate D2E/DX2                !
 ! A68   A(20,19,49)           120.0779         estimate D2E/DX2                !
 ! A69   A(19,20,21)           119.3325         estimate D2E/DX2                !
 ! A70   A(19,20,50)           120.3598         estimate D2E/DX2                !
 ! A71   A(21,20,50)           120.3073         estimate D2E/DX2                !
 ! A72   A(20,21,22)           120.1767         estimate D2E/DX2                !
 ! A73   A(20,21,51)           120.1553         estimate D2E/DX2                !
 ! A74   A(22,21,51)           119.6675         estimate D2E/DX2                !
 ! A75   A(17,22,21)           120.9581         estimate D2E/DX2                !
 ! A76   A(17,22,52)           119.6662         estimate D2E/DX2                !
 ! A77   A(21,22,52)           119.3735         estimate D2E/DX2                !
 ! A78   A(16,23,24)           103.1455         estimate D2E/DX2                !
 ! A79   A(16,23,34)           112.9579         estimate D2E/DX2                !
 ! A80   A(16,23,53)           110.8039         estimate D2E/DX2                !
 ! A81   A(24,23,34)           104.4371         estimate D2E/DX2                !
 ! A82   A(24,23,53)           110.6207         estimate D2E/DX2                !
 ! A83   A(34,23,53)           114.1067         estimate D2E/DX2                !
 ! A84   A(23,24,25)           124.9913         estimate D2E/DX2                !
 ! A85   A(23,24,26)           112.7218         estimate D2E/DX2                !
 ! A86   A(25,24,26)           122.2868         estimate D2E/DX2                !
 ! A87   A(24,26,27)           115.5256         estimate D2E/DX2                !
 ! A88   A(3,27,26)            105.9777         estimate D2E/DX2                !
 ! A89   A(3,27,28)            114.2649         estimate D2E/DX2                !
 ! A90   A(3,27,29)            110.1778         estimate D2E/DX2                !
 ! A91   A(26,27,28)           106.1712         estimate D2E/DX2                !
 ! A92   A(26,27,29)           105.8659         estimate D2E/DX2                !
 ! A93   A(28,27,29)           113.6418         estimate D2E/DX2                !
 ! A94   A(27,28,54)           110.4414         estimate D2E/DX2                !
 ! A95   A(27,28,55)           110.4733         estimate D2E/DX2                !
 ! A96   A(27,28,56)           108.8185         estimate D2E/DX2                !
 ! A97   A(54,28,55)           108.9041         estimate D2E/DX2                !
 ! A98   A(54,28,56)           109.6766         estimate D2E/DX2                !
 ! A99   A(55,28,56)           108.4974         estimate D2E/DX2                !
 ! A100  A(27,29,30)           127.3447         estimate D2E/DX2                !
 ! A101  A(27,29,34)           112.4155         estimate D2E/DX2                !
 ! A102  A(30,29,34)           120.0205         estimate D2E/DX2                !
 ! A103  A(29,30,31)           119.2111         estimate D2E/DX2                !
 ! A104  A(29,30,57)           121.0154         estimate D2E/DX2                !
 ! A105  A(31,30,57)           119.7724         estimate D2E/DX2                !
 ! A106  A(30,31,32)           120.676          estimate D2E/DX2                !
 ! A107  A(30,31,58)           119.5516         estimate D2E/DX2                !
 ! A108  A(32,31,58)           119.7625         estimate D2E/DX2                !
 ! A109  A(31,32,33)           120.2903         estimate D2E/DX2                !
 ! A110  A(31,32,59)           119.8825         estimate D2E/DX2                !
 ! A111  A(33,32,59)           119.8211         estimate D2E/DX2                !
 ! A112  A(32,33,34)           119.115          estimate D2E/DX2                !
 ! A113  A(32,33,60)           120.6533         estimate D2E/DX2                !
 ! A114  A(34,33,60)           120.2294         estimate D2E/DX2                !
 ! A115  A(23,34,29)           113.0145         estimate D2E/DX2                !
 ! A116  A(23,34,33)           126.1477         estimate D2E/DX2                !
 ! A117  A(29,34,33)           120.6519         estimate D2E/DX2                !
 ! D1    D(35,1,2,3)           170.8932         estimate D2E/DX2                !
 ! D2    D(35,1,2,38)           49.161          estimate D2E/DX2                !
 ! D3    D(35,1,2,39)          -66.9153         estimate D2E/DX2                !
 ! D4    D(36,1,2,3)            51.8511         estimate D2E/DX2                !
 ! D5    D(36,1,2,38)          -69.881          estimate D2E/DX2                !
 ! D6    D(36,1,2,39)          174.0426         estimate D2E/DX2                !
 ! D7    D(37,1,2,3)           -69.8826         estimate D2E/DX2                !
 ! D8    D(37,1,2,38)          168.3853         estimate D2E/DX2                !
 ! D9    D(37,1,2,39)           52.3089         estimate D2E/DX2                !
 ! D10   D(1,2,3,4)            172.8059         estimate D2E/DX2                !
 ! D11   D(1,2,3,16)           -70.5019         estimate D2E/DX2                !
 ! D12   D(1,2,3,27)            55.955          estimate D2E/DX2                !
 ! D13   D(38,2,3,4)           -64.8353         estimate D2E/DX2                !
 ! D14   D(38,2,3,16)           51.8569         estimate D2E/DX2                !
 ! D15   D(38,2,3,27)          178.3137         estimate D2E/DX2                !
 ! D16   D(39,2,3,4)            49.4181         estimate D2E/DX2                !
 ! D17   D(39,2,3,16)          166.1103         estimate D2E/DX2                !
 ! D18   D(39,2,3,27)          -67.4328         estimate D2E/DX2                !
 ! D19   D(2,3,4,5)            -47.8461         estimate D2E/DX2                !
 ! D20   D(2,3,4,6)            130.9856         estimate D2E/DX2                !
 ! D21   D(16,3,4,5)          -172.2142         estimate D2E/DX2                !
 ! D22   D(16,3,4,6)             6.6174         estimate D2E/DX2                !
 ! D23   D(27,3,4,5)            73.5503         estimate D2E/DX2                !
 ! D24   D(27,3,4,6)          -107.6181         estimate D2E/DX2                !
 ! D25   D(2,3,16,15)         -122.795          estimate D2E/DX2                !
 ! D26   D(2,3,16,17)           -4.5966         estimate D2E/DX2                !
 ! D27   D(2,3,16,23)          124.5304         estimate D2E/DX2                !
 ! D28   D(4,3,16,15)           -5.6251         estimate D2E/DX2                !
 ! D29   D(4,3,16,17)          112.5732         estimate D2E/DX2                !
 ! D30   D(4,3,16,23)         -118.2997         estimate D2E/DX2                !
 ! D31   D(27,3,16,15)         107.8974         estimate D2E/DX2                !
 ! D32   D(27,3,16,17)        -133.9042         estimate D2E/DX2                !
 ! D33   D(27,3,16,23)          -4.7771         estimate D2E/DX2                !
 ! D34   D(2,3,27,26)          173.6635         estimate D2E/DX2                !
 ! D35   D(2,3,27,28)           57.1222         estimate D2E/DX2                !
 ! D36   D(2,3,27,29)          -72.2455         estimate D2E/DX2                !
 ! D37   D(4,3,27,26)           57.2409         estimate D2E/DX2                !
 ! D38   D(4,3,27,28)          -59.3004         estimate D2E/DX2                !
 ! D39   D(4,3,27,29)          171.3319         estimate D2E/DX2                !
 ! D40   D(16,3,27,26)         -55.2029         estimate D2E/DX2                !
 ! D41   D(16,3,27,28)        -171.7442         estimate D2E/DX2                !
 ! D42   D(16,3,27,29)          58.888          estimate D2E/DX2                !
 ! D43   D(3,4,6,7)            174.8886         estimate D2E/DX2                !
 ! D44   D(3,4,6,15)            -5.0372         estimate D2E/DX2                !
 ! D45   D(5,4,6,7)             -6.322          estimate D2E/DX2                !
 ! D46   D(5,4,6,15)           173.7523         estimate D2E/DX2                !
 ! D47   D(4,6,7,8)           -179.1682         estimate D2E/DX2                !
 ! D48   D(4,6,7,40)            -0.1375         estimate D2E/DX2                !
 ! D49   D(15,6,7,8)             0.7491         estimate D2E/DX2                !
 ! D50   D(15,6,7,40)          179.7798         estimate D2E/DX2                !
 ! D51   D(4,6,15,12)         -179.7442         estimate D2E/DX2                !
 ! D52   D(4,6,15,16)            1.2622         estimate D2E/DX2                !
 ! D53   D(7,6,15,12)            0.3251         estimate D2E/DX2                !
 ! D54   D(7,6,15,16)         -178.6685         estimate D2E/DX2                !
 ! D55   D(6,7,8,9)            179.2812         estimate D2E/DX2                !
 ! D56   D(6,7,8,11)            -1.1516         estimate D2E/DX2                !
 ! D57   D(40,7,8,9)             0.2409         estimate D2E/DX2                !
 ! D58   D(40,7,8,11)          179.8081         estimate D2E/DX2                !
 ! D59   D(7,8,9,10)          -177.2125         estimate D2E/DX2                !
 ! D60   D(11,8,9,10)            3.2383         estimate D2E/DX2                !
 ! D61   D(7,8,11,12)            0.5103         estimate D2E/DX2                !
 ! D62   D(7,8,11,44)         -179.9376         estimate D2E/DX2                !
 ! D63   D(9,8,11,12)         -179.9596         estimate D2E/DX2                !
 ! D64   D(9,8,11,44)           -0.4074         estimate D2E/DX2                !
 ! D65   D(8,9,10,41)          177.824          estimate D2E/DX2                !
 ! D66   D(8,9,10,42)           59.3297         estimate D2E/DX2                !
 ! D67   D(8,9,10,43)          -63.7424         estimate D2E/DX2                !
 ! D68   D(8,11,12,13)        -179.072          estimate D2E/DX2                !
 ! D69   D(8,11,12,15)           0.5688         estimate D2E/DX2                !
 ! D70   D(44,11,12,13)          1.375          estimate D2E/DX2                !
 ! D71   D(44,11,12,15)       -178.9843         estimate D2E/DX2                !
 ! D72   D(11,12,13,14)         -3.3415         estimate D2E/DX2                !
 ! D73   D(15,12,13,14)        177.0143         estimate D2E/DX2                !
 ! D74   D(11,12,15,6)          -0.9757         estimate D2E/DX2                !
 ! D75   D(11,12,15,16)        177.8597         estimate D2E/DX2                !
 ! D76   D(13,12,15,6)         178.6921         estimate D2E/DX2                !
 ! D77   D(13,12,15,16)         -2.4724         estimate D2E/DX2                !
 ! D78   D(12,13,14,45)         62.9336         estimate D2E/DX2                !
 ! D79   D(12,13,14,46)        -60.1854         estimate D2E/DX2                !
 ! D80   D(12,13,14,47)       -178.7083         estimate D2E/DX2                !
 ! D81   D(6,15,16,3)            2.9327         estimate D2E/DX2                !
 ! D82   D(6,15,16,17)        -119.7601         estimate D2E/DX2                !
 ! D83   D(6,15,16,23)         117.6885         estimate D2E/DX2                !
 ! D84   D(12,15,16,3)        -175.9722         estimate D2E/DX2                !
 ! D85   D(12,15,16,17)         61.3349         estimate D2E/DX2                !
 ! D86   D(12,15,16,23)        -61.2164         estimate D2E/DX2                !
 ! D87   D(3,16,17,18)         107.5237         estimate D2E/DX2                !
 ! D88   D(3,16,17,22)         -73.8576         estimate D2E/DX2                !
 ! D89   D(15,16,17,18)       -136.9379         estimate D2E/DX2                !
 ! D90   D(15,16,17,22)         41.6808         estimate D2E/DX2                !
 ! D91   D(23,16,17,18)        -19.1921         estimate D2E/DX2                !
 ! D92   D(23,16,17,22)        159.4266         estimate D2E/DX2                !
 ! D93   D(3,16,23,24)          60.578          estimate D2E/DX2                !
 ! D94   D(3,16,23,34)         -51.5687         estimate D2E/DX2                !
 ! D95   D(3,16,23,53)         178.9774         estimate D2E/DX2                !
 ! D96   D(15,16,23,24)        -50.5303         estimate D2E/DX2                !
 ! D97   D(15,16,23,34)       -162.6771         estimate D2E/DX2                !
 ! D98   D(15,16,23,53)         67.8691         estimate D2E/DX2                !
 ! D99   D(17,16,23,24)       -169.6043         estimate D2E/DX2                !
 ! D100  D(17,16,23,34)         78.2489         estimate D2E/DX2                !
 ! D101  D(17,16,23,53)        -51.2049         estimate D2E/DX2                !
 ! D102  D(16,17,18,19)        179.0384         estimate D2E/DX2                !
 ! D103  D(16,17,18,48)         -1.2284         estimate D2E/DX2                !
 ! D104  D(22,17,18,19)          0.4199         estimate D2E/DX2                !
 ! D105  D(22,17,18,48)       -179.8469         estimate D2E/DX2                !
 ! D106  D(16,17,22,21)       -179.2898         estimate D2E/DX2                !
 ! D107  D(16,17,22,52)          0.1636         estimate D2E/DX2                !
 ! D108  D(18,17,22,21)         -0.6016         estimate D2E/DX2                !
 ! D109  D(18,17,22,52)        178.8517         estimate D2E/DX2                !
 ! D110  D(17,18,19,20)         -0.0139         estimate D2E/DX2                !
 ! D111  D(17,18,19,49)       -179.9863         estimate D2E/DX2                !
 ! D112  D(48,18,19,20)       -179.7514         estimate D2E/DX2                !
 ! D113  D(48,18,19,49)          0.2762         estimate D2E/DX2                !
 ! D114  D(18,19,20,21)         -0.2218         estimate D2E/DX2                !
 ! D115  D(18,19,20,50)       -179.9914         estimate D2E/DX2                !
 ! D116  D(49,19,20,21)        179.7505         estimate D2E/DX2                !
 ! D117  D(49,19,20,50)         -0.0192         estimate D2E/DX2                !
 ! D118  D(19,20,21,22)          0.042          estimate D2E/DX2                !
 ! D119  D(19,20,21,51)       -179.6989         estimate D2E/DX2                !
 ! D120  D(50,20,21,22)        179.8118         estimate D2E/DX2                !
 ! D121  D(50,20,21,51)          0.0709         estimate D2E/DX2                !
 ! D122  D(20,21,22,17)          0.3763         estimate D2E/DX2                !
 ! D123  D(20,21,22,52)       -179.0786         estimate D2E/DX2                !
 ! D124  D(51,21,22,17)       -179.8816         estimate D2E/DX2                !
 ! D125  D(51,21,22,52)          0.6635         estimate D2E/DX2                !
 ! D126  D(16,23,24,25)        118.4249         estimate D2E/DX2                !
 ! D127  D(16,23,24,26)        -61.4266         estimate D2E/DX2                !
 ! D128  D(34,23,24,25)       -123.298          estimate D2E/DX2                !
 ! D129  D(34,23,24,26)         56.8506         estimate D2E/DX2                !
 ! D130  D(53,23,24,25)         -0.1023         estimate D2E/DX2                !
 ! D131  D(53,23,24,26)       -179.9538         estimate D2E/DX2                !
 ! D132  D(16,23,34,29)         56.1137         estimate D2E/DX2                !
 ! D133  D(16,23,34,33)       -128.8504         estimate D2E/DX2                !
 ! D134  D(24,23,34,29)        -55.2385         estimate D2E/DX2                !
 ! D135  D(24,23,34,33)        119.7975         estimate D2E/DX2                !
 ! D136  D(53,23,34,29)       -176.1429         estimate D2E/DX2                !
 ! D137  D(53,23,34,33)         -1.107          estimate D2E/DX2                !
 ! D138  D(23,24,26,27)         -1.0259         estimate D2E/DX2                !
 ! D139  D(25,24,26,27)        179.1181         estimate D2E/DX2                !
 ! D140  D(24,26,27,3)          61.9668         estimate D2E/DX2                !
 ! D141  D(24,26,27,28)       -176.1555         estimate D2E/DX2                !
 ! D142  D(24,26,27,29)        -55.0583         estimate D2E/DX2                !
 ! D143  D(3,27,28,54)         -68.475          estimate D2E/DX2                !
 ! D144  D(3,27,28,55)          52.0708         estimate D2E/DX2                !
 ! D145  D(3,27,28,56)         171.0841         estimate D2E/DX2                !
 ! D146  D(26,27,28,54)        175.0957         estimate D2E/DX2                !
 ! D147  D(26,27,28,55)        -64.3585         estimate D2E/DX2                !
 ! D148  D(26,27,28,56)         54.6547         estimate D2E/DX2                !
 ! D149  D(29,27,28,54)         59.1404         estimate D2E/DX2                !
 ! D150  D(29,27,28,55)        179.6861         estimate D2E/DX2                !
 ! D151  D(29,27,28,56)        -61.3006         estimate D2E/DX2                !
 ! D152  D(3,27,29,30)         126.1969         estimate D2E/DX2                !
 ! D153  D(3,27,29,34)         -59.2435         estimate D2E/DX2                !
 ! D154  D(26,27,29,30)       -119.641          estimate D2E/DX2                !
 ! D155  D(26,27,29,34)         54.9187         estimate D2E/DX2                !
 ! D156  D(28,27,29,30)         -3.5063         estimate D2E/DX2                !
 ! D157  D(28,27,29,34)        171.0534         estimate D2E/DX2                !
 ! D158  D(27,29,30,31)        175.3027         estimate D2E/DX2                !
 ! D159  D(27,29,30,57)         -4.3131         estimate D2E/DX2                !
 ! D160  D(34,29,30,31)          1.1124         estimate D2E/DX2                !
 ! D161  D(34,29,30,57)       -178.5033         estimate D2E/DX2                !
 ! D162  D(27,29,34,23)          0.9111         estimate D2E/DX2                !
 ! D163  D(27,29,34,33)       -174.43           estimate D2E/DX2                !
 ! D164  D(30,29,34,23)        175.9171         estimate D2E/DX2                !
 ! D165  D(30,29,34,33)          0.576          estimate D2E/DX2                !
 ! D166  D(29,30,31,32)         -1.5496         estimate D2E/DX2                !
 ! D167  D(29,30,31,58)        179.5981         estimate D2E/DX2                !
 ! D168  D(57,30,31,32)        178.071          estimate D2E/DX2                !
 ! D169  D(57,30,31,58)         -0.7813         estimate D2E/DX2                !
 ! D170  D(30,31,32,33)          0.2944         estimate D2E/DX2                !
 ! D171  D(30,31,32,59)       -178.8091         estimate D2E/DX2                !
 ! D172  D(58,31,32,33)        179.1443         estimate D2E/DX2                !
 ! D173  D(58,31,32,59)          0.0407         estimate D2E/DX2                !
 ! D174  D(31,32,33,34)          1.3904         estimate D2E/DX2                !
 ! D175  D(31,32,33,60)       -178.0494         estimate D2E/DX2                !
 ! D176  D(59,32,33,34)       -179.5055         estimate D2E/DX2                !
 ! D177  D(59,32,33,60)          1.0547         estimate D2E/DX2                !
 ! D178  D(32,33,34,23)       -176.5135         estimate D2E/DX2                !
 ! D179  D(32,33,34,29)         -1.8255         estimate D2E/DX2                !
 ! D180  D(60,33,34,23)          2.9288         estimate D2E/DX2                !
 ! D181  D(60,33,34,29)        177.6168         estimate D2E/DX2                !
 --------------------------------------------------------------------------------
 Trust Radius=3.00D-01 FncErr=1.00D-07 GrdErr=1.00D-06 EigMax=2.50D+02 EigMin=1.00D-04
 Number of steps in this run=    360 maximum allowed number of steps=    360.
 GradGradGradGradGradGradGradGradGradGradGradGradGradGradGradGradGradGrad

 Leave Link  103 at Fri Nov  4 20:50:26 2022, MaxMem=   805306368 cpu:               0.3 elap:               0.1
 (Enter /home/wykgroup/appl/g16/l202.exe)
 Stoichiometry    C29H26O5
 Framework group  C1[X(C29H26O5)]
 Deg. of freedom   174
 Full point group                 C1      NOp   1
 Largest Abelian subgroup         C1      NOp   1
 Largest concise Abelian subgroup C1      NOp   1
                         Standard orientation:                         
 ---------------------------------------------------------------------
 Center     Atomic      Atomic             Coordinates (Angstroms)
 Number     Number       Type             X           Y           Z
 ---------------------------------------------------------------------
      1          6           0        2.870902    0.385569    2.145088
      2          6           0        1.494205   -0.227973    2.365298
      3          6           0        0.742287   -0.763821    1.135343
      4          6           0       -0.514066   -1.479687    1.682931
      5          8           0       -0.506705   -2.273721    2.591264
      6          6           0       -1.674453   -1.002724    0.932398
      7          6           0       -2.983672   -1.442634    1.019165
      8          6           0       -3.927612   -0.847627    0.185916
      9          8           0       -5.194318   -1.321704    0.295589
     10          6           0       -6.195707   -0.814581   -0.553158
     11          6           0       -3.550437    0.176223   -0.685515
     12          6           0       -2.232035    0.621178   -0.754784
     13          8           0       -1.796557    1.621535   -1.562854
     14          6           0       -2.706290    2.224381   -2.451509
     15          6           0       -1.286998    0.008300    0.063566
     16          6           0        0.198329    0.296187    0.121651
     17          6           0        0.389573    1.739596    0.539444
     18          6           0        1.312928    2.588448   -0.054008
     19          6           0        1.428982    3.905736    0.357798
     20          6           0        0.624843    4.397918    1.368970
     21          6           0       -0.303375    3.561612    1.965050
     22          6           0       -0.421649    2.248103    1.551488
     23          6           0        0.754397   -0.025221   -1.292049
     24          6           0        0.208236   -1.424984   -1.570351
     25          8           0       -0.533514   -1.707876   -2.470196
     26          8           0        0.641080   -2.329033   -0.695031
     27          6           0        1.549539   -1.830039    0.322747
     28          6           0        1.980484   -3.040086    1.135589
     29          6           0        2.681494   -1.168115   -0.423450
     30          6           0        4.024725   -1.503691   -0.382347
     31          6           0        4.912323   -0.842411   -1.214626
     32          6           0        4.463763    0.121954   -2.103392
     33          6           0        3.119070    0.441607   -2.166201
     34          6           0        2.234396   -0.193710   -1.309801
     35          1           0        3.194957    0.857122    3.070607
     36          1           0        2.848060    1.145452    1.369519
     37          1           0        3.607069   -0.363839    1.873271
     38          1           0        0.853289    0.523523    2.832085
     39          1           0        1.577687   -1.056463    3.072509
     40          1           0       -3.269095   -2.230348    1.695331
     41          1           0       -7.098397   -1.369869   -0.303715
     42          1           0       -5.951142   -0.979618   -1.607171
     43          1           0       -6.371235    0.252264   -0.378701
     44          1           0       -4.291647    0.627597   -1.323240
     45          1           0       -3.519754    2.724881   -1.916556
     46          1           0       -3.118451    1.495319   -3.155684
     47          1           0       -2.129465    2.967944   -2.999120
     48          1           0        1.955550    2.231650   -0.841355
     49          1           0        2.154606    4.548943   -0.118493
     50          1           0        0.716945    5.425325    1.688344
     51          1           0       -0.941837    3.933631    2.753010
     52          1           0       -1.161185    1.610522    2.015684
     53          1           0        0.378875    0.685949   -2.026257
     54          1           0        2.731577   -2.757804    1.866486
     55          1           0        1.129921   -3.471742    1.654053
     56          1           0        2.389150   -3.788191    0.461010
     57          1           0        4.385224   -2.273625    0.281645
     58          1           0        5.961468   -1.095030   -1.182457
     59          1           0        5.164296    0.615880   -2.759913
     60          1           0        2.758561    1.169867   -2.878581
 ---------------------------------------------------------------------
 Rotational constants (GHZ):           0.2000728           0.1214524           0.1061312
 Leave Link  202 at Fri Nov  4 20:50:26 2022, MaxMem=   805306368 cpu:               0.5 elap:               0.1
 (Enter /home/wykgroup/appl/g16/l301.exe)
 Standard basis: 6-31G(d) (6D, 7F)
 Ernie: Thresh=  0.10000D-02 Tol=  0.10000D-05 Strict=F.
 There are   562 symmetry adapted cartesian basis functions of A   symmetry.
 There are   562 symmetry adapted basis functions of A   symmetry.
   562 basis functions,  1056 primitive gaussians,   562 cartesian basis functions
   120 alpha electrons      120 beta electrons
       nuclear repulsion energy      3856.4919026042 Hartrees.
 IExCor=  402 DFT=T Ex+Corr=B3LYP ExCW=0 ScaHFX=  0.200000
 ScaDFX=  0.800000  0.720000  1.000000  0.810000 ScalE2=  1.000000  1.000000
 IRadAn=      5 IRanWt=     -1 IRanGd=            0 ICorTp=0 IEmpDi=  4
 NAtoms=   60 NActive=   60 NUniq=   60 SFac= 1.00D+00 NAtFMM=   60 NAOKFM=T Big=T
 Integral buffers will be    131072 words long.
 Raffenetti 2 integral format.
 Two-electron integral symmetry is turned on.
 Leave Link  301 at Fri Nov  4 20:50:26 2022, MaxMem=   805306368 cpu:               0.5 elap:               0.1
 (Enter /home/wykgroup/appl/g16/l302.exe)
 NPDir=0 NMtPBC=     1 NCelOv=     1 NCel=       1 NClECP=     1 NCelD=      1
         NCelK=      1 NCelE2=     1 NClLst=     1 CellRange=     0.0.
 One-electron integrals computed using PRISM.
 One-electron integral symmetry used in STVInt
 NBasis=   562 RedAO= T EigKep=  2.51D-04  NBF=   562
 NBsUse=   562 1.00D-06 EigRej= -1.00D+00 NBFU=   562
 Precomputing XC quadrature grid using
 IXCGrd= 4 IRadAn=           5 IRanWt=          -1 IRanGd=           0 AccXCQ= 0.00D+00.
 Generated NRdTot=       0 NPtTot=           0 NUsed=           0 NTot=          32
 NSgBfM=   557   557   557   557   557 MxSgAt=    60 MxSgA2=    60.
 Leave Link  302 at Fri Nov  4 20:50:28 2022, MaxMem=   805306368 cpu:              10.2 elap:               1.6
 (Enter /home/wykgroup/appl/g16/l303.exe)
 DipDrv:  MaxL=1.
 Leave Link  303 at Fri Nov  4 20:50:28 2022, MaxMem=   805306368 cpu:               0.9 elap:               0.2
 (Enter /home/wykgroup/appl/g16/l401.exe)
 ExpMin= 1.61D-01 ExpMax= 5.48D+03 ExpMxC= 8.25D+02 IAcc=3 IRadAn=         5 AccDes= 0.00D+00
 Harris functional with IExCor=  402 and IRadAn=       5 diagonalized for initial guess.
 HarFok:  IExCor=  402 AccDes= 0.00D+00 IRadAn=         5 IDoV= 1 UseB2=F ITyADJ=14
 ICtDFT=  3500011 ScaDFX=  1.000000  1.000000  1.000000  1.000000
 FoFCou: FMM=F IPFlag=           0 FMFlag=      100000 FMFlg1=        2001
         NFxFlg=           0 DoJE=T BraDBF=F KetDBF=T FulRan=T
         wScrn=  0.000000 ICntrl=       500 IOpCl=  0 I1Cent=   200000004 NGrid=           0
         NMat0=    1 NMatS0=      1 NMatT0=    0 NMatD0=    1 NMtDS0=    0 NMtDT0=    0
 Petite list used in FoFCou.
 Harris En= -1496.86330334914    
 JPrj=0 DoOrth=F DoCkMO=F.
 Leave Link  401 at Fri Nov  4 20:50:34 2022, MaxMem=   805306368 cpu:              40.4 elap:               6.2
 (Enter /home/wykgroup/appl/g16/l502.exe)
 Integral symmetry usage will be decided dynamically.
 Closed shell SCF:
 Using DIIS extrapolation, IDIIS=  1040.
 NGot=   805306368 LenX=   804664598 LenY=   804348192
 Requested convergence on RMS density matrix=1.00D-08 within  32 cycles.
 Requested convergence on MAX density matrix=1.00D-06.
 Requested convergence on             energy=1.00D-06.
 No special actions if energy rises.
 Fock matrices will be formed incrementally for  20 cycles.
 Integral accuracy reduced to 1.0D-05 until final iterations.

 Cycle   1  Pass 0  IDiag  1:
 FoFJK:  IHMeth= 1 ICntrl=       0 DoSepK=F KAlg= 0 I1Cent=           0 FoldK=F
 IRaf= 990000000 NMat=       1 IRICut=       1 DoRegI=T DoRafI=F ISym2E= 0 IDoP0=0 IntGTp=1.
 FoFCou: FMM=T IPFlag=           0 FMFlag=      100000 FMFlg1=        2001
         NFxFlg=           0 DoJE=F BraDBF=F KetDBF=F FulRan=T
         wScrn=  0.000000 ICntrl=         0 IOpCl=  0 I1Cent=           0 NGrid=           0
         NMat0=    1 NMatS0=      1 NMatT0=    0 NMatD0=    1 NMtDS0=    0 NMtDT0=    0
 Symmetry not used in FoFCou.
 FMM levels:  10  Number of levels for PrismC:   9
 E= -1496.09464732634    
 DIIS: error= 2.01D-02 at cycle   1 NSaved=   1.
 NSaved= 1 IEnMin= 1 EnMin= -1496.09464732634     IErMin= 1 ErrMin= 2.01D-02
 ErrMax= 2.01D-02  0.00D+00 EMaxC= 1.00D-01 BMatC= 7.73D-01 BMatP= 7.73D-01
 IDIUse=3 WtCom= 7.99D-01 WtEn= 2.01D-01
 Coeff-Com:  0.100D+01
 Coeff-En:   0.100D+01
 Coeff:      0.100D+01
 Gap=     0.152 Goal=   None    Shift=    0.000
 GapD=    0.152 DampG=1.000 DampE=0.500 DampFc=0.5000 IDamp=-1.
 Damping current iteration by 5.00D-01
 RMSDP=3.86D-03 MaxDP=1.82D-01              OVMax= 2.50D-01

 Cycle   2  Pass 0  IDiag  1:
 RMSU=  1.89D-03    CP:  9.74D-01
 E= -1496.39091901655     Delta-E=       -0.296271690209 Rises=F Damp=T
 DIIS: error= 8.17D-03 at cycle   2 NSaved=   2.
 NSaved= 2 IEnMin= 2 EnMin= -1496.39091901655     IErMin= 2 ErrMin= 8.17D-03
 ErrMax= 8.17D-03  0.00D+00 EMaxC= 1.00D-01 BMatC= 8.96D-02 BMatP= 7.73D-01
 IDIUse=3 WtCom= 9.18D-01 WtEn= 8.17D-02
 Coeff-Com:  0.127D+00 0.873D+00
 Coeff-En:   0.178D+00 0.822D+00
 Coeff:      0.131D+00 0.869D+00
 Gap=     0.206 Goal=   None    Shift=    0.000
 RMSDP=1.37D-03 MaxDP=1.16D-01 DE=-2.96D-01 OVMax= 1.35D-01

 Cycle   3  Pass 0  IDiag  1:
 RMSU=  1.32D-03    CP:  9.55D-01  8.85D-01
 E= -1496.71846914806     Delta-E=       -0.327550131506 Rises=F Damp=F
 DIIS: error= 1.45D-02 at cycle   3 NSaved=   3.
 NSaved= 3 IEnMin= 3 EnMin= -1496.71846914806     IErMin= 2 ErrMin= 8.17D-03
 ErrMax= 1.45D-02  0.00D+00 EMaxC= 1.00D-01 BMatC= 1.45D-01 BMatP= 8.96D-02
 IDIUse=2 WtCom= 0.00D+00 WtEn= 1.00D+00
 Coeff-En:   0.000D+00 0.000D+00 0.100D+01
 Coeff:      0.000D+00 0.000D+00 0.100D+01
 Gap=     0.162 Goal=   None    Shift=    0.000
 RMSDP=2.66D-03 MaxDP=2.12D-01 DE=-3.28D-01 OVMax= 3.64D-01

 Cycle   4  Pass 0  IDiag  1:
 RMSU=  1.55D-03    CP:  9.63D-01  1.40D+00 -4.58D-01
 E= -1495.96606054628     Delta-E=        0.752408601778 Rises=F Damp=F
 DIIS: error= 4.26D-02 at cycle   4 NSaved=   4.
 NSaved= 4 IEnMin= 3 EnMin= -1496.71846914806     IErMin= 2 ErrMin= 8.17D-03
 ErrMax= 4.26D-02  0.00D+00 EMaxC= 1.00D-01 BMatC= 1.08D+00 BMatP= 8.96D-02
 IDIUse=2 WtCom= 0.00D+00 WtEn= 1.00D+00
 Coeff-En:   0.000D+00 0.000D+00 0.819D+00 0.181D+00
 Coeff:      0.000D+00 0.000D+00 0.819D+00 0.181D+00
 Gap=     0.164 Goal=   None    Shift=    0.000
 RMSDP=1.44D-03 MaxDP=1.23D-01 DE= 7.52D-01 OVMax= 1.79D-01

 Cycle   5  Pass 0  IDiag  1:
 RMSU=  2.63D-04    CP:  9.60D-01  1.08D+00  2.90D-01  4.74D-01
 E= -1496.76538213729     Delta-E=       -0.799321591013 Rises=F Damp=F
 DIIS: error= 1.21D-02 at cycle   5 NSaved=   5.
 NSaved= 5 IEnMin= 5 EnMin= -1496.76538213729     IErMin= 2 ErrMin= 8.17D-03
 ErrMax= 1.21D-02  0.00D+00 EMaxC= 1.00D-01 BMatC= 9.24D-02 BMatP= 8.96D-02
 IDIUse=3 WtCom= 8.79D-01 WtEn= 1.21D-01
 Coeff-Com:  0.162D-02 0.225D-01 0.342D+00-0.952D-01 0.729D+00
 Coeff-En:   0.000D+00 0.000D+00 0.414D+00 0.000D+00 0.586D+00
 Coeff:      0.142D-02 0.198D-01 0.350D+00-0.837D-01 0.712D+00
 Gap=     0.162 Goal=   None    Shift=    0.000
 RMSDP=5.73D-04 MaxDP=4.21D-02 DE=-7.99D-01 OVMax= 6.49D-02

 Cycle   6  Pass 0  IDiag  1:
 RMSU=  6.42D-05    CP:  9.58D-01  9.83D-01  6.04D-01  2.60D-01  7.39D-01
 E= -1496.84055186148     Delta-E=       -0.075169724188 Rises=F Damp=F
 DIIS: error= 5.68D-04 at cycle   6 NSaved=   6.
 NSaved= 6 IEnMin= 6 EnMin= -1496.84055186148     IErMin= 6 ErrMin= 5.68D-04
 ErrMax= 5.68D-04  0.00D+00 EMaxC= 1.00D-01 BMatC= 2.40D-04 BMatP= 8.96D-02
 IDIUse=3 WtCom= 9.94D-01 WtEn= 5.68D-03
 Coeff-Com: -0.470D-03 0.849D-02 0.159D+00-0.600D-01 0.394D+00 0.499D+00
 Coeff-En:   0.000D+00 0.000D+00 0.000D+00 0.000D+00 0.000D+00 0.100D+01
 Coeff:     -0.467D-03 0.844D-02 0.158D+00-0.597D-01 0.392D+00 0.502D+00
 Gap=     0.160 Goal=   None    Shift=    0.000
 RMSDP=3.92D-05 MaxDP=2.62D-03 DE=-7.52D-02 OVMax= 4.22D-03

 Cycle   7  Pass 0  IDiag  1:
 RMSU=  2.45D-05    CP:  9.58D-01  9.87D-01  6.00D-01  2.58D-01  7.71D-01
                    CP:  5.67D-01
 E= -1496.84074114835     Delta-E=       -0.000189286869 Rises=F Damp=F
 DIIS: error= 2.34D-04 at cycle   7 NSaved=   7.
 NSaved= 7 IEnMin= 7 EnMin= -1496.84074114835     IErMin= 7 ErrMin= 2.34D-04
 ErrMax= 2.34D-04  0.00D+00 EMaxC= 1.00D-01 BMatC= 4.19D-05 BMatP= 2.40D-04
 IDIUse=3 WtCom= 9.98D-01 WtEn= 2.34D-03
 Coeff-Com:  0.249D-03-0.269D-03 0.407D-01-0.162D-01 0.995D-01 0.286D+00
 Coeff-Com:  0.590D+00
 Coeff-En:   0.000D+00 0.000D+00 0.000D+00 0.000D+00 0.000D+00 0.131D+00
 Coeff-En:   0.869D+00
 Coeff:      0.249D-03-0.268D-03 0.406D-01-0.162D-01 0.993D-01 0.286D+00
 Coeff:      0.591D+00
 Gap=     0.160 Goal=   None    Shift=    0.000
 RMSDP=1.41D-05 MaxDP=8.85D-04 DE=-1.89D-04 OVMax= 1.51D-03

 Cycle   8  Pass 0  IDiag  1:
 RMSU=  7.63D-06    CP:  9.58D-01  9.86D-01  6.01D-01  2.60D-01  7.73D-01
                    CP:  6.21D-01  5.67D-01
 E= -1496.84077851704     Delta-E=       -0.000037368688 Rises=F Damp=F
 DIIS: error= 6.43D-05 at cycle   8 NSaved=   8.
 NSaved= 8 IEnMin= 8 EnMin= -1496.84077851704     IErMin= 8 ErrMin= 6.43D-05
 ErrMax= 6.43D-05  0.00D+00 EMaxC= 1.00D-01 BMatC= 4.60D-06 BMatP= 4.19D-05
 IDIUse=1 WtCom= 1.00D+00 WtEn= 0.00D+00
 Coeff-Com:  0.322D-03-0.119D-02 0.120D-01-0.464D-02 0.267D-01 0.131D+00
 Coeff-Com:  0.349D+00 0.486D+00
 Coeff:      0.322D-03-0.119D-02 0.120D-01-0.464D-02 0.267D-01 0.131D+00
 Coeff:      0.349D+00 0.486D+00
 Gap=     0.160 Goal=   None    Shift=    0.000
 RMSDP=5.64D-06 MaxDP=3.41D-04 DE=-3.74D-05 OVMax= 7.78D-04

 Initial convergence to 1.0D-05 achieved.  Increase integral accuracy.
 Cycle   9  Pass 1  IDiag  1:
 E= -1496.84070097987     Delta-E=        0.000077537162 Rises=F Damp=F
 DIIS: error= 2.60D-04 at cycle   1 NSaved=   1.
 NSaved= 1 IEnMin= 1 EnMin= -1496.84070097987     IErMin= 1 ErrMin= 2.60D-04
 ErrMax= 2.60D-04  0.00D+00 EMaxC= 1.00D-01 BMatC= 1.92D-05 BMatP= 1.92D-05
 IDIUse=3 WtCom= 9.97D-01 WtEn= 2.60D-03
 Coeff-Com:  0.100D+01
 Coeff-En:   0.100D+01
 Coeff:      0.100D+01
 Gap=     0.160 Goal=   None    Shift=    0.000
 RMSDP=5.64D-06 MaxDP=3.41D-04 DE= 7.75D-05 OVMax= 8.33D-04

 Cycle  10  Pass 1  IDiag  1:
 RMSU=  1.40D-04    CP:  1.00D+00
 E= -1496.84071410196     Delta-E=       -0.000013122089 Rises=F Damp=F
 DIIS: error= 5.21D-05 at cycle   2 NSaved=   2.
 NSaved= 2 IEnMin= 2 EnMin= -1496.84071410196     IErMin= 2 ErrMin= 5.21D-05
 ErrMax= 5.21D-05  0.00D+00 EMaxC= 1.00D-01 BMatC= 2.33D-06 BMatP= 1.92D-05
 IDIUse=1 WtCom= 1.00D+00 WtEn= 0.00D+00
 Coeff-Com:  0.138D+00 0.862D+00
 Coeff:      0.138D+00 0.862D+00
 Gap=     0.159 Goal=   None    Shift=    0.000
 RMSDP=8.66D-06 MaxDP=5.25D-04 DE=-1.31D-05 OVMax= 1.48D-03

 Cycle  11  Pass 1  IDiag  1:
 RMSU=  8.57D-06    CP:  1.00D+00  1.01D+00
 E= -1496.84070887803     Delta-E=        0.000005223931 Rises=F Damp=F
 DIIS: error= 9.85D-05 at cycle   3 NSaved=   3.
 NSaved= 3 IEnMin= 2 EnMin= -1496.84071410196     IErMin= 2 ErrMin= 5.21D-05
 ErrMax= 9.85D-05  0.00D+00 EMaxC= 1.00D-01 BMatC= 7.80D-06 BMatP= 2.33D-06
 IDIUse=1 WtCom= 1.00D+00 WtEn= 0.00D+00
 Coeff-Com: -0.386D-02 0.649D+00 0.355D+00
 Coeff:     -0.386D-02 0.649D+00 0.355D+00
 Gap=     0.160 Goal=   None    Shift=    0.000
 RMSDP=5.60D-06 MaxDP=3.24D-04 DE= 5.22D-06 OVMax= 9.61D-04

 Cycle  12  Pass 1  IDiag  1:
 RMSU=  7.14D-07    CP:  1.00D+00  1.01D+00  3.53D-01
 E= -1496.84071628436     Delta-E=       -0.000007406333 Rises=F Damp=F
 DIIS: error= 4.85D-06 at cycle   4 NSaved=   4.
 NSaved= 4 IEnMin= 4 EnMin= -1496.84071628436     IErMin= 4 ErrMin= 4.85D-06
 ErrMax= 4.85D-06  0.00D+00 EMaxC= 1.00D-01 BMatC= 3.76D-08 BMatP= 2.33D-06
 IDIUse=1 WtCom= 1.00D+00 WtEn= 0.00D+00
 Coeff-Com: -0.341D-02 0.399D+00 0.222D+00 0.382D+00
 Coeff:     -0.341D-02 0.399D+00 0.222D+00 0.382D+00
 Gap=     0.160 Goal=   None    Shift=    0.000
 RMSDP=3.90D-07 MaxDP=2.51D-05 DE=-7.41D-06 OVMax= 3.62D-05

 Cycle  13  Pass 1  IDiag  1:
 RMSU=  2.20D-07    CP:  1.00D+00  1.01D+00  3.61D-01  5.60D-01
 E= -1496.84071631460     Delta-E=       -0.000000030238 Rises=F Damp=F
 DIIS: error= 9.93D-07 at cycle   5 NSaved=   5.
 NSaved= 5 IEnMin= 5 EnMin= -1496.84071631460     IErMin= 5 ErrMin= 9.93D-07
 ErrMax= 9.93D-07  0.00D+00 EMaxC= 1.00D-01 BMatC= 1.24D-09 BMatP= 3.76D-08
 IDIUse=1 WtCom= 1.00D+00 WtEn= 0.00D+00
 Coeff-Com: -0.188D-02 0.211D+00 0.118D+00 0.231D+00 0.442D+00
 Coeff:     -0.188D-02 0.211D+00 0.118D+00 0.231D+00 0.442D+00
 Gap=     0.160 Goal=   None    Shift=    0.000
 RMSDP=9.42D-08 MaxDP=4.57D-06 DE=-3.02D-08 OVMax= 1.16D-05

 Cycle  14  Pass 1  IDiag  1:
 RMSU=  8.04D-08    CP:  1.00D+00  1.01D+00  3.60D-01  5.89D-01  8.04D-01
 E= -1496.84071631558     Delta-E=       -0.000000000979 Rises=F Damp=F
 DIIS: error= 4.87D-07 at cycle   6 NSaved=   6.
 NSaved= 6 IEnMin= 6 EnMin= -1496.84071631558     IErMin= 6 ErrMin= 4.87D-07
 ErrMax= 4.87D-07  0.00D+00 EMaxC= 1.00D-01 BMatC= 1.98D-10 BMatP= 1.24D-09
 IDIUse=1 WtCom= 1.00D+00 WtEn= 0.00D+00
 Coeff-Com: -0.725D-03 0.794D-01 0.445D-01 0.961D-01 0.300D+00 0.481D+00
 Coeff:     -0.725D-03 0.794D-01 0.445D-01 0.961D-01 0.300D+00 0.481D+00
 Gap=     0.160 Goal=   None    Shift=    0.000
 RMSDP=3.61D-08 MaxDP=1.68D-06 DE=-9.79D-10 OVMax= 3.25D-06

 Cycle  15  Pass 1  IDiag  1:
 RMSU=  2.62D-08    CP:  1.00D+00  1.01D+00  3.61D-01  5.77D-01  8.45D-01
                    CP:  7.34D-01
 E= -1496.84071631567     Delta-E=       -0.000000000094 Rises=F Damp=F
 DIIS: error= 1.16D-07 at cycle   7 NSaved=   7.
 NSaved= 7 IEnMin= 7 EnMin= -1496.84071631567     IErMin= 7 ErrMin= 1.16D-07
 ErrMax= 1.16D-07  0.00D+00 EMaxC= 1.00D-01 BMatC= 1.76D-11 BMatP= 1.98D-10
 IDIUse=1 WtCom= 1.00D+00 WtEn= 0.00D+00
 Coeff-Com: -0.846D-04 0.813D-02 0.472D-02 0.143D-01 0.897D-01 0.277D+00
 Coeff-Com:  0.606D+00
 Coeff:     -0.846D-04 0.813D-02 0.472D-02 0.143D-01 0.897D-01 0.277D+00
 Coeff:      0.606D+00
 Gap=     0.160 Goal=   None    Shift=    0.000
 RMSDP=1.05D-08 MaxDP=4.11D-07 DE=-9.37D-11 OVMax= 1.05D-06

 Cycle  16  Pass 1  IDiag  1:
 RMSU=  5.63D-09    CP:  1.00D+00  1.01D+00  3.61D-01  5.82D-01  8.50D-01
                    CP:  7.60D-01  7.04D-01
 E= -1496.84071631570     Delta-E=       -0.000000000026 Rises=F Damp=F
 DIIS: error= 2.76D-08 at cycle   8 NSaved=   8.
 NSaved= 8 IEnMin= 8 EnMin= -1496.84071631570     IErMin= 8 ErrMin= 2.76D-08
 ErrMax= 2.76D-08  0.00D+00 EMaxC= 1.00D-01 BMatC= 1.47D-12 BMatP= 1.76D-11
 IDIUse=1 WtCom= 1.00D+00 WtEn= 0.00D+00
 Coeff-Com:  0.983D-05-0.168D-02-0.842D-03 0.401D-03 0.258D-01 0.116D+00
 Coeff-Com:  0.328D+00 0.533D+00
 Coeff:      0.983D-05-0.168D-02-0.842D-03 0.401D-03 0.258D-01 0.116D+00
 Coeff:      0.328D+00 0.533D+00
 Gap=     0.160 Goal=   None    Shift=    0.000
 RMSDP=3.14D-09 MaxDP=1.57D-07 DE=-2.64D-11 OVMax= 5.11D-07

 SCF Done:  E(RB3LYP) =  -1496.84071632     A.U. after   16 cycles
            NFock= 16  Conv=0.31D-08     -V/T= 2.0084
 KE= 1.484420480045D+03 PE=-1.119522634689D+04 EE= 4.357473247927D+03
 Leave Link  502 at Fri Nov  4 20:53:39 2022, MaxMem=   805306368 cpu:            1243.6 elap:             185.1
 (Enter /home/wykgroup/appl/g16/l508.exe)
 QCSCF skips out because SCF is already converged.
 Leave Link  508 at Fri Nov  4 20:53:39 2022, MaxMem=   805306368 cpu:               0.2 elap:               0.1
 (Enter /home/wykgroup/appl/g16/l601.exe)
 Copying SCF densities to generalized density rwf, IOpCl= 0 IROHF=0.

 **********************************************************************

            Population analysis using the SCF Density.

 **********************************************************************

 Orbital symmetries:
       Occupied  (A) (A) (A) (A) (A) (A) (A) (A) (A) (A) (A) (A)
                 (A) (A) (A) (A) (A) (A) (A) (A) (A) (A) (A) (A)
                 (A) (A) (A) (A) (A) (A) (A) (A) (A) (A) (A) (A)
                 (A) (A) (A) (A) (A) (A) (A) (A) (A) (A) (A) (A)
                 (A) (A) (A) (A) (A) (A) (A) (A) (A) (A) (A) (A)
                 (A) (A) (A) (A) (A) (A) (A) (A) (A) (A) (A) (A)
                 (A) (A) (A) (A) (A) (A) (A) (A) (A) (A) (A) (A)
                 (A) (A) (A) (A) (A) (A) (A) (A) (A) (A) (A) (A)
                 (A) (A) (A) (A) (A) (A) (A) (A) (A) (A) (A) (A)
                 (A) (A) (A) (A) (A) (A) (A) (A) (A) (A) (A) (A)
       Virtual   (A) (A) (A) (A) (A) (A) (A) (A) (A) (A) (A) (A)
                 (A) (A) (A) (A) (A) (A) (A) (A) (A) (A) (A) (A)
                 (A) (A) (A) (A) (A) (A) (A) (A) (A) (A) (A) (A)
                 (A) (A) (A) (A) (A) (A) (A) (A) (A) (A) (A) (A)
                 (A) (A) (A) (A) (A) (A) (A) (A) (A) (A) (A) (A)
                 (A) (A) (A) (A) (A) (A) (A) (A) (A) (A) (A) (A)
                 (A) (A) (A) (A) (A) (A) (A) (A) (A) (A) (A) (A)
                 (A) (A) (A) (A) (A) (A) (A) (A) (A) (A) (A) (A)
                 (A) (A) (A) (A) (A) (A) (A) (A) (A) (A) (A) (A)
                 (A) (A) (A) (A) (A) (A) (A) (A) (A) (A) (A) (A)
                 (A) (A) (A) (A) (A) (A) (A) (A) (A) (A) (A) (A)
                 (A) (A) (A) (A) (A) (A) (A) (A) (A) (A) (A) (A)
                 (A) (A) (A) (A) (A) (A) (A) (A) (A) (A) (A) (A)
                 (A) (A) (A) (A) (A) (A) (A) (A) (A) (A) (A) (A)
                 (A) (A) (A) (A) (A) (A) (A) (A) (A) (A) (A) (A)
                 (A) (A) (A) (A) (A) (A) (A) (A) (A) (A) (A) (A)
                 (A) (A) (A) (A) (A) (A) (A) (A) (A) (A) (A) (A)
                 (A) (A) (A) (A) (A) (A) (A) (A) (A) (A) (A) (A)
                 (A) (A) (A) (A) (A) (A) (A) (A) (A) (A) (A) (A)
                 (A) (A) (A) (A) (A) (A) (A) (A) (A) (A) (A) (A)
                 (A) (A) (A) (A) (A) (A) (A) (A) (A) (A) (A) (A)
                 (A) (A) (A) (A) (A) (A) (A) (A) (A) (A) (A) (A)
                 (A) (A) (A) (A) (A) (A) (A) (A) (A) (A) (A) (A)
                 (A) (A) (A) (A) (A) (A) (A) (A) (A) (A) (A) (A)
                 (A) (A) (A) (A) (A) (A) (A) (A) (A) (A) (A) (A)
                 (A) (A) (A) (A) (A) (A) (A) (A) (A) (A) (A) (A)
                 (A) (A) (A) (A) (A) (A) (A) (A) (A) (A) (A) (A)
                 (A) (A) (A) (A) (A) (A) (A) (A) (A) (A) (A) (A)
                 (A) (A) (A) (A) (A) (A) (A) (A) (A) (A) (A) (A)
                 (A) (A) (A) (A) (A) (A) (A) (A) (A) (A) (A) (A)
                 (A) (A) (A) (A) (A) (A) (A) (A) (A) (A) (A) (A)
                 (A) (A) (A) (A) (A) (A) (A) (A) (A) (A) (A) (A)
                 (A) (A) (A) (A) (A) (A) (A) (A) (A) (A) (A) (A)
                 (A) (A) (A) (A) (A) (A) (A) (A) (A) (A) (A) (A)
                 (A) (A) (A) (A) (A) (A) (A) (A) (A) (A) (A) (A)
                 (A) (A) (A) (A) (A) (A) (A) (A) (A) (A) (A) (A)
                 (A) (A) (A) (A) (A) (A) (A) (A) (A) (A)
 The electronic state is 1-A.
 Alpha  occ. eigenvalues --  -19.19124 -19.18414 -19.18389 -19.13780 -19.11785
 Alpha  occ. eigenvalues --  -10.30139 -10.26662 -10.26297 -10.25944 -10.25698
 Alpha  occ. eigenvalues --  -10.24868 -10.24587 -10.21863 -10.20701 -10.20144
 Alpha  occ. eigenvalues --  -10.19870 -10.19864 -10.19534 -10.19468 -10.19423
 Alpha  occ. eigenvalues --  -10.19407 -10.19357 -10.19285 -10.19198 -10.19197
 Alpha  occ. eigenvalues --  -10.18666 -10.18641 -10.18535 -10.18524 -10.18374
 Alpha  occ. eigenvalues --  -10.18285 -10.17954 -10.17343 -10.16221  -1.10594
 Alpha  occ. eigenvalues --   -1.08219  -1.07572  -1.04417  -1.01341  -0.90009
 Alpha  occ. eigenvalues --   -0.87515  -0.85930  -0.83807  -0.81221  -0.79272
 Alpha  occ. eigenvalues --   -0.77650  -0.76728  -0.75722  -0.74738  -0.74409
 Alpha  occ. eigenvalues --   -0.73036  -0.72744  -0.70284  -0.68997  -0.65870
 Alpha  occ. eigenvalues --   -0.64990  -0.63479  -0.61717  -0.60812  -0.60709
 Alpha  occ. eigenvalues --   -0.59681  -0.58747  -0.57045  -0.56581  -0.54346
 Alpha  occ. eigenvalues --   -0.53086  -0.52595  -0.51007  -0.50751  -0.49975
 Alpha  occ. eigenvalues --   -0.49340  -0.48578  -0.48250  -0.48197  -0.47631
 Alpha  occ. eigenvalues --   -0.46441  -0.45666  -0.45550  -0.45048  -0.44733
 Alpha  occ. eigenvalues --   -0.44123  -0.43591  -0.43502  -0.43073  -0.42798
 Alpha  occ. eigenvalues --   -0.42224  -0.41588  -0.41358  -0.40836  -0.40226
 Alpha  occ. eigenvalues --   -0.39686  -0.39497  -0.38916  -0.38324  -0.38112
 Alpha  occ. eigenvalues --   -0.37685  -0.37035  -0.36615  -0.36561  -0.35916
 Alpha  occ. eigenvalues --   -0.35488  -0.35108  -0.34889  -0.34429  -0.34276
 Alpha  occ. eigenvalues --   -0.34206  -0.33785  -0.33270  -0.32310  -0.31560
 Alpha  occ. eigenvalues --   -0.30175  -0.28417  -0.26853  -0.25565  -0.25077
 Alpha  occ. eigenvalues --   -0.24942  -0.24676  -0.23817  -0.23462  -0.21339
 Alpha virt. eigenvalues --   -0.05381  -0.01478  -0.01111  -0.00343   0.00090
 Alpha virt. eigenvalues --    0.00646   0.04312   0.05729   0.08173   0.09118
 Alpha virt. eigenvalues --    0.09758   0.09845   0.10354   0.11084   0.12299
 Alpha virt. eigenvalues --    0.12519   0.13273   0.13650   0.14138   0.14427
 Alpha virt. eigenvalues --    0.14827   0.14904   0.15216   0.15334   0.15855
 Alpha virt. eigenvalues --    0.16112   0.16184   0.16494   0.17164   0.17390
 Alpha virt. eigenvalues --    0.17513   0.17743   0.18196   0.18841   0.18878
 Alpha virt. eigenvalues --    0.19662   0.19784   0.20510   0.20635   0.21658
 Alpha virt. eigenvalues --    0.22070   0.22493   0.23108   0.23539   0.24273
 Alpha virt. eigenvalues --    0.24561   0.25388   0.26475   0.26892   0.27324
 Alpha virt. eigenvalues --    0.28073   0.28868   0.29812   0.30829   0.31031
 Alpha virt. eigenvalues --    0.31665   0.32054   0.32533   0.33313   0.34178
 Alpha virt. eigenvalues --    0.34423   0.35714   0.36315   0.37118   0.37934
 Alpha virt. eigenvalues --    0.39185   0.41823   0.42267   0.42686   0.44961
 Alpha virt. eigenvalues --    0.46692   0.47706   0.48252   0.48513   0.49358
 Alpha virt. eigenvalues --    0.50354   0.50726   0.51174   0.52013   0.52585
 Alpha virt. eigenvalues --    0.53013   0.53219   0.53724   0.54075   0.54369
 Alpha virt. eigenvalues --    0.54918   0.55350   0.55901   0.56239   0.56586
 Alpha virt. eigenvalues --    0.56982   0.57797   0.58051   0.58858   0.58929
 Alpha virt. eigenvalues --    0.59119   0.59618   0.59764   0.59977   0.60443
 Alpha virt. eigenvalues --    0.60751   0.60961   0.61234   0.61684   0.62238
 Alpha virt. eigenvalues --    0.62541   0.62691   0.63233   0.63674   0.64262
 Alpha virt. eigenvalues --    0.65278   0.65681   0.66716   0.67080   0.67731
 Alpha virt. eigenvalues --    0.68611   0.68995   0.69491   0.70423   0.71305
 Alpha virt. eigenvalues --    0.71742   0.72849   0.73778   0.74206   0.74787
 Alpha virt. eigenvalues --    0.74892   0.75817   0.76539   0.77522   0.78098
 Alpha virt. eigenvalues --    0.78448   0.78676   0.80495   0.81479   0.81704
 Alpha virt. eigenvalues --    0.82329   0.82880   0.82942   0.83630   0.83709
 Alpha virt. eigenvalues --    0.84119   0.84432   0.84572   0.84763   0.84851
 Alpha virt. eigenvalues --    0.85338   0.85456   0.85985   0.86645   0.87686
 Alpha virt. eigenvalues --    0.88861   0.89034   0.89417   0.90297   0.90837
 Alpha virt. eigenvalues --    0.90960   0.91248   0.91717   0.92110   0.92710
 Alpha virt. eigenvalues --    0.93172   0.93617   0.94295   0.94894   0.95655
 Alpha virt. eigenvalues --    0.96208   0.96599   0.96926   0.97716   0.98508
 Alpha virt. eigenvalues --    0.99318   0.99688   1.00568   1.01414   1.02419
 Alpha virt. eigenvalues --    1.02881   1.03887   1.04339   1.04607   1.05134
 Alpha virt. eigenvalues --    1.05950   1.07324   1.07673   1.07753   1.08469
 Alpha virt. eigenvalues --    1.09458   1.10035   1.10457   1.10955   1.11272
 Alpha virt. eigenvalues --    1.13189   1.14147   1.14562   1.15459   1.16880
 Alpha virt. eigenvalues --    1.17222   1.18119   1.18983   1.19939   1.20289
 Alpha virt. eigenvalues --    1.21311   1.22096   1.22992   1.24797   1.25291
 Alpha virt. eigenvalues --    1.26481   1.27191   1.28025   1.28626   1.29705
 Alpha virt. eigenvalues --    1.30777   1.32196   1.33560   1.34317   1.35709
 Alpha virt. eigenvalues --    1.36163   1.36994   1.38088   1.39360   1.39832
 Alpha virt. eigenvalues --    1.39979   1.40837   1.42172   1.43728   1.44176
 Alpha virt. eigenvalues --    1.44853   1.45466   1.46230   1.47087   1.47555
 Alpha virt. eigenvalues --    1.48197   1.48414   1.49029   1.49616   1.50605
 Alpha virt. eigenvalues --    1.51214   1.51696   1.52175   1.52930   1.53733
 Alpha virt. eigenvalues --    1.54354   1.55302   1.57619   1.58992   1.60718
 Alpha virt. eigenvalues --    1.61690   1.64515   1.65622   1.66719   1.69592
 Alpha virt. eigenvalues --    1.70165   1.70828   1.71591   1.72742   1.73333
 Alpha virt. eigenvalues --    1.74684   1.75582   1.76705   1.77550   1.78874
 Alpha virt. eigenvalues --    1.79674   1.80953   1.81648   1.82416   1.82721
 Alpha virt. eigenvalues --    1.82996   1.83338   1.85677   1.86336   1.87276
 Alpha virt. eigenvalues --    1.87719   1.88263   1.88663   1.89718   1.90170
 Alpha virt. eigenvalues --    1.90978   1.91647   1.91937   1.92971   1.93091
 Alpha virt. eigenvalues --    1.93725   1.94127   1.94628   1.95053   1.95733
 Alpha virt. eigenvalues --    1.96375   1.96859   1.98623   1.98899   1.99760
 Alpha virt. eigenvalues --    2.00295   2.01329   2.02210   2.02752   2.03191
 Alpha virt. eigenvalues --    2.04483   2.05609   2.06267   2.06481   2.07802
 Alpha virt. eigenvalues --    2.08061   2.09165   2.09691   2.10250   2.10737
 Alpha virt. eigenvalues --    2.11439   2.12090   2.12641   2.13495   2.14560
 Alpha virt. eigenvalues --    2.14665   2.15791   2.17219   2.17300   2.17823
 Alpha virt. eigenvalues --    2.19066   2.20096   2.20595   2.21032   2.21970
 Alpha virt. eigenvalues --    2.22683   2.23074   2.23606   2.25153   2.25779
 Alpha virt. eigenvalues --    2.27232   2.28366   2.29326   2.29508   2.30939
 Alpha virt. eigenvalues --    2.31525   2.31899   2.32619   2.32827   2.33512
 Alpha virt. eigenvalues --    2.34203   2.35188   2.36521   2.37144   2.38078
 Alpha virt. eigenvalues --    2.39359   2.39860   2.40351   2.41030   2.41543
 Alpha virt. eigenvalues --    2.43326   2.43418   2.47100   2.48213   2.49061
 Alpha virt. eigenvalues --    2.51075   2.52094   2.53317   2.53604   2.56205
 Alpha virt. eigenvalues --    2.57749   2.59259   2.60080   2.60760   2.61867
 Alpha virt. eigenvalues --    2.63558   2.63895   2.64897   2.66136   2.67084
 Alpha virt. eigenvalues --    2.67843   2.68006   2.68962   2.69789   2.70867
 Alpha virt. eigenvalues --    2.71595   2.73172   2.73963   2.75987   2.77220
 Alpha virt. eigenvalues --    2.77584   2.78684   2.79682   2.80868   2.81672
 Alpha virt. eigenvalues --    2.82386   2.84065   2.85015   2.86037   2.88332
 Alpha virt. eigenvalues --    2.89940   2.90702   2.91532   2.93705   2.96244
 Alpha virt. eigenvalues --    2.97524   2.99545   3.02625   3.04284   3.04425
 Alpha virt. eigenvalues --    3.06239   3.06770   3.11804   3.12878   3.14778
 Alpha virt. eigenvalues --    3.17613   3.20646   3.28823   3.33123   3.39340
 Alpha virt. eigenvalues --    3.46112   3.47163   3.50729   4.04981   4.09360
 Alpha virt. eigenvalues --    4.10390   4.10850   4.11595   4.15136   4.15641
 Alpha virt. eigenvalues --    4.17678   4.19330   4.21824   4.23782   4.25986
 Alpha virt. eigenvalues --    4.28163   4.30881   4.31318   4.33498   4.39490
 Alpha virt. eigenvalues --    4.39967   4.41306   4.45348   4.46934   4.51234
 Alpha virt. eigenvalues --    4.54931   4.56708   4.60885   4.65169   4.65601
 Alpha virt. eigenvalues --    4.74534   4.78853   4.84934   4.97071   5.03311
 Alpha virt. eigenvalues --    5.08541   5.52432
          Condensed to atoms (all electrons):
 Mulliken charges:
               1
     1  C   -0.465543
     2  C   -0.280029
     3  C   -0.040083
     4  C    0.398501
     5  O   -0.488367
     6  C    0.124525
     7  C   -0.236063
     8  C    0.402247
     9  O   -0.505208
    10  C   -0.216904
    11  C   -0.273686
    12  C    0.389303
    13  O   -0.515308
    14  C   -0.219415
    15  C   -0.052862
    16  C   -0.080182
    17  C    0.195144
    18  C   -0.187412
    19  C   -0.138282
    20  C   -0.125332
    21  C   -0.134778
    22  C   -0.187876
    23  C   -0.294495
    24  C    0.625766
    25  O   -0.478165
    26  O   -0.465137
    27  C    0.190897
    28  C   -0.491966
    29  C    0.146432
    30  C   -0.199047
    31  C   -0.130552
    32  C   -0.126624
    33  C   -0.197255
    34  C    0.135648
    35  H    0.142734
    36  H    0.166432
    37  H    0.148235
    38  H    0.150623
    39  H    0.164454
    40  H    0.155505
    41  H    0.175029
    42  H    0.156395
    43  H    0.148769
    44  H    0.138959
    45  H    0.152478
    46  H    0.163118
    47  H    0.174637
    48  H    0.135716
    49  H    0.126467
    50  H    0.126203
    51  H    0.128512
    52  H    0.139404
    53  H    0.171989
    54  H    0.155850
    55  H    0.202336
    56  H    0.162760
    57  H    0.136648
    58  H    0.131638
    59  H    0.131967
    60  H    0.135254
 Sum of Mulliken charges =  -0.00000
 Mulliken charges with hydrogens summed into heavy atoms:
               1
     1  C   -0.008142
[...]
     60          1           0        2.853265    1.279179   -2.831586
 ---------------------------------------------------------------------
 Rotational constants (GHZ):           0.1952931           0.1174476           0.1028610
 Leave Link  202 at Fri Nov  4 21:34:18 2022, MaxMem=   805306368 cpu:               0.4 elap:               0.1
 (Enter /home/wykgroup/appl/g16/l601.exe)
 Copying SCF densities to generalized density rwf, IOpCl= 0 IROHF=0.

 **********************************************************************

            Population analysis using the SCF Density.

 **********************************************************************

 Orbital symmetries:
       Occupied  (A) (A) (A) (A) (A) (A) (A) (A) (A) (A) (A) (A)
                 (A) (A) (A) (A) (A) (A) (A) (A) (A) (A) (A) (A)
                 (A) (A) (A) (A) (A) (A) (A) (A) (A) (A) (A) (A)
                 (A) (A) (A) (A) (A) (A) (A) (A) (A) (A) (A) (A)
                 (A) (A) (A) (A) (A) (A) (A) (A) (A) (A) (A) (A)
                 (A) (A) (A) (A) (A) (A) (A) (A) (A) (A) (A) (A)
                 (A) (A) (A) (A) (A) (A) (A) (A) (A) (A) (A) (A)
                 (A) (A) (A) (A) (A) (A) (A) (A) (A) (A) (A) (A)
                 (A) (A) (A) (A) (A) (A) (A) (A) (A) (A) (A) (A)
                 (A) (A) (A) (A) (A) (A) (A) (A) (A) (A) (A) (A)
       Virtual   (A) (A) (A) (A) (A) (A) (A) (A) (A) (A) (A) (A)
                 (A) (A) (A) (A) (A) (A) (A) (A) (A) (A) (A) (A)
                 (A) (A) (A) (A) (A) (A) (A) (A) (A) (A) (A) (A)
                 (A) (A) (A) (A) (A) (A) (A) (A) (A) (A) (A) (A)
                 (A) (A) (A) (A) (A) (A) (A) (A) (A) (A) (A) (A)
                 (A) (A) (A) (A) (A) (A) (A) (A) (A) (A) (A) (A)
                 (A) (A) (A) (A) (A) (A) (A) (A) (A) (A) (A) (A)
                 (A) (A) (A) (A) (A) (A) (A) (A) (A) (A) (A) (A)
                 (A) (A) (A) (A) (A) (A) (A) (A) (A) (A) (A) (A)
                 (A) (A) (A) (A) (A) (A) (A) (A) (A) (A) (A) (A)
                 (A) (A) (A) (A) (A) (A) (A) (A) (A) (A) (A) (A)
                 (A) (A) (A) (A) (A) (A) (A) (A) (A) (A) (A) (A)
                 (A) (A) (A) (A) (A) (A) (A) (A) (A) (A) (A) (A)
                 (A) (A) (A) (A) (A) (A) (A) (A) (A) (A) (A) (A)
                 (A) (A) (A) (A) (A) (A) (A) (A) (A) (A) (A) (A)
                 (A) (A) (A) (A) (A) (A) (A) (A) (A) (A) (A) (A)
                 (A) (A) (A) (A) (A) (A) (A) (A) (A) (A) (A) (A)
                 (A) (A) (A) (A) (A) (A) (A) (A) (A) (A) (A) (A)
                 (A) (A) (A) (A) (A) (A) (A) (A) (A) (A) (A) (A)
                 (A) (A) (A) (A) (A) (A) (A) (A) (A) (A) (A) (A)
                 (A) (A) (A) (A) (A) (A) (A) (A) (A) (A) (A) (A)
                 (A) (A) (A) (A) (A) (A) (A) (A) (A) (A) (A) (A)
                 (A) (A) (A) (A) (A) (A) (A) (A) (A) (A) (A) (A)
                 (A) (A) (A) (A) (A) (A) (A) (A) (A) (A) (A) (A)
                 (A) (A) (A) (A) (A) (A) (A) (A) (A) (A) (A) (A)
                 (A) (A) (A) (A) (A) (A) (A) (A) (A) (A) (A) (A)
                 (A) (A) (A) (A) (A) (A) (A) (A) (A) (A) (A) (A)
                 (A) (A) (A) (A) (A) (A) (A) (A) (A) (A) (A) (A)
                 (A) (A) (A) (A) (A) (A) (A) (A) (A) (A) (A) (A)
                 (A) (A) (A) (A) (A) (A) (A) (A) (A) (A) (A) (A)
                 (A) (A) (A) (A) (A) (A) (A) (A) (A) (A) (A) (A)
                 (A) (A) (A) (A) (A) (A) (A) (A) (A) (A) (A) (A)
                 (A) (A) (A) (A) (A) (A) (A) (A) (A) (A) (A) (A)
                 (A) (A) (A) (A) (A) (A) (A) (A) (A) (A) (A) (A)
                 (A) (A) (A) (A) (A) (A) (A) (A) (A) (A) (A) (A)
                 (A) (A) (A) (A) (A) (A) (A) (A) (A) (A) (A) (A)
                 (A) (A) (A) (A) (A) (A) (A) (A) (A) (A)
 The electronic state is 1-A.
 Alpha  occ. eigenvalues --  -19.19106 -19.18527 -19.17887 -19.13828 -19.12285
 Alpha  occ. eigenvalues --  -10.30431 -10.26994 -10.26632 -10.26284 -10.25990
 Alpha  occ. eigenvalues --  -10.25066 -10.24833 -10.22990 -10.21607 -10.20824
 Alpha  occ. eigenvalues --  -10.20423 -10.20237 -10.20166 -10.19970 -10.19903
 Alpha  occ. eigenvalues --  -10.19866 -10.19830 -10.19828 -10.19690 -10.19589
 Alpha  occ. eigenvalues --  -10.19101 -10.19076 -10.18996 -10.18867 -10.18802
 Alpha  occ. eigenvalues --  -10.18783 -10.18457 -10.17639 -10.16828  -1.08793
 Alpha  occ. eigenvalues --   -1.07723  -1.07169  -1.03724  -1.00826  -0.88962
 Alpha  occ. eigenvalues --   -0.87000  -0.85400  -0.83104  -0.80597  -0.78817
 Alpha  occ. eigenvalues --   -0.77306  -0.76363  -0.75437  -0.74417  -0.74048
 Alpha  occ. eigenvalues --   -0.72767  -0.72515  -0.70089  -0.68935  -0.65605
 Alpha  occ. eigenvalues --   -0.64608  -0.63308  -0.61182  -0.60526  -0.60234
 Alpha  occ. eigenvalues --   -0.59580  -0.58411  -0.56894  -0.56280  -0.53945
 Alpha  occ. eigenvalues --   -0.52637  -0.52158  -0.50778  -0.50357  -0.49616
 Alpha  occ. eigenvalues --   -0.48982  -0.48379  -0.48018  -0.47708  -0.47412
 Alpha  occ. eigenvalues --   -0.46252  -0.45420  -0.45327  -0.44844  -0.44506
 Alpha  occ. eigenvalues --   -0.43880  -0.43451  -0.43185  -0.42961  -0.42641
 Alpha  occ. eigenvalues --   -0.42016  -0.41412  -0.41165  -0.40468  -0.40149
 Alpha  occ. eigenvalues --   -0.39479  -0.39173  -0.38760  -0.38288  -0.38062
 Alpha  occ. eigenvalues --   -0.37573  -0.36937  -0.36568  -0.36357  -0.35724
 Alpha  occ. eigenvalues --   -0.35445  -0.35094  -0.34936  -0.34479  -0.34354
 Alpha  occ. eigenvalues --   -0.34102  -0.33808  -0.33268  -0.32341  -0.31402
 Alpha  occ. eigenvalues --   -0.30158  -0.28280  -0.26864  -0.25567  -0.25010
 Alpha  occ. eigenvalues --   -0.24955  -0.24695  -0.23848  -0.23687  -0.21463
 Alpha virt. eigenvalues --   -0.05532  -0.01877  -0.01379  -0.00647  -0.00146
 Alpha virt. eigenvalues --    0.00460   0.03623   0.05304   0.07933   0.08777
 Alpha virt. eigenvalues --    0.09423   0.09597   0.09952   0.10784   0.11564
 Alpha virt. eigenvalues --    0.12039   0.12872   0.13123   0.13652   0.14107
 Alpha virt. eigenvalues --    0.14542   0.14680   0.14727   0.14782   0.15362
 Alpha virt. eigenvalues --    0.15616   0.15711   0.16028   0.16727   0.17060
 Alpha virt. eigenvalues --    0.17160   0.17164   0.17613   0.18232   0.18332
 Alpha virt. eigenvalues --    0.19064   0.19272   0.19709   0.20088   0.20798
 Alpha virt. eigenvalues --    0.21524   0.22139   0.22468   0.23179   0.23532
 Alpha virt. eigenvalues --    0.23896   0.24574   0.25726   0.25870   0.25940
 Alpha virt. eigenvalues --    0.27379   0.27688   0.29030   0.30055   0.30453
 Alpha virt. eigenvalues --    0.30912   0.31323   0.31671   0.32357   0.33487
 Alpha virt. eigenvalues --    0.33773   0.35216   0.35318   0.36405   0.37086
 Alpha virt. eigenvalues --    0.37695   0.40399   0.41374   0.41898   0.44465
 Alpha virt. eigenvalues --    0.46066   0.47363   0.47807   0.48402   0.48801
 Alpha virt. eigenvalues --    0.49645   0.49931   0.50521   0.51724   0.52244
 Alpha virt. eigenvalues --    0.52438   0.52697   0.53423   0.53519   0.53962
 Alpha virt. eigenvalues --    0.54714   0.55032   0.55454   0.55710   0.55881
 Alpha virt. eigenvalues --    0.56310   0.57114   0.57449   0.58056   0.58324
 Alpha virt. eigenvalues --    0.58536   0.58808   0.59110   0.59406   0.60074
 Alpha virt. eigenvalues --    0.60342   0.60673   0.60821   0.61089   0.61571
 Alpha virt. eigenvalues --    0.61755   0.62152   0.62463   0.63200   0.63653
 Alpha virt. eigenvalues --    0.64438   0.65158   0.65805   0.66390   0.66774
 Alpha virt. eigenvalues --    0.67456   0.67999   0.68694   0.69432   0.70489
 Alpha virt. eigenvalues --    0.70556   0.71541   0.72555   0.73104   0.74282
 Alpha virt. eigenvalues --    0.74495   0.75084   0.76132   0.76681   0.77119
 Alpha virt. eigenvalues --    0.77423   0.78802   0.79925   0.80717   0.81320
 Alpha virt. eigenvalues --    0.81432   0.82188   0.82488   0.83000   0.83269
 Alpha virt. eigenvalues --    0.83465   0.83960   0.84129   0.84289   0.84404
 Alpha virt. eigenvalues --    0.85039   0.85162   0.85492   0.86485   0.87138
 Alpha virt. eigenvalues --    0.88078   0.88207   0.88747   0.89657   0.90201
 Alpha virt. eigenvalues --    0.90545   0.90834   0.90989   0.91559   0.92051
 Alpha virt. eigenvalues --    0.92524   0.93221   0.93546   0.94475   0.94931
 Alpha virt. eigenvalues --    0.95671   0.95943   0.96534   0.96965   0.98048
 Alpha virt. eigenvalues --    0.98492   0.99195   1.00163   1.00295   1.01254
 Alpha virt. eigenvalues --    1.02133   1.02572   1.03431   1.04068   1.04545
 Alpha virt. eigenvalues --    1.05204   1.05704   1.06370   1.06871   1.07407
 Alpha virt. eigenvalues --    1.08074   1.08726   1.09578   1.09938   1.10656
 Alpha virt. eigenvalues --    1.12377   1.13212   1.13576   1.14316   1.15789
 Alpha virt. eigenvalues --    1.16352   1.16723   1.17692   1.18377   1.18906
 Alpha virt. eigenvalues --    1.19651   1.20594   1.21587   1.23250   1.24071
 Alpha virt. eigenvalues --    1.24848   1.25544   1.25851   1.27550   1.28519
 Alpha virt. eigenvalues --    1.29747   1.30448   1.32300   1.33092   1.33838
 Alpha virt. eigenvalues --    1.34824   1.36850   1.36931   1.37808   1.38815
 Alpha virt. eigenvalues --    1.39455   1.40227   1.42000   1.42393   1.43314
 Alpha virt. eigenvalues --    1.43667   1.44356   1.45408   1.45864   1.46229
 Alpha virt. eigenvalues --    1.47124   1.47407   1.48221   1.48855   1.49399
 Alpha virt. eigenvalues --    1.50208   1.51331   1.51838   1.52191   1.52641
 Alpha virt. eigenvalues --    1.53299   1.54398   1.56448   1.57970   1.58621
 Alpha virt. eigenvalues --    1.60520   1.63196   1.64476   1.64995   1.68110
 Alpha virt. eigenvalues --    1.68520   1.69021   1.69437   1.70875   1.71700
 Alpha virt. eigenvalues --    1.72818   1.74200   1.75181   1.75385   1.76957
 Alpha virt. eigenvalues --    1.78463   1.78955   1.79963   1.80139   1.80832
 Alpha virt. eigenvalues --    1.81576   1.81807   1.84039   1.84472   1.85600
 Alpha virt. eigenvalues --    1.86361   1.86646   1.87137   1.87735   1.88331
 Alpha virt. eigenvalues --    1.89003   1.89944   1.90567   1.91163   1.91503
 Alpha virt. eigenvalues --    1.92038   1.92148   1.92681   1.93307   1.93954
 Alpha virt. eigenvalues --    1.94826   1.95061   1.95950   1.96986   1.97986
 Alpha virt. eigenvalues --    1.98781   1.99601   2.00413   2.00987   2.01161
 Alpha virt. eigenvalues --    2.02612   2.03229   2.04002   2.04344   2.05042
 Alpha virt. eigenvalues --    2.05473   2.06903   2.07764   2.08669   2.08781
 Alpha virt. eigenvalues --    2.10017   2.10771   2.10975   2.11456   2.12584
 Alpha virt. eigenvalues --    2.13103   2.13439   2.14715   2.15484   2.15945
 Alpha virt. eigenvalues --    2.17214   2.17915   2.18693   2.19492   2.20297
 Alpha virt. eigenvalues --    2.20651   2.21673   2.22255   2.23527   2.23757
 Alpha virt. eigenvalues --    2.25164   2.26148   2.27348   2.27569   2.28747
 Alpha virt. eigenvalues --    2.29920   2.30719   2.30899   2.31227   2.31402
 Alpha virt. eigenvalues --    2.32581   2.33072   2.34934   2.35774   2.36474
 Alpha virt. eigenvalues --    2.36968   2.37488   2.37784   2.39053   2.39665
 Alpha virt. eigenvalues --    2.40706   2.41476   2.45013   2.46702   2.47279
 Alpha virt. eigenvalues --    2.49146   2.50194   2.50744   2.51747   2.53240
 Alpha virt. eigenvalues --    2.55581   2.57348   2.57904   2.58712   2.59844
 Alpha virt. eigenvalues --    2.60894   2.61382   2.62825   2.63855   2.64778
 Alpha virt. eigenvalues --    2.65411   2.65753   2.66775   2.67543   2.69093
 Alpha virt. eigenvalues --    2.69518   2.70919   2.72391   2.73437   2.74670
 Alpha virt. eigenvalues --    2.75077   2.76359   2.77612   2.78656   2.79862
 Alpha virt. eigenvalues --    2.80249   2.81385   2.81975   2.83353   2.86260
 Alpha virt. eigenvalues --    2.87714   2.88128   2.88540   2.90773   2.92761
 Alpha virt. eigenvalues --    2.95287   2.97508   2.99471   3.00836   3.02212
 Alpha virt. eigenvalues --    3.04303   3.04620   3.09126   3.11132   3.12229
 Alpha virt. eigenvalues --    3.14296   3.18154   3.25302   3.30356   3.36874
 Alpha virt. eigenvalues --    3.41528   3.43273   3.47574   4.04228   4.06399
 Alpha virt. eigenvalues --    4.08039   4.09102   4.09821   4.13180   4.13674
 Alpha virt. eigenvalues --    4.15575   4.17095   4.19218   4.21423   4.23648
 Alpha virt. eigenvalues --    4.24690   4.28571   4.29519   4.31643   4.35607
 Alpha virt. eigenvalues --    4.38088   4.39050   4.43009   4.44328   4.47383
 Alpha virt. eigenvalues --    4.49701   4.53387   4.57227   4.61117   4.62450
 Alpha virt. eigenvalues --    4.70303   4.75076   4.81329   4.91728   4.96554
 Alpha virt. eigenvalues --    5.03627   5.47389
          Condensed to atoms (all electrons):
 Mulliken charges:
               1
     1  C   -0.463895
     2  C   -0.279439
     3  C   -0.035720
     4  C    0.400622
     5  O   -0.491994
     6  C    0.098711
     7  C   -0.227125
     8  C    0.396029
     9  O   -0.508351
    10  C   -0.216392
    11  C   -0.271707
    12  C    0.369944
    13  O   -0.515931
    14  C   -0.217962
    15  C   -0.015509
    16  C   -0.084964
    17  C    0.190674
    18  C   -0.184511
    19  C   -0.137076
    20  C   -0.128235
    21  C   -0.133905
    22  C   -0.190398
    23  C   -0.294995
    24  C    0.625838
    25  O   -0.467832
    26  O   -0.481600
    27  C    0.196706
    28  C   -0.491451
    29  C    0.144971
    30  C   -0.196588
    31  C   -0.132530
    32  C   -0.128100
    33  C   -0.195398
    34  C    0.127004
    35  H    0.143298
    36  H    0.166166
    37  H    0.146870
    38  H    0.148446
    39  H    0.166961
    40  H    0.159987
    41  H    0.176004
    42  H    0.156649
    43  H    0.150327
    44  H    0.140397
    45  H    0.153716
    46  H    0.162824
    47  H    0.175896
    48  H    0.132850
    49  H    0.128315
    50  H    0.128780
    51  H    0.130505
    52  H    0.138822
    53  H    0.171805
    54  H    0.154439
    55  H    0.200789
    56  H    0.163315
    57  H    0.137700
    58  H    0.134555
    59  H    0.134567
    60  H    0.137124
 Sum of Mulliken charges =  -0.00000
 Mulliken charges with hydrogens summed into heavy atoms:
               1
     1  C   -0.007561
     2  C    0.035968
     3  C   -0.035720
     4  C    0.400622
     5  O   -0.491994
     6  C    0.098711
     7  C   -0.067138
     8  C    0.396029
     9  O   -0.508351
    10  C    0.266589
    11  C   -0.131310
    12  C    0.369944
    13  O   -0.515931
    14  C    0.274475
    15  C   -0.015509
    16  C   -0.084964
    17  C    0.190674
    18  C   -0.051660
    19  C   -0.008761
    20  C    0.000546
    21  C   -0.003400
    22  C   -0.051576
    23  C   -0.123190
    24  C    0.625838
    25  O   -0.467832
    26  O   -0.481600
    27  C    0.196706
    28  C    0.027092
    29  C    0.144971
    30  C   -0.058888
    31  C    0.002025
    32  C    0.006467
    33  C   -0.058275
    34  C    0.127004
 Electronic spatial extent (au):  <R**2>=          12013.2543
 Charge=              0.0000 electrons
 Dipole moment (field-independent basis, Debye):
    X=             -0.7889    Y=              5.3362    Z=             -1.0191  Tot=              5.4896
 Quadrupole moment (field-independent basis, Debye-Ang):
   XX=           -158.2293   YY=           -197.4813   ZZ=           -199.7759
   XY=             -9.8342   XZ=              6.4897   YZ=             -7.2725
 Traceless Quadrupole moment (field-independent basis, Debye-Ang):
   XX=             26.9329   YY=            -12.3192   ZZ=            -14.6137
   XY=             -9.8342   XZ=              6.4897   YZ=             -7.2725
 Octapole moment (field-independent basis, Debye-Ang**2):
  XXX=           -135.6015  YYY=             40.1318  ZZZ=            -15.7024  XYY=              5.6151
  XXY=             -5.8276  XXZ=            -70.5065  XZZ=            -14.6393  YZZ=             54.0420
  YYZ=             -1.2394  XYZ=            -11.0799
 Hexadecapole moment (field-independent basis, Debye-Ang**3):
 XXXX=          -7448.5317 YYYY=          -4189.3953 ZZZZ=          -2823.0832 XXXY=            -70.9618
 XXXZ=            171.3564 YYYX=             -0.3411 YYYZ=             13.0179 ZZZX=             35.0766
 ZZZY=            -64.1723 XXYY=          -2155.2721 XXZZ=          -1858.0943 YYZZ=          -1204.7432
 XXYZ=            -85.4630 YYXZ=             26.9644 ZZXY=            -38.3494
 N-N= 3.802649297296D+03 E-N=-1.108650667295D+04  KE= 1.483030260165D+03
 No NMR shielding tensors so no spin-rotation constants.
 Leave Link  601 at Fri Nov  4 21:34:19 2022, MaxMem=   805306368 cpu:               2.9 elap:               0.5
 (Enter /home/wykgroup/appl/g16/l9999.exe)
 1\1\GINC-NODE03\FOpt\RB3LYP\6-31G(d)\C29H26O5\WYKGROUP\04-Nov-2022\0\\
 #p b3lyp/6-31g(d) opt SCF=XQC\\Gaussian input prepared by ASE\\0,1\C,-
 2.5523097332,-1.3043046828,-2.1155777068\C,-1.3600833932,-1.9514911821
 ,-1.4006449672\C,-0.83477033,-1.3676193018,-0.0580540895\C,0.265102006
 2,-2.3706624769,0.4163761653\O,0.119357686,-3.5778910408,0.4848408852\
 C,1.503723651,-1.6337063574,0.7188002599\C,2.6905505699,-2.1711180176,
 1.2109785433\C,3.7423088892,-1.2882533347,1.4549027228\O,4.8892380029,
 -1.841215229,1.9406047134\C,5.9845791423,-0.9947792814,2.2506620546\C,
 3.5907260809,0.0901677659,1.2018700139\C,2.3850048066,0.597767356,0.70
 02067388\O,2.1699735464,1.9158265918,0.4346552059\C,3.2022697767,2.850
 7397678,0.7125939076\C,1.3212600362,-0.2822444613,0.4466085684\C,-0.07
 21909955,0.0529315768,-0.0988146158\C,0.0897126243,0.676236027,-1.5001
 773023\C,-0.5750200124,1.8383567817,-1.9120209786\C,-0.3745893625,2.37
 70193326,-3.185714324\C,0.4992080374,1.7669976409,-4.0829267092\C,1.17
 8959183,0.6142112665,-3.6869495492\C,0.9813315361,0.0848211644,-2.4130
 36578\C,-0.7841153261,1.0086168936,0.9392709355\C,-0.6431923187,0.3191
 672107,2.2982349017\O,-0.0927540782,0.7628814727,3.274352759\O,-1.2271
 440892,-0.9108183305,2.3090551526\C,-1.9448531429,-1.2825152552,1.0657
 868054\C,-2.630369064,-2.6003408888,1.397046046\C,-2.9120736002,-0.139
 2697921,0.7908469119\C,-4.301977948,-0.2177141764,0.7083852703\C,-5.05
 09506007,0.9520573109,0.5538308012\C,-4.4158816754,2.1947965408,0.5046
 981588\C,-3.0248242246,2.2756848889,0.6022425539\C,-2.2768561559,1.105
 1196116,0.7248092331\H,-2.6759373069,-1.7849181882,-3.0933023449\H,-2.
 408105745,-0.2350331378,-2.2887722115\H,-3.4896285387,-1.4309703426,-1
 .5686950099\H,-0.5152364022,-1.9685442558,-2.0964775336\H,-1.586071423
 9,-3.004450342,-1.1999276021\H,2.7927115994,-3.2316313708,1.4106511329
 \H,6.7678824445,-1.6511084645,2.6337022625\H,5.7210212636,-0.258649920
 5,3.0214611743\H,6.357168198,-0.4710789259,1.3600011244\H,4.4108942349
 ,0.7647540353,1.4043344256\H,4.100353639,2.6451597709,0.1158682331\H,3
 .4620622171,2.8540833319,1.778674676\H,2.8014338092,3.8265082282,0.433
 9894222\H,-1.2661514265,2.3374967376,-1.2466464618\H,-0.9079226436,3.2
 803749539,-3.4706744653\H,0.6539239987,2.1854501806,-5.0737855861\H,1.
 873323457,0.127083271,-4.3666936386\H,1.5448155895,-0.7956684368,-2.11
 92653162\H,-0.2842221167,1.9752852763,0.9790283449\H,-3.2256586665,-2.
 9524041224,0.5497650344\H,-1.8977505516,-3.369292449,1.6401123387\H,-3
 .2936011915,-2.4544328934,2.2546050943\H,-4.8079183274,-1.1761497765,0
 .7703392851\H,-6.133755563,0.8927069475,0.4875282916\H,-5.0043943261,3
 .10255949,0.4037163332\H,-2.5285867461,3.2434150113,0.5927225086\\Vers
 ion=ES64L-G16RevB.01\State=1-A\HF=-1496.851796\RMSD=6.362e-09\RMSF=1.6
 13e-05\Dipole=0.7567848,1.6085791,-1.2265463\Quadrupole=21.4456106,-6.
 5326841,-14.9129266,5.1997185,4.2035399,-0.4679884\PG=C01 [X(C29H26O5)
 ]\\@


 SOME PEOPLE TRY TO PULL THE WOOL OVER YOUR EYES
 USING THE WRONG YARN.
 Job cpu time:       0 days  4 hours 50 minutes 20.1 seconds.
 Elapsed time:       0 days  0 hours 43 minutes 51.2 seconds.
 File lengths (MBytes):  RWF=    201 Int=      0 D2E=      0 Chk=     27 Scr=      1
 Normal termination of Gaussian 16 at Fri Nov  4 21:34:19 2022.
