 Entering Gaussian System, Link 0=/home/wykgroup/appl/g16/g16
 Input=./calculation/no_transfer_pubchem_sampling_4_b3lyp/42679264.com
 Output=./calculation/no_transfer_pubchem_sampling_4_b3lyp/42679264.log
 Initial command:
 /home/wykgroup/appl/g16/l1.exe "/userdata/scratch/wykgroup/khs/./calculation/no_transfer_pubchem_sampling_4_b3lyp/42679264/Gau-12259.inp" -scrdir="/userdata/scratch/wykgroup/khs/./calculation/no_transfer_pubchem_sampling_4_b3lyp/42679264/"
 Entering Link 1 = /home/wykgroup/appl/g16/l1.exe PID=     12260.
  
 Copyright (c) 1988-2017, Gaussian, Inc.  All Rights Reserved.
  
 This is part of the Gaussian(R) 16 program.  It is based on
 the Gaussian(R) 09 system (copyright 2009, Gaussian, Inc.),
 the Gaussian(R) 03 system (copyright 2003, Gaussian, Inc.),
 the Gaussian(R) 98 system (copyright 1998, Gaussian, Inc.),
 the Gaussian(R) 94 system (copyright 1995, Gaussian, Inc.),
 the Gaussian 92(TM) system (copyright 1992, Gaussian, Inc.),
 the Gaussian 90(TM) system (copyright 1990, Gaussian, Inc.),
 the Gaussian 88(TM) system (copyright 1988, Gaussian, Inc.),
 the Gaussian 86(TM) system (copyright 1986, Carnegie Mellon
 University), and the Gaussian 82(TM) system (copyright 1983,
 Carnegie Mellon University). Gaussian is a federally registered
 trademark of Gaussian, Inc.
  
 This software contains proprietary and confidential information,
 including trade secrets, belonging to Gaussian, Inc.
  
 This software is provided under written license and may be
 used, copied, transmitted, or stored only in accord with that
 written license.
  
 The following legend is applicable only to US Government
 contracts under FAR:
  
                    RESTRICTED RIGHTS LEGEND
  
 Use, reproduction and disclosure by the US Government is
 subject to restrictions as set forth in subparagraphs (a)
 and (c) of the Commercial Computer Software - Restricted
 Rights clause in FAR 52.227-19.
  
 Gaussian, Inc.
 340 Quinnipiac St., Bldg. 40, Wallingford CT 06492
  
  
 ---------------------------------------------------------------
 Warning -- This program may not be used in any manner that
 competes with the business of Gaussian, Inc. or will provide
 assistance to any competitor of Gaussian, Inc.  The licensee
 of this program is prohibited from giving any competitor of
 Gaussian, Inc. access to this program.  By using this program,
 the user acknowledges that Gaussian, Inc. is engaged in the
 business of creating and licensing software in the field of
 computational chemistry and represents and warrants to the
 licensee that it is not a competitor of Gaussian, Inc. and that
 it will not use this program in any manner prohibited above.
 ---------------------------------------------------------------
  

 Cite this work as:
 Gaussian 16, Revision B.01,
 M. J. Frisch, G. W. Trucks, H. B. Schlegel, G. E. Scuseria, 
 M. A. Robb, J. R. Cheeseman, G. Scalmani, V. Barone, 
 G. A. Petersson, H. Nakatsuji, X. Li, M. Caricato, A. V. Marenich, 
 J. Bloino, B. G. Janesko, R. Gomperts, B. Mennucci, H. P. Hratchian, 
 J. V. Ortiz, A. F. Izmaylov, J. L. Sonnenberg, D. Williams-Young, 
 F. Ding, F. Lipparini, F. Egidi, J. Goings, B. Peng, A. Petrone, 
 T. Henderson, D. Ranasinghe, V. G. Zakrzewski, J. Gao, N. Rega, 
 G. Zheng, W. Liang, M. Hada, M. Ehara, K. Toyota, R. Fukuda, 
 J. Hasegawa, M. Ishida, T. Nakajima, Y. Honda, O. Kitao, H. Nakai, 
 T. Vreven, K. Throssell, J. A. Montgomery, Jr., J. E. Peralta, 
 F. Ogliaro, M. J. Bearpark, J. J. Heyd, E. N. Brothers, K. N. Kudin, 
 V. N. Staroverov, T. A. Keith, R. Kobayashi, J. Normand, 
 K. Raghavachari, A. P. Rendell, J. C. Burant, S. S. Iyengar, 
 J. Tomasi, M. Cossi, J. M. Millam, M. Klene, C. Adamo, R. Cammi, 
 J. W. Ochterski, R. L. Martin, K. Morokuma, O. Farkas, 
 J. B. Foresman, and D. J. Fox, Gaussian, Inc., Wallingford CT, 2016.
 
 ******************************************
 Gaussian 16:  ES64L-G16RevB.01 20-Dec-2017
                 4-Nov-2022 
 ******************************************
 %chk=./calculation/no_transfer_pubchem_sampling_4_b3lyp/42679264.chk
 %nprocshared=7
 Will use up to    7 processors via shared memory.
 %mem=6GB
 -----------------------------
 #p b3lyp/6-31g(d) opt SCF=XQC
 -----------------------------
 1/18=20,19=15,26=3,38=1/1,3;
 2/9=110,12=2,17=6,18=5,40=1/2;
 3/5=1,6=6,7=1,11=2,25=1,30=1,71=1,74=-5/1,2,3;
 4//1;
 5/5=2,8=3,13=1,38=5/2,8;
 6/7=2,8=2,9=2,10=2,28=1/1;
 7//1,2,3,16;
 1/18=20,19=15,26=3/3(2);
 2/9=110/2;
 99//99;
 2/9=110/2;
 3/5=1,6=6,7=1,11=2,25=1,30=1,71=1,74=-5/1,2,3;
 4/5=5,16=3,69=1/1;
 5/5=2,8=3,13=1,38=5/2,8;
 7//1,2,3,16;
 1/18=20,19=15,26=3/3(-5);
 2/9=110/2;
 6/7=2,8=2,9=2,10=2,19=2,28=1/1;
 99/9=1/99;
 Leave Link    1 at Fri Nov  4 20:48:56 2022, MaxMem=   805306368 cpu:               1.0 elap:               0.2
 (Enter /home/wykgroup/appl/g16/l101.exe)
 ------------------------------
 Gaussian input prepared by ASE
 ------------------------------
 Symbolic Z-matrix:
 Charge =  0 Multiplicity = 1
 C                    -2.8351   -3.87711  -1.91589 
 C                    -1.99066  -2.69793  -2.39797 
 C                    -1.3569   -2.00541  -1.23161 
 N                    -0.33935  -2.62463  -0.65345 
 C                     0.29546  -2.10612   0.39843 
 N                     1.34316  -2.85196   0.82697 
 C                     1.7317   -4.03006   0.06264 
 C                     3.24391  -4.21581  -0.05215 
 C                     3.94348  -3.03166  -0.72381 
 N                     3.47335  -1.74196  -0.24891 
 C                     2.972    -0.88326  -1.17472 
 O                     2.95774  -1.15612  -2.36185 
 C                     2.42682   0.44193  -0.73413 
 C                     1.18465   0.8006   -1.24982 
 C                     0.6235    2.02966  -0.95809 
 C                     1.31625   2.91291  -0.14359 
 C                     0.73079   4.24529   0.22615 
 F                     0.42462   4.32273   1.53409 
 F                    -0.38556   4.5461   -0.44674 
 F                     1.59392   5.2562   -0.00316 
 C                     2.58142   2.59134   0.33211 
 C                     3.14115   1.36509   0.02372 
 C                     3.41851  -1.5725    1.18135 
 C                     2.27041  -2.41074   1.82326 
 C                    -0.18012  -0.87813   0.94945 
 C                     0.02808   0.08965   1.98715 
 C                     0.91662   0.20044   3.18288 
 N                    -0.81212   1.08588   1.84923 
 N                    -1.59351   0.86547   0.78287 
 C                    -2.54134   1.82327   0.40255 
 C                    -3.33198   1.65506  -0.72722 
 C                    -4.23564   2.64135  -1.07781 
 C                    -4.36976   3.79963  -0.32458 
 C                    -5.33454   4.87665  -0.71647 
 C                    -3.57298   3.94937   0.806 
 C                    -2.66739   2.97646   1.17268 
 C                    -1.26514  -0.31571   0.20865 
 N                    -1.85331  -0.84273  -0.86342 
 H                    -2.21449  -4.57421  -1.35819 
 H                    -3.27554  -4.39684  -2.76335 
 H                    -3.63496  -3.52746  -1.26701 
 H                    -2.61413  -1.98109  -2.93187 
 H                    -1.20369  -3.0614   -3.06036 
 H                     1.29786  -4.91751   0.54052 
 H                     1.28856  -3.92749  -0.92952 
 H                     3.68682  -4.40945   0.92596 
 H                     3.42188  -5.10333  -0.66121 
 H                     5.02506  -3.10192  -0.55754 
 H                     3.75411  -3.04396  -1.79927 
 H                     0.6676    0.10739  -1.8957 
 H                    -0.34      2.30181  -1.36088 
 H                     3.1269    3.30598   0.92965 
 H                     4.14757   1.14655   0.35035 
 H                     4.38239  -1.8736    1.60405 
 H                     3.25542  -0.52114   1.40527 
 H                     2.6701   -3.2872    2.33741 
 H                     1.74224  -1.81565   2.55809 
 H                     1.9707    0.267     2.91841 
 H                     0.63893   1.12601   3.68293 
 H                     0.76313  -0.62044   3.88321 
 H                    -3.23142   0.75884  -1.31671 
 H                    -4.8458    2.5048   -1.9592 
 H                    -4.79189   5.754    -1.06811 
 H                    -5.93781   5.17988   0.13765 
 H                    -5.99521   4.53927  -1.51102 
 H                    -3.6617    4.84414   1.40451 
 H                    -2.04475   3.09378   2.04482 
 
 ITRead=  0  0  0  0  0  0  0  0  0  0  0  0  0  0  0  0  0  0  0  0
 ITRead=  0  0  0  0  0  0  0  0  0  0  0  0  0  0  0  0  0  0  0  0
 ITRead=  0  0  0  0  0  0  0  0  0  0  0  0  0  0  0  0  0  0  0  0
 ITRead=  0  0  0  0  0  0  0
 MicOpt= -1 -1 -1 -1 -1 -1 -1 -1 -1 -1 -1 -1 -1 -1 -1 -1 -1 -1 -1 -1
 MicOpt= -1 -1 -1 -1 -1 -1 -1 -1 -1 -1 -1 -1 -1 -1 -1 -1 -1 -1 -1 -1
 MicOpt= -1 -1 -1 -1 -1 -1 -1 -1 -1 -1 -1 -1 -1 -1 -1 -1 -1 -1 -1 -1
 MicOpt= -1 -1 -1 -1 -1 -1 -1
 NAtoms=     67 NQM=       67 NQMF=       0 NMMI=      0 NMMIF=      0
                NMic=       0 NMicF=      0.
                    Isotopes and Nuclear Properties:
 (Nuclear quadrupole moments (NQMom) in fm**2, nuclear magnetic moments (NMagM)
  in nuclear magnetons)

  Atom         1           2           3           4           5           6           7           8           9          10
 IAtWgt=          12          12          12          14          12          14          12          12          12          14
 AtmWgt=  12.0000000  12.0000000  12.0000000  14.0030740  12.0000000  14.0030740  12.0000000  12.0000000  12.0000000  14.0030740
 NucSpn=           0           0           0           2           0           2           0           0           0           2
 AtZEff=  -0.0000000  -0.0000000  -0.0000000  -0.0000000  -0.0000000  -0.0000000  -0.0000000  -0.0000000  -0.0000000  -0.0000000
 NQMom=    0.0000000   0.0000000   0.0000000   2.0440000   0.0000000   2.0440000   0.0000000   0.0000000   0.0000000   2.0440000
 NMagM=    0.0000000   0.0000000   0.0000000   0.4037610   0.0000000   0.4037610   0.0000000   0.0000000   0.0000000   0.4037610
 AtZNuc=   6.0000000   6.0000000   6.0000000   7.0000000   6.0000000   7.0000000   6.0000000   6.0000000   6.0000000   7.0000000

  Atom        11          12          13          14          15          16          17          18          19          20
 IAtWgt=          12          16          12          12          12          12          12          19          19          19
 AtmWgt=  12.0000000  15.9949146  12.0000000  12.0000000  12.0000000  12.0000000  12.0000000  18.9984032  18.9984032  18.9984032
 NucSpn=           0           0           0           0           0           0           0           1           1           1
 AtZEff=  -0.0000000  -0.0000000  -0.0000000  -0.0000000  -0.0000000  -0.0000000  -0.0000000  -0.0000000  -0.0000000  -0.0000000
 NQMom=    0.0000000   0.0000000   0.0000000   0.0000000   0.0000000   0.0000000   0.0000000   0.0000000   0.0000000   0.0000000
 NMagM=    0.0000000   0.0000000   0.0000000   0.0000000   0.0000000   0.0000000   0.0000000   2.6288670   2.6288670   2.6288670
 AtZNuc=   6.0000000   8.0000000   6.0000000   6.0000000   6.0000000   6.0000000   6.0000000   9.0000000   9.0000000   9.0000000

  Atom        21          22          23          24          25          26          27          28          29          30
 IAtWgt=          12          12          12          12          12          12          12          14          14          12
 AtmWgt=  12.0000000  12.0000000  12.0000000  12.0000000  12.0000000  12.0000000  12.0000000  14.0030740  14.0030740  12.0000000
 NucSpn=           0           0           0           0           0           0           0           2           2           0
 AtZEff=  -0.0000000  -0.0000000  -0.0000000  -0.0000000  -0.0000000  -0.0000000  -0.0000000  -0.0000000  -0.0000000  -0.0000000
 NQMom=    0.0000000   0.0000000   0.0000000   0.0000000   0.0000000   0.0000000   0.0000000   2.0440000   2.0440000   0.0000000
 NMagM=    0.0000000   0.0000000   0.0000000   0.0000000   0.0000000   0.0000000   0.0000000   0.4037610   0.4037610   0.0000000
 AtZNuc=   6.0000000   6.0000000   6.0000000   6.0000000   6.0000000   6.0000000   6.0000000   7.0000000   7.0000000   6.0000000

  Atom        31          32          33          34          35          36          37          38          39          40
 IAtWgt=          12          12          12          12          12          12          12          14           1           1
 AtmWgt=  12.0000000  12.0000000  12.0000000  12.0000000  12.0000000  12.0000000  12.0000000  14.0030740   1.0078250   1.0078250
 NucSpn=           0           0           0           0           0           0           0           2           1           1
 AtZEff=  -0.0000000  -0.0000000  -0.0000000  -0.0000000  -0.0000000  -0.0000000  -0.0000000  -0.0000000  -0.0000000  -0.0000000
 NQMom=    0.0000000   0.0000000   0.0000000   0.0000000   0.0000000   0.0000000   0.0000000   2.0440000   0.0000000   0.0000000
 NMagM=    0.0000000   0.0000000   0.0000000   0.0000000   0.0000000   0.0000000   0.0000000   0.4037610   2.7928460   2.7928460
 AtZNuc=   6.0000000   6.0000000   6.0000000   6.0000000   6.0000000   6.0000000   6.0000000   7.0000000   1.0000000   1.0000000

  Atom        41          42          43          44          45          46          47          48          49          50
 IAtWgt=           1           1           1           1           1           1           1           1           1           1
 AtmWgt=   1.0078250   1.0078250   1.0078250   1.0078250   1.0078250   1.0078250   1.0078250   1.0078250   1.0078250   1.0078250
 NucSpn=           1           1           1           1           1           1           1           1           1           1
 AtZEff=  -0.0000000  -0.0000000  -0.0000000  -0.0000000  -0.0000000  -0.0000000  -0.0000000  -0.0000000  -0.0000000  -0.0000000
 NQMom=    0.0000000   0.0000000   0.0000000   0.0000000   0.0000000   0.0000000   0.0000000   0.0000000   0.0000000   0.0000000
 NMagM=    2.7928460   2.7928460   2.7928460   2.7928460   2.7928460   2.7928460   2.7928460   2.7928460   2.7928460   2.7928460
 AtZNuc=   1.0000000   1.0000000   1.0000000   1.0000000   1.0000000   1.0000000   1.0000000   1.0000000   1.0000000   1.0000000

  Atom        51          52          53          54          55          56          57          58          59          60
 IAtWgt=           1           1           1           1           1           1           1           1           1           1
 AtmWgt=   1.0078250   1.0078250   1.0078250   1.0078250   1.0078250   1.0078250   1.0078250   1.0078250   1.0078250   1.0078250
 NucSpn=           1           1           1           1           1           1           1           1           1           1
 AtZEff=  -0.0000000  -0.0000000  -0.0000000  -0.0000000  -0.0000000  -0.0000000  -0.0000000  -0.0000000  -0.0000000  -0.0000000
 NQMom=    0.0000000   0.0000000   0.0000000   0.0000000   0.0000000   0.0000000   0.0000000   0.0000000   0.0000000   0.0000000
 NMagM=    2.7928460   2.7928460   2.7928460   2.7928460   2.7928460   2.7928460   2.7928460   2.7928460   2.7928460   2.7928460
 AtZNuc=   1.0000000   1.0000000   1.0000000   1.0000000   1.0000000   1.0000000   1.0000000   1.0000000   1.0000000   1.0000000

  Atom        61          62          63          64          65          66          67
 IAtWgt=           1           1           1           1           1           1           1
 AtmWgt=   1.0078250   1.0078250   1.0078250   1.0078250   1.0078250   1.0078250   1.0078250
 NucSpn=           1           1           1           1           1           1           1
 AtZEff=  -0.0000000  -0.0000000  -0.0000000  -0.0000000  -0.0000000  -0.0000000  -0.0000000
 NQMom=    0.0000000   0.0000000   0.0000000   0.0000000   0.0000000   0.0000000   0.0000000
 NMagM=    2.7928460   2.7928460   2.7928460   2.7928460   2.7928460   2.7928460   2.7928460
 AtZNuc=   1.0000000   1.0000000   1.0000000   1.0000000   1.0000000   1.0000000   1.0000000
 Leave Link  101 at Fri Nov  4 20:48:56 2022, MaxMem=   805306368 cpu:               1.8 elap:               0.3
 (Enter /home/wykgroup/appl/g16/l103.exe)

 GradGradGradGradGradGradGradGradGradGradGradGradGradGradGradGradGradGrad
 Berny optimization.
 Initialization pass.
                           ----------------------------
                           !    Initial Parameters    !
                           ! (Angstroms and Degrees)  !
 --------------------------                            --------------------------
 ! Name  Definition              Value          Derivative Info.                !
 --------------------------------------------------------------------------------
 ! R1    R(1,2)                  1.5284         estimate D2E/DX2                !
 ! R2    R(1,39)                 1.0873         estimate D2E/DX2                !
 ! R3    R(1,40)                 1.0873         estimate D2E/DX2                !
 ! R4    R(1,41)                 1.0877         estimate D2E/DX2                !
 ! R5    R(2,3)                  1.4972         estimate D2E/DX2                !
 ! R6    R(2,42)                 1.0898         estimate D2E/DX2                !
 ! R7    R(2,43)                 1.091          estimate D2E/DX2                !
 ! R8    R(3,4)                  1.3241         estimate D2E/DX2                !
 ! R9    R(3,38)                 1.3167         estimate D2E/DX2                !
 ! R10   R(4,5)                  1.3335         estimate D2E/DX2                !
 ! R11   R(5,6)                  1.3556         estimate D2E/DX2                !
 ! R12   R(5,25)                 1.4275         estimate D2E/DX2                !
 ! R13   R(6,7)                  1.4571         estimate D2E/DX2                !
 ! R14   R(6,24)                 1.4308         estimate D2E/DX2                !
 ! R15   R(7,8)                  1.5279         estimate D2E/DX2                !
 ! R16   R(7,44)                 1.0973         estimate D2E/DX2                !
 ! R17   R(7,45)                 1.0915         estimate D2E/DX2                !
 ! R18   R(8,9)                  1.5306         estimate D2E/DX2                !
 ! R19   R(8,46)                 1.091          estimate D2E/DX2                !
 ! R20   R(8,47)                 1.091          estimate D2E/DX2                !
 ! R21   R(9,10)                 1.4525         estimate D2E/DX2                !
 ! R22   R(9,48)                 1.0965         estimate D2E/DX2                !
 ! R23   R(9,49)                 1.0921         estimate D2E/DX2                !
 ! R24   R(10,11)                1.3586         estimate D2E/DX2                !
 ! R25   R(10,23)                1.4413         estimate D2E/DX2                !
 ! R26   R(11,12)                1.2182         estimate D2E/DX2                !
 ! R27   R(11,13)                1.4992         estimate D2E/DX2                !
 ! R28   R(13,14)                1.392          estimate D2E/DX2                !
 ! R29   R(13,22)                1.3917         estimate D2E/DX2                !
 ! R30   R(14,15)                1.3822         estimate D2E/DX2                !
 ! R31   R(14,50)                1.0794         estimate D2E/DX2                !
 ! R32   R(15,16)                1.3869         estimate D2E/DX2                !
 ! R33   R(15,51)                1.0792         estimate D2E/DX2                !
 ! R34   R(16,17)                1.5016         estimate D2E/DX2                !
 ! R35   R(16,21)                1.3894         estimate D2E/DX2                !
 ! R36   R(17,18)                1.3455         estimate D2E/DX2                !
 ! R37   R(17,19)                1.3377         estimate D2E/DX2                !
 ! R38   R(17,20)                1.3489         estimate D2E/DX2                !
 ! R39   R(21,22)                1.3828         estimate D2E/DX2                !
 ! R40   R(21,52)                1.0795         estimate D2E/DX2                !
 ! R41   R(22,53)                1.0804         estimate D2E/DX2                !
 ! R42   R(23,24)                1.5598         estimate D2E/DX2                !
 ! R43   R(23,54)                1.0947         estimate D2E/DX2                !
 ! R44   R(23,55)                1.0872         estimate D2E/DX2                !
 ! R45   R(24,56)                1.0919         estimate D2E/DX2                !
 ! R46   R(24,57)                1.0831         estimate D2E/DX2                !
 ! R47   R(25,26)                1.4341         estimate D2E/DX2                !
 ! R48   R(25,37)                1.4291         estimate D2E/DX2                !
 ! R49   R(26,27)                1.4938         estimate D2E/DX2                !
 ! R50   R(26,28)                1.3105         estimate D2E/DX2                !
 ! R51   R(27,58)                1.0888         estimate D2E/DX2                !
 ! R52   R(27,59)                1.088          estimate D2E/DX2                !
 ! R53   R(27,60)                1.0899         estimate D2E/DX2                !
 ! R54   R(28,29)                1.3403         estimate D2E/DX2                !
 ! R55   R(29,30)                1.4001         estimate D2E/DX2                !
 ! R56   R(29,37)                1.3538         estimate D2E/DX2                !
 ! R57   R(30,31)                1.3892         estimate D2E/DX2                !
 ! R58   R(30,36)                1.3924         estimate D2E/DX2                !
 ! R59   R(31,32)                1.3828         estimate D2E/DX2                !
 ! R60   R(31,61)                1.0774         estimate D2E/DX2                !
 ! R61   R(32,33)                1.3881         estimate D2E/DX2                !
 ! R62   R(32,62)                1.0806         estimate D2E/DX2                !
 ! R63   R(33,34)                1.4981         estimate D2E/DX2                !
 ! R64   R(33,35)                1.3912         estimate D2E/DX2                !
 ! R65   R(34,63)                1.0899         estimate D2E/DX2                !
 ! R66   R(34,64)                1.0888         estimate D2E/DX2                !
 ! R67   R(34,65)                1.087          estimate D2E/DX2                !
 ! R68   R(35,36)                1.3788         estimate D2E/DX2                !
 ! R69   R(35,66)                1.0801         estimate D2E/DX2                !
 ! R70   R(36,67)                1.078          estimate D2E/DX2                !
 ! R71   R(37,38)                1.3316         estimate D2E/DX2                !
 ! A1    A(2,1,39)             109.9426         estimate D2E/DX2                !
 ! A2    A(2,1,40)             110.2883         estimate D2E/DX2                !
 ! A3    A(2,1,41)             110.2708         estimate D2E/DX2                !
 ! A4    A(39,1,40)            108.9368         estimate D2E/DX2                !
 ! A5    A(39,1,41)            108.6541         estimate D2E/DX2                !
 ! A6    A(40,1,41)            108.7079         estimate D2E/DX2                !
 ! A7    A(1,2,3)              110.183          estimate D2E/DX2                !
 ! A8    A(1,2,42)             110.2385         estimate D2E/DX2                !
 ! A9    A(1,2,43)             109.4526         estimate D2E/DX2                !
 ! A10   A(3,2,42)             108.637          estimate D2E/DX2                !
 ! A11   A(3,2,43)             108.7687         estimate D2E/DX2                !
 ! A12   A(42,2,43)            109.5348         estimate D2E/DX2                !
 ! A13   A(2,3,4)              116.6896         estimate D2E/DX2                !
 ! A14   A(2,3,38)             117.8188         estimate D2E/DX2                !
 ! A15   A(4,3,38)             125.4912         estimate D2E/DX2                !
 ! A16   A(3,4,5)              121.8997         estimate D2E/DX2                !
 ! A17   A(4,5,6)              113.7874         estimate D2E/DX2                !
 ! A18   A(4,5,25)             118.7093         estimate D2E/DX2                !
 ! A19   A(6,5,25)             127.5007         estimate D2E/DX2                !
 ! A20   A(5,6,7)              119.0207         estimate D2E/DX2                !
 ! A21   A(5,6,24)             123.4597         estimate D2E/DX2                !
 ! A22   A(7,6,24)             116.2182         estimate D2E/DX2                !
 ! A23   A(6,7,8)              113.6799         estimate D2E/DX2                !
 ! A24   A(6,7,44)             108.664          estimate D2E/DX2                !
 ! A25   A(6,7,45)             107.0129         estimate D2E/DX2                !
 ! A26   A(8,7,44)             109.0083         estimate D2E/DX2                !
 ! A27   A(8,7,45)             110.1801         estimate D2E/DX2                !
 ! A28   A(44,7,45)            108.1405         estimate D2E/DX2                !
 ! A29   A(7,8,9)              113.0343         estimate D2E/DX2                !
 ! A30   A(7,8,46)             110.8551         estimate D2E/DX2                !
 ! A31   A(7,8,47)             107.595          estimate D2E/DX2                !
 ! A32   A(9,8,46)             110.1921         estimate D2E/DX2                !
 ! A33   A(9,8,47)             108.0487         estimate D2E/DX2                !
 ! A34   A(46,8,47)            106.8497         estimate D2E/DX2                !
 ! A35   A(8,9,10)             113.2982         estimate D2E/DX2                !
 ! A36   A(8,9,48)             109.5551         estimate D2E/DX2                !
 ! A37   A(8,9,49)             110.1317         estimate D2E/DX2                !
 ! A38   A(10,9,48)            109.0598         estimate D2E/DX2                !
 ! A39   A(10,9,49)            106.0129         estimate D2E/DX2                !
 ! A40   A(48,9,49)            108.6409         estimate D2E/DX2                !
 ! A41   A(9,10,11)            117.2466         estimate D2E/DX2                !
 ! A42   A(9,10,23)            116.1774         estimate D2E/DX2                !
 ! A43   A(11,10,23)           126.0052         estimate D2E/DX2                !
 ! A44   A(10,11,12)           121.7912         estimate D2E/DX2                !
 ! A45   A(10,11,13)           119.5131         estimate D2E/DX2                !
 ! A46   A(12,11,13)           118.6947         estimate D2E/DX2                !
 ! A47   A(11,13,14)           116.3221         estimate D2E/DX2                !
 ! A48   A(11,13,22)           124.0378         estimate D2E/DX2                !
 ! A49   A(14,13,22)           119.2657         estimate D2E/DX2                !
 ! A50   A(13,14,15)           120.8781         estimate D2E/DX2                !
 ! A51   A(13,14,50)           118.926          estimate D2E/DX2                !
 ! A52   A(15,14,50)           120.1908         estimate D2E/DX2                !
 ! A53   A(14,15,16)           119.1732         estimate D2E/DX2                !
 ! A54   A(14,15,51)           120.5252         estimate D2E/DX2                !
 ! A55   A(16,15,51)           120.3013         estimate D2E/DX2                !
 ! A56   A(15,16,17)           120.9948         estimate D2E/DX2                !
 ! A57   A(15,16,21)           120.5654         estimate D2E/DX2                !
 ! A58   A(17,16,21)           118.4318         estimate D2E/DX2                !
 ! A59   A(16,17,18)           112.2807         estimate D2E/DX2                !
 ! A60   A(16,17,19)           113.6436         estimate D2E/DX2                !
 ! A61   A(16,17,20)           111.9404         estimate D2E/DX2                !
 ! A62   A(18,17,19)           106.6267         estimate D2E/DX2                !
 ! A63   A(18,17,20)           105.5286         estimate D2E/DX2                !
 ! A64   A(19,17,20)           106.2574         estimate D2E/DX2                !
 ! A65   A(16,21,22)           119.8342         estimate D2E/DX2                !
 ! A66   A(16,21,52)           119.7645         estimate D2E/DX2                !
 ! A67   A(22,21,52)           120.3963         estimate D2E/DX2                !
 ! A68   A(13,22,21)           120.1272         estimate D2E/DX2                !
 ! A69   A(13,22,53)           120.5686         estimate D2E/DX2                !
 ! A70   A(21,22,53)           119.2754         estimate D2E/DX2                !
 ! A71   A(10,23,24)           111.9139         estimate D2E/DX2                !
 ! A72   A(10,23,54)           108.501          estimate D2E/DX2                !
 ! A73   A(10,23,55)           108.8913         estimate D2E/DX2                !
 ! A74   A(24,23,54)           109.961          estimate D2E/DX2                !
 ! A75   A(24,23,55)           108.936          estimate D2E/DX2                !
 ! A76   A(54,23,55)           108.5738         estimate D2E/DX2                !
 ! A77   A(6,24,23)            110.8666         estimate D2E/DX2                !
 ! A78   A(6,24,56)            108.5166         estimate D2E/DX2                !
 ! A79   A(6,24,57)            109.0159         estimate D2E/DX2                !
 ! A80   A(23,24,56)           110.8378         estimate D2E/DX2                !
 ! A81   A(23,24,57)           110.0529         estimate D2E/DX2                !
 ! A82   A(56,24,57)           107.4618         estimate D2E/DX2                !
 ! A83   A(5,25,26)            144.2359         estimate D2E/DX2                !
 ! A84   A(5,25,37)            113.0415         estimate D2E/DX2                !
 ! A85   A(26,25,37)           102.6928         estimate D2E/DX2                !
 ! A86   A(25,26,27)           135.6904         estimate D2E/DX2                !
 ! A87   A(25,26,28)           110.1061         estimate D2E/DX2                !
 ! A88   A(27,26,28)           114.1546         estimate D2E/DX2                !
 ! A89   A(26,27,58)           112.7024         estimate D2E/DX2                !
 ! A90   A(26,27,59)           106.2099         estimate D2E/DX2                !
 ! A91   A(26,27,60)           112.0066         estimate D2E/DX2                !
 ! A92   A(58,27,59)           107.8618         estimate D2E/DX2                !
 ! A93   A(58,27,60)           109.7834         estimate D2E/DX2                !
 ! A94   A(59,27,60)           108.0256         estimate D2E/DX2                !
 ! A95   A(26,28,29)           109.4207         estimate D2E/DX2                !
 ! A96   A(28,29,30)           119.8873         estimate D2E/DX2                !
 ! A97   A(28,29,37)           109.8497         estimate D2E/DX2                !
 ! A98   A(30,29,37)           130.2283         estimate D2E/DX2                !
 ! A99   A(29,30,31)           121.5579         estimate D2E/DX2                !
 ! A100  A(29,30,36)           118.5281         estimate D2E/DX2                !
 ! A101  A(31,30,36)           119.9055         estimate D2E/DX2                !
 ! A102  A(30,31,32)           119.4551         estimate D2E/DX2                !
 ! A103  A(30,31,61)           119.5097         estimate D2E/DX2                !
 ! A104  A(32,31,61)           121.0352         estimate D2E/DX2                !
 ! A105  A(31,32,33)           121.3789         estimate D2E/DX2                !
 ! A106  A(31,32,62)           119.0536         estimate D2E/DX2                !
 ! A107  A(33,32,62)           119.5672         estimate D2E/DX2                !
 ! A108  A(32,33,34)           121.3423         estimate D2E/DX2                !
 ! A109  A(32,33,35)           118.3878         estimate D2E/DX2                !
 ! A110  A(34,33,35)           120.2666         estimate D2E/DX2                !
 ! A111  A(33,34,63)           110.0281         estimate D2E/DX2                !
 ! A112  A(33,34,64)           110.5999         estimate D2E/DX2                !
 ! A113  A(33,34,65)           111.0681         estimate D2E/DX2                !
 ! A114  A(63,34,64)           107.7459         estimate D2E/DX2                !
 ! A115  A(63,34,65)           108.4587         estimate D2E/DX2                !
 ! A116  A(64,34,65)           108.8499         estimate D2E/DX2                !
 ! A117  A(33,35,36)           121.0858         estimate D2E/DX2                !
 ! A118  A(33,35,66)           119.4998         estimate D2E/DX2                !
 ! A119  A(36,35,66)           119.4139         estimate D2E/DX2                !
 ! A120  A(30,36,35)           119.7858         estimate D2E/DX2                !
 ! A121  A(30,36,67)           119.0332         estimate D2E/DX2                !
 ! A122  A(35,36,67)           121.1792         estimate D2E/DX2                !
 ! A123  A(25,37,29)           107.9178         estimate D2E/DX2                !
 ! A124  A(25,37,38)           126.6516         estimate D2E/DX2                !
 ! A125  A(29,37,38)           125.429          estimate D2E/DX2                !
 ! A126  A(3,38,37)            114.085          estimate D2E/DX2                !
 ! D1    D(39,1,2,3)           -58.3994         estimate D2E/DX2                !
 ! D2    D(39,1,2,42)         -178.2943         estimate D2E/DX2                !
 ! D3    D(39,1,2,43)           61.1634         estimate D2E/DX2                !
 ! D4    D(40,1,2,3)          -178.5448         estimate D2E/DX2                !
 ! D5    D(40,1,2,42)           61.5604         estimate D2E/DX2                !
 ! D6    D(40,1,2,43)          -58.9819         estimate D2E/DX2                !
 ! D7    D(41,1,2,3)            61.3844         estimate D2E/DX2                !
 ! D8    D(41,1,2,42)          -58.5104         estimate D2E/DX2                !
 ! D9    D(41,1,2,43)         -179.0527         estimate D2E/DX2                !
 ! D10   D(1,2,3,4)             74.1593         estimate D2E/DX2                !
 ! D11   D(1,2,3,38)          -105.6367         estimate D2E/DX2                !
 ! D12   D(42,2,3,4)          -164.9816         estimate D2E/DX2                !
 ! D13   D(42,2,3,38)           15.2225         estimate D2E/DX2                !
 ! D14   D(43,2,3,4)           -45.8179         estimate D2E/DX2                !
 ! D15   D(43,2,3,38)          134.3862         estimate D2E/DX2                !
 ! D16   D(2,3,4,5)           -179.5425         estimate D2E/DX2                !
 ! D17   D(38,3,4,5)             0.2358         estimate D2E/DX2                !
 ! D18   D(2,3,38,37)          177.762          estimate D2E/DX2                !
 ! D19   D(4,3,38,37)           -2.0141         estimate D2E/DX2                !
 ! D20   D(3,4,5,6)           -177.6151         estimate D2E/DX2                !
 ! D21   D(3,4,5,25)             2.931          estimate D2E/DX2                !
 ! D22   D(4,5,6,7)              5.1834         estimate D2E/DX2                !
 ! D23   D(4,5,6,24)           171.6483         estimate D2E/DX2                !
 ! D24   D(25,5,6,7)          -175.4203         estimate D2E/DX2                !
 ! D25   D(25,5,6,24)           -8.9554         estimate D2E/DX2                !
 ! D26   D(4,5,25,26)          178.6603         estimate D2E/DX2                !
 ! D27   D(4,5,25,37)           -3.8308         estimate D2E/DX2                !
 ! D28   D(6,5,25,26)           -0.7098         estimate D2E/DX2                !
 ! D29   D(6,5,25,37)          176.7991         estimate D2E/DX2                !
 ! D30   D(5,6,7,8)            139.9755         estimate D2E/DX2                !
 ! D31   D(5,6,7,44)           -98.4556         estimate D2E/DX2                !
 ! D32   D(5,6,7,45)            18.0973         estimate D2E/DX2                !
 ! D33   D(24,6,7,8)           -27.4538         estimate D2E/DX2                !
 ! D34   D(24,6,7,44)           94.1152         estimate D2E/DX2                !
 ! D35   D(24,6,7,45)         -149.3319         estimate D2E/DX2                !
 ! D36   D(5,6,24,23)          -86.0811         estimate D2E/DX2                !
 ! D37   D(5,6,24,56)          151.9712         estimate D2E/DX2                !
 ! D38   D(5,6,24,57)           35.2183         estimate D2E/DX2                !
 ! D39   D(7,6,24,23)           80.7322         estimate D2E/DX2                !
 ! D40   D(7,6,24,56)          -41.2155         estimate D2E/DX2                !
 ! D41   D(7,6,24,57)         -157.9684         estimate D2E/DX2                !
 ! D42   D(6,7,8,9)            -59.2742         estimate D2E/DX2                !
 ! D43   D(6,7,8,46)            65.0135         estimate D2E/DX2                !
 ! D44   D(6,7,8,47)          -178.4851         estimate D2E/DX2                !
 ! D45   D(44,7,8,9)           179.3487         estimate D2E/DX2                !
 ! D46   D(44,7,8,46)          -56.3636         estimate D2E/DX2                !
 ! D47   D(44,7,8,47)           60.1378         estimate D2E/DX2                !
 ! D48   D(45,7,8,9)            60.8294         estimate D2E/DX2                !
 ! D49   D(45,7,8,46)         -174.8829         estimate D2E/DX2                !
 ! D50   D(45,7,8,47)          -58.3815         estimate D2E/DX2                !
 ! D51   D(7,8,9,10)            44.0401         estimate D2E/DX2                !
 ! D52   D(7,8,9,48)           166.0638         estimate D2E/DX2                !
 ! D53   D(7,8,9,49)           -74.4982         estimate D2E/DX2                !
 ! D54   D(46,8,9,10)          -80.6092         estimate D2E/DX2                !
 ! D55   D(46,8,9,48)           41.4145         estimate D2E/DX2                !
 ! D56   D(46,8,9,49)          160.8525         estimate D2E/DX2                !
 ! D57   D(47,8,9,10)          162.9887         estimate D2E/DX2                !
 ! D58   D(47,8,9,48)          -74.9876         estimate D2E/DX2                !
 ! D59   D(47,8,9,49)           44.4504         estimate D2E/DX2                !
 ! D60   D(8,9,10,11)         -122.4612         estimate D2E/DX2                !
 ! D61   D(8,9,10,23)           49.4031         estimate D2E/DX2                !
 ! D62   D(48,9,10,11)         115.2392         estimate D2E/DX2                !
 ! D63   D(48,9,10,23)         -72.8965         estimate D2E/DX2                !
 ! D64   D(49,9,10,11)          -1.5674         estimate D2E/DX2                !
 ! D65   D(49,9,10,23)         170.2969         estimate D2E/DX2                !
 ! D66   D(9,10,11,12)          -2.5806         estimate D2E/DX2                !
 ! D67   D(9,10,11,13)         177.7969         estimate D2E/DX2                !
 ! D68   D(23,10,11,12)       -173.5481         estimate D2E/DX2                !
 ! D69   D(23,10,11,13)          6.8294         estimate D2E/DX2                !
 ! D70   D(9,10,23,24)         -71.1485         estimate D2E/DX2                !
 ! D71   D(9,10,23,54)          50.3604         estimate D2E/DX2                !
 ! D72   D(9,10,23,55)         168.3632         estimate D2E/DX2                !
 ! D73   D(11,10,23,24)         99.9041         estimate D2E/DX2                !
 ! D74   D(11,10,23,54)       -138.587          estimate D2E/DX2                !
 ! D75   D(11,10,23,55)        -20.5842         estimate D2E/DX2                !
 ! D76   D(10,11,13,14)       -132.4216         estimate D2E/DX2                !
 ! D77   D(10,11,13,22)         54.6751         estimate D2E/DX2                !
 ! D78   D(12,11,13,14)         47.9441         estimate D2E/DX2                !
 ! D79   D(12,11,13,22)       -124.9591         estimate D2E/DX2                !
 ! D80   D(11,13,14,15)       -176.826          estimate D2E/DX2                !
 ! D81   D(11,13,14,50)          2.3489         estimate D2E/DX2                !
 ! D82   D(22,13,14,15)         -3.5656         estimate D2E/DX2                !
 ! D83   D(22,13,14,50)        175.6093         estimate D2E/DX2                !
 ! D84   D(11,13,22,21)        176.9239         estimate D2E/DX2                !
 ! D85   D(11,13,22,53)         -1.1138         estimate D2E/DX2                !
 ! D86   D(14,13,22,21)          4.2166         estimate D2E/DX2                !
 ! D87   D(14,13,22,53)       -173.8211         estimate D2E/DX2                !
 ! D88   D(13,14,15,16)          0.2195         estimate D2E/DX2                !
 ! D89   D(13,14,15,51)       -179.9915         estimate D2E/DX2                !
 ! D90   D(50,14,15,16)       -178.945          estimate D2E/DX2                !
 ! D91   D(50,14,15,51)          0.8441         estimate D2E/DX2                !
 ! D92   D(14,15,16,17)       -178.5356         estimate D2E/DX2                !
 ! D93   D(14,15,16,21)          2.5114         estimate D2E/DX2                !
 ! D94   D(51,15,16,17)          1.6749         estimate D2E/DX2                !
 ! D95   D(51,15,16,21)       -177.2781         estimate D2E/DX2                !
 ! D96   D(15,16,17,18)        112.1159         estimate D2E/DX2                !
 ! D97   D(15,16,17,19)         -9.0112         estimate D2E/DX2                !
 ! D98   D(15,16,17,20)       -129.3971         estimate D2E/DX2                !
 ! D99   D(21,16,17,18)        -68.9092         estimate D2E/DX2                !
 ! D100  D(21,16,17,19)        169.9637         estimate D2E/DX2                !
 ! D101  D(21,16,17,20)         49.5778         estimate D2E/DX2                !
 ! D102  D(15,16,21,22)         -1.8546         estimate D2E/DX2                !
 ! D103  D(15,16,21,52)        177.3409         estimate D2E/DX2                !
 ! D104  D(17,16,21,22)        179.166          estimate D2E/DX2                !
 ! D105  D(17,16,21,52)         -1.6386         estimate D2E/DX2                !
 ! D106  D(16,21,22,13)         -1.5481         estimate D2E/DX2                !
 ! D107  D(16,21,22,53)        176.5149         estimate D2E/DX2                !
 ! D108  D(52,21,22,13)        179.2616         estimate D2E/DX2                !
 ! D109  D(52,21,22,53)         -2.6754         estimate D2E/DX2                !
 ! D110  D(10,23,24,6)         -15.4586         estimate D2E/DX2                !
 ! D111  D(10,23,24,56)        105.1219         estimate D2E/DX2                !
 ! D112  D(10,23,24,57)       -136.1455         estimate D2E/DX2                !
 ! D113  D(54,23,24,6)        -136.1226         estimate D2E/DX2                !
 ! D114  D(54,23,24,56)        -15.5422         estimate D2E/DX2                !
 ! D115  D(54,23,24,57)        103.1904         estimate D2E/DX2                !
 ! D116  D(55,23,24,6)         105.0037         estimate D2E/DX2                !
 ! D117  D(55,23,24,56)       -134.4159         estimate D2E/DX2                !
 ! D118  D(55,23,24,57)        -15.6833         estimate D2E/DX2                !
 ! D119  D(5,25,26,27)          -5.9866         estimate D2E/DX2                !
 ! D120  D(5,25,26,28)         176.8053         estimate D2E/DX2                !
 ! D121  D(37,25,26,27)        176.3632         estimate D2E/DX2                !
 ! D122  D(37,25,26,28)         -0.8449         estimate D2E/DX2                !
 ! D123  D(5,25,37,29)        -177.3847         estimate D2E/DX2                !
 ! D124  D(5,25,37,38)           2.1833         estimate D2E/DX2                !
 ! D125  D(26,25,37,29)          1.1232         estimate D2E/DX2                !
 ! D126  D(26,25,37,38)       -179.3088         estimate D2E/DX2                !
 ! D127  D(25,26,27,58)         65.2161         estimate D2E/DX2                !
 ! D128  D(25,26,27,59)       -176.8877         estimate D2E/DX2                !
 ! D129  D(25,26,27,60)        -59.1728         estimate D2E/DX2                !
 ! D130  D(28,26,27,58)       -117.6573         estimate D2E/DX2                !
 ! D131  D(28,26,27,59)          0.2389         estimate D2E/DX2                !
 ! D132  D(28,26,27,60)        117.9538         estimate D2E/DX2                !
 ! D133  D(25,26,28,29)          0.2483         estimate D2E/DX2                !
 ! D134  D(27,26,28,29)       -177.6147         estimate D2E/DX2                !
 ! D135  D(26,28,29,30)       -177.5579         estimate D2E/DX2                !
 ! D136  D(26,28,29,37)          0.5115         estimate D2E/DX2                !
 ! D137  D(28,29,30,31)        177.3891         estimate D2E/DX2                !
 ! D138  D(28,29,30,36)         -1.5462         estimate D2E/DX2                !
 ! D139  D(37,29,30,31)         -0.2323         estimate D2E/DX2                !
 ! D140  D(37,29,30,36)       -179.1676         estimate D2E/DX2                !
 ! D141  D(28,29,37,25)         -1.0543         estimate D2E/DX2                !
 ! D142  D(28,29,37,38)        179.3711         estimate D2E/DX2                !
 ! D143  D(30,29,37,25)        176.7533         estimate D2E/DX2                !
 ! D144  D(30,29,37,38)         -2.8213         estimate D2E/DX2                !
 ! D145  D(29,30,31,32)       -178.699          estimate D2E/DX2                !
 ! D146  D(29,30,31,61)          1.2748         estimate D2E/DX2                !
 ! D147  D(36,30,31,32)          0.2219         estimate D2E/DX2                !
 ! D148  D(36,30,31,61)       -179.8044         estimate D2E/DX2                !
 ! D149  D(29,30,36,35)        178.6531         estimate D2E/DX2                !
 ! D150  D(29,30,36,67)         -0.8645         estimate D2E/DX2                !
 ! D151  D(31,30,36,35)         -0.3003         estimate D2E/DX2                !
 ! D152  D(31,30,36,67)       -179.8179         estimate D2E/DX2                !
 ! D153  D(30,31,32,33)          0.0648         estimate D2E/DX2                !
 ! D154  D(30,31,32,62)        179.8605         estimate D2E/DX2                !
 ! D155  D(61,31,32,33)       -179.9085         estimate D2E/DX2                !
 ! D156  D(61,31,32,62)         -0.1128         estimate D2E/DX2                !
 ! D157  D(31,32,33,34)        179.0827         estimate D2E/DX2                !
 ! D158  D(31,32,33,35)         -0.2674         estimate D2E/DX2                !
 ! D159  D(62,32,33,34)         -0.7119         estimate D2E/DX2                !
 ! D160  D(62,32,33,35)        179.9379         estimate D2E/DX2                !
 ! D161  D(32,33,34,63)       -109.6906         estimate D2E/DX2                !
 ! D162  D(32,33,34,64)        131.3893         estimate D2E/DX2                !
 ! D163  D(32,33,34,65)         10.4131         estimate D2E/DX2                !
 ! D164  D(35,33,34,63)         69.6475         estimate D2E/DX2                !
 ! D165  D(35,33,34,64)        -49.2726         estimate D2E/DX2                !
 ! D166  D(35,33,34,65)       -170.2488         estimate D2E/DX2                !
 ! D167  D(32,33,35,36)          0.1872         estimate D2E/DX2                !
 ! D168  D(32,33,35,66)        179.9238         estimate D2E/DX2                !
 ! D169  D(34,33,35,36)       -179.1702         estimate D2E/DX2                !
 ! D170  D(34,33,35,66)          0.5664         estimate D2E/DX2                !
 ! D171  D(33,35,36,30)          0.0935         estimate D2E/DX2                !
 ! D172  D(33,35,36,67)        179.6005         estimate D2E/DX2                !
 ! D173  D(66,35,36,30)       -179.6433         estimate D2E/DX2                !
 ! D174  D(66,35,36,67)         -0.1363         estimate D2E/DX2                !
 ! D175  D(25,37,38,3)           0.6374         estimate D2E/DX2                !
 ! D176  D(29,37,38,3)        -179.8671         estimate D2E/DX2                !
 --------------------------------------------------------------------------------
 Trust Radius=3.00D-01 FncErr=1.00D-07 GrdErr=1.00D-06 EigMax=2.50D+02 EigMin=1.00D-04
 Number of steps in this run=    383 maximum allowed number of steps=    402.
 GradGradGradGradGradGradGradGradGradGradGradGradGradGradGradGradGradGrad

 Leave Link  103 at Fri Nov  4 20:48:56 2022, MaxMem=   805306368 cpu:               0.3 elap:               0.1
 (Enter /home/wykgroup/appl/g16/l202.exe)
 Stoichiometry    C28H29F3N6O
 Framework group  C1[X(C28H29F3N6O)]
 Deg. of freedom   195
 Full point group                 C1      NOp   1
 Largest Abelian subgroup         C1      NOp   1
 Largest concise Abelian subgroup C1      NOp   1
                         Standard orientation:                         
 ---------------------------------------------------------------------
 Center     Atomic      Atomic             Coordinates (Angstroms)
 Number     Number       Type             X           Y           Z
 ---------------------------------------------------------------------
      1          6           0       -1.811945    5.172971   -0.630280
      2          6           0       -1.363077    3.958803   -1.442835
      3          6           0       -1.143200    2.785272   -0.539447
      4          7           0       -2.225934    2.189869   -0.063742
      5          6           0       -2.150594    1.141268    0.756659
      6          7           0       -3.357401    0.629644    1.102294
      7          6           0       -4.558989    1.171481    0.481263
      8          6           0       -5.597713    0.109294    0.124538
      9          6           0       -5.064836   -0.947243   -0.846282
     10          7           0       -3.732438   -1.417276   -0.509165
     11          6           0       -2.766701   -1.280190   -1.454903
     12          8           0       -3.009711   -0.827339   -2.559349
     13          6           0       -1.362471   -1.702592   -1.143146
     14          6           0       -0.357778   -0.798183   -1.475094
     15          6           0        0.974107   -1.117728   -1.289207
     16          6           0        1.305036   -2.359918   -0.768725
     17          6           0        2.736863   -2.737360   -0.519501
     18          9           0        3.012185   -2.856345    0.792170
     19          9           0        3.617003   -1.861636   -1.017454
     20          9           0        3.044883   -3.932857   -1.063049
     21          6           0        0.315916   -3.293687   -0.485755
     22          6           0       -1.013281   -2.970560   -0.687999
     23          6           0       -3.526557   -1.816286    0.860420
     24          6           0       -3.517316   -0.592979    1.828030
     25          6           0       -0.863063    0.691833    1.178583
     26          6           0       -0.174289   -0.269299    1.990114
     27          6           0       -0.574210   -1.323653    2.969888
     28          7           0        1.121342   -0.133084    1.847920
     29          7           0        1.373004    0.866965    0.991859
     30          6           0        2.694328    1.168648    0.640422
     31          6           0        2.992089    2.161995   -0.283919
     32          6           0        4.311389    2.405522   -0.619185
     33          6           0        5.347686    1.676545   -0.052059
     34          6           0        6.775247    1.927283   -0.430959
     35          6           0        5.031391    0.688552    0.874935
     36          6           0        3.722205    0.432063    1.223288
     37          6           0        0.208997    1.411966    0.566655
     38          7           0        0.098944    2.433409   -0.280440
     39          1           0       -2.725928    4.939965   -0.089474
     40          1           0       -1.996856    6.019126   -1.287638
     41          1           0       -1.043821    5.450574    0.088047
     42          1           0       -0.430814    4.177180   -1.963247
     43          1           0       -2.135196    3.702439   -2.169675
     44          1           0       -5.011945    1.898028    1.167636
     45          1           0       -4.241733    1.704450   -0.416825
     46          1           0       -5.988989   -0.368804    1.023819
     47          1           0       -6.436612    0.616197   -0.354656
     48          1           0       -5.750722   -1.802451   -0.870699
     49          1           0       -4.991356   -0.529866   -1.852773
     50          1           0       -0.633271    0.157294   -1.894882
     51          1           0        1.748429   -0.412131   -1.548421
     52          1           0        0.590896   -4.271964   -0.121506
     53          1           0       -1.771235   -3.721787   -0.519160
     54          1           0       -4.324054   -2.510713    1.143557
     55          1           0       -2.573427   -2.333788    0.936830
     56          1           0       -4.448411   -0.539896    2.395930
     57          1           0       -2.707158   -0.689062    2.540413
     58          1           0       -1.144105   -2.129692    2.510564
     59          1           0        0.351115   -1.746759    3.355370
     60          1           0       -1.131682   -0.910025    3.810128
     61          1           0        2.191963    2.730200   -0.728624
     62          1           0        4.535485    3.178220   -1.340656
     63          1           0        7.159538    1.089856   -1.013095
     64          1           0        7.395900    2.025946    0.458121
     65          1           0        6.868381    2.831909   -1.026451
     66          1           0        5.823636    0.109621    1.326465
     67          1           0        3.474992   -0.337422    1.936629
 ---------------------------------------------------------------------
 Rotational constants (GHZ):           0.1621945           0.0864617           0.0675615
 Leave Link  202 at Fri Nov  4 20:48:57 2022, MaxMem=   805306368 cpu:               0.5 elap:               0.1
 (Enter /home/wykgroup/appl/g16/l301.exe)
 Standard basis: 6-31G(d) (6D, 7F)
 Ernie: Thresh=  0.10000D-02 Tol=  0.10000D-05 Strict=F.
 There are   628 symmetry adapted cartesian basis functions of A   symmetry.
 There are   628 symmetry adapted basis functions of A   symmetry.
   628 basis functions,  1180 primitive gaussians,   628 cartesian basis functions
   137 alpha electrons      137 beta electrons
       nuclear repulsion energy      4657.5378774728 Hartrees.
 IExCor=  402 DFT=T Ex+Corr=B3LYP ExCW=0 ScaHFX=  0.200000
 ScaDFX=  0.800000  0.720000  1.000000  0.810000 ScalE2=  1.000000  1.000000
 IRadAn=      5 IRanWt=     -1 IRanGd=            0 ICorTp=0 IEmpDi=  4
 NAtoms=   67 NActive=   67 NUniq=   67 SFac= 1.00D+00 NAtFMM=   60 NAOKFM=T Big=T
 Integral buffers will be    131072 words long.
 Raffenetti 2 integral format.
 Two-electron integral symmetry is turned on.
 Leave Link  301 at Fri Nov  4 20:48:57 2022, MaxMem=   805306368 cpu:               0.6 elap:               0.1
 (Enter /home/wykgroup/appl/g16/l302.exe)
 NPDir=0 NMtPBC=     1 NCelOv=     1 NCel=       1 NClECP=     1 NCelD=      1
         NCelK=      1 NCelE2=     1 NClLst=     1 CellRange=     0.0.
 One-electron integrals computed using PRISM.
 One-electron integral symmetry used in STVInt
 NBasis=   628 RedAO= T EigKep=  3.65D-04  NBF=   628
 NBsUse=   628 1.00D-06 EigRej= -1.00D+00 NBFU=   628
 Precomputing XC quadrature grid using
 IXCGrd= 4 IRadAn=           5 IRanWt=          -1 IRanGd=           0 AccXCQ= 0.00D+00.
 Generated NRdTot=       0 NPtTot=           0 NUsed=           0 NTot=          32
 NSgBfM=   618   617   617   617   618 MxSgAt=    67 MxSgA2=    67.
 Leave Link  302 at Fri Nov  4 20:48:59 2022, MaxMem=   805306368 cpu:              11.2 elap:               1.8
 (Enter /home/wykgroup/appl/g16/l303.exe)
 DipDrv:  MaxL=1.
 Leave Link  303 at Fri Nov  4 20:48:59 2022, MaxMem=   805306368 cpu:               1.2 elap:               0.2
 (Enter /home/wykgroup/appl/g16/l401.exe)
 ExpMin= 1.61D-01 ExpMax= 7.00D+03 ExpMxC= 1.05D+03 IAcc=3 IRadAn=         5 AccDes= 0.00D+00
 Harris functional with IExCor=  402 and IRadAn=       5 diagonalized for initial guess.
 HarFok:  IExCor=  402 AccDes= 0.00D+00 IRadAn=         5 IDoV= 1 UseB2=F ITyADJ=14
 ICtDFT=  3500011 ScaDFX=  1.000000  1.000000  1.000000  1.000000
 FoFCou: FMM=F IPFlag=           0 FMFlag=      100000 FMFlg1=        2001
         NFxFlg=           0 DoJE=T BraDBF=F KetDBF=T FulRan=T
         wScrn=  0.000000 ICntrl=       500 IOpCl=  0 I1Cent=   200000004 NGrid=           0
         NMat0=    1 NMatS0=      1 NMatT0=    0 NMatD0=    1 NMtDS0=    0 NMtDT0=    0
 Petite list used in FoFCou.
 Harris En= -1787.65284201062    
 JPrj=0 DoOrth=F DoCkMO=F.
 Leave Link  401 at Fri Nov  4 20:49:06 2022, MaxMem=   805306368 cpu:              46.1 elap:               6.8
 (Enter /home/wykgroup/appl/g16/l502.exe)
 Integral symmetry usage will be decided dynamically.
 Closed shell SCF:
 Using DIIS extrapolation, IDIIS=  1040.
 NGot=   805306368 LenX=   804506355 LenY=   804111343
 Requested convergence on RMS density matrix=1.00D-08 within  32 cycles.
 Requested convergence on MAX density matrix=1.00D-06.
 Requested convergence on             energy=1.00D-06.
 No special actions if energy rises.
 Fock matrices will be formed incrementally for  20 cycles.
 Integral accuracy reduced to 1.0D-05 until final iterations.

 Cycle   1  Pass 0  IDiag  1:
 FoFJK:  IHMeth= 1 ICntrl=       0 DoSepK=F KAlg= 0 I1Cent=           0 FoldK=F
 IRaf= 990000000 NMat=       1 IRICut=       1 DoRegI=T DoRafI=F ISym2E= 0 IDoP0=0 IntGTp=1.
 FoFCou: FMM=T IPFlag=           0 FMFlag=      100000 FMFlg1=        2001
         NFxFlg=           0 DoJE=F BraDBF=F KetDBF=F FulRan=T
         wScrn=  0.000000 ICntrl=         0 IOpCl=  0 I1Cent=           0 NGrid=           0
         NMat0=    1 NMatS0=      1 NMatT0=    0 NMatD0=    1 NMtDS0=    0 NMtDT0=    0
 Symmetry not used in FoFCou.
 FMM levels:  10  Number of levels for PrismC:   9
 E= -1786.87104665977    
 DIIS: error= 2.75D-02 at cycle   1 NSaved=   1.
 NSaved= 1 IEnMin= 1 EnMin= -1786.87104665977     IErMin= 1 ErrMin= 2.75D-02
 ErrMax= 2.75D-02  0.00D+00 EMaxC= 1.00D-01 BMatC= 8.88D-01 BMatP= 8.88D-01
 IDIUse=3 WtCom= 7.25D-01 WtEn= 2.75D-01
 Coeff-Com:  0.100D+01
 Coeff-En:   0.100D+01
 Coeff:      0.100D+01
 Gap=     0.198 Goal=   None    Shift=    0.000
 GapD=    0.198 DampG=1.000 DampE=0.500 DampFc=0.5000 IDamp=-1.
 Damping current iteration by 5.00D-01
 RMSDP=3.60D-03 MaxDP=2.33D-01              OVMax= 2.82D-01

 Cycle   2  Pass 0  IDiag  1:
 RMSU=  1.78D-03    CP:  9.79D-01
 E= -1787.18648398012     Delta-E=       -0.315437320341 Rises=F Damp=T
 DIIS: error= 8.69D-03 at cycle   2 NSaved=   2.
 NSaved= 2 IEnMin= 2 EnMin= -1787.18648398012     IErMin= 2 ErrMin= 8.69D-03
 ErrMax= 8.69D-03  0.00D+00 EMaxC= 1.00D-01 BMatC= 1.02D-01 BMatP= 8.88D-01
 IDIUse=3 WtCom= 9.13D-01 WtEn= 8.69D-02
 Coeff-Com:  0.141D+00 0.859D+00
 Coeff-En:   0.221D+00 0.779D+00
 Coeff:      0.148D+00 0.852D+00
 Gap=     0.272 Goal=   None    Shift=    0.000
 RMSDP=1.23D-03 MaxDP=1.23D-01 DE=-3.15D-01 OVMax= 1.87D-01

 Cycle   3  Pass 0  IDiag  1:
 RMSU=  1.17D-03    CP:  9.65D-01  8.19D-01
 E= -1787.60099323362     Delta-E=       -0.414509253509 Rises=F Damp=F
 DIIS: error= 1.30D-02 at cycle   3 NSaved=   3.
 NSaved= 3 IEnMin= 3 EnMin= -1787.60099323362     IErMin= 2 ErrMin= 8.69D-03
 ErrMax= 1.30D-02  0.00D+00 EMaxC= 1.00D-01 BMatC= 1.29D-01 BMatP= 1.02D-01
 IDIUse=2 WtCom= 0.00D+00 WtEn= 1.00D+00
 Coeff-En:   0.000D+00 0.000D+00 0.100D+01
 Coeff:      0.000D+00 0.000D+00 0.100D+01
 Gap=     0.180 Goal=   None    Shift=    0.000
 RMSDP=2.12D-03 MaxDP=2.76D-01 DE=-4.15D-01 OVMax= 3.89D-01

 Cycle   4  Pass 0  IDiag  1:
 RMSU=  1.22D-03    CP:  9.72D-01  1.28D+00 -3.00D-01
 E= -1786.97664844860     Delta-E=        0.624344785028 Rises=F Damp=F
 DIIS: error= 4.07D-02 at cycle   4 NSaved=   4.
 NSaved= 4 IEnMin= 3 EnMin= -1787.60099323362     IErMin= 2 ErrMin= 8.69D-03
 ErrMax= 4.07D-02  0.00D+00 EMaxC= 1.00D-01 BMatC= 8.54D-01 BMatP= 1.02D-01
 IDIUse=2 WtCom= 0.00D+00 WtEn= 1.00D+00
 Coeff-En:   0.000D+00 0.000D+00 0.811D+00 0.189D+00
 Coeff:      0.000D+00 0.000D+00 0.811D+00 0.189D+00
 Gap=     0.173 Goal=   None    Shift=    0.000
 RMSDP=1.20D-03 MaxDP=1.87D-01 DE= 6.24D-01 OVMax= 2.03D-01

 Cycle   5  Pass 0  IDiag  1:
 RMSU=  2.89D-04    CP:  9.70D-01  9.87D-01  3.70D-01  4.35D-01
 E= -1787.65557934893     Delta-E=       -0.678930900337 Rises=F Damp=F
 DIIS: error= 8.98D-03 at cycle   5 NSaved=   5.
 NSaved= 5 IEnMin= 5 EnMin= -1787.65557934893     IErMin= 2 ErrMin= 8.69D-03
 ErrMax= 8.98D-03  0.00D+00 EMaxC= 1.00D-01 BMatC= 6.77D-02 BMatP= 1.02D-01
 IDIUse=3 WtCom= 9.10D-01 WtEn= 8.98D-02
 Coeff-Com:  0.686D-02 0.244D-01 0.380D+00-0.333D-01 0.622D+00
 Coeff-En:   0.000D+00 0.000D+00 0.380D+00 0.000D+00 0.620D+00
 Coeff:      0.625D-02 0.222D-01 0.380D+00-0.303D-01 0.622D+00
 Gap=     0.162 Goal=   None    Shift=    0.000
 RMSDP=4.48D-04 MaxDP=4.01D-02 DE=-6.79D-01 OVMax= 6.04D-02

 Cycle   6  Pass 0  IDiag  1:
 RMSU=  1.18D-04    CP:  9.68D-01  9.05D-01  6.37D-01  2.47D-01  5.73D-01
 E= -1787.71309385218     Delta-E=       -0.057514503247 Rises=F Damp=F
 DIIS: error= 1.19D-03 at cycle   6 NSaved=   6.
 NSaved= 6 IEnMin= 6 EnMin= -1787.71309385218     IErMin= 6 ErrMin= 1.19D-03
 ErrMax= 1.19D-03  0.00D+00 EMaxC= 1.00D-01 BMatC= 1.92D-03 BMatP= 6.77D-02
 IDIUse=3 WtCom= 9.88D-01 WtEn= 1.19D-02
 Coeff-Com:  0.113D-02 0.628D-02 0.198D+00-0.496D-01 0.444D+00 0.400D+00
 Coeff-En:   0.000D+00 0.000D+00 0.000D+00 0.000D+00 0.000D+00 0.100D+01
 Coeff:      0.112D-02 0.620D-02 0.196D+00-0.490D-01 0.438D+00 0.407D+00
 Gap=     0.163 Goal=   None    Shift=    0.000
 RMSDP=8.16D-05 MaxDP=6.66D-03 DE=-5.75D-02 OVMax= 1.39D-02

 Cycle   7  Pass 0  IDiag  1:
 RMSU=  3.75D-05    CP:  9.68D-01  9.11D-01  6.24D-01  2.50D-01  6.87D-01
                    CP:  4.74D-01
 E= -1787.71472352515     Delta-E=       -0.001629672965 Rises=F Damp=F
 DIIS: error= 3.29D-04 at cycle   7 NSaved=   7.
 NSaved= 7 IEnMin= 7 EnMin= -1787.71472352515     IErMin= 7 ErrMin= 3.29D-04
 ErrMax= 3.29D-04  0.00D+00 EMaxC= 1.00D-01 BMatC= 1.24D-04 BMatP= 1.92D-03
 IDIUse=3 WtCom= 9.97D-01 WtEn= 3.29D-03
 Coeff-Com:  0.504D-03 0.246D-02 0.916D-01-0.276D-01 0.212D+00 0.233D+00
 Coeff-Com:  0.488D+00
 Coeff-En:   0.000D+00 0.000D+00 0.000D+00 0.000D+00 0.000D+00 0.000D+00
 Coeff-En:   0.100D+01
 Coeff:      0.503D-03 0.245D-02 0.913D-01-0.275D-01 0.211D+00 0.232D+00
 Coeff:      0.490D+00
 Gap=     0.163 Goal=   None    Shift=    0.000
 RMSDP=2.71D-05 MaxDP=1.39D-03 DE=-1.63D-03 OVMax= 3.55D-03

 Cycle   8  Pass 0  IDiag  1:
 RMSU=  1.48D-05    CP:  9.68D-01  9.09D-01  6.29D-01  2.48D-01  6.81D-01
                    CP:  5.19D-01  4.47D-01
 E= -1787.71483016122     Delta-E=       -0.000106636074 Rises=F Damp=F
 DIIS: error= 1.35D-04 at cycle   8 NSaved=   8.
 NSaved= 8 IEnMin= 8 EnMin= -1787.71483016122     IErMin= 8 ErrMin= 1.35D-04
 ErrMax= 1.35D-04  0.00D+00 EMaxC= 1.00D-01 BMatC= 2.65D-05 BMatP= 1.24D-04
 IDIUse=3 WtCom= 9.99D-01 WtEn= 1.35D-03
 Coeff-Com:  0.399D-03-0.641D-03 0.187D-01-0.666D-02 0.387D-01 0.470D-01
 Coeff-Com:  0.321D+00 0.582D+00
 Coeff-En:   0.000D+00 0.000D+00 0.000D+00 0.000D+00 0.000D+00 0.000D+00
 Coeff-En:   0.132D+00 0.868D+00
 Coeff:      0.398D-03-0.640D-03 0.187D-01-0.665D-02 0.387D-01 0.469D-01
 Coeff:      0.320D+00 0.582D+00
 Gap=     0.163 Goal=   None    Shift=    0.000
 RMSDP=1.08D-05 MaxDP=7.38D-04 DE=-1.07D-04 OVMax= 1.54D-03

 Cycle   9  Pass 0  IDiag  1:
 RMSU=  5.33D-06    CP:  9.68D-01  9.08D-01  6.32D-01  2.47D-01  6.82D-01
                    CP:  4.99D-01  5.86D-01  5.66D-01
 E= -1787.71485502697     Delta-E=       -0.000024865746 Rises=F Damp=F
 DIIS: error= 4.80D-05 at cycle   9 NSaved=   9.
 NSaved= 9 IEnMin= 9 EnMin= -1787.71485502697     IErMin= 9 ErrMin= 4.80D-05
 ErrMax= 4.80D-05  0.00D+00 EMaxC= 1.00D-01 BMatC= 2.59D-06 BMatP= 2.65D-05
 IDIUse=1 WtCom= 1.00D+00 WtEn= 0.00D+00
 Coeff-Com:  0.282D-03-0.876D-03 0.394D-02-0.124D-02 0.419D-02 0.639D-02
 Coeff-Com:  0.152D+00 0.356D+00 0.480D+00
 Coeff:      0.282D-03-0.876D-03 0.394D-02-0.124D-02 0.419D-02 0.639D-02
 Coeff:      0.152D+00 0.356D+00 0.480D+00
 Gap=     0.163 Goal=   None    Shift=    0.000
 RMSDP=3.33D-06 MaxDP=2.13D-04 DE=-2.49D-05 OVMax= 5.08D-04

 Initial convergence to 1.0D-05 achieved.  Increase integral accuracy.
 Cycle  10  Pass 1  IDiag  1:
 E= -1787.71482130612     Delta-E=        0.000033720848 Rises=F Damp=F
 DIIS: error= 1.72D-04 at cycle   1 NSaved=   1.
 NSaved= 1 IEnMin= 1 EnMin= -1787.71482130612     IErMin= 1 ErrMin= 1.72D-04
 ErrMax= 1.72D-04  0.00D+00 EMaxC= 1.00D-01 BMatC= 1.72D-05 BMatP= 1.72D-05
 IDIUse=3 WtCom= 9.98D-01 WtEn= 1.72D-03
 Coeff-Com:  0.100D+01
 Coeff-En:   0.100D+01
 Coeff:      0.100D+01
 Gap=     0.163 Goal=   None    Shift=    0.000
 RMSDP=3.33D-06 MaxDP=2.13D-04 DE= 3.37D-05 OVMax= 5.64D-04

 Cycle  11  Pass 1  IDiag  1:
 RMSU=  1.13D-04    CP:  1.00D+00
 E= -1787.71483558057     Delta-E=       -0.000014274457 Rises=F Damp=F
 DIIS: error= 1.83D-05 at cycle   2 NSaved=   2.
 NSaved= 2 IEnMin= 2 EnMin= -1787.71483558057     IErMin= 2 ErrMin= 1.83D-05
 ErrMax= 1.83D-05  0.00D+00 EMaxC= 1.00D-01 BMatC= 5.90D-07 BMatP= 1.72D-05
 IDIUse=1 WtCom= 1.00D+00 WtEn= 0.00D+00
 Coeff-Com:  0.406D-01 0.959D+00
 Coeff:      0.406D-01 0.959D+00
 Gap=     0.163 Goal=   None    Shift=    0.000
 RMSDP=4.30D-06 MaxDP=3.12D-04 DE=-1.43D-05 OVMax= 6.21D-04

 Cycle  12  Pass 1  IDiag  1:
 RMSU=  4.12D-06    CP:  1.00D+00  1.01D+00
 E= -1787.71483399824     Delta-E=        0.000001582331 Rises=F Damp=F
 DIIS: error= 3.70D-05 at cycle   3 NSaved=   3.
 NSaved= 3 IEnMin= 2 EnMin= -1787.71483558057     IErMin= 2 ErrMin= 1.83D-05
 ErrMax= 3.70D-05  0.00D+00 EMaxC= 1.00D-01 BMatC= 2.23D-06 BMatP= 5.90D-07
 IDIUse=1 WtCom= 1.00D+00 WtEn= 0.00D+00
 Coeff-Com: -0.506D-02 0.664D+00 0.342D+00
 Coeff:     -0.506D-02 0.664D+00 0.342D+00
 Gap=     0.163 Goal=   None    Shift=    0.000
 RMSDP=2.76D-06 MaxDP=2.08D-04 DE= 1.58D-06 OVMax= 4.29D-04

 Cycle  13  Pass 1  IDiag  1:
 RMSU=  4.52D-07    CP:  1.00D+00  1.01D+00  3.40D-01
 E= -1787.71483613789     Delta-E=       -0.000002139644 Rises=F Damp=F
 DIIS: error= 2.29D-06 at cycle   4 NSaved=   4.
 NSaved= 4 IEnMin= 4 EnMin= -1787.71483613789     IErMin= 4 ErrMin= 2.29D-06
 ErrMax= 2.29D-06  0.00D+00 EMaxC= 1.00D-01 BMatC= 1.33D-08 BMatP= 5.90D-07
 IDIUse=1 WtCom= 1.00D+00 WtEn= 0.00D+00
 Coeff-Com: -0.352D-02 0.404D+00 0.212D+00 0.388D+00
 Coeff:     -0.352D-02 0.404D+00 0.212D+00 0.388D+00
 Gap=     0.163 Goal=   None    Shift=    0.000
 RMSDP=2.50D-07 MaxDP=1.18D-05 DE=-2.14D-06 OVMax= 3.36D-05

 Cycle  14  Pass 1  IDiag  1:
 RMSU=  1.77D-07    CP:  1.00D+00  1.01D+00  3.54D-01  6.33D-01
 E= -1787.71483614986     Delta-E=       -0.000000011973 Rises=F Damp=F
 DIIS: error= 8.34D-07 at cycle   5 NSaved=   5.
 NSaved= 5 IEnMin= 5 EnMin= -1787.71483614986     IErMin= 5 ErrMin= 8.34D-07
 ErrMax= 8.34D-07  0.00D+00 EMaxC= 1.00D-01 BMatC= 1.02D-09 BMatP= 1.33D-08
 IDIUse=1 WtCom= 1.00D+00 WtEn= 0.00D+00
 Coeff-Com: -0.186D-02 0.207D+00 0.108D+00 0.255D+00 0.432D+00
 Coeff:     -0.186D-02 0.207D+00 0.108D+00 0.255D+00 0.432D+00
 Gap=     0.163 Goal=   None    Shift=    0.000
 RMSDP=6.76D-08 MaxDP=4.13D-06 DE=-1.20D-08 OVMax= 1.07D-05

 Cycle  15  Pass 1  IDiag  1:
 RMSU=  4.99D-08    CP:  1.00D+00  1.01D+00  3.53D-01  6.80D-01  7.74D-01
 E= -1787.71483615072     Delta-E=       -0.000000000859 Rises=F Damp=F
 DIIS: error= 2.46D-07 at cycle   6 NSaved=   6.
 NSaved= 6 IEnMin= 6 EnMin= -1787.71483615072     IErMin= 6 ErrMin= 2.46D-07
 ErrMax= 2.46D-07  0.00D+00 EMaxC= 1.00D-01 BMatC= 9.10D-11 BMatP= 1.02D-09
 IDIUse=1 WtCom= 1.00D+00 WtEn= 0.00D+00
 Coeff-Com: -0.493D-03 0.525D-01 0.275D-01 0.892D-01 0.262D+00 0.570D+00
 Coeff:     -0.493D-03 0.525D-01 0.275D-01 0.892D-01 0.262D+00 0.570D+00
 Gap=     0.163 Goal=   None    Shift=    0.000
 RMSDP=1.92D-08 MaxDP=1.34D-06 DE=-8.59D-10 OVMax= 2.29D-06

 Cycle  16  Pass 1  IDiag  1:
 RMSU=  1.49D-08    CP:  1.00D+00  1.01D+00  3.52D-01  6.79D-01  8.08D-01
                    CP:  8.02D-01
 E= -1787.71483615080     Delta-E=       -0.000000000083 Rises=F Damp=F
 DIIS: error= 5.77D-08 at cycle   7 NSaved=   7.
 NSaved= 7 IEnMin= 7 EnMin= -1787.71483615080     IErMin= 7 ErrMin= 5.77D-08
 ErrMax= 5.77D-08  0.00D+00 EMaxC= 1.00D-01 BMatC= 7.07D-12 BMatP= 9.10D-11
 IDIUse=1 WtCom= 1.00D+00 WtEn= 0.00D+00
 Coeff-Com: -0.475D-04 0.417D-02 0.219D-02 0.173D-01 0.841D-01 0.292D+00
 Coeff-Com:  0.601D+00
 Coeff:     -0.475D-04 0.417D-02 0.219D-02 0.173D-01 0.841D-01 0.292D+00
 Coeff:      0.601D+00
 Gap=     0.163 Goal=   None    Shift=    0.000
 RMSDP=6.57D-09 MaxDP=3.50D-07 DE=-8.28D-11 OVMax= 5.93D-07

 SCF Done:  E(RB3LYP) =  -1787.71483615     A.U. after   16 cycles
            NFock= 16  Conv=0.66D-08     -V/T= 2.0082
 KE= 1.773213728902D+03 PE=-1.348368378358D+04 EE= 5.265217341049D+03
 Leave Link  502 at Fri Nov  4 20:52:14 2022, MaxMem=   805306368 cpu:            1314.3 elap:             188.8
 (Enter /home/wykgroup/appl/g16/l508.exe)
 QCSCF skips out because SCF is already converged.
 Leave Link  508 at Fri Nov  4 20:52:14 2022, MaxMem=   805306368 cpu:               0.0 elap:               0.0
 (Enter /home/wykgroup/appl/g16/l601.exe)
 Copying SCF densities to generalized density rwf, IOpCl= 0 IROHF=0.

 **********************************************************************

            Population analysis using the SCF Density.

 **********************************************************************

 Orbital symmetries:
       Occupied  (A) (A) (A) (A) (A) (A) (A) (A) (A) (A) (A) (A)
                 (A) (A) (A) (A) (A) (A) (A) (A) (A) (A) (A) (A)
                 (A) (A) (A) (A) (A) (A) (A) (A) (A) (A) (A) (A)
                 (A) (A) (A) (A) (A) (A) (A) (A) (A) (A) (A) (A)
                 (A) (A) (A) (A) (A) (A) (A) (A) (A) (A) (A) (A)
                 (A) (A) (A) (A) (A) (A) (A) (A) (A) (A) (A) (A)
                 (A) (A) (A) (A) (A) (A) (A) (A) (A) (A) (A) (A)
                 (A) (A) (A) (A) (A) (A) (A) (A) (A) (A) (A) (A)
                 (A) (A) (A) (A) (A) (A) (A) (A) (A) (A) (A) (A)
                 (A) (A) (A) (A) (A) (A) (A) (A) (A) (A) (A) (A)
                 (A) (A) (A) (A) (A) (A) (A) (A) (A) (A) (A) (A)
                 (A) (A) (A) (A) (A)
       Virtual   (A) (A) (A) (A) (A) (A) (A) (A) (A) (A) (A) (A)
                 (A) (A) (A) (A) (A) (A) (A) (A) (A) (A) (A) (A)
                 (A) (A) (A) (A) (A) (A) (A) (A) (A) (A) (A) (A)
                 (A) (A) (A) (A) (A) (A) (A) (A) (A) (A) (A) (A)
                 (A) (A) (A) (A) (A) (A) (A) (A) (A) (A) (A) (A)
                 (A) (A) (A) (A) (A) (A) (A) (A) (A) (A) (A) (A)
                 (A) (A) (A) (A) (A) (A) (A) (A) (A) (A) (A) (A)
                 (A) (A) (A) (A) (A) (A) (A) (A) (A) (A) (A) (A)
                 (A) (A) (A) (A) (A) (A) (A) (A) (A) (A) (A) (A)
                 (A) (A) (A) (A) (A) (A) (A) (A) (A) (A) (A) (A)
                 (A) (A) (A) (A) (A) (A) (A) (A) (A) (A) (A) (A)
                 (A) (A) (A) (A) (A) (A) (A) (A) (A) (A) (A) (A)
                 (A) (A) (A) (A) (A) (A) (A) (A) (A) (A) (A) (A)
                 (A) (A) (A) (A) (A) (A) (A) (A) (A) (A) (A) (A)
                 (A) (A) (A) (A) (A) (A) (A) (A) (A) (A) (A) (A)
                 (A) (A) (A) (A) (A) (A) (A) (A) (A) (A) (A) (A)
                 (A) (A) (A) (A) (A) (A) (A) (A) (A) (A) (A) (A)
                 (A) (A) (A) (A) (A) (A) (A) (A) (A) (A) (A) (A)
                 (A) (A) (A) (A) (A) (A) (A) (A) (A) (A) (A) (A)
                 (A) (A) (A) (A) (A) (A) (A) (A) (A) (A) (A) (A)
                 (A) (A) (A) (A) (A) (A) (A) (A) (A) (A) (A) (A)
                 (A) (A) (A) (A) (A) (A) (A) (A) (A) (A) (A) (A)
                 (A) (A) (A) (A) (A) (A) (A) (A) (A) (A) (A) (A)
                 (A) (A) (A) (A) (A) (A) (A) (A) (A) (A) (A) (A)
                 (A) (A) (A) (A) (A) (A) (A) (A) (A) (A) (A) (A)
                 (A) (A) (A) (A) (A) (A) (A) (A) (A) (A) (A) (A)
                 (A) (A) (A) (A) (A) (A) (A) (A) (A) (A) (A) (A)
                 (A) (A) (A) (A) (A) (A) (A) (A) (A) (A) (A) (A)
                 (A) (A) (A) (A) (A) (A) (A) (A) (A) (A) (A) (A)
                 (A) (A) (A) (A) (A) (A) (A) (A) (A) (A) (A) (A)
                 (A) (A) (A) (A) (A) (A) (A) (A) (A) (A) (A) (A)
                 (A) (A) (A) (A) (A) (A) (A) (A) (A) (A) (A) (A)
                 (A) (A) (A) (A) (A) (A) (A) (A) (A) (A) (A) (A)
                 (A) (A) (A) (A) (A) (A) (A) (A) (A) (A) (A) (A)
                 (A) (A) (A) (A) (A) (A) (A) (A) (A) (A) (A) (A)
                 (A) (A) (A) (A) (A) (A) (A) (A) (A) (A) (A) (A)
                 (A) (A) (A) (A) (A) (A) (A) (A) (A) (A) (A) (A)
                 (A) (A) (A) (A) (A) (A) (A) (A) (A) (A) (A) (A)
                 (A) (A) (A) (A) (A) (A) (A) (A) (A) (A) (A) (A)
                 (A) (A) (A) (A) (A) (A) (A) (A) (A) (A) (A) (A)
                 (A) (A) (A) (A) (A) (A) (A) (A) (A) (A) (A)
 The electronic state is 1-A.
 Alpha  occ. eigenvalues --  -24.71742 -24.71171 -24.71123 -19.11317 -14.41336
 Alpha  occ. eigenvalues --  -14.37294 -14.37210 -14.35043 -14.31673 -14.31212
 Alpha  occ. eigenvalues --  -10.42251 -10.28944 -10.27908 -10.25464 -10.24874
 Alpha  occ. eigenvalues --  -10.23917 -10.23664 -10.22804 -10.22210 -10.22196
 Alpha  occ. eigenvalues --  -10.22022 -10.21282 -10.20989 -10.20700 -10.20600
 Alpha  occ. eigenvalues --  -10.20213 -10.20059 -10.20043 -10.19809 -10.19367
 Alpha  occ. eigenvalues --  -10.18264 -10.17683 -10.17541 -10.17532 -10.17479
 Alpha  occ. eigenvalues --  -10.17321 -10.17240 -10.17004  -1.29795  -1.20815
 Alpha  occ. eigenvalues --   -1.20236  -1.06985  -1.04570  -1.00432  -0.96902
 Alpha  occ. eigenvalues --   -0.94341  -0.88807  -0.87995  -0.87137  -0.83579
 Alpha  occ. eigenvalues --   -0.81421  -0.80466  -0.79213  -0.76890  -0.76559
 Alpha  occ. eigenvalues --   -0.76177  -0.75677  -0.74016  -0.72802  -0.71811
 Alpha  occ. eigenvalues --   -0.69844  -0.68970  -0.67813  -0.65405  -0.65058
 Alpha  occ. eigenvalues --   -0.63245  -0.63034  -0.61491  -0.60028  -0.59143
 Alpha  occ. eigenvalues --   -0.58323  -0.57383  -0.57191  -0.56994  -0.56628
 Alpha  occ. eigenvalues --   -0.55152  -0.54886  -0.54212  -0.52107  -0.51750
 Alpha  occ. eigenvalues --   -0.51422  -0.49403  -0.48279  -0.47657  -0.47147
 Alpha  occ. eigenvalues --   -0.46500  -0.46060  -0.45728  -0.45411  -0.45231
 Alpha  occ. eigenvalues --   -0.44916  -0.44795  -0.44495  -0.43967  -0.43792
 Alpha  occ. eigenvalues --   -0.43498  -0.43010  -0.42789  -0.42365  -0.42304
 Alpha  occ. eigenvalues --   -0.41549  -0.41518  -0.41115  -0.40802  -0.40484
 Alpha  occ. eigenvalues --   -0.40211  -0.40097  -0.39987  -0.39431  -0.38654
 Alpha  occ. eigenvalues --   -0.38376  -0.38181  -0.37813  -0.37175  -0.37035
 Alpha  occ. eigenvalues --   -0.36394  -0.35915  -0.35583  -0.35371  -0.35138
 Alpha  occ. eigenvalues --   -0.34670  -0.34612  -0.34270  -0.33465  -0.32894
 Alpha  occ. eigenvalues --   -0.29620  -0.28482  -0.27843  -0.27442  -0.26824
 Alpha  occ. eigenvalues --   -0.26283  -0.24970  -0.24445  -0.24313  -0.24206
 Alpha  occ. eigenvalues --   -0.22087  -0.20335
 Alpha virt. eigenvalues --   -0.04014  -0.02897  -0.01410  -0.00756   0.00878
 Alpha virt. eigenvalues --    0.02530   0.03600   0.06453   0.06641   0.08308
 Alpha virt. eigenvalues --    0.09609   0.10456   0.10729   0.11056   0.11827
 Alpha virt. eigenvalues --    0.12213   0.12773   0.13267   0.13562   0.13829
 Alpha virt. eigenvalues --    0.14190   0.14557   0.14723   0.15135   0.15392
 Alpha virt. eigenvalues --    0.15441   0.15875   0.16147   0.16434   0.16812
 Alpha virt. eigenvalues --    0.17151   0.18059   0.18229   0.18575   0.18989
 Alpha virt. eigenvalues --    0.19208   0.19679   0.19965   0.20074   0.20286
 Alpha virt. eigenvalues --    0.20691   0.21179   0.21468   0.22342   0.22716
 Alpha virt. eigenvalues --    0.22935   0.23428   0.23844   0.24159   0.24431
 Alpha virt. eigenvalues --    0.24739   0.25035   0.25228   0.26359   0.26739
 Alpha virt. eigenvalues --    0.26846   0.27382   0.28420   0.29453   0.30444
 Alpha virt. eigenvalues --    0.31236   0.31519   0.31941   0.32870   0.33262
 Alpha virt. eigenvalues --    0.34318   0.34708   0.34759   0.35503   0.37223
 Alpha virt. eigenvalues --    0.37721   0.38350   0.39944   0.40603   0.41788
 Alpha virt. eigenvalues --    0.43069   0.44016   0.45719   0.46828   0.47152
 Alpha virt. eigenvalues --    0.47768   0.48234   0.48891   0.49151   0.50106
 Alpha virt. eigenvalues --    0.50533   0.51520   0.51730   0.52527   0.52628
 Alpha virt. eigenvalues --    0.52913   0.53217   0.53523   0.53645   0.53866
 Alpha virt. eigenvalues --    0.54868   0.55279   0.55614   0.55822   0.56577
 Alpha virt. eigenvalues --    0.56782   0.57125   0.57563   0.57910   0.58337
 Alpha virt. eigenvalues --    0.58616   0.59487   0.59898   0.60388   0.60544
 Alpha virt. eigenvalues --    0.60850   0.61138   0.61304   0.61919   0.62658
 Alpha virt. eigenvalues --    0.62988   0.63690   0.64320   0.64556   0.64740
 Alpha virt. eigenvalues --    0.65391   0.65997   0.66153   0.66611   0.67027
 Alpha virt. eigenvalues --    0.68305   0.68942   0.69154   0.70250   0.70473
 Alpha virt. eigenvalues --    0.71615   0.71929   0.72257   0.72701   0.73087
 Alpha virt. eigenvalues --    0.73915   0.75091   0.75619   0.76306   0.76700
 Alpha virt. eigenvalues --    0.76914   0.77276   0.77752   0.78451   0.79399
 Alpha virt. eigenvalues --    0.79976   0.80840   0.81122   0.81520   0.81750
 Alpha virt. eigenvalues --    0.82003   0.83241   0.83391   0.84020   0.84474
 Alpha virt. eigenvalues --    0.84719   0.85158   0.85637   0.86190   0.86676
 Alpha virt. eigenvalues --    0.86724   0.87128   0.87627   0.87950   0.88389
 Alpha virt. eigenvalues --    0.88622   0.88723   0.88885   0.89614   0.90223
 Alpha virt. eigenvalues --    0.90590   0.91223   0.91876   0.92233   0.92562
 Alpha virt. eigenvalues --    0.92605   0.93353   0.93525   0.94255   0.94313
 Alpha virt. eigenvalues --    0.94846   0.95845   0.96354   0.96736   0.97248
 Alpha virt. eigenvalues --    0.97438   0.97727   0.97913   0.98436   0.99552
 Alpha virt. eigenvalues --    1.00540   1.01006   1.01945   1.02990   1.03502
 Alpha virt. eigenvalues --    1.04387   1.04949   1.05597   1.06738   1.06961
 Alpha virt. eigenvalues --    1.07761   1.08843   1.09459   1.10562   1.10821
 Alpha virt. eigenvalues --    1.11868   1.11891   1.12758   1.14035   1.14913
 Alpha virt. eigenvalues --    1.16577   1.16722   1.17425   1.17836   1.18536
 Alpha virt. eigenvalues --    1.18598   1.20197   1.21039   1.21183   1.21779
 Alpha virt. eigenvalues --    1.22950   1.23807   1.24933   1.25596   1.26077
 Alpha virt. eigenvalues --    1.26731   1.27578   1.27664   1.28421   1.31294
 Alpha virt. eigenvalues --    1.32225   1.32729   1.34329   1.34934   1.35382
 Alpha virt. eigenvalues --    1.35527   1.36056   1.36630   1.37222   1.37544
 Alpha virt. eigenvalues --    1.37915   1.38788   1.39326   1.39985   1.40115
 Alpha virt. eigenvalues --    1.41258   1.41973   1.42302   1.43147   1.43612
 Alpha virt. eigenvalues --    1.44473   1.45192   1.45924   1.46530   1.47108
 Alpha virt. eigenvalues --    1.47419   1.48466   1.49338   1.49981   1.50495
 Alpha virt. eigenvalues --    1.51117   1.52138   1.52342   1.52762   1.53198
 Alpha virt. eigenvalues --    1.54077   1.54610   1.55932   1.57776   1.58583
 Alpha virt. eigenvalues --    1.60545   1.61918   1.62619   1.64471   1.64728
 Alpha virt. eigenvalues --    1.66067   1.67201   1.68127   1.68481   1.71177
 Alpha virt. eigenvalues --    1.72310   1.72967   1.74271   1.74695   1.75574
 Alpha virt. eigenvalues --    1.75867   1.77156   1.78055   1.78385   1.79041
 Alpha virt. eigenvalues --    1.80031   1.80743   1.81173   1.82293   1.82959
 Alpha virt. eigenvalues --    1.83560   1.84028   1.84442   1.85049   1.85160
 Alpha virt. eigenvalues --    1.85496   1.86495   1.87316   1.87732   1.87968
 Alpha virt. eigenvalues --    1.89210   1.89937   1.90997   1.91880   1.92138
 Alpha virt. eigenvalues --    1.92446   1.93081   1.94200   1.94716   1.95363
 Alpha virt. eigenvalues --    1.95869   1.96000   1.96723   1.97358   1.97825
 Alpha virt. eigenvalues --    1.98932   1.99718   1.99754   2.00772   2.01043
 Alpha virt. eigenvalues --    2.01310   2.01645   2.01926   2.03545   2.04370
[...]
                 (A) (A) (A) (A) (A) (A) (A) (A) (A) (A) (A) (A)
                 (A) (A) (A) (A) (A) (A) (A) (A) (A) (A) (A) (A)
                 (A) (A) (A) (A) (A) (A) (A) (A) (A) (A) (A) (A)
                 (A) (A) (A) (A) (A) (A) (A) (A) (A) (A) (A) (A)
                 (A) (A) (A) (A) (A) (A) (A) (A) (A) (A) (A) (A)
                 (A) (A) (A) (A) (A) (A) (A) (A) (A) (A) (A) (A)
                 (A) (A) (A) (A) (A) (A) (A) (A) (A) (A) (A) (A)
                 (A) (A) (A) (A) (A) (A) (A) (A) (A) (A) (A) (A)
                 (A) (A) (A) (A) (A) (A) (A) (A) (A) (A) (A) (A)
                 (A) (A) (A) (A) (A) (A) (A) (A) (A) (A) (A) (A)
                 (A) (A) (A) (A) (A) (A) (A) (A) (A) (A) (A) (A)
                 (A) (A) (A) (A) (A) (A) (A) (A) (A) (A) (A) (A)
                 (A) (A) (A) (A) (A) (A) (A) (A) (A) (A) (A) (A)
                 (A) (A) (A) (A) (A) (A) (A) (A) (A) (A) (A) (A)
                 (A) (A) (A) (A) (A) (A) (A) (A) (A) (A) (A) (A)
                 (A) (A) (A) (A) (A) (A) (A) (A) (A) (A) (A) (A)
                 (A) (A) (A) (A) (A) (A) (A) (A) (A) (A) (A) (A)
                 (A) (A) (A) (A) (A) (A) (A) (A) (A) (A) (A) (A)
                 (A) (A) (A) (A) (A) (A) (A) (A) (A) (A) (A) (A)
                 (A) (A) (A) (A) (A) (A) (A) (A) (A) (A) (A) (A)
                 (A) (A) (A) (A) (A) (A) (A) (A) (A) (A) (A) (A)
                 (A) (A) (A) (A) (A) (A) (A) (A) (A) (A) (A) (A)
                 (A) (A) (A) (A) (A) (A) (A) (A) (A) (A) (A) (A)
                 (A) (A) (A) (A) (A) (A) (A) (A) (A) (A) (A) (A)
                 (A) (A) (A) (A) (A) (A) (A) (A) (A) (A) (A) (A)
                 (A) (A) (A) (A) (A) (A) (A) (A) (A) (A) (A) (A)
                 (A) (A) (A) (A) (A) (A) (A) (A) (A) (A) (A) (A)
                 (A) (A) (A) (A) (A) (A) (A) (A) (A) (A) (A) (A)
                 (A) (A) (A) (A) (A) (A) (A) (A) (A) (A) (A) (A)
                 (A) (A) (A) (A) (A) (A) (A) (A) (A) (A) (A) (A)
                 (A) (A) (A) (A) (A) (A) (A) (A) (A) (A) (A) (A)
                 (A) (A) (A) (A) (A) (A) (A) (A) (A) (A) (A)
 The electronic state is 1-A.
 Alpha  occ. eigenvalues --  -24.72695 -24.72687 -24.72091 -19.12572 -14.41218
 Alpha  occ. eigenvalues --  -14.37605 -14.37542 -14.35333 -14.32062 -14.31567
 Alpha  occ. eigenvalues --  -10.43547 -10.29987 -10.28150 -10.25739 -10.25254
 Alpha  occ. eigenvalues --  -10.24226 -10.24107 -10.22997 -10.22852 -10.22731
 Alpha  occ. eigenvalues --  -10.22558 -10.22341 -10.22218 -10.21813 -10.21720
 Alpha  occ. eigenvalues --  -10.21573 -10.21233 -10.20453 -10.20224 -10.19478
 Alpha  occ. eigenvalues --  -10.18861 -10.18095 -10.18035 -10.18026 -10.18019
 Alpha  occ. eigenvalues --  -10.17908 -10.17877 -10.17434  -1.30254  -1.21735
 Alpha  occ. eigenvalues --   -1.21227  -1.05380  -1.04524  -0.99168  -0.95913
 Alpha  occ. eigenvalues --   -0.93907  -0.88434  -0.87952  -0.86469  -0.83004
 Alpha  occ. eigenvalues --   -0.80913  -0.80230  -0.79530  -0.77078  -0.76424
 Alpha  occ. eigenvalues --   -0.75759  -0.75283  -0.73753  -0.72387  -0.71953
 Alpha  occ. eigenvalues --   -0.70257  -0.68372  -0.67537  -0.65355  -0.64742
 Alpha  occ. eigenvalues --   -0.63652  -0.63148  -0.61335  -0.59826  -0.58791
 Alpha  occ. eigenvalues --   -0.58068  -0.58046  -0.57906  -0.57178  -0.56902
 Alpha  occ. eigenvalues --   -0.55406  -0.54446  -0.54175  -0.52227  -0.50974
 Alpha  occ. eigenvalues --   -0.50535  -0.48853  -0.47849  -0.47349  -0.47088
 Alpha  occ. eigenvalues --   -0.47007  -0.46052  -0.45859  -0.45608  -0.45491
 Alpha  occ. eigenvalues --   -0.45243  -0.44921  -0.44737  -0.44601  -0.43879
 Alpha  occ. eigenvalues --   -0.43161  -0.42832  -0.42656  -0.42319  -0.42165
 Alpha  occ. eigenvalues --   -0.41943  -0.41442  -0.41361  -0.41237  -0.40909
 Alpha  occ. eigenvalues --   -0.40768  -0.40302  -0.39865  -0.39735  -0.39365
 Alpha  occ. eigenvalues --   -0.38425  -0.37905  -0.37761  -0.37423  -0.37060
 Alpha  occ. eigenvalues --   -0.36644  -0.36206  -0.36093  -0.35772  -0.35323
 Alpha  occ. eigenvalues --   -0.34799  -0.34425  -0.34145  -0.33477  -0.32441
 Alpha  occ. eigenvalues --   -0.29964  -0.28340  -0.28124  -0.27667  -0.27423
 Alpha  occ. eigenvalues --   -0.26573  -0.25870  -0.25050  -0.24735  -0.24133
 Alpha  occ. eigenvalues --   -0.22302  -0.20428
 Alpha virt. eigenvalues --   -0.05033  -0.03232  -0.02521  -0.01010   0.00643
 Alpha virt. eigenvalues --    0.02217   0.02398   0.05602   0.06714   0.08276
 Alpha virt. eigenvalues --    0.08995   0.09883   0.10412   0.10730   0.11471
 Alpha virt. eigenvalues --    0.11505   0.12106   0.12581   0.13070   0.13302
 Alpha virt. eigenvalues --    0.13569   0.14151   0.14177   0.14329   0.14902
 Alpha virt. eigenvalues --    0.15127   0.15407   0.15716   0.15853   0.16443
 Alpha virt. eigenvalues --    0.16704   0.17050   0.17558   0.17830   0.17959
 Alpha virt. eigenvalues --    0.18184   0.19122   0.19472   0.19632   0.19847
 Alpha virt. eigenvalues --    0.20249   0.20794   0.20991   0.21195   0.21448
 Alpha virt. eigenvalues --    0.21655   0.22057   0.22253   0.23211   0.23514
 Alpha virt. eigenvalues --    0.23983   0.24010   0.24617   0.25027   0.25228
 Alpha virt. eigenvalues --    0.25888   0.26197   0.27370   0.28677   0.29722
 Alpha virt. eigenvalues --    0.30660   0.30778   0.30888   0.31971   0.32639
 Alpha virt. eigenvalues --    0.33307   0.34048   0.34270   0.34710   0.36220
 Alpha virt. eigenvalues --    0.36842   0.37040   0.39133   0.40275   0.42410
 Alpha virt. eigenvalues --    0.43127   0.44591   0.46034   0.46519   0.46835
 Alpha virt. eigenvalues --    0.47344   0.47819   0.48639   0.49639   0.50150
 Alpha virt. eigenvalues --    0.50595   0.51228   0.51560   0.52011   0.52406
 Alpha virt. eigenvalues --    0.52783   0.52913   0.53241   0.53507   0.53855
 Alpha virt. eigenvalues --    0.54215   0.54618   0.55029   0.55109   0.55491
 Alpha virt. eigenvalues --    0.55898   0.56678   0.56900   0.57323   0.57709
 Alpha virt. eigenvalues --    0.57964   0.58441   0.58962   0.59349   0.59606
 Alpha virt. eigenvalues --    0.59855   0.60229   0.60566   0.60693   0.61137
 Alpha virt. eigenvalues --    0.61316   0.61767   0.62613   0.62708   0.63400
 Alpha virt. eigenvalues --    0.63623   0.64695   0.65039   0.65359   0.65709
 Alpha virt. eigenvalues --    0.66361   0.66621   0.67658   0.67748   0.68454
 Alpha virt. eigenvalues --    0.69110   0.69245   0.69944   0.70506   0.71788
 Alpha virt. eigenvalues --    0.72025   0.72929   0.73262   0.73659   0.74503
 Alpha virt. eigenvalues --    0.74939   0.75376   0.76209   0.76676   0.77391
 Alpha virt. eigenvalues --    0.77683   0.78783   0.79049   0.79693   0.80008
 Alpha virt. eigenvalues --    0.80236   0.80627   0.81976   0.82143   0.82636
 Alpha virt. eigenvalues --    0.82894   0.83617   0.83909   0.84192   0.84811
 Alpha virt. eigenvalues --    0.85319   0.85542   0.85594   0.86421   0.86809
 Alpha virt. eigenvalues --    0.86935   0.87431   0.87928   0.88421   0.88854
 Alpha virt. eigenvalues --    0.89307   0.89687   0.90086   0.90628   0.90834
 Alpha virt. eigenvalues --    0.91452   0.91698   0.91858   0.93037   0.93359
 Alpha virt. eigenvalues --    0.93512   0.94629   0.95009   0.95766   0.95826
 Alpha virt. eigenvalues --    0.95982   0.96384   0.96548   0.96854   0.97224
 Alpha virt. eigenvalues --    0.97929   0.98473   0.99421   0.99661   1.00632
 Alpha virt. eigenvalues --    1.00822   1.01847   1.02965   1.03689   1.04328
 Alpha virt. eigenvalues --    1.05221   1.06556   1.07698   1.08245   1.09158
 Alpha virt. eigenvalues --    1.10207   1.10682   1.11058   1.11652   1.11999
 Alpha virt. eigenvalues --    1.12931   1.13282   1.14237   1.15024   1.15568
 Alpha virt. eigenvalues --    1.16047   1.16768   1.17435   1.17748   1.19048
 Alpha virt. eigenvalues --    1.20333   1.20630   1.21626   1.22727   1.23910
 Alpha virt. eigenvalues --    1.24746   1.25518   1.25867   1.26515   1.28031
 Alpha virt. eigenvalues --    1.28286   1.30605   1.32124   1.33115   1.33217
 Alpha virt. eigenvalues --    1.33358   1.34187   1.34948   1.35010   1.36713
 Alpha virt. eigenvalues --    1.37228   1.38160   1.38168   1.38667   1.39124
 Alpha virt. eigenvalues --    1.39619   1.40010   1.40662   1.40992   1.41583
 Alpha virt. eigenvalues --    1.42153   1.43129   1.43497   1.44239   1.45137
 Alpha virt. eigenvalues --    1.45239   1.45970   1.46427   1.47411   1.48358
 Alpha virt. eigenvalues --    1.48831   1.49182   1.50293   1.50749   1.52053
 Alpha virt. eigenvalues --    1.52411   1.52784   1.53566   1.54638   1.56399
 Alpha virt. eigenvalues --    1.57687   1.58044   1.59797   1.60655   1.62926
 Alpha virt. eigenvalues --    1.65082   1.65440   1.65897   1.66247   1.68405
 Alpha virt. eigenvalues --    1.70037   1.70789   1.70872   1.72613   1.72998
 Alpha virt. eigenvalues --    1.75003   1.75527   1.76296   1.76687   1.76829
 Alpha virt. eigenvalues --    1.77488   1.78530   1.79119   1.79841   1.80747
 Alpha virt. eigenvalues --    1.81315   1.81925   1.82467   1.82670   1.83512
 Alpha virt. eigenvalues --    1.83745   1.84098   1.85170   1.85224   1.86282
 Alpha virt. eigenvalues --    1.87139   1.87322   1.87611   1.89111   1.89426
 Alpha virt. eigenvalues --    1.90327   1.91433   1.91672   1.91996   1.92392
 Alpha virt. eigenvalues --    1.92849   1.94359   1.94883   1.95460   1.95872
 Alpha virt. eigenvalues --    1.96498   1.96793   1.97284   1.97969   1.98952
 Alpha virt. eigenvalues --    1.99051   1.99766   1.99899   1.99991   2.00457
 Alpha virt. eigenvalues --    2.01198   2.02555   2.02882   2.03797   2.03953
 Alpha virt. eigenvalues --    2.05634   2.06228   2.06639   2.07499   2.07763
 Alpha virt. eigenvalues --    2.08089   2.09193   2.09398   2.10259   2.11032
 Alpha virt. eigenvalues --    2.11843   2.12260   2.13375   2.13580   2.14764
 Alpha virt. eigenvalues --    2.15414   2.15845   2.15978   2.16799   2.17554
 Alpha virt. eigenvalues --    2.17612   2.20046   2.20966   2.21207   2.21994
 Alpha virt. eigenvalues --    2.22681   2.23925   2.24560   2.25171   2.25912
 Alpha virt. eigenvalues --    2.27011   2.27481   2.27560   2.28176   2.28611
 Alpha virt. eigenvalues --    2.29397   2.29965   2.30957   2.31494   2.31860
 Alpha virt. eigenvalues --    2.32059   2.32691   2.33173   2.34051   2.34493
 Alpha virt. eigenvalues --    2.36350   2.37241   2.37556   2.38497   2.38588
 Alpha virt. eigenvalues --    2.39485   2.41496   2.41689   2.42782   2.43544
 Alpha virt. eigenvalues --    2.46122   2.46434   2.47660   2.48380   2.49115
 Alpha virt. eigenvalues --    2.50615   2.51191   2.52693   2.53462   2.54028
 Alpha virt. eigenvalues --    2.57493   2.58260   2.58931   2.60093   2.61012
 Alpha virt. eigenvalues --    2.61308   2.61791   2.62705   2.64697   2.65056
 Alpha virt. eigenvalues --    2.65840   2.67938   2.68806   2.69075   2.70003
 Alpha virt. eigenvalues --    2.70555   2.71591   2.72809   2.73882   2.74694
 Alpha virt. eigenvalues --    2.76244   2.76603   2.77727   2.77881   2.78760
 Alpha virt. eigenvalues --    2.79396   2.80871   2.81540   2.82422   2.82830
 Alpha virt. eigenvalues --    2.84185   2.85280   2.87807   2.89404   2.92620
 Alpha virt. eigenvalues --    2.96693   2.96904   2.98340   3.01905   3.02177
 Alpha virt. eigenvalues --    3.02536   3.03660   3.04079   3.08881   3.09142
 Alpha virt. eigenvalues --    3.13369   3.15860   3.20966   3.26132   3.37922
 Alpha virt. eigenvalues --    3.40680   3.45721   3.48521   3.93006   3.99947
 Alpha virt. eigenvalues --    4.06710   4.07274   4.10027   4.10385   4.11604
 Alpha virt. eigenvalues --    4.12715   4.13250   4.14851   4.17191   4.17574
 Alpha virt. eigenvalues --    4.21265   4.21836   4.23751   4.26235   4.28229
 Alpha virt. eigenvalues --    4.30824   4.31956   4.33183   4.34415   4.34685
 Alpha virt. eigenvalues --    4.37045   4.42755   4.44227   4.45819   4.47272
 Alpha virt. eigenvalues --    4.48233   4.52308   4.53614   4.56113   4.56630
 Alpha virt. eigenvalues --    4.60844   4.66326   4.75361   4.75927   4.83533
 Alpha virt. eigenvalues --    5.47446
          Condensed to atoms (all electrons):
 Mulliken charges:
               1
     1  C   -0.446191
     2  C   -0.306361
     3  C    0.437944
     4  N   -0.563638
     5  C    0.460096
     6  N   -0.489678
     7  C   -0.104619
     8  C   -0.319540
     9  C   -0.144867
    10  N   -0.422498
    11  C    0.530635
    12  O   -0.506668
    13  C    0.062001
    14  C   -0.154146
    15  C   -0.165939
    16  C   -0.003211
    17  C    0.786639
    18  F   -0.260120
    19  F   -0.266921
    20  F   -0.269523
    21  C   -0.163477
    22  C   -0.171394
    23  C   -0.162819
    24  C   -0.168843
    25  C   -0.041926
    26  C    0.316972
    27  C   -0.554837
    28  N   -0.338448
    29  N   -0.502685
    30  C    0.304488
    31  C   -0.152763
    32  C   -0.203341
    33  C    0.191223
    34  C   -0.530999
    35  C   -0.193408
    36  C   -0.155634
    37  C    0.570681
    38  N   -0.545306
    39  H    0.155596
    40  H    0.145983
    41  H    0.151532
    42  H    0.154814
    43  H    0.153261
    44  H    0.166596
    45  H    0.185999
    46  H    0.145031
    47  H    0.162268
    48  H    0.145530
    49  H    0.196028
    50  H    0.168922
    51  H    0.165152
    52  H    0.159204
    53  H    0.151150
    54  H    0.150052
    55  H    0.175488
    56  H    0.159198
    57  H    0.171345
    58  H    0.177286
    59  H    0.188482
    60  H    0.159987
    61  H    0.176514
    62  H    0.122356
    63  H    0.164521
    64  H    0.156400
    65  H    0.155017
    66  H    0.122671
    67  H    0.162736
 Sum of Mulliken charges =  -0.00000
 Mulliken charges with hydrogens summed into heavy atoms:
               1
     1  C    0.006921
     2  C    0.001715
     3  C    0.437944
     4  N   -0.563638
     5  C    0.460096
     6  N   -0.489678
     7  C    0.247976
     8  C   -0.012241
     9  C    0.196692
    10  N   -0.422498
    11  C    0.530635
    12  O   -0.506668
    13  C    0.062001
    14  C    0.014776
    15  C   -0.000787
    16  C   -0.003211
    17  C    0.786639
    18  F   -0.260120
    19  F   -0.266921
    20  F   -0.269523
    21  C   -0.004273
    22  C   -0.020243
    23  C    0.162722
    24  C    0.161700
    25  C   -0.041926
    26  C    0.316972
    27  C   -0.029081
    28  N   -0.338448
    29  N   -0.502685
    30  C    0.304488
    31  C    0.023751
    32  C   -0.080985
    33  C    0.191223
    34  C   -0.055062
    35  C   -0.070737
    36  C    0.007102
    37  C    0.570681
    38  N   -0.545306
 Electronic spatial extent (au):  <R**2>=          22076.7812
 Charge=              0.0000 electrons
 Dipole moment (field-independent basis, Debye):
    X=             -1.8710    Y=              2.8738    Z=              3.6081  Tot=              4.9777
 Quadrupole moment (field-independent basis, Debye-Ang):
   XX=           -209.3971   YY=           -216.0173   ZZ=           -217.0147
   XY=            -10.7927   XZ=            -19.9927   YZ=              5.8844
 Traceless Quadrupole moment (field-independent basis, Debye-Ang):
   XX=              4.7459   YY=             -1.8742   ZZ=             -2.8717
   XY=            -10.7927   XZ=            -19.9927   YZ=              5.8844
 Octapole moment (field-independent basis, Debye-Ang**2):
  XXX=             -4.8687  YYY=             25.8484  ZZZ=             -4.1394  XYY=             -2.3297
  XXY=            -34.9662  XXZ=             39.8785  XZZ=            -30.7975  YZZ=            -20.3232
  YYZ=             18.0340  XYZ=            -24.7997
 Hexadecapole moment (field-independent basis, Debye-Ang**3):
 XXXX=         -16042.3937 YYYY=         -10027.5740 ZZZZ=          -1837.2773 XXXY=            -16.4621
 XXXZ=           -362.7913 YYYX=           -172.0815 YYYZ=             -5.8592 ZZZX=            -55.4825
 ZZZY=             80.6790 XXYY=          -4295.5536 XXZZ=          -3228.0157 YYZZ=          -1941.7663
 XXYZ=             25.1853 YYXZ=            -77.2963 ZZXY=            121.9799
 N-N= 4.261746260015D+03 E-N=-1.269027120124D+04  KE= 1.771664083225D+03
 No NMR shielding tensors so no spin-rotation constants.
 Leave Link  601 at Fri Nov  4 23:13:39 2022, MaxMem=   805306368 cpu:               2.9 elap:               0.5
 (Enter /home/wykgroup/appl/g16/l9999.exe)
 1\1\GINC-NODE100\FOpt\RB3LYP\6-31G(d)\C28H29F3N6O1\WYKGROUP\04-Nov-202
 2\0\\#p b3lyp/6-31g(d) opt SCF=XQC\\Gaussian input prepared by ASE\\0,
 1\C,-3.0705137922,-4.0547019138,-2.1213941289\C,-2.5117490791,-2.70280
 05178,-2.5981703299\C,-1.8853057796,-1.9166052344,-1.4712030929\N,-0.6
 734302047,-2.3295026567,-1.0627150383\C,-0.0437315497,-1.7182945672,-0
 .0455719156\N,1.1421336814,-2.3109533894,0.322736196\C,1.5789535512,-3
 .4860759574,-0.4785201698\C,2.8389394664,-4.1728866691,0.0563182596\C,
 4.1205102269,-3.3104789983,0.0267461974\N,3.8920988777,-1.8877324068,0
 .2922931028\C,3.8806647426,-1.0402342445,-0.8029491228\O,3.9984083418,
 -1.4480691875,-1.9549251231\C,3.8045054493,0.4462028126,-0.5601021349\
 C,2.9512365073,1.2063542405,-1.3700124645\C,2.9130195965,2.5925116198,
 -1.2475409755\C,3.7544958288,3.2345267229,-0.33410878\C,3.6813673308,4
 .7285850333,-0.1619850589\F,2.7929267226,5.0736336879,0.7995849913\F,3
 .2939871902,5.3488379266,-1.296866955\F,4.873982854,5.2506134879,0.202
 0884368\C,4.6324205542,2.4875065489,0.4552678555\C,4.6522894751,1.0987
 035151,0.3457190979\C,3.2159524585,-1.5650765964,1.542753881\C,1.75875
 91533,-2.1262015701,1.6238322147\C,-0.6439407187,-0.5439906899,0.52918
 46022\C,-0.3928239548,0.5444248056,1.4464130419\C,0.8031151143,0.97100
 67031,2.2487647918\N,-1.4371555668,1.350676838,1.5016543262\N,-2.39419
 71675,0.8652613911,0.6567022871\C,-3.6180061713,1.5816663128,0.5155003
 975\C,-4.7224848933,1.0247516125,-0.1396922543\C,-5.9022418789,1.76118
 65266,-0.2406035315\C,-6.0228466883,3.045695108,0.3002777172\C,-7.2987
 451778,3.8420139375,0.1588280205\C,-4.9061958953,3.5768197219,0.959565
 3026\C,-3.7156408718,2.8654244414,1.0684302228\C,-1.9419312086,-0.2613
 274807,0.021467097\N,-2.5950651368,-0.9206333637,-0.9477595777\H,-2.27
 73800172,-4.6646345266,-1.6768560986\H,-3.5036859805,-4.611366854,-2.9
 597309151\H,-3.8536287084,-3.9102923035,-1.3686381717\H,-3.3115420727,
 -2.0993600587,-3.0376129641\H,-1.7491841897,-2.8763161902,-3.366065492
 7\H,0.7616618092,-4.2137828201,-0.5148618572\H,1.7435456616,-3.1503299
 06,-1.5061520558\H,2.6627664785,-4.5699483952,1.0621505201\H,3.0071232
 205,-5.0531197209,-0.5758307766\H,4.8379240155,-3.6863762801,0.7675232
 631\H,4.5838910011,-3.3644954001,-0.9577737078\H,2.32682785,0.70110191
 36,-2.0994502648\H,2.2433949004,3.1772180784,-1.8692440578\H,5.3034060
 887,2.9910848004,1.1433247357\H,5.3447942391,0.5199845676,0.9502277468
 \H,3.8006399659,-1.9644891061,2.3813671283\H,3.1934077555,-0.483599291
 8,1.6515589532\H,1.7585066747,-3.0802343533,2.1631804496\H,1.141343899
 5,-1.4546838579,2.2141416\H,1.7061232198,1.017964701,1.6324717746\H,0.
 6059995689,1.9739599765,2.6349738063\H,1.0061612595,0.3232225663,3.109
 8311879\H,-4.6500213698,0.0369326187,-0.5734988742\H,-6.7521979166,1.3
 15136613,-0.7524195958\H,-7.2510802531,4.5261748459,-0.6993173075\H,-7
 .4914743064,4.453378357,1.0475392706\H,-8.1638274059,3.1882861291,0.00
 50853343\H,-4.9651295994,4.5708501282,1.3976733353\H,-2.8621271771,3.2
 868922194,1.5840646473\\Version=ES64L-G16RevB.01\State=1-A\HF=-1787.73
 51564\RMSD=8.339e-09\RMSF=2.967e-06\Dipole=0.6249324,-1.3490385,1.2746
 96\Quadrupole=1.9092078,1.3582107,-3.2674185,-9.925237,13.3759592,-5.3
 32102\PG=C01 [X(C28H29F3N6O1)]\\@


 WHEN IT COMES TO CASH FLOW, IT SEEMS LIKE THE TIDE IS ALWAYS GOING OUT.
 Job cpu time:       0 days 16 hours 43 minutes  9.0 seconds.
 Elapsed time:       0 days  2 hours 24 minutes 34.5 seconds.
 File lengths (MBytes):  RWF=    249 Int=      0 D2E=      0 Chk=     33 Scr=      1
 Normal termination of Gaussian 16 at Fri Nov  4 23:13:39 2022.
