 Entering Gaussian System, Link 0=/home/wykgroup/appl/g16/g16
 Input=calculation/no_transfer_pubchem_sampling_4_b3lyp/46406518_rwf.com
 Output=calculation/no_transfer_pubchem_sampling_4_b3lyp/46406518_rwf.log
 Initial command:
 /home/wykgroup/appl/g16/l1.exe "/userdata/scratch/wykgroup/khs/calculation/no_transfer_pubchem_sampling_4_b3lyp/46406518_rwf/Gau-2516.inp" -scrdir="/userdata/scratch/wykgroup/khs/calculation/no_transfer_pubchem_sampling_4_b3lyp/46406518_rwf/"
 Entering Link 1 = /home/wykgroup/appl/g16/l1.exe PID=      2517.
  
 Copyright (c) 1988-2017, Gaussian, Inc.  All Rights Reserved.
  
 This is part of the Gaussian(R) 16 program.  It is based on
 the Gaussian(R) 09 system (copyright 2009, Gaussian, Inc.),
 the Gaussian(R) 03 system (copyright 2003, Gaussian, Inc.),
 the Gaussian(R) 98 system (copyright 1998, Gaussian, Inc.),
 the Gaussian(R) 94 system (copyright 1995, Gaussian, Inc.),
 the Gaussian 92(TM) system (copyright 1992, Gaussian, Inc.),
 the Gaussian 90(TM) system (copyright 1990, Gaussian, Inc.),
 the Gaussian 88(TM) system (copyright 1988, Gaussian, Inc.),
 the Gaussian 86(TM) system (copyright 1986, Carnegie Mellon
 University), and the Gaussian 82(TM) system (copyright 1983,
 Carnegie Mellon University). Gaussian is a federally registered
 trademark of Gaussian, Inc.
  
 This software contains proprietary and confidential information,
 including trade secrets, belonging to Gaussian, Inc.
  
 This software is provided under written license and may be
 used, copied, transmitted, or stored only in accord with that
 written license.
  
 The following legend is applicable only to US Government
 contracts under FAR:
  
                    RESTRICTED RIGHTS LEGEND
  
 Use, reproduction and disclosure by the US Government is
 subject to restrictions as set forth in subparagraphs (a)
 and (c) of the Commercial Computer Software - Restricted
 Rights clause in FAR 52.227-19.
  
 Gaussian, Inc.
 340 Quinnipiac St., Bldg. 40, Wallingford CT 06492
  
  
 ---------------------------------------------------------------
 Warning -- This program may not be used in any manner that
 competes with the business of Gaussian, Inc. or will provide
 assistance to any competitor of Gaussian, Inc.  The licensee
 of this program is prohibited from giving any competitor of
 Gaussian, Inc. access to this program.  By using this program,
 the user acknowledges that Gaussian, Inc. is engaged in the
 business of creating and licensing software in the field of
 computational chemistry and represents and warrants to the
 licensee that it is not a competitor of Gaussian, Inc. and that
 it will not use this program in any manner prohibited above.
 ---------------------------------------------------------------
  

 Cite this work as:
 Gaussian 16, Revision B.01,
 M. J. Frisch, G. W. Trucks, H. B. Schlegel, G. E. Scuseria, 
 M. A. Robb, J. R. Cheeseman, G. Scalmani, V. Barone, 
 G. A. Petersson, H. Nakatsuji, X. Li, M. Caricato, A. V. Marenich, 
 J. Bloino, B. G. Janesko, R. Gomperts, B. Mennucci, H. P. Hratchian, 
 J. V. Ortiz, A. F. Izmaylov, J. L. Sonnenberg, D. Williams-Young, 
 F. Ding, F. Lipparini, F. Egidi, J. Goings, B. Peng, A. Petrone, 
 T. Henderson, D. Ranasinghe, V. G. Zakrzewski, J. Gao, N. Rega, 
 G. Zheng, W. Liang, M. Hada, M. Ehara, K. Toyota, R. Fukuda, 
 J. Hasegawa, M. Ishida, T. Nakajima, Y. Honda, O. Kitao, H. Nakai, 
 T. Vreven, K. Throssell, J. A. Montgomery, Jr., J. E. Peralta, 
 F. Ogliaro, M. J. Bearpark, J. J. Heyd, E. N. Brothers, K. N. Kudin, 
 V. N. Staroverov, T. A. Keith, R. Kobayashi, J. Normand, 
 K. Raghavachari, A. P. Rendell, J. C. Burant, S. S. Iyengar, 
 J. Tomasi, M. Cossi, J. M. Millam, M. Klene, C. Adamo, R. Cammi, 
 J. W. Ochterski, R. L. Martin, K. Morokuma, O. Farkas, 
 J. B. Foresman, and D. J. Fox, Gaussian, Inc., Wallingford CT, 2016.
 
 ******************************************
 Gaussian 16:  ES64L-G16RevB.01 20-Dec-2017
                 5-Nov-2022 
 ******************************************
 %chk=calculation/no_transfer_pubchem_sampling_4_b3lyp/46406518_rwf.chk
 %rwf=calculation/no_transfer_pubchem_sampling_4_b3lyp/46406518_rwf.rwf
 %nprocshared=14
 Will use up to   14 processors via shared memory.
 %mem=3GB
 -------------------------------------------------------------------
 #p b3lyp/6-31g(d) 6D 10F nosymm GFInput td=(50-50,nstate=2) SCF=XQC
 -------------------------------------------------------------------
 1/38=1,172=1/1;
 2/12=2,15=1,17=6,18=5,40=1/2;
 3/5=1,6=6,7=1,8=22,11=9,24=10,25=1,30=1,74=-5/1,2,3,8;
 4//1;
 5/5=2,8=3,13=1,38=5/2,8;
 8/6=1,10=2,108=2/1;
 9/41=2,42=1,48=2,70=2/14;
 6/7=2,8=2,9=2,10=2/1;
 99/5=1,9=1/99;
 Leave Link    1 at Sat Nov  5 12:02:18 2022, MaxMem=   402653184 cpu:               2.7 elap:               0.2
 (Enter /home/wykgroup/appl/g16/l101.exe)
 ------------------------------
 Gaussian input prepared by ASE
 ------------------------------
 Symbolic Z-matrix:
 Charge =  0 Multiplicity = 1
 C                     8.56931  -1.80587   0.48036 
 C                     7.33211  -1.39205  -0.28324 
 C                     7.20242  -1.65569  -1.6492 
 C                     6.04179  -1.28621  -2.32881 
 C                     4.982    -0.64768  -1.68375 
 C                     3.73923  -0.25635  -2.44938 
 C                     5.11718  -0.37971  -0.30174 
 N                     4.04581   0.27039   0.34756 
 C                     3.91341   0.6432    1.65731 
 O                     4.73281   0.47607   2.55063 
 C                     2.598     1.39746   1.93747 
 N                     1.53503   1.10957   0.98048 
 C                     0.86573  -0.17373   1.26344 
 C                    -0.50272  -0.2071    0.58598 
 N                    -1.4249    0.82136   1.11843 
 C                    -2.30115   0.29478   2.16475 
 C                    -3.52932  -0.47041   1.63834 
 O                    -4.13564  -1.2424    2.36974 
 N                    -3.85047  -0.14589   0.34875 
 C                    -4.92738  -0.58587  -0.45019 
 C                    -5.88182  -1.49252   0.02773 
 C                    -6.94084  -1.91455  -0.78476 
 C                    -7.97213  -2.87651  -0.24058 
 C                    -7.02937  -1.41809  -2.0876 
 C                    -6.07782  -0.51481  -2.5615 
 C                    -5.01593  -0.07977  -1.76801 
 C                    -3.99883   0.89661  -2.31185 
 C                    -0.73648   2.07759   1.5138 
 C                    -1.63943   3.28889   1.26737 
 C                     0.57642   2.20046   0.72648 
 C                     6.28214  -0.74897   0.38254 
 H                     9.40423  -2.01778  -0.19559 
 H                     8.88796  -1.02515   1.17996 
 H                     8.38659  -2.71239   1.07243 
 H                     8.00852  -2.1497   -2.18612 
 H                     5.95461  -1.4954   -3.39276 
 H                     2.83541  -0.74195  -2.05471 
 H                     3.55998   0.82793  -2.42776 
 H                     3.82784  -0.54735  -3.5 
 H                     3.22734   0.50769  -0.20527 
 H                     2.84269   2.46554   1.89311 
 H                     2.32847   1.17083   2.98173 
 H                     0.73531  -0.32009   2.351 
 H                     1.49144  -1.00207   0.90824 
 H                    -0.37619  -0.06703  -0.49496 
 H                    -0.96219  -1.19029   0.7218 
 H                    -1.78938  -0.37593   2.87251 
 H                    -2.69078   1.13018   2.75794 
 H                    -3.19129   0.51038  -0.0591 
 H                    -5.78448  -1.86225   1.04019 
 H                    -7.50103  -3.7035    0.30265 
 H                    -8.58398  -3.30236  -1.04247 
 H                    -8.65079  -2.37643   0.46281 
 H                    -7.84179  -1.73648  -2.7362 
 H                    -6.15799  -0.1369   -3.57842 
 H                    -2.9818    0.4794   -2.31713 
 H                    -3.9631    1.82884  -1.73043 
 H                    -4.24084   1.16888  -3.34319 
 H                    -0.47856   2.04261   2.58754 
 H                    -1.83407   3.40925   0.19534 
 H                    -2.60514   3.17819   1.77182 
 H                    -1.17216   4.20684   1.64272 
 H                     1.05593   3.15338   0.9679 
 H                     0.33465   2.23462  -0.34526 
 H                     6.35544  -0.52661   1.43913 
 
 ITRead=  0  0  0  0  0  0  0  0  0  0  0  0  0  0  0  0  0  0  0  0
 ITRead=  0  0  0  0  0  0  0  0  0  0  0  0  0  0  0  0  0  0  0  0
 ITRead=  0  0  0  0  0  0  0  0  0  0  0  0  0  0  0  0  0  0  0  0
 ITRead=  0  0  0  0  0
 MicOpt= -1 -1 -1 -1 -1 -1 -1 -1 -1 -1 -1 -1 -1 -1 -1 -1 -1 -1 -1 -1
 MicOpt= -1 -1 -1 -1 -1 -1 -1 -1 -1 -1 -1 -1 -1 -1 -1 -1 -1 -1 -1 -1
 MicOpt= -1 -1 -1 -1 -1 -1 -1 -1 -1 -1 -1 -1 -1 -1 -1 -1 -1 -1 -1 -1
 MicOpt= -1 -1 -1 -1 -1
 NAtoms=     65 NQM=       65 NQMF=       0 NMMI=      0 NMMIF=      0
                NMic=       0 NMicF=      0.
                    Isotopes and Nuclear Properties:
 (Nuclear quadrupole moments (NQMom) in fm**2, nuclear magnetic moments (NMagM)
  in nuclear magnetons)

  Atom         1           2           3           4           5           6           7           8           9          10
 IAtWgt=          12          12          12          12          12          12          12          14          12          16
 AtmWgt=  12.0000000  12.0000000  12.0000000  12.0000000  12.0000000  12.0000000  12.0000000  14.0030740  12.0000000  15.9949146
 NucSpn=           0           0           0           0           0           0           0           2           0           0
 AtZEff=  -0.0000000  -0.0000000  -0.0000000  -0.0000000  -0.0000000  -0.0000000  -0.0000000  -0.0000000  -0.0000000  -0.0000000
 NQMom=    0.0000000   0.0000000   0.0000000   0.0000000   0.0000000   0.0000000   0.0000000   2.0440000   0.0000000   0.0000000
 NMagM=    0.0000000   0.0000000   0.0000000   0.0000000   0.0000000   0.0000000   0.0000000   0.4037610   0.0000000   0.0000000
 AtZNuc=   6.0000000   6.0000000   6.0000000   6.0000000   6.0000000   6.0000000   6.0000000   7.0000000   6.0000000   8.0000000

  Atom        11          12          13          14          15          16          17          18          19          20
 IAtWgt=          12          14          12          12          14          12          12          16          14          12
 AtmWgt=  12.0000000  14.0030740  12.0000000  12.0000000  14.0030740  12.0000000  12.0000000  15.9949146  14.0030740  12.0000000
 NucSpn=           0           2           0           0           2           0           0           0           2           0
 AtZEff=  -0.0000000  -0.0000000  -0.0000000  -0.0000000  -0.0000000  -0.0000000  -0.0000000  -0.0000000  -0.0000000  -0.0000000
 NQMom=    0.0000000   2.0440000   0.0000000   0.0000000   2.0440000   0.0000000   0.0000000   0.0000000   2.0440000   0.0000000
 NMagM=    0.0000000   0.4037610   0.0000000   0.0000000   0.4037610   0.0000000   0.0000000   0.0000000   0.4037610   0.0000000
 AtZNuc=   6.0000000   7.0000000   6.0000000   6.0000000   7.0000000   6.0000000   6.0000000   8.0000000   7.0000000   6.0000000

  Atom        21          22          23          24          25          26          27          28          29          30
 IAtWgt=          12          12          12          12          12          12          12          12          12          12
 AtmWgt=  12.0000000  12.0000000  12.0000000  12.0000000  12.0000000  12.0000000  12.0000000  12.0000000  12.0000000  12.0000000
 NucSpn=           0           0           0           0           0           0           0           0           0           0
 AtZEff=  -0.0000000  -0.0000000  -0.0000000  -0.0000000  -0.0000000  -0.0000000  -0.0000000  -0.0000000  -0.0000000  -0.0000000
 NQMom=    0.0000000   0.0000000   0.0000000   0.0000000   0.0000000   0.0000000   0.0000000   0.0000000   0.0000000   0.0000000
 NMagM=    0.0000000   0.0000000   0.0000000   0.0000000   0.0000000   0.0000000   0.0000000   0.0000000   0.0000000   0.0000000
 AtZNuc=   6.0000000   6.0000000   6.0000000   6.0000000   6.0000000   6.0000000   6.0000000   6.0000000   6.0000000   6.0000000

  Atom        31          32          33          34          35          36          37          38          39          40
 IAtWgt=          12           1           1           1           1           1           1           1           1           1
 AtmWgt=  12.0000000   1.0078250   1.0078250   1.0078250   1.0078250   1.0078250   1.0078250   1.0078250   1.0078250   1.0078250
 NucSpn=           0           1           1           1           1           1           1           1           1           1
 AtZEff=  -0.0000000  -0.0000000  -0.0000000  -0.0000000  -0.0000000  -0.0000000  -0.0000000  -0.0000000  -0.0000000  -0.0000000
 NQMom=    0.0000000   0.0000000   0.0000000   0.0000000   0.0000000   0.0000000   0.0000000   0.0000000   0.0000000   0.0000000
 NMagM=    0.0000000   2.7928460   2.7928460   2.7928460   2.7928460   2.7928460   2.7928460   2.7928460   2.7928460   2.7928460
 AtZNuc=   6.0000000   1.0000000   1.0000000   1.0000000   1.0000000   1.0000000   1.0000000   1.0000000   1.0000000   1.0000000

  Atom        41          42          43          44          45          46          47          48          49          50
 IAtWgt=           1           1           1           1           1           1           1           1           1           1
 AtmWgt=   1.0078250   1.0078250   1.0078250   1.0078250   1.0078250   1.0078250   1.0078250   1.0078250   1.0078250   1.0078250
 NucSpn=           1           1           1           1           1           1           1           1           1           1
 AtZEff=  -0.0000000  -0.0000000  -0.0000000  -0.0000000  -0.0000000  -0.0000000  -0.0000000  -0.0000000  -0.0000000  -0.0000000
 NQMom=    0.0000000   0.0000000   0.0000000   0.0000000   0.0000000   0.0000000   0.0000000   0.0000000   0.0000000   0.0000000
 NMagM=    2.7928460   2.7928460   2.7928460   2.7928460   2.7928460   2.7928460   2.7928460   2.7928460   2.7928460   2.7928460
 AtZNuc=   1.0000000   1.0000000   1.0000000   1.0000000   1.0000000   1.0000000   1.0000000   1.0000000   1.0000000   1.0000000

  Atom        51          52          53          54          55          56          57          58          59          60
 IAtWgt=           1           1           1           1           1           1           1           1           1           1
 AtmWgt=   1.0078250   1.0078250   1.0078250   1.0078250   1.0078250   1.0078250   1.0078250   1.0078250   1.0078250   1.0078250
 NucSpn=           1           1           1           1           1           1           1           1           1           1
 AtZEff=  -0.0000000  -0.0000000  -0.0000000  -0.0000000  -0.0000000  -0.0000000  -0.0000000  -0.0000000  -0.0000000  -0.0000000
 NQMom=    0.0000000   0.0000000   0.0000000   0.0000000   0.0000000   0.0000000   0.0000000   0.0000000   0.0000000   0.0000000
 NMagM=    2.7928460   2.7928460   2.7928460   2.7928460   2.7928460   2.7928460   2.7928460   2.7928460   2.7928460   2.7928460
 AtZNuc=   1.0000000   1.0000000   1.0000000   1.0000000   1.0000000   1.0000000   1.0000000   1.0000000   1.0000000   1.0000000

  Atom        61          62          63          64          65
 IAtWgt=           1           1           1           1           1
 AtmWgt=   1.0078250   1.0078250   1.0078250   1.0078250   1.0078250
 NucSpn=           1           1           1           1           1
 AtZEff=  -0.0000000  -0.0000000  -0.0000000  -0.0000000  -0.0000000
 NQMom=    0.0000000   0.0000000   0.0000000   0.0000000   0.0000000
 NMagM=    2.7928460   2.7928460   2.7928460   2.7928460   2.7928460
 AtZNuc=   1.0000000   1.0000000   1.0000000   1.0000000   1.0000000
 Leave Link  101 at Sat Nov  5 12:02:19 2022, MaxMem=   402653184 cpu:               2.8 elap:               0.2
 (Enter /home/wykgroup/appl/g16/l202.exe)
 Symmetry turned off by external request.
 Stoichiometry    C25H34N4O2
 Framework group  C1[X(C25H34N4O2)]
 Deg. of freedom   189
 Full point group                 C1      NOp   1
                          Input orientation:                          
 ---------------------------------------------------------------------
 Center     Atomic      Atomic             Coordinates (Angstroms)
 Number     Number       Type             X           Y           Z
 ---------------------------------------------------------------------
      1          6           0        8.569308   -1.805866    0.480360
      2          6           0        7.332113   -1.392047   -0.283239
      3          6           0        7.202422   -1.655686   -1.649204
      4          6           0        6.041788   -1.286208   -2.328813
      5          6           0        4.982004   -0.647678   -1.683752
      6          6           0        3.739229   -0.256353   -2.449383
      7          6           0        5.117177   -0.379710   -0.301744
      8          7           0        4.045811    0.270388    0.347556
      9          6           0        3.913410    0.643204    1.657313
     10          8           0        4.732814    0.476073    2.550626
     11          6           0        2.597997    1.397457    1.937469
     12          7           0        1.535034    1.109574    0.980482
     13          6           0        0.865731   -0.173733    1.263437
     14          6           0       -0.502716   -0.207102    0.585981
     15          7           0       -1.424898    0.821359    1.118428
     16          6           0       -2.301153    0.294776    2.164746
     17          6           0       -3.529325   -0.470406    1.638342
     18          8           0       -4.135643   -1.242399    2.369738
     19          7           0       -3.850474   -0.145887    0.348751
     20          6           0       -4.927380   -0.585865   -0.450190
     21          6           0       -5.881821   -1.492519    0.027729
     22          6           0       -6.940843   -1.914547   -0.784756
     23          6           0       -7.972129   -2.876513   -0.240579
     24          6           0       -7.029370   -1.418091   -2.087596
     25          6           0       -6.077817   -0.514813   -2.561504
     26          6           0       -5.015934   -0.079768   -1.768013
     27          6           0       -3.998834    0.896607   -2.311855
     28          6           0       -0.736476    2.077585    1.513804
     29          6           0       -1.639427    3.288887    1.267366
     30          6           0        0.576422    2.200461    0.726483
     31          6           0        6.282138   -0.748972    0.382535
     32          1           0        9.404226   -2.017775   -0.195592
     33          1           0        8.887959   -1.025151    1.179962
     34          1           0        8.386585   -2.712386    1.072430
     35          1           0        8.008523   -2.149700   -2.186116
     36          1           0        5.954607   -1.495402   -3.392762
     37          1           0        2.835409   -0.741945   -2.054715
     38          1           0        3.559983    0.827934   -2.427763
     39          1           0        3.827842   -0.547346   -3.499997
     40          1           0        3.227338    0.507691   -0.205274
     41          1           0        2.842692    2.465539    1.893110
     42          1           0        2.328470    1.170827    2.981731
     43          1           0        0.735310   -0.320094    2.351001
     44          1           0        1.491439   -1.002068    0.908241
     45          1           0       -0.376189   -0.067028   -0.494955
     46          1           0       -0.962192   -1.190286    0.721801
     47          1           0       -1.789383   -0.375925    2.872513
     48          1           0       -2.690784    1.130181    2.757944
     49          1           0       -3.191287    0.510377   -0.059097
     50          1           0       -5.784480   -1.862252    1.040194
     51          1           0       -7.501029   -3.703497    0.302654
     52          1           0       -8.583978   -3.302363   -1.042466
     53          1           0       -8.650792   -2.376428    0.462810
     54          1           0       -7.841794   -1.736477   -2.736196
     55          1           0       -6.157990   -0.136897   -3.578418
     56          1           0       -2.981804    0.479401   -2.317129
     57          1           0       -3.963095    1.828837   -1.730430
     58          1           0       -4.240838    1.168885   -3.343195
     59          1           0       -0.478559    2.042612    2.587542
     60          1           0       -1.834070    3.409247    0.195336
     61          1           0       -2.605137    3.178193    1.771823
     62          1           0       -1.172156    4.206842    1.642722
     63          1           0        1.055929    3.153381    0.967902
     64          1           0        0.334648    2.234624   -0.345262
     65          1           0        6.355443   -0.526606    1.439128
 ---------------------------------------------------------------------
 Rotational constants (GHZ):           0.2752803           0.0480225           0.0450601
 Leave Link  202 at Sat Nov  5 12:02:19 2022, MaxMem=   402653184 cpu:               1.0 elap:               0.1
 (Enter /home/wykgroup/appl/g16/l301.exe)
 Standard basis: 6-31G(d) (6D, 10F)
 Ernie: Thresh=  0.10000D-02 Tol=  0.10000D-05 Strict=F.
 AO basis set in the form of general basis input (Overlap normalization):
      1 0
 S   6 1.00       0.000000000000
      0.3047524880D+04  0.1834737132D-02
      0.4573695180D+03  0.1403732281D-01
      0.1039486850D+03  0.6884262226D-01
      0.2921015530D+02  0.2321844432D+00
      0.9286662960D+01  0.4679413484D+00
      0.3163926960D+01  0.3623119853D+00
 SP   3 1.00       0.000000000000
      0.7868272350D+01 -0.1193324198D+00  0.6899906659D-01
      0.1881288540D+01 -0.1608541517D+00  0.3164239610D+00
      0.5442492580D+00  0.1143456438D+01  0.7443082909D+00
 SP   1 1.00       0.000000000000
      0.1687144782D+00  0.1000000000D+01  0.1000000000D+01
 D   1 1.00       0.000000000000
      0.8000000000D+00  0.1000000000D+01
 ****
      2 0
 S   6 1.00       0.000000000000
      0.3047524880D+04  0.1834737132D-02
      0.4573695180D+03  0.1403732281D-01
      0.1039486850D+03  0.6884262226D-01
      0.2921015530D+02  0.2321844432D+00
      0.9286662960D+01  0.4679413484D+00
      0.3163926960D+01  0.3623119853D+00
 SP   3 1.00       0.000000000000
      0.7868272350D+01 -0.1193324198D+00  0.6899906659D-01
      0.1881288540D+01 -0.1608541517D+00  0.3164239610D+00
      0.5442492580D+00  0.1143456438D+01  0.7443082909D+00
 SP   1 1.00       0.000000000000
      0.1687144782D+00  0.1000000000D+01  0.1000000000D+01
 D   1 1.00       0.000000000000
      0.8000000000D+00  0.1000000000D+01
 ****
      3 0
 S   6 1.00       0.000000000000
      0.3047524880D+04  0.1834737132D-02
      0.4573695180D+03  0.1403732281D-01
      0.1039486850D+03  0.6884262226D-01
      0.2921015530D+02  0.2321844432D+00
      0.9286662960D+01  0.4679413484D+00
      0.3163926960D+01  0.3623119853D+00
 SP   3 1.00       0.000000000000
      0.7868272350D+01 -0.1193324198D+00  0.6899906659D-01
      0.1881288540D+01 -0.1608541517D+00  0.3164239610D+00
      0.5442492580D+00  0.1143456438D+01  0.7443082909D+00
 SP   1 1.00       0.000000000000
      0.1687144782D+00  0.1000000000D+01  0.1000000000D+01
 D   1 1.00       0.000000000000
      0.8000000000D+00  0.1000000000D+01
 ****
      4 0
 S   6 1.00       0.000000000000
      0.3047524880D+04  0.1834737132D-02
      0.4573695180D+03  0.1403732281D-01
      0.1039486850D+03  0.6884262226D-01
      0.2921015530D+02  0.2321844432D+00
      0.9286662960D+01  0.4679413484D+00
      0.3163926960D+01  0.3623119853D+00
 SP   3 1.00       0.000000000000
      0.7868272350D+01 -0.1193324198D+00  0.6899906659D-01
      0.1881288540D+01 -0.1608541517D+00  0.3164239610D+00
      0.5442492580D+00  0.1143456438D+01  0.7443082909D+00
 SP   1 1.00       0.000000000000
      0.1687144782D+00  0.1000000000D+01  0.1000000000D+01
 D   1 1.00       0.000000000000
      0.8000000000D+00  0.1000000000D+01
 ****
      5 0
 S   6 1.00       0.000000000000
      0.3047524880D+04  0.1834737132D-02
      0.4573695180D+03  0.1403732281D-01
      0.1039486850D+03  0.6884262226D-01
      0.2921015530D+02  0.2321844432D+00
      0.9286662960D+01  0.4679413484D+00
      0.3163926960D+01  0.3623119853D+00
 SP   3 1.00       0.000000000000
      0.7868272350D+01 -0.1193324198D+00  0.6899906659D-01
      0.1881288540D+01 -0.1608541517D+00  0.3164239610D+00
      0.5442492580D+00  0.1143456438D+01  0.7443082909D+00
 SP   1 1.00       0.000000000000
      0.1687144782D+00  0.1000000000D+01  0.1000000000D+01
 D   1 1.00       0.000000000000
      0.8000000000D+00  0.1000000000D+01
 ****
      6 0
 S   6 1.00       0.000000000000
      0.3047524880D+04  0.1834737132D-02
      0.4573695180D+03  0.1403732281D-01
      0.1039486850D+03  0.6884262226D-01
      0.2921015530D+02  0.2321844432D+00
      0.9286662960D+01  0.4679413484D+00
      0.3163926960D+01  0.3623119853D+00
 SP   3 1.00       0.000000000000
      0.7868272350D+01 -0.1193324198D+00  0.6899906659D-01
      0.1881288540D+01 -0.1608541517D+00  0.3164239610D+00
      0.5442492580D+00  0.1143456438D+01  0.7443082909D+00
 SP   1 1.00       0.000000000000
      0.1687144782D+00  0.1000000000D+01  0.1000000000D+01
 D   1 1.00       0.000000000000
      0.8000000000D+00  0.1000000000D+01
 ****
      7 0
 S   6 1.00       0.000000000000
      0.3047524880D+04  0.1834737132D-02
      0.4573695180D+03  0.1403732281D-01
      0.1039486850D+03  0.6884262226D-01
      0.2921015530D+02  0.2321844432D+00
      0.9286662960D+01  0.4679413484D+00
      0.3163926960D+01  0.3623119853D+00
 SP   3 1.00       0.000000000000
      0.7868272350D+01 -0.1193324198D+00  0.6899906659D-01
      0.1881288540D+01 -0.1608541517D+00  0.3164239610D+00
      0.5442492580D+00  0.1143456438D+01  0.7443082909D+00
 SP   1 1.00       0.000000000000
      0.1687144782D+00  0.1000000000D+01  0.1000000000D+01
 D   1 1.00       0.000000000000
      0.8000000000D+00  0.1000000000D+01
 ****
      8 0
 S   6 1.00       0.000000000000
      0.4173511460D+04  0.1834772160D-02
      0.6274579110D+03  0.1399462700D-01
      0.1429020930D+03  0.6858655181D-01
      0.4023432930D+02  0.2322408730D+00
      0.1282021290D+02  0.4690699481D+00
      0.4390437010D+01  0.3604551991D+00
 SP   3 1.00       0.000000000000
      0.1162636186D+02 -0.1149611817D+00  0.6757974388D-01
      0.2716279807D+01 -0.1691174786D+00  0.3239072959D+00
      0.7722183966D+00  0.1145851947D+01  0.7408951398D+00
 SP   1 1.00       0.000000000000
      0.2120314975D+00  0.1000000000D+01  0.1000000000D+01
 D   1 1.00       0.000000000000
      0.8000000000D+00  0.1000000000D+01
 ****
      9 0
 S   6 1.00       0.000000000000
      0.3047524880D+04  0.1834737132D-02
      0.4573695180D+03  0.1403732281D-01
      0.1039486850D+03  0.6884262226D-01
      0.2921015530D+02  0.2321844432D+00
      0.9286662960D+01  0.4679413484D+00
      0.3163926960D+01  0.3623119853D+00
 SP   3 1.00       0.000000000000
      0.7868272350D+01 -0.1193324198D+00  0.6899906659D-01
      0.1881288540D+01 -0.1608541517D+00  0.3164239610D+00
      0.5442492580D+00  0.1143456438D+01  0.7443082909D+00
 SP   1 1.00       0.000000000000
      0.1687144782D+00  0.1000000000D+01  0.1000000000D+01
 D   1 1.00       0.000000000000
      0.8000000000D+00  0.1000000000D+01
 ****
     10 0
 S   6 1.00       0.000000000000
      0.5484671660D+04  0.1831074430D-02
      0.8252349460D+03  0.1395017220D-01
      0.1880469580D+03  0.6844507810D-01
      0.5296450000D+02  0.2327143360D+00
      0.1689757040D+02  0.4701928980D+00
      0.5799635340D+01  0.3585208530D+00
 SP   3 1.00       0.000000000000
      0.1553961625D+02 -0.1107775495D+00  0.7087426823D-01
      0.3599933586D+01 -0.1480262627D+00  0.3397528391D+00
      0.1013761750D+01  0.1130767015D+01  0.7271585773D+00
 SP   1 1.00       0.000000000000
      0.2700058226D+00  0.1000000000D+01  0.1000000000D+01
 D   1 1.00       0.000000000000
      0.8000000000D+00  0.1000000000D+01
 ****
     11 0
 S   6 1.00       0.000000000000
      0.3047524880D+04  0.1834737132D-02
      0.4573695180D+03  0.1403732281D-01
      0.1039486850D+03  0.6884262226D-01
      0.2921015530D+02  0.2321844432D+00
      0.9286662960D+01  0.4679413484D+00
      0.3163926960D+01  0.3623119853D+00
 SP   3 1.00       0.000000000000
      0.7868272350D+01 -0.1193324198D+00  0.6899906659D-01
      0.1881288540D+01 -0.1608541517D+00  0.3164239610D+00
      0.5442492580D+00  0.1143456438D+01  0.7443082909D+00
 SP   1 1.00       0.000000000000
      0.1687144782D+00  0.1000000000D+01  0.1000000000D+01
 D   1 1.00       0.000000000000
      0.8000000000D+00  0.1000000000D+01
 ****
     12 0
 S   6 1.00       0.000000000000
      0.4173511460D+04  0.1834772160D-02
      0.6274579110D+03  0.1399462700D-01
      0.1429020930D+03  0.6858655181D-01
      0.4023432930D+02  0.2322408730D+00
      0.1282021290D+02  0.4690699481D+00
      0.4390437010D+01  0.3604551991D+00
 SP   3 1.00       0.000000000000
      0.1162636186D+02 -0.1149611817D+00  0.6757974388D-01
      0.2716279807D+01 -0.1691174786D+00  0.3239072959D+00
      0.7722183966D+00  0.1145851947D+01  0.7408951398D+00
 SP   1 1.00       0.000000000000
      0.2120314975D+00  0.1000000000D+01  0.1000000000D+01
 D   1 1.00       0.000000000000
      0.8000000000D+00  0.1000000000D+01
 ****
     13 0
 S   6 1.00       0.000000000000
      0.3047524880D+04  0.1834737132D-02
      0.4573695180D+03  0.1403732281D-01
      0.1039486850D+03  0.6884262226D-01
      0.2921015530D+02  0.2321844432D+00
      0.9286662960D+01  0.4679413484D+00
      0.3163926960D+01  0.3623119853D+00
 SP   3 1.00       0.000000000000
      0.7868272350D+01 -0.1193324198D+00  0.6899906659D-01
      0.1881288540D+01 -0.1608541517D+00  0.3164239610D+00
      0.5442492580D+00  0.1143456438D+01  0.7443082909D+00
 SP   1 1.00       0.000000000000
      0.1687144782D+00  0.1000000000D+01  0.1000000000D+01
 D   1 1.00       0.000000000000
      0.8000000000D+00  0.1000000000D+01
 ****
     14 0
 S   6 1.00       0.000000000000
      0.3047524880D+04  0.1834737132D-02
      0.4573695180D+03  0.1403732281D-01
      0.1039486850D+03  0.6884262226D-01
      0.2921015530D+02  0.2321844432D+00
      0.9286662960D+01  0.4679413484D+00
      0.3163926960D+01  0.3623119853D+00
 SP   3 1.00       0.000000000000
      0.7868272350D+01 -0.1193324198D+00  0.6899906659D-01
      0.1881288540D+01 -0.1608541517D+00  0.3164239610D+00
      0.5442492580D+00  0.1143456438D+01  0.7443082909D+00
 SP   1 1.00       0.000000000000
      0.1687144782D+00  0.1000000000D+01  0.1000000000D+01
 D   1 1.00       0.000000000000
      0.8000000000D+00  0.1000000000D+01
 ****
     15 0
 S   6 1.00       0.000000000000
      0.4173511460D+04  0.1834772160D-02
      0.6274579110D+03  0.1399462700D-01
      0.1429020930D+03  0.6858655181D-01
      0.4023432930D+02  0.2322408730D+00
      0.1282021290D+02  0.4690699481D+00
      0.4390437010D+01  0.3604551991D+00
 SP   3 1.00       0.000000000000
      0.1162636186D+02 -0.1149611817D+00  0.6757974388D-01
      0.2716279807D+01 -0.1691174786D+00  0.3239072959D+00
      0.7722183966D+00  0.1145851947D+01  0.7408951398D+00
 SP   1 1.00       0.000000000000
      0.2120314975D+00  0.1000000000D+01  0.1000000000D+01
 D   1 1.00       0.000000000000
      0.8000000000D+00  0.1000000000D+01
 ****
     16 0
 S   6 1.00       0.000000000000
      0.3047524880D+04  0.1834737132D-02
      0.4573695180D+03  0.1403732281D-01
      0.1039486850D+03  0.6884262226D-01
      0.2921015530D+02  0.2321844432D+00
      0.9286662960D+01  0.4679413484D+00
      0.3163926960D+01  0.3623119853D+00
 SP   3 1.00       0.000000000000
      0.7868272350D+01 -0.1193324198D+00  0.6899906659D-01
      0.1881288540D+01 -0.1608541517D+00  0.3164239610D+00
      0.5442492580D+00  0.1143456438D+01  0.7443082909D+00
 SP   1 1.00       0.000000000000
      0.1687144782D+00  0.1000000000D+01  0.1000000000D+01
 D   1 1.00       0.000000000000
      0.8000000000D+00  0.1000000000D+01
 ****
     17 0
 S   6 1.00       0.000000000000
      0.3047524880D+04  0.1834737132D-02
      0.4573695180D+03  0.1403732281D-01
      0.1039486850D+03  0.6884262226D-01
      0.2921015530D+02  0.2321844432D+00
      0.9286662960D+01  0.4679413484D+00
      0.3163926960D+01  0.3623119853D+00
 SP   3 1.00       0.000000000000
      0.7868272350D+01 -0.1193324198D+00  0.6899906659D-01
      0.1881288540D+01 -0.1608541517D+00  0.3164239610D+00
      0.5442492580D+00  0.1143456438D+01  0.7443082909D+00
 SP   1 1.00       0.000000000000
      0.1687144782D+00  0.1000000000D+01  0.1000000000D+01
 D   1 1.00       0.000000000000
      0.8000000000D+00  0.1000000000D+01
 ****
     18 0
 S   6 1.00       0.000000000000
      0.5484671660D+04  0.1831074430D-02
      0.8252349460D+03  0.1395017220D-01
      0.1880469580D+03  0.6844507810D-01
      0.5296450000D+02  0.2327143360D+00
      0.1689757040D+02  0.4701928980D+00
      0.5799635340D+01  0.3585208530D+00
 SP   3 1.00       0.000000000000
      0.1553961625D+02 -0.1107775495D+00  0.7087426823D-01
      0.3599933586D+01 -0.1480262627D+00  0.3397528391D+00
      0.1013761750D+01  0.1130767015D+01  0.7271585773D+00
 SP   1 1.00       0.000000000000
      0.2700058226D+00  0.1000000000D+01  0.1000000000D+01
 D   1 1.00       0.000000000000
      0.8000000000D+00  0.1000000000D+01
 ****
     19 0
 S   6 1.00       0.000000000000
      0.4173511460D+04  0.1834772160D-02
      0.6274579110D+03  0.1399462700D-01
      0.1429020930D+03  0.6858655181D-01
      0.4023432930D+02  0.2322408730D+00
      0.1282021290D+02  0.4690699481D+00
      0.4390437010D+01  0.3604551991D+00
 SP   3 1.00       0.000000000000
      0.1162636186D+02 -0.1149611817D+00  0.6757974388D-01
      0.2716279807D+01 -0.1691174786D+00  0.3239072959D+00
      0.7722183966D+00  0.1145851947D+01  0.7408951398D+00
 SP   1 1.00       0.000000000000
      0.2120314975D+00  0.1000000000D+01  0.1000000000D+01
 D   1 1.00       0.000000000000
      0.8000000000D+00  0.1000000000D+01
 ****
     20 0
 S   6 1.00       0.000000000000
      0.3047524880D+04  0.1834737132D-02
      0.4573695180D+03  0.1403732281D-01
      0.1039486850D+03  0.6884262226D-01
      0.2921015530D+02  0.2321844432D+00
      0.9286662960D+01  0.4679413484D+00
      0.3163926960D+01  0.3623119853D+00
 SP   3 1.00       0.000000000000
      0.7868272350D+01 -0.1193324198D+00  0.6899906659D-01
      0.1881288540D+01 -0.1608541517D+00  0.3164239610D+00
      0.5442492580D+00  0.1143456438D+01  0.7443082909D+00
 SP   1 1.00       0.000000000000
      0.1687144782D+00  0.1000000000D+01  0.1000000000D+01
 D   1 1.00       0.000000000000
      0.8000000000D+00  0.1000000000D+01
 ****
     21 0
 S   6 1.00       0.000000000000
      0.3047524880D+04  0.1834737132D-02
      0.4573695180D+03  0.1403732281D-01
      0.1039486850D+03  0.6884262226D-01
      0.2921015530D+02  0.2321844432D+00
      0.9286662960D+01  0.4679413484D+00
      0.3163926960D+01  0.3623119853D+00
 SP   3 1.00       0.000000000000
      0.7868272350D+01 -0.1193324198D+00  0.6899906659D-01
      0.1881288540D+01 -0.1608541517D+00  0.3164239610D+00
      0.5442492580D+00  0.1143456438D+01  0.7443082909D+00
 SP   1 1.00       0.000000000000
      0.1687144782D+00  0.1000000000D+01  0.1000000000D+01
 D   1 1.00       0.000000000000
      0.8000000000D+00  0.1000000000D+01
 ****
     22 0
 S   6 1.00       0.000000000000
      0.3047524880D+04  0.1834737132D-02
      0.4573695180D+03  0.1403732281D-01
      0.1039486850D+03  0.6884262226D-01
      0.2921015530D+02  0.2321844432D+00
      0.9286662960D+01  0.4679413484D+00
      0.3163926960D+01  0.3623119853D+00
 SP   3 1.00       0.000000000000
      0.7868272350D+01 -0.1193324198D+00  0.6899906659D-01
      0.1881288540D+01 -0.1608541517D+00  0.3164239610D+00
      0.5442492580D+00  0.1143456438D+01  0.7443082909D+00
 SP   1 1.00       0.000000000000
      0.1687144782D+00  0.1000000000D+01  0.1000000000D+01
 D   1 1.00       0.000000000000
      0.8000000000D+00  0.1000000000D+01
 ****
     23 0
 S   6 1.00       0.000000000000
      0.3047524880D+04  0.1834737132D-02
      0.4573695180D+03  0.1403732281D-01
      0.1039486850D+03  0.6884262226D-01
      0.2921015530D+02  0.2321844432D+00
      0.9286662960D+01  0.4679413484D+00
      0.3163926960D+01  0.3623119853D+00
 SP   3 1.00       0.000000000000
      0.7868272350D+01 -0.1193324198D+00  0.6899906659D-01
      0.1881288540D+01 -0.1608541517D+00  0.3164239610D+00
      0.5442492580D+00  0.1143456438D+01  0.7443082909D+00
 SP   1 1.00       0.000000000000
      0.1687144782D+00  0.1000000000D+01  0.1000000000D+01
 D   1 1.00       0.000000000000
      0.8000000000D+00  0.1000000000D+01
 ****
     24 0
 S   6 1.00       0.000000000000
      0.3047524880D+04  0.1834737132D-02
      0.4573695180D+03  0.1403732281D-01
      0.1039486850D+03  0.6884262226D-01
      0.2921015530D+02  0.2321844432D+00
      0.9286662960D+01  0.4679413484D+00
      0.3163926960D+01  0.3623119853D+00
 SP   3 1.00       0.000000000000
      0.7868272350D+01 -0.1193324198D+00  0.6899906659D-01
      0.1881288540D+01 -0.1608541517D+00  0.3164239610D+00
      0.5442492580D+00  0.1143456438D+01  0.7443082909D+00
 SP   1 1.00       0.000000000000
      0.1687144782D+00  0.1000000000D+01  0.1000000000D+01
 D   1 1.00       0.000000000000
      0.8000000000D+00  0.1000000000D+01
 ****
     25 0
 S   6 1.00       0.000000000000
      0.3047524880D+04  0.1834737132D-02
      0.4573695180D+03  0.1403732281D-01
      0.1039486850D+03  0.6884262226D-01
      0.2921015530D+02  0.2321844432D+00
      0.9286662960D+01  0.4679413484D+00
      0.3163926960D+01  0.3623119853D+00
 SP   3 1.00       0.000000000000
      0.7868272350D+01 -0.1193324198D+00  0.6899906659D-01
      0.1881288540D+01 -0.1608541517D+00  0.3164239610D+00
      0.5442492580D+00  0.1143456438D+01  0.7443082909D+00
 SP   1 1.00       0.000000000000
      0.1687144782D+00  0.1000000000D+01  0.1000000000D+01
 D   1 1.00       0.000000000000
      0.8000000000D+00  0.1000000000D+01
 ****
     26 0
 S   6 1.00       0.000000000000
      0.3047524880D+04  0.1834737132D-02
      0.4573695180D+03  0.1403732281D-01
      0.1039486850D+03  0.6884262226D-01
      0.2921015530D+02  0.2321844432D+00
      0.9286662960D+01  0.4679413484D+00
      0.3163926960D+01  0.3623119853D+00
 SP   3 1.00       0.000000000000
      0.7868272350D+01 -0.1193324198D+00  0.6899906659D-01
      0.1881288540D+01 -0.1608541517D+00  0.3164239610D+00
      0.5442492580D+00  0.1143456438D+01  0.7443082909D+00
 SP   1 1.00       0.000000000000
      0.1687144782D+00  0.1000000000D+01  0.1000000000D+01
 D   1 1.00       0.000000000000
      0.8000000000D+00  0.1000000000D+01
 ****
     27 0
 S   6 1.00       0.000000000000
      0.3047524880D+04  0.1834737132D-02
      0.4573695180D+03  0.1403732281D-01
      0.1039486850D+03  0.6884262226D-01
      0.2921015530D+02  0.2321844432D+00
      0.9286662960D+01  0.4679413484D+00
      0.3163926960D+01  0.3623119853D+00
 SP   3 1.00       0.000000000000
      0.7868272350D+01 -0.1193324198D+00  0.6899906659D-01
      0.1881288540D+01 -0.1608541517D+00  0.3164239610D+00
      0.5442492580D+00  0.1143456438D+01  0.7443082909D+00
 SP   1 1.00       0.000000000000
      0.1687144782D+00  0.1000000000D+01  0.1000000000D+01
 D   1 1.00       0.000000000000
      0.8000000000D+00  0.1000000000D+01
 ****
     28 0
 S   6 1.00       0.000000000000
      0.3047524880D+04  0.1834737132D-02
      0.4573695180D+03  0.1403732281D-01
      0.1039486850D+03  0.6884262226D-01
      0.2921015530D+02  0.2321844432D+00
      0.9286662960D+01  0.4679413484D+00
      0.3163926960D+01  0.3623119853D+00
 SP   3 1.00       0.000000000000
      0.7868272350D+01 -0.1193324198D+00  0.6899906659D-01
      0.1881288540D+01 -0.1608541517D+00  0.3164239610D+00
      0.5442492580D+00  0.1143456438D+01  0.7443082909D+00
 SP   1 1.00       0.000000000000
      0.1687144782D+00  0.1000000000D+01  0.1000000000D+01
 D   1 1.00       0.000000000000
      0.8000000000D+00  0.1000000000D+01
 ****
     29 0
 S   6 1.00       0.000000000000
      0.3047524880D+04  0.1834737132D-02
      0.4573695180D+03  0.1403732281D-01
      0.1039486850D+03  0.6884262226D-01
      0.2921015530D+02  0.2321844432D+00
      0.9286662960D+01  0.4679413484D+00
      0.3163926960D+01  0.3623119853D+00
 SP   3 1.00       0.000000000000
      0.7868272350D+01 -0.1193324198D+00  0.6899906659D-01
      0.1881288540D+01 -0.1608541517D+00  0.3164239610D+00
      0.5442492580D+00  0.1143456438D+01  0.7443082909D+00
 SP   1 1.00       0.000000000000
      0.1687144782D+00  0.1000000000D+01  0.1000000000D+01
 D   1 1.00       0.000000000000
      0.8000000000D+00  0.1000000000D+01
 ****
     30 0
 S   6 1.00       0.000000000000
      0.3047524880D+04  0.1834737132D-02
      0.4573695180D+03  0.1403732281D-01
      0.1039486850D+03  0.6884262226D-01
      0.2921015530D+02  0.2321844432D+00
      0.9286662960D+01  0.4679413484D+00
      0.3163926960D+01  0.3623119853D+00
 SP   3 1.00       0.000000000000
      0.7868272350D+01 -0.1193324198D+00  0.6899906659D-01
      0.1881288540D+01 -0.1608541517D+00  0.3164239610D+00
      0.5442492580D+00  0.1143456438D+01  0.7443082909D+00
 SP   1 1.00       0.000000000000
      0.1687144782D+00  0.1000000000D+01  0.1000000000D+01
 D   1 1.00       0.000000000000
      0.8000000000D+00  0.1000000000D+01
 ****
     31 0
 S   6 1.00       0.000000000000
      0.3047524880D+04  0.1834737132D-02
      0.4573695180D+03  0.1403732281D-01
      0.1039486850D+03  0.6884262226D-01
      0.2921015530D+02  0.2321844432D+00
      0.9286662960D+01  0.4679413484D+00
      0.3163926960D+01  0.3623119853D+00
 SP   3 1.00       0.000000000000
      0.7868272350D+01 -0.1193324198D+00  0.6899906659D-01
      0.1881288540D+01 -0.1608541517D+00  0.3164239610D+00
      0.5442492580D+00  0.1143456438D+01  0.7443082909D+00
 SP   1 1.00       0.000000000000
      0.1687144782D+00  0.1000000000D+01  0.1000000000D+01
 D   1 1.00       0.000000000000
      0.8000000000D+00  0.1000000000D+01
 ****
     32 0
 S   3 1.00       0.000000000000
      0.1873113696D+02  0.3349460434D-01
      0.2825394365D+01  0.2347269535D+00
      0.6401216923D+00  0.8137573261D+00
 S   1 1.00       0.000000000000
      0.1612777588D+00  0.1000000000D+01
 ****
     33 0
 S   3 1.00       0.000000000000
      0.1873113696D+02  0.3349460434D-01
      0.2825394365D+01  0.2347269535D+00
      0.6401216923D+00  0.8137573261D+00
 S   1 1.00       0.000000000000
      0.1612777588D+00  0.1000000000D+01
 ****
     34 0
 S   3 1.00       0.000000000000
      0.1873113696D+02  0.3349460434D-01
      0.2825394365D+01  0.2347269535D+00
      0.6401216923D+00  0.8137573261D+00
 S   1 1.00       0.000000000000
      0.1612777588D+00  0.1000000000D+01
 ****
     35 0
 S   3 1.00       0.000000000000
      0.1873113696D+02  0.3349460434D-01
      0.2825394365D+01  0.2347269535D+00
      0.6401216923D+00  0.8137573261D+00
 S   1 1.00       0.000000000000
      0.1612777588D+00  0.1000000000D+01
 ****
     36 0
 S   3 1.00       0.000000000000
      0.1873113696D+02  0.3349460434D-01
      0.2825394365D+01  0.2347269535D+00
      0.6401216923D+00  0.8137573261D+00
 S   1 1.00       0.000000000000
      0.1612777588D+00  0.1000000000D+01
 ****
     37 0
 S   3 1.00       0.000000000000
      0.1873113696D+02  0.3349460434D-01
      0.2825394365D+01  0.2347269535D+00
      0.6401216923D+00  0.8137573261D+00
 S   1 1.00       0.000000000000
      0.1612777588D+00  0.1000000000D+01
 ****
     38 0
 S   3 1.00       0.000000000000
      0.1873113696D+02  0.3349460434D-01
      0.2825394365D+01  0.2347269535D+00
      0.6401216923D+00  0.8137573261D+00
 S   1 1.00       0.000000000000
      0.1612777588D+00  0.1000000000D+01
 ****
     39 0
 S   3 1.00       0.000000000000
      0.1873113696D+02  0.3349460434D-01
      0.2825394365D+01  0.2347269535D+00
      0.6401216923D+00  0.8137573261D+00
 S   1 1.00       0.000000000000
      0.1612777588D+00  0.1000000000D+01
 ****
     40 0
 S   3 1.00       0.000000000000
      0.1873113696D+02  0.3349460434D-01
      0.2825394365D+01  0.2347269535D+00
      0.6401216923D+00  0.8137573261D+00
 S   1 1.00       0.000000000000
      0.1612777588D+00  0.1000000000D+01
 ****
     41 0
 S   3 1.00       0.000000000000
      0.1873113696D+02  0.3349460434D-01
      0.2825394365D+01  0.2347269535D+00
      0.6401216923D+00  0.8137573261D+00
 S   1 1.00       0.000000000000
      0.1612777588D+00  0.1000000000D+01
 ****
     42 0
 S   3 1.00       0.000000000000
      0.1873113696D+02  0.3349460434D-01
      0.2825394365D+01  0.2347269535D+00
      0.6401216923D+00  0.8137573261D+00
 S   1 1.00       0.000000000000
      0.1612777588D+00  0.1000000000D+01
 ****
     43 0
 S   3 1.00       0.000000000000
      0.1873113696D+02  0.3349460434D-01
      0.2825394365D+01  0.2347269535D+00
      0.6401216923D+00  0.8137573261D+00
 S   1 1.00       0.000000000000
      0.1612777588D+00  0.1000000000D+01
 ****
     44 0
 S   3 1.00       0.000000000000
      0.1873113696D+02  0.3349460434D-01
      0.2825394365D+01  0.2347269535D+00
      0.6401216923D+00  0.8137573261D+00
 S   1 1.00       0.000000000000
      0.1612777588D+00  0.1000000000D+01
 ****
     45 0
 S   3 1.00       0.000000000000
      0.1873113696D+02  0.3349460434D-01
      0.2825394365D+01  0.2347269535D+00
      0.6401216923D+00  0.8137573261D+00
 S   1 1.00       0.000000000000
      0.1612777588D+00  0.1000000000D+01
 ****
     46 0
 S   3 1.00       0.000000000000
      0.1873113696D+02  0.3349460434D-01
      0.2825394365D+01  0.2347269535D+00
      0.6401216923D+00  0.8137573261D+00
 S   1 1.00       0.000000000000
      0.1612777588D+00  0.1000000000D+01
 ****
     47 0
 S   3 1.00       0.000000000000
      0.1873113696D+02  0.3349460434D-01
      0.2825394365D+01  0.2347269535D+00
      0.6401216923D+00  0.8137573261D+00
 S   1 1.00       0.000000000000
      0.1612777588D+00  0.1000000000D+01
 ****
     48 0
 S   3 1.00       0.000000000000
      0.1873113696D+02  0.3349460434D-01
      0.2825394365D+01  0.2347269535D+00
      0.6401216923D+00  0.8137573261D+00
 S   1 1.00       0.000000000000
      0.1612777588D+00  0.1000000000D+01
 ****
     49 0
 S   3 1.00       0.000000000000
      0.1873113696D+02  0.3349460434D-01
      0.2825394365D+01  0.2347269535D+00
      0.6401216923D+00  0.8137573261D+00
 S   1 1.00       0.000000000000
      0.1612777588D+00  0.1000000000D+01
 ****
     50 0
 S   3 1.00       0.000000000000
      0.1873113696D+02  0.3349460434D-01
      0.2825394365D+01  0.2347269535D+00
      0.6401216923D+00  0.8137573261D+00
 S   1 1.00       0.000000000000
      0.1612777588D+00  0.1000000000D+01
 ****
     51 0
 S   3 1.00       0.000000000000
      0.1873113696D+02  0.3349460434D-01
      0.2825394365D+01  0.2347269535D+00
      0.6401216923D+00  0.8137573261D+00
 S   1 1.00       0.000000000000
      0.1612777588D+00  0.1000000000D+01
 ****
     52 0
 S   3 1.00       0.000000000000
      0.1873113696D+02  0.3349460434D-01
      0.2825394365D+01  0.2347269535D+00
      0.6401216923D+00  0.8137573261D+00
 S   1 1.00       0.000000000000
      0.1612777588D+00  0.1000000000D+01
 ****
     53 0
 S   3 1.00       0.000000000000
      0.1873113696D+02  0.3349460434D-01
      0.2825394365D+01  0.2347269535D+00
      0.6401216923D+00  0.8137573261D+00
 S   1 1.00       0.000000000000
      0.1612777588D+00  0.1000000000D+01
 ****
     54 0
 S   3 1.00       0.000000000000
      0.1873113696D+02  0.3349460434D-01
      0.2825394365D+01  0.2347269535D+00
      0.6401216923D+00  0.8137573261D+00
 S   1 1.00       0.000000000000
      0.1612777588D+00  0.1000000000D+01
 ****
     55 0
 S   3 1.00       0.000000000000
      0.1873113696D+02  0.3349460434D-01
      0.2825394365D+01  0.2347269535D+00
      0.6401216923D+00  0.8137573261D+00
 S   1 1.00       0.000000000000
      0.1612777588D+00  0.1000000000D+01
 ****
     56 0
 S   3 1.00       0.000000000000
      0.1873113696D+02  0.3349460434D-01
      0.2825394365D+01  0.2347269535D+00
      0.6401216923D+00  0.8137573261D+00
 S   1 1.00       0.000000000000
      0.1612777588D+00  0.1000000000D+01
 ****
     57 0
 S   3 1.00       0.000000000000
      0.1873113696D+02  0.3349460434D-01
      0.2825394365D+01  0.2347269535D+00
      0.6401216923D+00  0.8137573261D+00
 S   1 1.00       0.000000000000
      0.1612777588D+00  0.1000000000D+01
 ****
     58 0
 S   3 1.00       0.000000000000
      0.1873113696D+02  0.3349460434D-01
      0.2825394365D+01  0.2347269535D+00
      0.6401216923D+00  0.8137573261D+00
 S   1 1.00       0.000000000000
      0.1612777588D+00  0.1000000000D+01
 ****
     59 0
 S   3 1.00       0.000000000000
      0.1873113696D+02  0.3349460434D-01
      0.2825394365D+01  0.2347269535D+00
      0.6401216923D+00  0.8137573261D+00
 S   1 1.00       0.000000000000
      0.1612777588D+00  0.1000000000D+01
 ****
     60 0
 S   3 1.00       0.000000000000
      0.1873113696D+02  0.3349460434D-01
      0.2825394365D+01  0.2347269535D+00
      0.6401216923D+00  0.8137573261D+00
 S   1 1.00       0.000000000000
      0.1612777588D+00  0.1000000000D+01
 ****
     61 0
 S   3 1.00       0.000000000000
      0.1873113696D+02  0.3349460434D-01
      0.2825394365D+01  0.2347269535D+00
      0.6401216923D+00  0.8137573261D+00
 S   1 1.00       0.000000000000
      0.1612777588D+00  0.1000000000D+01
 ****
     62 0
 S   3 1.00       0.000000000000
      0.1873113696D+02  0.3349460434D-01
      0.2825394365D+01  0.2347269535D+00
      0.6401216923D+00  0.8137573261D+00
 S   1 1.00       0.000000000000
      0.1612777588D+00  0.1000000000D+01
 ****
     63 0
 S   3 1.00       0.000000000000
      0.1873113696D+02  0.3349460434D-01
      0.2825394365D+01  0.2347269535D+00
      0.6401216923D+00  0.8137573261D+00
 S   1 1.00       0.000000000000
      0.1612777588D+00  0.1000000000D+01
 ****
     64 0
 S   3 1.00       0.000000000000
      0.1873113696D+02  0.3349460434D-01
      0.2825394365D+01  0.2347269535D+00
      0.6401216923D+00  0.8137573261D+00
 S   1 1.00       0.000000000000
      0.1612777588D+00  0.1000000000D+01
 ****
     65 0
 S   3 1.00       0.000000000000
      0.1873113696D+02  0.3349460434D-01
      0.2825394365D+01  0.2347269535D+00
      0.6401216923D+00  0.8137573261D+00
 S   1 1.00       0.000000000000
      0.1612777588D+00  0.1000000000D+01
 ****

   533 basis functions,  1004 primitive gaussians,   533 cartesian basis functions
   114 alpha electrons      114 beta electrons
       nuclear repulsion energy      2938.2388529330 Hartrees.
 IExCor=  402 DFT=T Ex+Corr=B3LYP ExCW=0 ScaHFX=  0.200000
 ScaDFX=  0.800000  0.720000  1.000000  0.810000 ScalE2=  1.000000  1.000000
 IRadAn=      5 IRanWt=     -1 IRanGd=            0 ICorTp=0 IEmpDi=  4
 NAtoms=   65 NActive=   65 NUniq=   65 SFac= 1.00D+00 NAtFMM=   60 NAOKFM=T Big=T
 Integral buffers will be    131072 words long.
 Regular integral format.
 Two-electron integral symmetry is turned off.
 Leave Link  301 at Sat Nov  5 12:02:19 2022, MaxMem=   402653184 cpu:               1.4 elap:               0.1
 (Enter /home/wykgroup/appl/g16/l302.exe)
 NPDir=0 NMtPBC=     1 NCelOv=     1 NCel=       1 NClECP=     1 NCelD=      1
         NCelK=      1 NCelE2=     1 NClLst=     1 CellRange=     0.0.
 One-electron integrals computed using PRISM.
 NBasis=   533 RedAO= T EigKep=  3.65D-04  NBF=   533
 NBsUse=   533 1.00D-06 EigRej= -1.00D+00 NBFU=   533
 Precomputing XC quadrature grid using
 IXCGrd= 4 IRadAn=           5 IRanWt=          -1 IRanGd=           0 AccXCQ= 0.00D+00.
 Generated NRdTot=       0 NPtTot=           0 NUsed=           0 NTot=          32
 NSgBfM=   511   510   511   511   511 MxSgAt=    65 MxSgA2=    65.
 Leave Link  302 at Sat Nov  5 12:02:20 2022, MaxMem=   402653184 cpu:              17.3 elap:               1.4
 (Enter /home/wykgroup/appl/g16/l303.exe)
 DipDrv:  MaxL=1.
 Leave Link  303 at Sat Nov  5 12:02:21 2022, MaxMem=   402653184 cpu:               3.1 elap:               0.3
 (Enter /home/wykgroup/appl/g16/l308.exe)
 Leave Link  308 at Sat Nov  5 12:02:21 2022, MaxMem=   402653184 cpu:               1.3 elap:               0.1
 (Enter /home/wykgroup/appl/g16/l401.exe)
 ExpMin= 1.61D-01 ExpMax= 5.48D+03 ExpMxC= 8.25D+02 IAcc=3 IRadAn=         5 AccDes= 0.00D+00
 Harris functional with IExCor=  402 and IRadAn=       5 diagonalized for initial guess.
 HarFok:  IExCor=  402 AccDes= 0.00D+00 IRadAn=         5 IDoV= 1 UseB2=F ITyADJ=14
 ICtDFT=  3500011 ScaDFX=  1.000000  1.000000  1.000000  1.000000
 FoFCou: FMM=F IPFlag=           0 FMFlag=      100000 FMFlg1=        2001
         NFxFlg=           0 DoJE=T BraDBF=F KetDBF=T FulRan=T
         wScrn=  0.000000 ICntrl=       500 IOpCl=  0 I1Cent=   200000004 NGrid=           0
         NMat0=    1 NMatS0=      1 NMatT0=    0 NMatD0=    1 NMtDS0=    0 NMtDT0=    0
 Symmetry not used in FoFCou.
 Harris En= -1342.66022464987    
 JPrj=0 DoOrth=F DoCkMO=F.
 Leave Link  401 at Sat Nov  5 12:02:24 2022, MaxMem=   402653184 cpu:              37.1 elap:               3.0
 (Enter /home/wykgroup/appl/g16/l502.exe)
 Two-electron integral symmetry not used.
 Closed shell SCF:
 Using DIIS extrapolation, IDIIS=  1040.
 NGot=   402653184 LenX=   402072698 LenY=   401788076
 Requested convergence on RMS density matrix=1.00D-08 within  32 cycles.
 Requested convergence on MAX density matrix=1.00D-06.
 Requested convergence on             energy=1.00D-06.
 No special actions if energy rises.
 Fock matrices will be formed incrementally for  20 cycles.
 Integral accuracy reduced to 1.0D-05 until final iterations.

 Cycle   1  Pass 0  IDiag  1:
 FoFJK:  IHMeth= 1 ICntrl=       0 DoSepK=F KAlg= 0 I1Cent=           0 FoldK=F
 IRaf= 860000000 NMat=       1 IRICut=       1 DoRegI=T DoRafI=F ISym2E= 0 IDoP0=0 IntGTp=1.
 FoFCou: FMM=T IPFlag=           0 FMFlag=      100000 FMFlg1=        2001
         NFxFlg=           0 DoJE=F BraDBF=F KetDBF=F FulRan=T
         wScrn=  0.000000 ICntrl=         0 IOpCl=  0 I1Cent=           0 NGrid=           0
         NMat0=    1 NMatS0=      1 NMatT0=    0 NMatD0=    1 NMtDS0=    0 NMtDT0=    0
 Symmetry not used in FoFCou.
 FMM levels:  10  Number of levels for PrismC:   9
 E= -1341.81216708916    
 DIIS: error= 2.94D-02 at cycle   1 NSaved=   1.
 NSaved= 1 IEnMin= 1 EnMin= -1341.81216708916     IErMin= 1 ErrMin= 2.94D-02
 ErrMax= 2.94D-02  0.00D+00 EMaxC= 1.00D-01 BMatC= 8.19D-01 BMatP= 8.19D-01
 IDIUse=3 WtCom= 7.06D-01 WtEn= 2.94D-01
 Coeff-Com:  0.100D+01
 Coeff-En:   0.100D+01
 Coeff:      0.100D+01
 Gap=     0.290 Goal=   None    Shift=    0.000
 GapD=    0.290 DampG=1.000 DampE=0.500 DampFc=0.5000 IDamp=-1.
 Damping current iteration by 5.00D-01
 RMSDP=4.29D-03 MaxDP=2.08D-01              OVMax= 2.49D-01

 Cycle   2  Pass 0  IDiag  1:
 RMSU=  2.13D-03    CP:  9.81D-01
 E= -1342.11662306453     Delta-E=       -0.304455975378 Rises=F Damp=T
 DIIS: error= 9.04D-03 at cycle   2 NSaved=   2.
 NSaved= 2 IEnMin= 2 EnMin= -1342.11662306453     IErMin= 2 ErrMin= 9.04D-03
 ErrMax= 9.04D-03  0.00D+00 EMaxC= 1.00D-01 BMatC= 1.01D-01 BMatP= 8.19D-01
 IDIUse=3 WtCom= 9.10D-01 WtEn= 9.04D-02
 Coeff-Com:  0.152D+00 0.848D+00
 Coeff-En:   0.227D+00 0.773D+00
 Coeff:      0.159D+00 0.841D+00
 Gap=     0.257 Goal=   None    Shift=    0.000
 RMSDP=1.40D-03 MaxDP=9.81D-02 DE=-3.04D-01 OVMax= 1.81D-01

 Cycle   3  Pass 0  IDiag  1:
 RMSU=  1.26D-03    CP:  9.67D-01  7.34D-01
 E= -1342.50515396673     Delta-E=       -0.388530902191 Rises=F Damp=F
 DIIS: error= 1.53D-02 at cycle   3 NSaved=   3.
 NSaved= 3 IEnMin= 3 EnMin= -1342.50515396673     IErMin= 2 ErrMin= 9.04D-03
 ErrMax= 1.53D-02  0.00D+00 EMaxC= 1.00D-01 BMatC= 1.48D-01 BMatP= 1.01D-01
 IDIUse=2 WtCom= 0.00D+00 WtEn= 1.00D+00
 Coeff-En:   0.000D+00 0.000D+00 0.100D+01
 Coeff:      0.000D+00 0.000D+00 0.100D+01
 Gap=     0.220 Goal=   None    Shift=    0.000
 RMSDP=2.46D-03 MaxDP=1.73D-01 DE=-3.89D-01 OVMax= 2.61D-01

 Cycle   4  Pass 0  IDiag  1:
 RMSU=  1.35D-03    CP:  9.76D-01  1.23D+00 -3.90D-01
 E= -1341.86445090640     Delta-E=        0.640703060330 Rises=F Damp=F
 DIIS: error= 3.37D-02 at cycle   4 NSaved=   4.
 NSaved= 4 IEnMin= 3 EnMin= -1342.50515396673     IErMin= 2 ErrMin= 9.04D-03
 ErrMax= 3.37D-02  0.00D+00 EMaxC= 1.00D-01 BMatC= 9.27D-01 BMatP= 1.01D-01
 IDIUse=2 WtCom= 0.00D+00 WtEn= 1.00D+00
 Coeff-En:   0.000D+00 0.000D+00 0.802D+00 0.198D+00
 Coeff:      0.000D+00 0.000D+00 0.802D+00 0.198D+00
 Gap=     0.215 Goal=   None    Shift=    0.000
 RMSDP=1.38D-03 MaxDP=9.68D-02 DE= 6.41D-01 OVMax= 1.50D-01

 Cycle   5  Pass 0  IDiag  1:
 RMSU=  2.26D-04    CP:  9.73D-01  8.96D-01  3.35D-01  4.81D-01
 E= -1342.57354825242     Delta-E=       -0.709097346024 Rises=F Damp=F
 DIIS: error= 9.96D-03 at cycle   5 NSaved=   5.
 NSaved= 5 IEnMin= 5 EnMin= -1342.57354825242     IErMin= 2 ErrMin= 9.04D-03
 ErrMax= 9.96D-03  0.00D+00 EMaxC= 1.00D-01 BMatC= 7.00D-02 BMatP= 1.01D-01
 IDIUse=3 WtCom= 9.00D-01 WtEn= 9.96D-02
 Coeff-Com: -0.521D-02 0.396D-01 0.318D+00-0.877D-01 0.735D+00
 Coeff-En:   0.000D+00 0.000D+00 0.360D+00 0.000D+00 0.640D+00
 Coeff:     -0.469D-02 0.356D-01 0.323D+00-0.789D-01 0.725D+00
 Gap=     0.201 Goal=   None    Shift=    0.000
 RMSDP=4.85D-04 MaxDP=3.25D-02 DE=-7.09D-01 OVMax= 5.16D-02

 Cycle   6  Pass 0  IDiag  1:
 RMSU=  8.09D-05    CP:  9.71D-01  8.18D-01  6.08D-01  2.78D-01  6.81D-01
 E= -1342.63206272203     Delta-E=       -0.058514469616 Rises=F Damp=F
 DIIS: error= 9.51D-04 at cycle   6 NSaved=   6.
 NSaved= 6 IEnMin= 6 EnMin= -1342.63206272203     IErMin= 6 ErrMin= 9.51D-04
 ErrMax= 9.51D-04  0.00D+00 EMaxC= 1.00D-01 BMatC= 5.39D-04 BMatP= 7.00D-02
 IDIUse=3 WtCom= 9.90D-01 WtEn= 9.51D-03
 Coeff-Com: -0.504D-02 0.192D-01 0.167D+00-0.648D-01 0.458D+00 0.426D+00
 Coeff-En:   0.000D+00 0.000D+00 0.000D+00 0.000D+00 0.000D+00 0.100D+01
 Coeff:     -0.499D-02 0.190D-01 0.165D+00-0.642D-01 0.454D+00 0.431D+00
 Gap=     0.201 Goal=   None    Shift=    0.000
 RMSDP=5.37D-05 MaxDP=2.71D-03 DE=-5.85D-02 OVMax= 7.05D-03

 Cycle   7  Pass 0  IDiag  1:
 RMSU=  2.05D-05    CP:  9.71D-01  8.25D-01  5.99D-01  2.83D-01  7.62D-01
                    CP:  4.85D-01
 E= -1342.63256234786     Delta-E=       -0.000499625829 Rises=F Damp=F
 DIIS: error= 2.85D-04 at cycle   7 NSaved=   7.
 NSaved= 7 IEnMin= 7 EnMin= -1342.63256234786     IErMin= 7 ErrMin= 2.85D-04
 ErrMax= 2.85D-04  0.00D+00 EMaxC= 1.00D-01 BMatC= 3.21D-05 BMatP= 5.39D-04
 IDIUse=3 WtCom= 9.97D-01 WtEn= 2.85D-03
 Coeff-Com: -0.802D-03 0.222D-02 0.431D-01-0.181D-01 0.118D+00 0.190D+00
 Coeff-Com:  0.665D+00
 Coeff-En:   0.000D+00 0.000D+00 0.000D+00 0.000D+00 0.000D+00 0.000D+00
 Coeff-En:   0.100D+01
 Coeff:     -0.800D-03 0.222D-02 0.429D-01-0.180D-01 0.117D+00 0.190D+00
 Coeff:      0.666D+00
 Gap=     0.201 Goal=   None    Shift=    0.000
 RMSDP=1.36D-05 MaxDP=6.13D-04 DE=-5.00D-04 OVMax= 1.74D-03

 Cycle   8  Pass 0  IDiag  1:
 RMSU=  8.29D-06    CP:  9.71D-01  8.23D-01  6.03D-01  2.80D-01  7.50D-01
                    CP:  5.48D-01  7.26D-01
 E= -1342.63259229908     Delta-E=       -0.000029951214 Rises=F Damp=F
 DIIS: error= 7.27D-05 at cycle   8 NSaved=   8.
 NSaved= 8 IEnMin= 8 EnMin= -1342.63259229908     IErMin= 8 ErrMin= 7.27D-05
 ErrMax= 7.27D-05  0.00D+00 EMaxC= 1.00D-01 BMatC= 4.89D-06 BMatP= 3.21D-05
 IDIUse=1 WtCom= 1.00D+00 WtEn= 0.00D+00
 Coeff-Com:  0.199D-03-0.102D-02 0.105D-01-0.407D-02 0.245D-01 0.732D-01
 Coeff-Com:  0.412D+00 0.484D+00
 Coeff:      0.199D-03-0.102D-02 0.105D-01-0.407D-02 0.245D-01 0.732D-01
 Coeff:      0.412D+00 0.484D+00
 Gap=     0.201 Goal=   None    Shift=    0.000
 RMSDP=5.03D-06 MaxDP=2.55D-04 DE=-3.00D-05 OVMax= 5.04D-04

 Initial convergence to 1.0D-05 achieved.  Increase integral accuracy.
 Cycle   9  Pass 1  IDiag  1:
 E= -1342.63252482203     Delta-E=        0.000067477046 Rises=F Damp=F
 DIIS: error= 2.05D-04 at cycle   1 NSaved=   1.
 NSaved= 1 IEnMin= 1 EnMin= -1342.63252482203     IErMin= 1 ErrMin= 2.05D-04
 ErrMax= 2.05D-04  0.00D+00 EMaxC= 1.00D-01 BMatC= 4.88D-06 BMatP= 4.88D-06
 IDIUse=3 WtCom= 9.98D-01 WtEn= 2.05D-03
 Coeff-Com:  0.100D+01
 Coeff-En:   0.100D+01
 Coeff:      0.100D+01
 Gap=     0.201 Goal=   None    Shift=    0.000
 RMSDP=5.03D-06 MaxDP=2.55D-04 DE= 6.75D-05 OVMax= 5.12D-04

 Cycle  10  Pass 1  IDiag  1:
 RMSU=  8.57D-05    CP:  1.00D+00
 E= -1342.63252913925     Delta-E=       -0.000004317216 Rises=F Damp=F
 DIIS: error= 2.65D-05 at cycle   2 NSaved=   2.
 NSaved= 2 IEnMin= 2 EnMin= -1342.63252913925     IErMin= 2 ErrMin= 2.65D-05
 ErrMax= 2.65D-05  0.00D+00 EMaxC= 1.00D-01 BMatC= 4.13D-07 BMatP= 4.88D-06
 IDIUse=1 WtCom= 1.00D+00 WtEn= 0.00D+00
 Coeff-Com:  0.103D+00 0.897D+00
 Coeff:      0.103D+00 0.897D+00
 Gap=     0.201 Goal=   None    Shift=    0.000
 RMSDP=3.74D-06 MaxDP=1.73D-04 DE=-4.32D-06 OVMax= 4.35D-04

 Cycle  11  Pass 1  IDiag  1:
 RMSU=  3.64D-06    CP:  1.00D+00  1.01D+00
 E= -1342.63252826965     Delta-E=        0.000000869599 Rises=F Damp=F
 DIIS: error= 4.73D-05 at cycle   3 NSaved=   3.
 NSaved= 3 IEnMin= 2 EnMin= -1342.63252913925     IErMin= 2 ErrMin= 2.65D-05
 ErrMax= 4.73D-05  0.00D+00 EMaxC= 1.00D-01 BMatC= 1.25D-06 BMatP= 4.13D-07
 IDIUse=1 WtCom= 1.00D+00 WtEn= 0.00D+00
 Coeff-Com: -0.341D-02 0.638D+00 0.365D+00
 Coeff:     -0.341D-02 0.638D+00 0.365D+00
 Gap=     0.201 Goal=   None    Shift=    0.000
 RMSDP=2.38D-06 MaxDP=1.11D-04 DE= 8.70D-07 OVMax= 2.92D-04

 Cycle  12  Pass 1  IDiag  1:
 RMSU=  4.34D-07    CP:  1.00D+00  1.01D+00  3.61D-01
 E= -1342.63252954800     Delta-E=       -0.000001278351 Rises=F Damp=F
 DIIS: error= 5.60D-06 at cycle   4 NSaved=   4.
 NSaved= 4 IEnMin= 4 EnMin= -1342.63252954800     IErMin= 4 ErrMin= 5.60D-06
 ErrMax= 5.60D-06  0.00D+00 EMaxC= 1.00D-01 BMatC= 1.74D-08 BMatP= 4.13D-07
 IDIUse=1 WtCom= 1.00D+00 WtEn= 0.00D+00
 Coeff-Com: -0.386D-02 0.398D+00 0.236D+00 0.370D+00
 Coeff:     -0.386D-02 0.398D+00 0.236D+00 0.370D+00
 Gap=     0.201 Goal=   None    Shift=    0.000
 RMSDP=2.48D-07 MaxDP=1.96D-05 DE=-1.28D-06 OVMax= 2.46D-05

 Cycle  13  Pass 1  IDiag  1:
 RMSU=  1.44D-07    CP:  1.00D+00  1.01D+00  3.73D-01  5.50D-01
 E= -1342.63252956280     Delta-E=       -0.000000014803 Rises=F Damp=F
 DIIS: error= 5.54D-07 at cycle   5 NSaved=   5.
 NSaved= 5 IEnMin= 5 EnMin= -1342.63252956280     IErMin= 5 ErrMin= 5.54D-07
 ErrMax= 5.54D-07  0.00D+00 EMaxC= 1.00D-01 BMatC= 3.10D-10 BMatP= 1.74D-08
 IDIUse=1 WtCom= 1.00D+00 WtEn= 0.00D+00
 Coeff-Com: -0.191D-02 0.183D+00 0.110D+00 0.193D+00 0.515D+00
 Coeff:     -0.191D-02 0.183D+00 0.110D+00 0.193D+00 0.515D+00
 Gap=     0.201 Goal=   None    Shift=    0.000
 RMSDP=4.52D-08 MaxDP=2.65D-06 DE=-1.48D-08 OVMax= 5.02D-06

 Cycle  14  Pass 1  IDiag  1:
 RMSU=  3.83D-08    CP:  1.00D+00  1.01D+00  3.75D-01  5.58D-01  8.50D-01
 E= -1342.63252956306     Delta-E=       -0.000000000256 Rises=F Damp=F
 DIIS: error= 2.21D-07 at cycle   6 NSaved=   6.
 NSaved= 6 IEnMin= 6 EnMin= -1342.63252956306     IErMin= 6 ErrMin= 2.21D-07
 ErrMax= 2.21D-07  0.00D+00 EMaxC= 1.00D-01 BMatC= 4.77D-11 BMatP= 3.10D-10
 IDIUse=1 WtCom= 1.00D+00 WtEn= 0.00D+00
 Coeff-Com: -0.647D-03 0.587D-01 0.356D-01 0.674D-01 0.310D+00 0.529D+00
 Coeff:     -0.647D-03 0.587D-01 0.356D-01 0.674D-01 0.310D+00 0.529D+00
 Gap=     0.201 Goal=   None    Shift=    0.000
 RMSDP=1.62D-08 MaxDP=8.06D-07 DE=-2.56D-10 OVMax= 1.53D-06

 Cycle  15  Pass 1  IDiag  1:
 RMSU=  1.07D-08    CP:  1.00D+00  1.01D+00  3.75D-01  5.61D-01  8.87D-01
                    CP:  7.26D-01
 E= -1342.63252956307     Delta-E=       -0.000000000013 Rises=F Damp=F
 DIIS: error= 3.55D-08 at cycle   7 NSaved=   7.
 NSaved= 7 IEnMin= 7 EnMin= -1342.63252956307     IErMin= 7 ErrMin= 3.55D-08
 ErrMax= 3.55D-08  0.00D+00 EMaxC= 1.00D-01 BMatC= 3.20D-12 BMatP= 4.77D-11
 IDIUse=1 WtCom= 1.00D+00 WtEn= 0.00D+00
 Coeff-Com: -0.970D-04 0.776D-02 0.486D-02 0.108D-01 0.972D-01 0.263D+00
 Coeff-Com:  0.617D+00
 Coeff:     -0.970D-04 0.776D-02 0.486D-02 0.108D-01 0.972D-01 0.263D+00
 Coeff:      0.617D+00
 Gap=     0.201 Goal=   None    Shift=    0.000
 RMSDP=4.23D-09 MaxDP=2.24D-07 DE=-1.27D-11 OVMax= 4.11D-07

 SCF Done:  E(RB3LYP) =  -1342.63252956     A.U. after   15 cycles
            NFock= 15  Conv=0.42D-08     -V/T= 2.0097
 KE= 1.329768399919D+03 PE=-8.992293033020D+03 EE= 3.381653250604D+03
 Leave Link  502 at Sat Nov  5 12:03:20 2022, MaxMem=   402653184 cpu:             722.7 elap:              56.0
 (Enter /home/wykgroup/appl/g16/l508.exe)
 QCSCF skips out because SCF is already converged.
 Leave Link  508 at Sat Nov  5 12:03:20 2022, MaxMem=   402653184 cpu:               0.4 elap:               0.1
 (Enter /home/wykgroup/appl/g16/l801.exe)
 DoSCS=F DFT=T ScalE2(SS,OS)=  1.000000  1.000000
 ExpMin= 1.61D-01 ExpMax= 5.48D+03 ExpMxC= 8.25D+02 IAcc=3 IRadAn=         5 AccDes= 0.00D+00
 HarFok:  IExCor=  205 AccDes= 0.00D+00 IRadAn=         5 IDoV=-2 UseB2=F ITyADJ=14
 ICtDFT= 12500011 ScaDFX=  1.000000  1.000000  1.000000  1.000000
 GSVD:  LWork=       -1209 too small for GESVD, short by        5270 words or        5270 for optimal perf.
 Largest valence mixing into a core orbital is  5.76D-05
 Largest core mixing into a valence orbital is  1.37D-05
 Range of M.O.s used for correlation:    32   533
 NBasis=   533 NAE=   114 NBE=   114 NFC=    31 NFV=     0
 NROrb=    502 NOA=    83 NOB=    83 NVA=   419 NVB=   419
 Leave Link  801 at Sat Nov  5 12:03:20 2022, MaxMem=   402653184 cpu:               3.5 elap:               0.3
 (Enter /home/wykgroup/appl/g16/l914.exe)
 RHF ground state
 Two-electron integral symmetry not used.
 MDV=   402653184 DFT=T DoStab=F Mixed=T DoRPA=T DoScal=F NonHer=T
 Making orbital integer symmetry assigments:
    16 initial guesses have been made.
 Convergence on wavefunction:    0.001000000000000
 Davidson Disk Diagonalization:  ConvIn= 1.00D-03 SkipCon=T Conv= 1.00D-03.
 Max sub-space:  2000 roots to seek:    16 dimension of matrix:        69554
 Iteration     1 Dimension    16 NMult     0 NNew     16
 CISAX will form    16 AO SS matrices at one time.
 NMat=    16 NSing=     8 JSym2X= 0.
 FoFJK:  IHMeth= 1 ICntrl=       0 DoSepK=F KAlg= 0 I1Cent=           0 FoldK=F
 IRaf= 860000000 NMat=      32 IRICut=       1 DoRegI=T DoRafI=F ISym2E= 0 IDoP0=0 IntGTp=1.
 FoFCou: FMM=T IPFlag=           0 FMFlag=      100000 FMFlg1=        2001
         NFxFlg=           0 DoJE=F BraDBF=F KetDBF=F FulRan=T
         wScrn=  0.000000 ICntrl=         0 IOpCl=  0 I1Cent=           0 NGrid=           0
         NMat0=   32 NMatS0=      8 NMatT0=    8 NMatD0=   32 NMtDS0=    0 NMtDT0=    0
 Symmetry not used in FoFCou.
 FMM levels:  10  Number of levels for PrismC:   9
 New state      1 was old state      4
 New state      2 was old state      6
 New state      3 was old state     12
 New state      4 was old state     14
 New state      5 was old state      1
 New state      6 was old state      2
 Excitation Energies [eV] at current iteration:
 Root      1 :     4.005873432627321
 Root      2 :     4.007892468878196
 Root      3 :     4.455130901431617
 Root      4 :     4.457333599828022
 Root      5 :     5.197442741039712
 Root      6 :     5.197595007016856
 Root      7 :     5.227301922119604
 Root      8 :     5.227553874100964
 Root      9 :     5.672059832281571
 Root     10 :     5.672094884759396
 Root     11 :     5.701566295010819
 Root     12 :     5.701600478113302
 Root     13 :     5.817323925928928
 Root     14 :     5.854593145994198
 Root     15 :     6.275247173910752
 Root     16 :     6.296121136380751
 Vector   3 SDiff=1.52D-02 TDiff=6.30D+00 assumed to be singlet.
 Vector   4 SDiff=1.57D-02 TDiff=5.91D+00 assumed to be singlet.
 Vector   7 SDiff=1.45D-02 TDiff=5.38D+00 assumed to be singlet.
 Vector   8 SDiff=1.52D-02 TDiff=5.06D+00 assumed to be singlet.
 Iteration     2 Dimension    24 NMult    16 NNew      8
 CISAX will form     8 AO SS matrices at one time.
 NMat=     8 NSing=     4 JSym2X= 0.
 New state      1 was old state      2
 Root      1 not converged, maximum delta is    0.264928740434325
 New state      2 was old state      1
 Root      2 not converged, maximum delta is    0.260869490246696
 New state      3 was old state      5
 Root      3 not converged, maximum delta is    0.098892064061712
 New state      4 was old state      7
 Root      4 not converged, maximum delta is    0.156996547107238
 Excitation Energies [eV] at current iteration:
 Root      1 :     3.575931132699806   Change is   -0.431961336178390
 Root      2 :     3.576572623568265   Change is   -0.429300809059055
 Root      3 :     5.193132061474542   Change is   -0.004310679565170
 Root      4 :     5.221286345405115   Change is   -0.006015576714488
 Iteration     3 Dimension    32 NMult    24 NNew      8
 CISAX will form     8 AO SS matrices at one time.
 NMat=     8 NSing=     4 JSym2X= 0.
 New state      1 was old state      2
 Root      1 not converged, maximum delta is    0.136976296277273
 New state      2 was old state      1
 Root      2 not converged, maximum delta is    0.136150450162488
 New state      3 was old state      4
 Root      3 not converged, maximum delta is    0.563225586123653
 New state      4 was old state      3
 Root      4 not converged, maximum delta is    0.417615123946141
 Excitation Energies [eV] at current iteration:
 Root      1 :     3.465707351987377   Change is   -0.110865271580889
 Root      2 :     3.465968366950431   Change is   -0.109962765749375
 Root      3 :     5.027268099578277   Change is   -0.194018245826838
 Root      4 :     5.164161554347817   Change is   -0.028970507126726
 Iteration     4 Dimension    40 NMult    32 NNew      8
 CISAX will form     8 AO SS matrices at one time.
 NMat=     8 NSing=     4 JSym2X= 0.
 Root      1 not converged, maximum delta is    0.033232034219709
 Root      2 not converged, maximum delta is    0.033051311775696
 Root      3 not converged, maximum delta is    0.077489729567743
 Root      4 not converged, maximum delta is    0.312704327396248
 Excitation Energies [eV] at current iteration:
 Root      1 :     3.456948347473616   Change is   -0.008759004513761
 Root      2 :     3.457385960192219   Change is   -0.008582406758212
 Root      3 :     4.945253389957744   Change is   -0.082014709620532
 Root      4 :     4.972041773664678   Change is   -0.192119780683138
 Iteration     5 Dimension    48 NMult    40 NNew      8
 CISAX will form     8 AO SS matrices at one time.
 NMat=     8 NSing=     4 JSym2X= 0.
 Root      1 not converged, maximum delta is    0.010501059753116
 Root      2 not converged, maximum delta is    0.010507795429383
 Root      3 not converged, maximum delta is    0.037609809640873
 Root      4 not converged, maximum delta is    0.048394408868880
 Excitation Energies [eV] at current iteration:
 Root      1 :     3.456011084377219   Change is   -0.000937263096397
 Root      2 :     3.456433677417822   Change is   -0.000952282774397
 Root      3 :     4.931099469127581   Change is   -0.014153920830163
 Root      4 :     4.939668746990666   Change is   -0.032373026674012
 Iteration     6 Dimension    56 NMult    48 NNew      8
 CISAX will form     8 AO SS matrices at one time.
 NMat=     8 NSing=     4 JSym2X= 0.
 Root      1 not converged, maximum delta is    0.001529757270469
 Root      2 not converged, maximum delta is    0.001509898221270
 Root      3 not converged, maximum delta is    0.026291417809422
 Root      4 not converged, maximum delta is    0.025005723153933
 Excitation Energies [eV] at current iteration:
 Root      1 :     3.455894978714614   Change is   -0.000116105662604
 Root      2 :     3.456306131188167   Change is   -0.000127546229655
 Root      3 :     4.927946411435097   Change is   -0.003153057692484
 Root      4 :     4.933501952475718   Change is   -0.006166794514948
 Iteration     7 Dimension    64 NMult    56 NNew      8
 CISAX will form     8 AO SS matrices at one time.
 NMat=     8 NSing=     4 JSym2X= 0.
 Root      1 has converged.
 Root      2 has converged.
 Root      3 not converged, maximum delta is    0.004343154290021
 Root      4 not converged, maximum delta is    0.007030708508344
 Excitation Energies [eV] at current iteration:
 Root      1 :     3.455885098801602   Change is   -0.000009879913012
 Root      2 :     3.456296218017676   Change is   -0.000009913170491
 Root      3 :     4.927439179815585   Change is   -0.000507231619512
 Root      4 :     4.932084844819664   Change is   -0.001417107656055
 Iteration     8 Dimension    68 NMult    64 NNew      4
 CISAX will form     4 AO SS matrices at one time.
 NMat=     4 NSing=     4 JSym2X= 0.
 Root      1 has converged.
 Root      2 has converged.
 Root      3 not converged, maximum delta is    0.001988107062888
 Root      4 not converged, maximum delta is    0.002455590864987
 Excitation Energies [eV] at current iteration:
 Root      1 :     3.455885098801650   Change is    0.000000000000048
 Root      2 :     3.456296218017771   Change is    0.000000000000095
 Root      3 :     4.927329908647441   Change is   -0.000109271168144
 Root      4 :     4.931811881596008   Change is   -0.000272963223655
 Iteration     9 Dimension    72 NMult    68 NNew      4
 CISAX will form     4 AO SS matrices at one time.
 NMat=     4 NSing=     4 JSym2X= 0.
 Root      1 has converged.
 Root      2 has converged.
 Root      3 not converged, maximum delta is    0.009544286258038
 Root      4 not converged, maximum delta is    0.003822869862352
 Excitation Energies [eV] at current iteration:
 Root      1 :     3.455885098801578   Change is   -0.000000000000072
 Root      2 :     3.456296218017628   Change is   -0.000000000000143
 Root      3 :     4.927227992594717   Change is   -0.000101916052724
 Root      4 :     4.931735470490509   Change is   -0.000076411105498
 Iteration    10 Dimension    76 NMult    72 NNew      4
 CISAX will form     4 AO SS matrices at one time.
 NMat=     4 NSing=     4 JSym2X= 0.
 Root      1 has converged.
 Root      2 has converged.
 Root      3 not converged, maximum delta is    0.030643527778538
 Root      4 not converged, maximum delta is    0.014985540186331
 Excitation Energies [eV] at current iteration:
 Root      1 :     3.455885098801578   Change is    0.000000000000000
 Root      2 :     3.456296218017605   Change is   -0.000000000000023
 Root      3 :     4.926992948515997   Change is   -0.000235044078721
 Root      4 :     4.931627604475214   Change is   -0.000107866015296
 Iteration    11 Dimension    80 NMult    76 NNew      4
 CISAX will form     4 AO SS matrices at one time.
 NMat=     4 NSing=     4 JSym2X= 0.
 Root      1 has converged.
 Root      2 has converged.
 Root      3 not converged, maximum delta is    0.036693417783028
 Root      4 not converged, maximum delta is    0.055232528233212
 Excitation Energies [eV] at current iteration:
 Root      1 :     3.455885098801507   Change is   -0.000000000000071
 Root      2 :     3.456296218017605   Change is    0.000000000000000
 Root      3 :     4.926748933100103   Change is   -0.000244015415893
 Root      4 :     4.931155224766865   Change is   -0.000472379708349
 Iteration    12 Dimension    84 NMult    80 NNew      4
 CISAX will form     4 AO SS matrices at one time.
 NMat=     4 NSing=     4 JSym2X= 0.
 Root      1 has converged.
 Root      2 has converged.
 Root      3 not converged, maximum delta is    0.105787839490141
 Root      4 not converged, maximum delta is    0.197770340598223
 Excitation Energies [eV] at current iteration:
 Root      1 :     3.455885098801555   Change is    0.000000000000048
 Root      2 :     3.456296218017509   Change is   -0.000000000000095
 Root      3 :     4.926348887261543   Change is   -0.000400045838560
 Root      4 :     4.928890642785059   Change is   -0.002264581981806
 Iteration    13 Dimension    88 NMult    84 NNew      4
 CISAX will form     4 AO SS matrices at one time.
 NMat=     4 NSing=     4 JSym2X= 0.
 Root      1 has converged.
 Root      2 has converged.
 Root      3 not converged, maximum delta is    0.102125325757608
 Root      4 not converged, maximum delta is    0.143478066307402
 Excitation Energies [eV] at current iteration:
 Root      1 :     3.455885098801578   Change is    0.000000000000023
 Root      2 :     3.456296218017628   Change is    0.000000000000119
 Root      3 :     4.925897818388729   Change is   -0.000451068872814
 Root      4 :     4.927806415379129   Change is   -0.001084227405930
 Iteration    14 Dimension    92 NMult    88 NNew      4
 CISAX will form     4 AO SS matrices at one time.
 NMat=     4 NSing=     4 JSym2X= 0.
 Root      1 has converged.
 Root      2 has converged.
 Root      3 not converged, maximum delta is    0.024306852607616
 Root      4 not converged, maximum delta is    0.024213038127209
 Excitation Energies [eV] at current iteration:
 Root      1 :     3.455885098801578   Change is    0.000000000000000
 Root      2 :     3.456296218017628   Change is    0.000000000000000
 Root      3 :     4.925777703101215   Change is   -0.000120115287514
 Root      4 :     4.927668825533363   Change is   -0.000137589845765
 Iteration    15 Dimension    96 NMult    92 NNew      4
 CISAX will form     4 AO SS matrices at one time.
 NMat=     4 NSing=     4 JSym2X= 0.
 Root      1 has converged.
 Root      2 has converged.
 Root      3 not converged, maximum delta is    0.005072100712907
 Root      4 not converged, maximum delta is    0.004780541692979
 Excitation Energies [eV] at current iteration:
 Root      1 :     3.455885098801602   Change is    0.000000000000024
 Root      2 :     3.456296218017628   Change is    0.000000000000000
 Root      3 :     4.925752492160801   Change is   -0.000025210940414
 Root      4 :     4.927642702122855   Change is   -0.000026123410509
 Iteration    16 Dimension   100 NMult    96 NNew      4
 CISAX will form     4 AO SS matrices at one time.
 NMat=     4 NSing=     4 JSym2X= 0.
 Root      1 has converged.
 Root      2 has converged.
 Root      3 has converged.
 Root      4 has converged.
 Excitation Energies [eV] at current iteration:
 Root      1 :     3.455885098801484   Change is   -0.000000000000119
 Root      2 :     3.456296218017580   Change is   -0.000000000000048
 Root      3 :     4.925748238993870   Change is   -0.000004253166931
 Root      4 :     4.927638618361952   Change is   -0.000004083760903
 Convergence achieved on expansion vectors.
 ***********************************************************************
 Excited states from <AA,BB:AA,BB> singles matrix:
 ***********************************************************************
 
 1PDM for each excited state written to RWF  633
 Ground to excited state transition densities written to RWF  633
 Ground to excited state transition electric dipole moments (Au):
       state          X           Y           Z        Dip. S.      Osc.
         1        -0.0000     -0.0000      0.0000      0.0000      0.0000
         2        -0.0000      0.0000      0.0000      0.0000      0.0000
         3         0.4854     -0.0464     -0.0538      0.2406      0.0290
         4        -0.2341     -0.1400     -0.2615      0.1428      0.0172
 Ground to excited state transition velocity dipole moments (Au):
       state          X           Y           Z        Dip. S.      Osc.
         1         0.0000      0.0000     -0.0000      0.0000      0.0000
         2         0.0000     -0.0000     -0.0000      0.0000      0.0000
         3        -0.0849      0.0057      0.0128      0.0074      0.0273
         4         0.0418      0.0227      0.0480      0.0046      0.0168
 Ground to excited state transition magnetic dipole moments (Au):
       state          X           Y           Z
[...]
         3       -87.7301    -12.5963     28.5820    -23.9148
         4        69.8772      7.8395     -8.1659     23.1836
  1/2[<0|del|b>*<b|r|0> + (<0|r|b>*<b|del|0>)*] (Au)
       state          X           Y           Z        Dip. S.   Osc.(frdel)
         1        -0.0000     -0.0000     -0.0000      0.0000      0.0000
         2        -0.0000     -0.0000     -0.0000      0.0000      0.0000
         3        -0.0412     -0.0003     -0.0007      0.0422      0.0281
         4        -0.0098     -0.0032     -0.0126      0.0255      0.0170

 Excitation energies and oscillator strengths:
 
 Excited state symmetry could not be determined.
 Excited State   1:      Triplet-?Sym    3.4559 eV  358.76 nm  f=0.0000  <S**2>=2.000
     110 ->117        -0.33832
     113 ->115         0.49686
     113 ->116        -0.29566
 This state for optimization and/or second-order correction.
 Total Energy, E(TD-HF/TD-DFT) =  -1342.50552812    
 Copying the excited state density for this state as the 1-particle RhoCI density.
 
 Excited state symmetry could not be determined.
 Excited State   2:      Triplet-?Sym    3.4563 eV  358.72 nm  f=0.0000  <S**2>=2.000
     111 ->118        -0.34135
     114 ->115         0.29783
     114 ->116         0.49625
     114 ->120         0.13051
 
 Excited state symmetry could not be determined.
 Excited State   3:      Singlet-?Sym    4.9257 eV  251.71 nm  f=0.0290  <S**2>=0.000
     107 ->116        -0.14679
     108 ->116        -0.10892
     109 ->115         0.19087
     109 ->116         0.16055
     110 ->115        -0.11247
     110 ->116         0.17477
     111 ->115         0.11195
     111 ->116         0.14003
     112 ->115        -0.17734
     112 ->116        -0.32102
     113 ->115        -0.11910
     113 ->117        -0.23473
     114 ->116         0.13590
     114 ->118         0.23614
 
 Excited state symmetry could not be determined.
 Excited State   4:      Singlet-?Sym    4.9276 eV  251.61 nm  f=0.0172  <S**2>=0.000
     107 ->115        -0.10123
     108 ->116        -0.11175
     109 ->116         0.21913
     110 ->115         0.30317
     110 ->116        -0.11844
     112 ->115        -0.20362
     112 ->116        -0.17572
     113 ->115         0.17907
     113 ->116        -0.11181
     113 ->117         0.40506
 SavETr:  write IOETrn=   770 NScale= 10 NData=  16 NLR=1 NState=    4 LETran=      82.
 Leave Link  914 at Sat Nov  5 12:13:38 2022, MaxMem=   402653184 cpu:            8302.2 elap:             617.5
 (Enter /home/wykgroup/appl/g16/l601.exe)
 Copying SCF densities to generalized density rwf, IOpCl= 0 IROHF=0.

 **********************************************************************

            Population analysis using the SCF Density.

 **********************************************************************

 Alpha  occ. eigenvalues --  -19.11684 -19.11683 -14.36884 -14.36874 -14.35372
 Alpha  occ. eigenvalues --  -14.35245 -10.29027 -10.29013 -10.23788 -10.23265
 Alpha  occ. eigenvalues --  -10.23211 -10.22940 -10.22929 -10.22890 -10.22834
 Alpha  occ. eigenvalues --  -10.22807 -10.19509 -10.19419 -10.19385 -10.19378
 Alpha  occ. eigenvalues --  -10.19348 -10.18907 -10.18867 -10.18354 -10.18313
 Alpha  occ. eigenvalues --  -10.17643 -10.17633 -10.17595 -10.17594 -10.17209
 Alpha  occ. eigenvalues --  -10.17172  -1.03527  -1.03511  -0.96645  -0.94258
 Alpha  occ. eigenvalues --   -0.93637  -0.91851  -0.84621  -0.84514  -0.80221
 Alpha  occ. eigenvalues --   -0.78437  -0.78279  -0.77282  -0.74683  -0.73329
 Alpha  occ. eigenvalues --   -0.71962  -0.71935  -0.71673  -0.70602  -0.66709
 Alpha  occ. eigenvalues --   -0.65673  -0.65484  -0.63769  -0.62582  -0.62239
 Alpha  occ. eigenvalues --   -0.58538  -0.58445  -0.56458  -0.56063  -0.55503
 Alpha  occ. eigenvalues --   -0.53689  -0.51955  -0.51765  -0.51089  -0.49912
 Alpha  occ. eigenvalues --   -0.48409  -0.47427  -0.47318  -0.46300  -0.45928
 Alpha  occ. eigenvalues --   -0.45727  -0.45237  -0.44648  -0.44393  -0.43667
 Alpha  occ. eigenvalues --   -0.43211  -0.42728  -0.41833  -0.41636  -0.41458
 Alpha  occ. eigenvalues --   -0.41113  -0.41001  -0.40906  -0.40663  -0.40404
 Alpha  occ. eigenvalues --   -0.40280  -0.39967  -0.39820  -0.39438  -0.39263
 Alpha  occ. eigenvalues --   -0.39224  -0.38230  -0.37928  -0.37551  -0.37137
 Alpha  occ. eigenvalues --   -0.37117  -0.36370  -0.35920  -0.34508  -0.34469
 Alpha  occ. eigenvalues --   -0.34060  -0.33944  -0.33489  -0.33452  -0.29674
 Alpha  occ. eigenvalues --   -0.29652  -0.25807  -0.25645  -0.23508  -0.23268
 Alpha  occ. eigenvalues --   -0.23239  -0.23030  -0.21151  -0.21102
 Alpha virt. eigenvalues --   -0.00992  -0.00899   0.00659   0.00725   0.04425
 Alpha virt. eigenvalues --    0.04804   0.05183   0.06768   0.07811   0.09510
 Alpha virt. eigenvalues --    0.10098   0.10419   0.10727   0.11241   0.11752
 Alpha virt. eigenvalues --    0.11766   0.12577   0.12630   0.12925   0.13209
 Alpha virt. eigenvalues --    0.14283   0.14366   0.14666   0.14980   0.15116
 Alpha virt. eigenvalues --    0.15190   0.15670   0.16080   0.16115   0.16554
 Alpha virt. eigenvalues --    0.16835   0.17112   0.17459   0.18132   0.18687
 Alpha virt. eigenvalues --    0.18755   0.19185   0.19486   0.19610   0.19777
 Alpha virt. eigenvalues --    0.20178   0.20378   0.20963   0.21285   0.21647
 Alpha virt. eigenvalues --    0.21929   0.22547   0.23549   0.23863   0.23954
 Alpha virt. eigenvalues --    0.24519   0.25550   0.26302   0.26341   0.27768
 Alpha virt. eigenvalues --    0.28662   0.29106   0.29586   0.30466   0.31049
 Alpha virt. eigenvalues --    0.32010   0.33827   0.33927   0.34501   0.34830
 Alpha virt. eigenvalues --    0.36814   0.37235   0.37672   0.37972   0.43413
 Alpha virt. eigenvalues --    0.44096   0.46374   0.46775   0.46939   0.48866
 Alpha virt. eigenvalues --    0.49610   0.50512   0.50972   0.51643   0.51725
 Alpha virt. eigenvalues --    0.52059   0.52639   0.52690   0.53546   0.53729
 Alpha virt. eigenvalues --    0.53795   0.53896   0.54217   0.54344   0.54918
 Alpha virt. eigenvalues --    0.55385   0.55673   0.56170   0.56302   0.57561
 Alpha virt. eigenvalues --    0.57715   0.57945   0.59781   0.60377   0.60705
 Alpha virt. eigenvalues --    0.61037   0.61471   0.61702   0.62037   0.62250
 Alpha virt. eigenvalues --    0.62778   0.63347   0.63513   0.63562   0.64734
 Alpha virt. eigenvalues --    0.65299   0.66093   0.66372   0.66527   0.67253
 Alpha virt. eigenvalues --    0.68178   0.69104   0.69586   0.70870   0.71181
 Alpha virt. eigenvalues --    0.71799   0.71902   0.72958   0.73282   0.73475
 Alpha virt. eigenvalues --    0.73763   0.74092   0.74439   0.75069   0.75149
 Alpha virt. eigenvalues --    0.75891   0.76630   0.76754   0.76888   0.78750
 Alpha virt. eigenvalues --    0.79816   0.80360   0.80653   0.81514   0.81712
 Alpha virt. eigenvalues --    0.82144   0.82544   0.82754   0.83046   0.83498
 Alpha virt. eigenvalues --    0.84017   0.84468   0.84866   0.85543   0.86143
 Alpha virt. eigenvalues --    0.87118   0.87574   0.88016   0.88506   0.88778
 Alpha virt. eigenvalues --    0.89006   0.89403   0.89477   0.90298   0.90671
 Alpha virt. eigenvalues --    0.90849   0.91339   0.91726   0.91779   0.92491
 Alpha virt. eigenvalues --    0.93047   0.93526   0.94204   0.94898   0.95076
 Alpha virt. eigenvalues --    0.95507   0.95862   0.96867   0.97188   0.97266
 Alpha virt. eigenvalues --    0.98425   0.98814   0.99099   0.99491   0.99847
 Alpha virt. eigenvalues --    1.00251   1.00750   1.02712   1.03730   1.04338
 Alpha virt. eigenvalues --    1.05191   1.05524   1.05965   1.06575   1.07605
 Alpha virt. eigenvalues --    1.08887   1.09369   1.11858   1.12479   1.14745
 Alpha virt. eigenvalues --    1.16334   1.16559   1.16931   1.18259   1.19304
 Alpha virt. eigenvalues --    1.19758   1.20948   1.21842   1.23641   1.24293
 Alpha virt. eigenvalues --    1.25685   1.25965   1.26322   1.28315   1.29939
 Alpha virt. eigenvalues --    1.30550   1.30884   1.31088   1.32516   1.33361
 Alpha virt. eigenvalues --    1.34583   1.36774   1.38564   1.38766   1.40531
 Alpha virt. eigenvalues --    1.41256   1.41594   1.41870   1.41987   1.43229
 Alpha virt. eigenvalues --    1.43907   1.45665   1.46398   1.46882   1.47158
 Alpha virt. eigenvalues --    1.48808   1.49242   1.49756   1.49815   1.51151
 Alpha virt. eigenvalues --    1.51289   1.52578   1.55216   1.55975   1.56436
 Alpha virt. eigenvalues --    1.58392   1.62311   1.63194   1.64498   1.64565
 Alpha virt. eigenvalues --    1.68628   1.70355   1.72136   1.74247   1.75273
 Alpha virt. eigenvalues --    1.76277   1.76572   1.77030   1.77886   1.78141
 Alpha virt. eigenvalues --    1.78909   1.79574   1.81181   1.81600   1.82367
 Alpha virt. eigenvalues --    1.82678   1.82979   1.84834   1.84997   1.85460
 Alpha virt. eigenvalues --    1.85779   1.86388   1.86871   1.87641   1.88024
 Alpha virt. eigenvalues --    1.89139   1.89567   1.90195   1.90684   1.90999
 Alpha virt. eigenvalues --    1.91843   1.92292   1.92623   1.93246   1.93409
 Alpha virt. eigenvalues --    1.93606   1.93788   1.94496   1.96124   1.96445
 Alpha virt. eigenvalues --    1.96616   1.97590   1.98499   1.99233   1.99926
 Alpha virt. eigenvalues --    2.00818   2.02699   2.04106   2.04933   2.05747
 Alpha virt. eigenvalues --    2.06834   2.07156   2.08301   2.08851   2.11129
 Alpha virt. eigenvalues --    2.11691   2.12266   2.13825   2.13970   2.14564
 Alpha virt. eigenvalues --    2.14809   2.15393   2.17120   2.19516   2.20210
 Alpha virt. eigenvalues --    2.21320   2.21507   2.21649   2.21838   2.24110
 Alpha virt. eigenvalues --    2.24751   2.24958   2.26890   2.27536   2.28023
 Alpha virt. eigenvalues --    2.28599   2.29970   2.30609   2.30755   2.31578
 Alpha virt. eigenvalues --    2.32214   2.32966   2.35103   2.35435   2.35510
 Alpha virt. eigenvalues --    2.35873   2.36054   2.37703   2.39116   2.39535
 Alpha virt. eigenvalues --    2.39989   2.40160   2.40612   2.41020   2.41453
 Alpha virt. eigenvalues --    2.42526   2.44632   2.47625   2.47959   2.48385
 Alpha virt. eigenvalues --    2.49196   2.52947   2.53699   2.58166   2.58721
 Alpha virt. eigenvalues --    2.58944   2.60011   2.60894   2.62691   2.65312
 Alpha virt. eigenvalues --    2.66162   2.66360   2.67935   2.68202   2.69927
 Alpha virt. eigenvalues --    2.71570   2.71939   2.73114   2.74470   2.74787
 Alpha virt. eigenvalues --    2.76999   2.77088   2.81514   2.81686   2.83555
 Alpha virt. eigenvalues --    2.83832   2.85272   2.85889   2.88085   2.89978
 Alpha virt. eigenvalues --    2.90455   2.93157   2.93439   2.98412   2.98528
 Alpha virt. eigenvalues --    3.03150   3.03500   3.07487   3.07517   3.32835
 Alpha virt. eigenvalues --    3.33131   3.43891   3.43920   4.03837   4.07696
 Alpha virt. eigenvalues --    4.09910   4.10016   4.10939   4.11169   4.13191
 Alpha virt. eigenvalues --    4.13487   4.14382   4.14852   4.17643   4.17844
 Alpha virt. eigenvalues --    4.20450   4.24115   4.24261   4.29217   4.29487
 Alpha virt. eigenvalues --    4.29620   4.30765   4.34524   4.38933   4.39010
 Alpha virt. eigenvalues --    4.42911   4.45440   4.45664   4.51274   4.59545
 Alpha virt. eigenvalues --    4.60344   4.70626   4.77404   4.77535
          Condensed to atoms (all electrons):
 Mulliken charges:
               1
     1  C   -0.527446
     2  C    0.163938
     3  C   -0.174584
     4  C   -0.199314
     5  C    0.148648
     6  C   -0.559563
     7  C    0.289906
     8  N   -0.729721
     9  C    0.590088
    10  O   -0.505808
    11  C   -0.221337
    12  N   -0.433787
    13  C   -0.129570
    14  C   -0.172206
    15  N   -0.432685
    16  C   -0.232087
    17  C    0.589606
    18  O   -0.507171
    19  N   -0.732459
    20  C    0.289604
    21  C   -0.223048
    22  C    0.163810
    23  C   -0.527380
    24  C   -0.174994
    25  C   -0.199253
    26  C    0.148566
    27  C   -0.561003
    28  C    0.043254
    29  C   -0.447439
    30  C   -0.149170
    31  C   -0.223317
    32  H    0.150829
    33  H    0.162533
    34  H    0.164957
    35  H    0.116459
    36  H    0.118344
    37  H    0.156839
    38  H    0.159468
    39  H    0.165250
    40  H    0.357222
    41  H    0.172295
    42  H    0.159778
    43  H    0.138423
    44  H    0.155348
    45  H    0.154981
    46  H    0.168414
    47  H    0.162757
    48  H    0.178208
    49  H    0.360369
    50  H    0.178616
    51  H    0.162861
    52  H    0.150634
    53  H    0.164836
    54  H    0.116492
    55  H    0.118170
    56  H    0.157554
    57  H    0.159838
    58  H    0.164840
    59  H    0.128164
    60  H    0.150118
    61  H    0.155863
    62  H    0.147762
    63  H    0.150645
    64  H    0.148566
    65  H    0.178493
 Sum of Mulliken charges =  -0.00000
 Mulliken charges with hydrogens summed into heavy atoms:
               1
     1  C   -0.049128
     2  C    0.163938
     3  C   -0.058125
     4  C   -0.080970
     5  C    0.148648
     6  C   -0.078005
     7  C    0.289906
     8  N   -0.372499
     9  C    0.590088
    10  O   -0.505808
    11  C    0.110735
    12  N   -0.433787
    13  C    0.164201
    14  C    0.151189
    15  N   -0.432685
    16  C    0.108878
    17  C    0.589606
    18  O   -0.507171
    19  N   -0.372090
    20  C    0.289604
    21  C   -0.044432
    22  C    0.163810
    23  C   -0.049049
    24  C   -0.058503
    25  C   -0.081084
    26  C    0.148566
    27  C   -0.078771
    28  C    0.171418
    29  C    0.006304
    30  C    0.150040
    31  C   -0.044824
 Electronic spatial extent (au):  <R**2>=          23500.1856
 Charge=             -0.0000 electrons
 Dipole moment (field-independent basis, Debye):
    X=             -0.6074    Y=              2.9460    Z=             -3.2523  Tot=              4.4301
 Quadrupole moment (field-independent basis, Debye-Ang):
   XX=           -210.2364   YY=           -180.5698   ZZ=           -188.8039
   XY=             -7.5716   XZ=             -2.0686   YZ=              5.6166
 Traceless Quadrupole moment (field-independent basis, Debye-Ang):
   XX=            -17.0330   YY=             12.6336   ZZ=              4.3995
   XY=             -7.5716   XZ=             -2.0686   YZ=              5.6166
 Octapole moment (field-independent basis, Debye-Ang**2):
  XXX=            -45.6817  YYY=            111.7212  ZZZ=            -92.6428  XYY=             -4.0162
  XXY=            -18.5553  XXZ=           -125.9478  XZZ=            -22.8227  YZZ=             43.5807
  YYZ=             -2.7272  XYZ=            -12.6976
 Hexadecapole moment (field-independent basis, Debye-Ang**3):
 XXXX=         -26259.9741 YYYY=          -2419.0498 ZZZZ=          -3036.6087 XXXY=           -332.6183
 XXXZ=           -308.3045 YYYX=           -142.9293 YYYZ=           -417.4349 ZZZX=           -373.9198
 ZZZY=           -391.0902 XXYY=          -4763.4103 XXZZ=          -5076.0341 YYZZ=           -914.8122
 XXYZ=            -38.0659 YYXZ=            -94.7122 ZZXY=           -186.2058
 N-N= 2.938238852933D+03 E-N=-8.992293025944D+03  KE= 1.329768399919D+03
 Leave Link  601 at Sat Nov  5 12:13:38 2022, MaxMem=   402653184 cpu:               2.1 elap:               0.2
 (Enter /home/wykgroup/appl/g16/l9999.exe)
 Electronic transition elements 
                 1             2             3             4 
      1  -0.134251D+04 -0.134251D+04 -0.134245D+04 -0.134245D+04
      2   0.000000D+00  0.000000D+00  0.485365D+00 -0.234124D+00
      3   0.000000D+00  0.000000D+00 -0.464046D-01 -0.139958D+00
      4   0.000000D+00  0.000000D+00 -0.537690D-01 -0.261526D+00
      5   0.000000D+00  0.000000D+00 -0.849199D-01  0.418009D-01
      6   0.000000D+00  0.000000D+00  0.569988D-02  0.227051D-01
      7   0.000000D+00  0.000000D+00  0.127817D-01  0.480179D-01
      8   0.000000D+00  0.000000D+00  0.255599D+00  0.422054D+00
      9   0.000000D+00  0.000000D+00 -0.383849D+00  0.792077D-01
     10   0.000000D+00  0.000000D+00  0.751691D+00 -0.441540D-01
     11   0.000000D+00  0.000000D+00 -0.204568D+00 -0.125598D+01
     12   0.000000D+00  0.000000D+00 -0.190348D-01 -0.128204D+00
     13   0.000000D+00  0.000000D+00  0.899602D-01  0.114632D+00
     14   0.000000D+00  0.000000D+00  0.445904D+00 -0.270691D+00
     15   0.000000D+00  0.000000D+00  0.496497D+00 -0.226551D+00
     16   0.000000D+00  0.000000D+00  0.408478D-01 -0.905875D-01
 1\1\GINC-NODE69\SP\RB3LYP TD-FC\6-31G(d)\C25H34N4O2\WYKGROUP\05-Nov-20
 22\0\\#p b3lyp/6-31g(d) 6D 10F nosymm GFInput td=(50-50,nstate=2) SCF=
 XQC\\Gaussian input prepared by ASE\\0,1\C,0,8.5693078322,-1.805865610
 8,0.4803599984\C,0,7.3321129195,-1.3920470154,-0.2832391394\C,0,7.2024
 221719,-1.655685583,-1.6492037989\C,0,6.0417879513,-1.2862079335,-2.32
 88133425\C,0,4.9820043602,-0.6476778871,-1.6837517236\C,0,3.7392294221
 ,-0.2563527496,-2.4493829746\C,0,5.1171771703,-0.3797098343,-0.3017443
 139\N,0,4.0458108545,0.2703883619,0.3475562533\C,0,3.9134098141,0.6432
 035531,1.6573131891\O,0,4.7328138611,0.476072789,2.5506262213\C,0,2.59
 79966853,1.3974572316,1.9374691354\N,0,1.5350336865,1.1095735057,0.980
 4823072\C,0,0.8657309524,-0.1737329232,1.2634372797\C,0,-0.5027158611,
 -0.207102116,0.5859810097\N,0,-1.4248982273,0.821358807,1.1184276515\C
 ,0,-2.3011530615,0.2947755316,2.1647456056\C,0,-3.5293249259,-0.470406
 1309,1.6383416347\O,0,-4.1356431127,-1.2423989787,2.369737838\N,0,-3.8
 504741421,-0.1458865713,0.3487514266\C,0,-4.9273801349,-0.5858651267,-
 0.4501897427\C,0,-5.8818205438,-1.4925192632,0.0277286832\C,0,-6.94084
 33639,-1.9145471248,-0.7847555914\C,0,-7.972129402,-2.876512891,-0.240
 5788706\C,0,-7.0293696767,-1.4180906085,-2.0875962087\C,0,-6.077817128
 9,-0.5148130091,-2.5615040346\C,0,-5.0159339907,-0.079768203,-1.768012
 5186\C,0,-3.9988341277,0.8966068499,-2.3118545545\C,0,-0.7364761769,2.
 0775851917,1.5138040354\C,0,-1.6394271179,3.2888865354,1.2673663459\C,
 0,0.5764216149,2.2004609957,0.726483458\C,0,6.2821384342,-0.7489724854
 ,0.3825354909\H,0,9.4042257334,-2.0177752833,-0.1955918557\H,0,8.88795
 93123,-1.0251514344,1.1799615205\H,0,8.3865854158,-2.7123863913,1.0724
 295053\H,0,8.0085227575,-2.1496999159,-2.1861157733\H,0,5.9546073705,-
 1.4954015166,-3.3927620992\H,0,2.835409424,-0.7419451273,-2.0547148581
 \H,0,3.5599826755,0.8279344203,-2.4277625118\H,0,3.8278417234,-0.54734
 58778,-3.4999972851\H,0,3.2273376438,0.5076908048,-0.2052741472\H,0,2.
 8426922642,2.4655389391,1.8931102939\H,0,2.3284700043,1.1708271115,2.9
 817311108\H,0,0.7353102806,-0.3200944272,2.3510013611\H,0,1.4914393484
 ,-1.0020677723,0.9082410292\H,0,-0.3761892794,-0.0670276304,-0.4949551
 022\H,0,-0.9621923742,-1.1902864434,0.7218008284\H,0,-1.7893826568,-0.
 3759251768,2.8725133826\H,0,-2.6907837877,1.1301807774,2.7579436563\H,
 0,-3.1912869184,0.5103765021,-0.0590968026\H,0,-5.7844802102,-1.862252
 1464,1.0401943597\H,0,-7.5010285068,-3.7034970149,0.3026544526\H,0,-8.
 5839781833,-3.3023634355,-1.0424662085\H,0,-8.6507919597,-2.3764279369
 ,0.4628102978\H,0,-7.8417940333,-1.7364772772,-2.7361958507\H,0,-6.157
 9895892,-0.1368966305,-3.5784179777\H,0,-2.9818038019,0.4794007762,-2.
 3171287095\H,0,-3.9630951842,1.8288368189,-1.730430121\H,0,-4.24083846
 54,1.1688847576,-3.3431948399\H,0,-0.4785593339,2.0426119539,2.5875422
 159\H,0,-1.8340703221,3.4092469683,0.1953357781\H,0,-2.605136888,3.178
 1931256,1.7718225182\H,0,-1.1721556505,4.2068418035,1.6427224561\H,0,1
 .05592932,3.1533805923,0.967902488\H,0,0.3346480287,2.2346244045,-0.34
 52618235\H,0,6.3554431063,-0.526605625,1.4391279618\\Version=ES64L-G16
 RevB.01\HF=-1342.6325296\RMSD=4.230e-09\PG=C01 [X(C25H34N4O2)]\\@


0EVERYBODY IS IGNORANT, ONLY ON DIFFERENT SUBJECTS.
0          WILL ROGERS
 Job cpu time:       0 days  2 hours 31 minutes 38.9 seconds.
 Elapsed time:       0 days  0 hours 11 minutes 19.7 seconds.
 File lengths (MBytes):  RWF=   1691 Int=      0 D2E=      0 Chk=     60 Scr=      1
 Normal termination of Gaussian 16 at Sat Nov  5 12:13:39 2022.
