 Entering Gaussian System, Link 0=/home/wykgroup/appl/g16/g16
 Input=./calculation/no_transfer_pubchem_sampling_4_b3lyp/67898159.com
 Output=./calculation/no_transfer_pubchem_sampling_4_b3lyp/67898159.log
 Initial command:
 /home/wykgroup/appl/g16/l1.exe "/userdata/scratch/wykgroup/khs/./calculation/no_transfer_pubchem_sampling_4_b3lyp/67898159/Gau-3369.inp" -scrdir="/userdata/scratch/wykgroup/khs/./calculation/no_transfer_pubchem_sampling_4_b3lyp/67898159/"
 Entering Link 1 = /home/wykgroup/appl/g16/l1.exe PID=      3370.
  
 Copyright (c) 1988-2017, Gaussian, Inc.  All Rights Reserved.
  
 This is part of the Gaussian(R) 16 program.  It is based on
 the Gaussian(R) 09 system (copyright 2009, Gaussian, Inc.),
 the Gaussian(R) 03 system (copyright 2003, Gaussian, Inc.),
 the Gaussian(R) 98 system (copyright 1998, Gaussian, Inc.),
 the Gaussian(R) 94 system (copyright 1995, Gaussian, Inc.),
 the Gaussian 92(TM) system (copyright 1992, Gaussian, Inc.),
 the Gaussian 90(TM) system (copyright 1990, Gaussian, Inc.),
 the Gaussian 88(TM) system (copyright 1988, Gaussian, Inc.),
 the Gaussian 86(TM) system (copyright 1986, Carnegie Mellon
 University), and the Gaussian 82(TM) system (copyright 1983,
 Carnegie Mellon University). Gaussian is a federally registered
 trademark of Gaussian, Inc.
  
 This software contains proprietary and confidential information,
 including trade secrets, belonging to Gaussian, Inc.
  
 This software is provided under written license and may be
 used, copied, transmitted, or stored only in accord with that
 written license.
  
 The following legend is applicable only to US Government
 contracts under FAR:
  
                    RESTRICTED RIGHTS LEGEND
  
 Use, reproduction and disclosure by the US Government is
 subject to restrictions as set forth in subparagraphs (a)
 and (c) of the Commercial Computer Software - Restricted
 Rights clause in FAR 52.227-19.
  
 Gaussian, Inc.
 340 Quinnipiac St., Bldg. 40, Wallingford CT 06492
  
  
 ---------------------------------------------------------------
 Warning -- This program may not be used in any manner that
 competes with the business of Gaussian, Inc. or will provide
 assistance to any competitor of Gaussian, Inc.  The licensee
 of this program is prohibited from giving any competitor of
 Gaussian, Inc. access to this program.  By using this program,
 the user acknowledges that Gaussian, Inc. is engaged in the
 business of creating and licensing software in the field of
 computational chemistry and represents and warrants to the
 licensee that it is not a competitor of Gaussian, Inc. and that
 it will not use this program in any manner prohibited above.
 ---------------------------------------------------------------
  

 Cite this work as:
 Gaussian 16, Revision B.01,
 M. J. Frisch, G. W. Trucks, H. B. Schlegel, G. E. Scuseria, 
 M. A. Robb, J. R. Cheeseman, G. Scalmani, V. Barone, 
 G. A. Petersson, H. Nakatsuji, X. Li, M. Caricato, A. V. Marenich, 
 J. Bloino, B. G. Janesko, R. Gomperts, B. Mennucci, H. P. Hratchian, 
 J. V. Ortiz, A. F. Izmaylov, J. L. Sonnenberg, D. Williams-Young, 
 F. Ding, F. Lipparini, F. Egidi, J. Goings, B. Peng, A. Petrone, 
 T. Henderson, D. Ranasinghe, V. G. Zakrzewski, J. Gao, N. Rega, 
 G. Zheng, W. Liang, M. Hada, M. Ehara, K. Toyota, R. Fukuda, 
 J. Hasegawa, M. Ishida, T. Nakajima, Y. Honda, O. Kitao, H. Nakai, 
 T. Vreven, K. Throssell, J. A. Montgomery, Jr., J. E. Peralta, 
 F. Ogliaro, M. J. Bearpark, J. J. Heyd, E. N. Brothers, K. N. Kudin, 
 V. N. Staroverov, T. A. Keith, R. Kobayashi, J. Normand, 
 K. Raghavachari, A. P. Rendell, J. C. Burant, S. S. Iyengar, 
 J. Tomasi, M. Cossi, J. M. Millam, M. Klene, C. Adamo, R. Cammi, 
 J. W. Ochterski, R. L. Martin, K. Morokuma, O. Farkas, 
 J. B. Foresman, and D. J. Fox, Gaussian, Inc., Wallingford CT, 2016.
 
 ******************************************
 Gaussian 16:  ES64L-G16RevB.01 20-Dec-2017
                 4-Nov-2022 
 ******************************************
 %chk=./calculation/no_transfer_pubchem_sampling_4_b3lyp/67898159.chk
 %nprocshared=7
 Will use up to    7 processors via shared memory.
 %mem=6GB
 -----------------------------
 #p b3lyp/6-31g(d) opt SCF=XQC
 -----------------------------
 1/18=20,19=15,26=3,38=1/1,3;
 2/9=110,12=2,17=6,18=5,40=1/2;
 3/5=1,6=6,7=1,11=2,25=1,30=1,71=1,74=-5/1,2,3;
 4//1;
 5/5=2,8=3,13=1,38=5/2,8;
 6/7=2,8=2,9=2,10=2,28=1/1;
 7//1,2,3,16;
 1/18=20,19=15,26=3/3(2);
 2/9=110/2;
 99//99;
 2/9=110/2;
 3/5=1,6=6,7=1,11=2,25=1,30=1,71=1,74=-5/1,2,3;
 4/5=5,16=3,69=1/1;
 5/5=2,8=3,13=1,38=5/2,8;
 7//1,2,3,16;
 1/18=20,19=15,26=3/3(-5);
 2/9=110/2;
 6/7=2,8=2,9=2,10=2,19=2,28=1/1;
 99/9=1/99;
 Leave Link    1 at Fri Nov  4 20:26:26 2022, MaxMem=   805306368 cpu:               1.2 elap:               0.2
 (Enter /home/wykgroup/appl/g16/l101.exe)
 ------------------------------
 Gaussian input prepared by ASE
 ------------------------------
 Symbolic Z-matrix:
 Charge =  0 Multiplicity = 1
 C                     10.02262   0.74359  -6.44692 
 C                     10.50109   1.37324  -5.3907 
 C                     10.56059   0.79624  -4.01298 
 C                     9.71829   1.62297  -3.03646 
 C                     9.86507   1.17579  -1.58147 
 C                     9.42831  -0.26271  -1.2976 
 C                     7.95499  -0.52001  -1.61284 
 C                     7.47048  -1.89606  -1.1334 
 C                     6.70425  -1.8616    0.18957 
 C                     7.54781  -1.41833   1.38154 
 C                     6.79273  -1.54532   2.70127 
 O                     5.69708  -0.65821   2.69771 
 C                     4.93953  -0.64299   3.89652 
 C                     5.56862   0.28882   4.93698 
 C                     3.5208   -0.16811   3.54827 
 C                     2.58183  -1.28331   3.04751 
 C                     2.47404  -2.27637   4.0961 
 N                     2.40082  -3.071     4.91611 
 C                     3.12429  -1.96945   1.77121 
 C                     2.02596  -2.24371   0.74533 
 C                     0.77916  -2.80174   1.42297 
 C                     0.17288  -1.80826   2.43707 
 C                    -1.10862  -1.17838   1.95259 
 C                    -2.22507  -1.14104   2.77832 
 C                    -3.40253  -0.55187   2.36069 
 C                    -3.50083   0.02706   1.09799 
 C                    -4.75001   0.65523   0.64933 
 C                    -4.73534   1.84308  -0.08209 
 C                    -5.90744   2.43167  -0.49839 
 C                    -7.14447   1.85033  -0.20636 
 O                    -8.22502   2.53183  -0.66384 
 C                    -9.53436   2.03146  -0.44755 
 C                    -10.5192   3.20902  -0.59983 
 C                    -10.06645   4.32041  -1.55027 
 C                    -9.91811   3.88429  -3.00184 
 C                    -9.848     0.86293  -1.39876 
 C                    -10.95654  -0.04035  -0.86471 
 C                    -11.27284  -1.17975  -1.83074 
 C                    -12.37455  -2.08611  -1.29558 
 C                    -7.16742   0.66135   0.5167 
 C                    -5.98383   0.08379   0.9391 
 C                    -2.38003  -0.0069    0.27159 
 C                    -1.206    -0.59921   0.69273 
 C                     1.18043  -0.70301   2.79202 
 H                     9.6437   -0.2637   -6.38208 
 H                     9.99233   1.19985  -7.42189 
 H                     10.87335   2.38591  -5.48397 
 H                     10.20598  -0.23461  -4.03546 
 H                     11.59926   0.79565  -3.66841 
 H                     10.02847   2.66908  -3.10489 
 H                     8.6707    1.57501  -3.33781 
 H                     10.91212   1.28396  -1.28583 
 H                     9.27585   1.85003  -0.95421 
 H                     9.61388  -0.46795  -0.24205 
 H                     10.04498  -0.95528  -1.87363 
 H                     7.34425   0.25948  -1.15295 
 H                     7.81311  -0.45008  -2.6924 
 H                     8.32495  -2.5698   -1.03857 
 H                     6.80406  -2.32343  -1.88607 
 H                     5.85338  -1.18586   0.09325 
 H                     6.31245  -2.86228   0.39026 
 H                     7.84112  -0.37575   1.26018 
 H                     8.44879  -2.032     1.4459 
 H                     6.43285  -2.57827   2.83869 
 H                     7.47405  -1.31379   3.53317 
 H                     4.8953   -1.66303   4.31185 
 H                     6.59556  -0.00312   5.14189 
 H                     5.56751   1.31014   4.56374 
 H                     5.00746   0.24393   5.86611 
 H                     3.60597   0.59808   2.77557 
 H                     3.07727   0.28698   4.43633 
 H                     3.60169  -2.91303   2.0475 
 H                     3.89152  -1.3335    1.33152 
 H                     1.78198  -1.32678   0.20702 
 H                     2.39671  -2.96121   0.01047 
 H                     1.05537  -3.72064   1.94504 
 H                     0.03038  -3.06315   0.67303 
 H                    -0.05397  -2.35712   3.35738 
 H                    -2.17054  -1.58094   3.7645 
 H                    -4.25147  -0.52254   3.02807 
 H                    -3.79281   2.32072  -0.30576 
 H                    -5.89834   3.35576  -1.05542 
 H                    -9.61051   1.66268   0.58689 
 H                    -11.47907   2.81225  -0.93369 
 H                    -10.67143   3.66099   0.38277 
 H                    -9.11416   4.71778  -1.19896 
 H                    -10.80651   5.1228   -1.49232 
 H                    -9.10175   3.17522  -3.10428 
 H                    -9.69767   4.74672  -3.62763 
 H                    -10.83702   3.42742  -3.3652 
 H                    -10.13474   1.25246  -2.37461 
 H                    -8.9386    0.27214  -1.53542 
 H                    -10.65484  -0.46128   0.09814 
 H                    -11.86133   0.54765  -0.69426 
 H                    -10.36875  -1.76854  -2.00151 
 H                    -11.58133  -0.76199  -2.79167 
 H                    -12.58486  -2.88889  -1.9982 
 H                    -12.07763  -2.52931  -0.34747 
 H                    -13.29027  -1.52074  -1.13618 
 H                    -8.09754   0.17121   0.75766 
 H                    -6.02346  -0.8473    1.48575 
 H                    -2.43748   0.41871  -0.71986 
 H                    -0.35863  -0.61651   0.02352 
 H                     0.82948  -0.17611   3.68272 
 H                     1.24389   0.02664   1.98336 
 
 ITRead=  0  0  0  0  0  0  0  0  0  0  0  0  0  0  0  0  0  0  0  0
 ITRead=  0  0  0  0  0  0  0  0  0  0  0  0  0  0  0  0  0  0  0  0
 ITRead=  0  0  0  0  0  0  0  0  0  0  0  0  0  0  0  0  0  0  0  0
 ITRead=  0  0  0  0  0  0  0  0  0  0  0  0  0  0  0  0  0  0  0  0
 ITRead=  0  0  0  0  0  0  0  0  0  0  0  0  0  0  0  0  0  0  0  0
 ITRead=  0  0  0  0  0
 MicOpt= -1 -1 -1 -1 -1 -1 -1 -1 -1 -1 -1 -1 -1 -1 -1 -1 -1 -1 -1 -1
 MicOpt= -1 -1 -1 -1 -1 -1 -1 -1 -1 -1 -1 -1 -1 -1 -1 -1 -1 -1 -1 -1
 MicOpt= -1 -1 -1 -1 -1 -1 -1 -1 -1 -1 -1 -1 -1 -1 -1 -1 -1 -1 -1 -1
 MicOpt= -1 -1 -1 -1 -1 -1 -1 -1 -1 -1 -1 -1 -1 -1 -1 -1 -1 -1 -1 -1
 MicOpt= -1 -1 -1 -1 -1 -1 -1 -1 -1 -1 -1 -1 -1 -1 -1 -1 -1 -1 -1 -1
 MicOpt= -1 -1 -1 -1 -1
 NAtoms=    105 NQM=      105 NQMF=       0 NMMI=      0 NMMIF=      0
                NMic=       0 NMicF=      0.
                    Isotopes and Nuclear Properties:
 (Nuclear quadrupole moments (NQMom) in fm**2, nuclear magnetic moments (NMagM)
  in nuclear magnetons)

  Atom         1           2           3           4           5           6           7           8           9          10
 IAtWgt=          12          12          12          12          12          12          12          12          12          12
 AtmWgt=  12.0000000  12.0000000  12.0000000  12.0000000  12.0000000  12.0000000  12.0000000  12.0000000  12.0000000  12.0000000
 NucSpn=           0           0           0           0           0           0           0           0           0           0
 AtZEff=  -0.0000000  -0.0000000  -0.0000000  -0.0000000  -0.0000000  -0.0000000  -0.0000000  -0.0000000  -0.0000000  -0.0000000
 NQMom=    0.0000000   0.0000000   0.0000000   0.0000000   0.0000000   0.0000000   0.0000000   0.0000000   0.0000000   0.0000000
 NMagM=    0.0000000   0.0000000   0.0000000   0.0000000   0.0000000   0.0000000   0.0000000   0.0000000   0.0000000   0.0000000
 AtZNuc=   6.0000000   6.0000000   6.0000000   6.0000000   6.0000000   6.0000000   6.0000000   6.0000000   6.0000000   6.0000000

  Atom        11          12          13          14          15          16          17          18          19          20
 IAtWgt=          12          16          12          12          12          12          12          14          12          12
 AtmWgt=  12.0000000  15.9949146  12.0000000  12.0000000  12.0000000  12.0000000  12.0000000  14.0030740  12.0000000  12.0000000
 NucSpn=           0           0           0           0           0           0           0           2           0           0
 AtZEff=  -0.0000000  -0.0000000  -0.0000000  -0.0000000  -0.0000000  -0.0000000  -0.0000000  -0.0000000  -0.0000000  -0.0000000
 NQMom=    0.0000000   0.0000000   0.0000000   0.0000000   0.0000000   0.0000000   0.0000000   2.0440000   0.0000000   0.0000000
 NMagM=    0.0000000   0.0000000   0.0000000   0.0000000   0.0000000   0.0000000   0.0000000   0.4037610   0.0000000   0.0000000
 AtZNuc=   6.0000000   8.0000000   6.0000000   6.0000000   6.0000000   6.0000000   6.0000000   7.0000000   6.0000000   6.0000000

  Atom        21          22          23          24          25          26          27          28          29          30
 IAtWgt=          12          12          12          12          12          12          12          12          12          12
 AtmWgt=  12.0000000  12.0000000  12.0000000  12.0000000  12.0000000  12.0000000  12.0000000  12.0000000  12.0000000  12.0000000
 NucSpn=           0           0           0           0           0           0           0           0           0           0
 AtZEff=  -0.0000000  -0.0000000  -0.0000000  -0.0000000  -0.0000000  -0.0000000  -0.0000000  -0.0000000  -0.0000000  -0.0000000
 NQMom=    0.0000000   0.0000000   0.0000000   0.0000000   0.0000000   0.0000000   0.0000000   0.0000000   0.0000000   0.0000000
 NMagM=    0.0000000   0.0000000   0.0000000   0.0000000   0.0000000   0.0000000   0.0000000   0.0000000   0.0000000   0.0000000
 AtZNuc=   6.0000000   6.0000000   6.0000000   6.0000000   6.0000000   6.0000000   6.0000000   6.0000000   6.0000000   6.0000000

  Atom        31          32          33          34          35          36          37          38          39          40
 IAtWgt=          16          12          12          12          12          12          12          12          12          12
 AtmWgt=  15.9949146  12.0000000  12.0000000  12.0000000  12.0000000  12.0000000  12.0000000  12.0000000  12.0000000  12.0000000
 NucSpn=           0           0           0           0           0           0           0           0           0           0
 AtZEff=  -0.0000000  -0.0000000  -0.0000000  -0.0000000  -0.0000000  -0.0000000  -0.0000000  -0.0000000  -0.0000000  -0.0000000
 NQMom=    0.0000000   0.0000000   0.0000000   0.0000000   0.0000000   0.0000000   0.0000000   0.0000000   0.0000000   0.0000000
 NMagM=    0.0000000   0.0000000   0.0000000   0.0000000   0.0000000   0.0000000   0.0000000   0.0000000   0.0000000   0.0000000
 AtZNuc=   8.0000000   6.0000000   6.0000000   6.0000000   6.0000000   6.0000000   6.0000000   6.0000000   6.0000000   6.0000000

  Atom        41          42          43          44          45          46          47          48          49          50
 IAtWgt=          12          12          12          12           1           1           1           1           1           1
 AtmWgt=  12.0000000  12.0000000  12.0000000  12.0000000   1.0078250   1.0078250   1.0078250   1.0078250   1.0078250   1.0078250
 NucSpn=           0           0           0           0           1           1           1           1           1           1
 AtZEff=  -0.0000000  -0.0000000  -0.0000000  -0.0000000  -0.0000000  -0.0000000  -0.0000000  -0.0000000  -0.0000000  -0.0000000
 NQMom=    0.0000000   0.0000000   0.0000000   0.0000000   0.0000000   0.0000000   0.0000000   0.0000000   0.0000000   0.0000000
 NMagM=    0.0000000   0.0000000   0.0000000   0.0000000   2.7928460   2.7928460   2.7928460   2.7928460   2.7928460   2.7928460
 AtZNuc=   6.0000000   6.0000000   6.0000000   6.0000000   1.0000000   1.0000000   1.0000000   1.0000000   1.0000000   1.0000000

  Atom        51          52          53          54          55          56          57          58          59          60
 IAtWgt=           1           1           1           1           1           1           1           1           1           1
 AtmWgt=   1.0078250   1.0078250   1.0078250   1.0078250   1.0078250   1.0078250   1.0078250   1.0078250   1.0078250   1.0078250
 NucSpn=           1           1           1           1           1           1           1           1           1           1
 AtZEff=  -0.0000000  -0.0000000  -0.0000000  -0.0000000  -0.0000000  -0.0000000  -0.0000000  -0.0000000  -0.0000000  -0.0000000
 NQMom=    0.0000000   0.0000000   0.0000000   0.0000000   0.0000000   0.0000000   0.0000000   0.0000000   0.0000000   0.0000000
 NMagM=    2.7928460   2.7928460   2.7928460   2.7928460   2.7928460   2.7928460   2.7928460   2.7928460   2.7928460   2.7928460
 AtZNuc=   1.0000000   1.0000000   1.0000000   1.0000000   1.0000000   1.0000000   1.0000000   1.0000000   1.0000000   1.0000000

  Atom        61          62          63          64          65          66          67          68          69          70
 IAtWgt=           1           1           1           1           1           1           1           1           1           1
 AtmWgt=   1.0078250   1.0078250   1.0078250   1.0078250   1.0078250   1.0078250   1.0078250   1.0078250   1.0078250   1.0078250
 NucSpn=           1           1           1           1           1           1           1           1           1           1
 AtZEff=  -0.0000000  -0.0000000  -0.0000000  -0.0000000  -0.0000000  -0.0000000  -0.0000000  -0.0000000  -0.0000000  -0.0000000
 NQMom=    0.0000000   0.0000000   0.0000000   0.0000000   0.0000000   0.0000000   0.0000000   0.0000000   0.0000000   0.0000000
 NMagM=    2.7928460   2.7928460   2.7928460   2.7928460   2.7928460   2.7928460   2.7928460   2.7928460   2.7928460   2.7928460
 AtZNuc=   1.0000000   1.0000000   1.0000000   1.0000000   1.0000000   1.0000000   1.0000000   1.0000000   1.0000000   1.0000000

  Atom        71          72          73          74          75          76          77          78          79          80
 IAtWgt=           1           1           1           1           1           1           1           1           1           1
 AtmWgt=   1.0078250   1.0078250   1.0078250   1.0078250   1.0078250   1.0078250   1.0078250   1.0078250   1.0078250   1.0078250
 NucSpn=           1           1           1           1           1           1           1           1           1           1
 AtZEff=  -0.0000000  -0.0000000  -0.0000000  -0.0000000  -0.0000000  -0.0000000  -0.0000000  -0.0000000  -0.0000000  -0.0000000
 NQMom=    0.0000000   0.0000000   0.0000000   0.0000000   0.0000000   0.0000000   0.0000000   0.0000000   0.0000000   0.0000000
 NMagM=    2.7928460   2.7928460   2.7928460   2.7928460   2.7928460   2.7928460   2.7928460   2.7928460   2.7928460   2.7928460
 AtZNuc=   1.0000000   1.0000000   1.0000000   1.0000000   1.0000000   1.0000000   1.0000000   1.0000000   1.0000000   1.0000000

  Atom        81          82          83          84          85          86          87          88          89          90
 IAtWgt=           1           1           1           1           1           1           1           1           1           1
 AtmWgt=   1.0078250   1.0078250   1.0078250   1.0078250   1.0078250   1.0078250   1.0078250   1.0078250   1.0078250   1.0078250
 NucSpn=           1           1           1           1           1           1           1           1           1           1
 AtZEff=  -0.0000000  -0.0000000  -0.0000000  -0.0000000  -0.0000000  -0.0000000  -0.0000000  -0.0000000  -0.0000000  -0.0000000
 NQMom=    0.0000000   0.0000000   0.0000000   0.0000000   0.0000000   0.0000000   0.0000000   0.0000000   0.0000000   0.0000000
 NMagM=    2.7928460   2.7928460   2.7928460   2.7928460   2.7928460   2.7928460   2.7928460   2.7928460   2.7928460   2.7928460
 AtZNuc=   1.0000000   1.0000000   1.0000000   1.0000000   1.0000000   1.0000000   1.0000000   1.0000000   1.0000000   1.0000000

  Atom        91          92          93          94          95          96          97          98          99         100
 IAtWgt=           1           1           1           1           1           1           1           1           1           1
 AtmWgt=   1.0078250   1.0078250   1.0078250   1.0078250   1.0078250   1.0078250   1.0078250   1.0078250   1.0078250   1.0078250
 NucSpn=           1           1           1           1           1           1           1           1           1           1
 AtZEff=  -0.0000000  -0.0000000  -0.0000000  -0.0000000  -0.0000000  -0.0000000  -0.0000000  -0.0000000  -0.0000000  -0.0000000
 NQMom=    0.0000000   0.0000000   0.0000000   0.0000000   0.0000000   0.0000000   0.0000000   0.0000000   0.0000000   0.0000000
 NMagM=    2.7928460   2.7928460   2.7928460   2.7928460   2.7928460   2.7928460   2.7928460   2.7928460   2.7928460   2.7928460
 AtZNuc=   1.0000000   1.0000000   1.0000000   1.0000000   1.0000000   1.0000000   1.0000000   1.0000000   1.0000000   1.0000000

  Atom       101         102         103         104         105
 IAtWgt=           1           1           1           1           1
 AtmWgt=   1.0078250   1.0078250   1.0078250   1.0078250   1.0078250
 NucSpn=           1           1           1           1           1
 AtZEff=  -0.0000000  -0.0000000  -0.0000000  -0.0000000  -0.0000000
 NQMom=    0.0000000   0.0000000   0.0000000   0.0000000   0.0000000
 NMagM=    2.7928460   2.7928460   2.7928460   2.7928460   2.7928460
 AtZNuc=   1.0000000   1.0000000   1.0000000   1.0000000   1.0000000
 Leave Link  101 at Fri Nov  4 20:26:26 2022, MaxMem=   805306368 cpu:               2.9 elap:               0.5
 (Enter /home/wykgroup/appl/g16/l103.exe)

 GradGradGradGradGradGradGradGradGradGradGradGradGradGradGradGradGradGrad
 Berny optimization.
 Initialization pass.
                           ----------------------------
                           !    Initial Parameters    !
                           ! (Angstroms and Degrees)  !
 --------------------------                            --------------------------
 ! Name  Definition              Value          Derivative Info.                !
 --------------------------------------------------------------------------------
 ! R1    R(1,2)                  1.3195         estimate D2E/DX2                !
 ! R2    R(1,45)                 1.0782         estimate D2E/DX2                !
 ! R3    R(1,46)                 1.0769         estimate D2E/DX2                !
 ! R4    R(2,3)                  1.4948         estimate D2E/DX2                !
 ! R5    R(2,47)                 1.083          estimate D2E/DX2                !
 ! R6    R(3,4)                  1.5318         estimate D2E/DX2                !
 ! R7    R(3,48)                 1.0904         estimate D2E/DX2                !
 ! R8    R(3,49)                 1.0943         estimate D2E/DX2                !
 ! R9    R(4,5)                  1.5292         estimate D2E/DX2                !
 ! R10   R(4,50)                 1.0933         estimate D2E/DX2                !
 ! R11   R(4,51)                 1.0911         estimate D2E/DX2                !
 ! R12   R(5,6)                  1.5299         estimate D2E/DX2                !
 ! R13   R(5,52)                 1.0933         estimate D2E/DX2                !
 ! R14   R(5,53)                 1.0933         estimate D2E/DX2                !
 ! R15   R(6,7)                  1.5285         estimate D2E/DX2                !
 ! R16   R(6,54)                 1.0912         estimate D2E/DX2                !
 ! R17   R(6,55)                 1.0917         estimate D2E/DX2                !
 ! R18   R(7,8)                  1.5356         estimate D2E/DX2                !
 ! R19   R(7,56)                 1.0918         estimate D2E/DX2                !
 ! R20   R(7,57)                 1.0911         estimate D2E/DX2                !
 ! R21   R(8,9)                  1.5292         estimate D2E/DX2                !
 ! R22   R(8,58)                 1.0923         estimate D2E/DX2                !
 ! R23   R(8,59)                 1.0924         estimate D2E/DX2                !
 ! R24   R(9,10)                 1.5261         estimate D2E/DX2                !
 ! R25   R(9,60)                 1.0908         estimate D2E/DX2                !
 ! R26   R(9,61)                 1.0932         estimate D2E/DX2                !
 ! R27   R(10,11)                1.5258         estimate D2E/DX2                !
 ! R28   R(10,62)                1.0898         estimate D2E/DX2                !
 ! R29   R(10,63)                1.092          estimate D2E/DX2                !
 ! R30   R(11,12)                1.4098         estimate D2E/DX2                !
 ! R31   R(11,64)                1.1024         estimate D2E/DX2                !
 ! R32   R(11,65)                1.0999         estimate D2E/DX2                !
 ! R33   R(12,13)                1.4182         estimate D2E/DX2                !
 ! R34   R(13,14)                1.5319         estimate D2E/DX2                !
 ! R35   R(13,15)                1.5361         estimate D2E/DX2                !
 ! R36   R(13,66)                1.1022         estimate D2E/DX2                !
 ! R37   R(14,67)                1.0871         estimate D2E/DX2                !
 ! R38   R(14,68)                1.0874         estimate D2E/DX2                !
 ! R39   R(14,69)                1.0864         estimate D2E/DX2                !
 ! R40   R(15,16)                1.5415         estimate D2E/DX2                !
 ! R41   R(15,70)                1.0915         estimate D2E/DX2                !
 ! R42   R(15,71)                1.092          estimate D2E/DX2                !
 ! R43   R(16,17)                1.4482         estimate D2E/DX2                !
 ! R44   R(16,19)                1.5473         estimate D2E/DX2                !
 ! R45   R(16,44)                1.5382         estimate D2E/DX2                !
 ! R46   R(17,18)                1.1442         estimate D2E/DX2                !
 ! R47   R(19,20)                1.5277         estimate D2E/DX2                !
 ! R48   R(19,72)                1.093          estimate D2E/DX2                !
 ! R49   R(19,73)                1.0892         estimate D2E/DX2                !
 ! R50   R(20,21)                1.5248         estimate D2E/DX2                !
 ! R51   R(20,74)                1.0909         estimate D2E/DX2                !
 ! R52   R(20,75)                1.0919         estimate D2E/DX2                !
 ! R53   R(21,22)                1.5437         estimate D2E/DX2                !
 ! R54   R(21,76)                1.0924         estimate D2E/DX2                !
 ! R55   R(21,77)                1.0915         estimate D2E/DX2                !
 ! R56   R(22,23)                1.5079         estimate D2E/DX2                !
 ! R57   R(22,44)                1.5371         estimate D2E/DX2                !
 ! R58   R(22,78)                1.0953         estimate D2E/DX2                !
 ! R59   R(23,24)                1.3891         estimate D2E/DX2                !
 ! R60   R(23,43)                1.39           estimate D2E/DX2                !
 ! R61   R(24,25)                1.3813         estimate D2E/DX2                !
 ! R62   R(24,79)                1.0812         estimate D2E/DX2                !
 ! R63   R(25,26)                1.3926         estimate D2E/DX2                !
 ! R64   R(25,80)                1.0803         estimate D2E/DX2                !
 ! R65   R(26,27)                1.4685         estimate D2E/DX2                !
 ! R66   R(26,42)                1.3929         estimate D2E/DX2                !
 ! R67   R(27,28)                1.395          estimate D2E/DX2                !
 ! R68   R(27,41)                1.3903         estimate D2E/DX2                !
 ! R69   R(28,29)                1.3761         estimate D2E/DX2                !
 ! R70   R(28,81)                1.0801         estimate D2E/DX2                !
 ! R71   R(29,30)                1.3977         estimate D2E/DX2                !
 ! R72   R(29,82)                1.079          estimate D2E/DX2                !
 ! R73   R(30,31)                1.3569         estimate D2E/DX2                !
 ! R74   R(30,40)                1.3918         estimate D2E/DX2                !
 ! R75   R(31,32)                1.4183         estimate D2E/DX2                !
 ! R76   R(32,33)                1.5426         estimate D2E/DX2                !
 ! R77   R(32,36)                1.539          estimate D2E/DX2                !
 ! R78   R(32,83)                1.1009         estimate D2E/DX2                !
 ! R79   R(33,34)                1.5308         estimate D2E/DX2                !
 ! R80   R(33,84)                1.091          estimate D2E/DX2                !
 ! R81   R(33,85)                1.0922         estimate D2E/DX2                !
 ! R82   R(34,35)                1.5229         estimate D2E/DX2                !
 ! R83   R(34,86)                1.09           estimate D2E/DX2                !
 ! R84   R(34,87)                1.0931         estimate D2E/DX2                !
 ! R85   R(35,88)                1.0862         estimate D2E/DX2                !
 ! R86   R(35,89)                1.0881         estimate D2E/DX2                !
 ! R87   R(35,90)                1.0886         estimate D2E/DX2                !
 ! R88   R(36,37)                1.5264         estimate D2E/DX2                !
 ! R89   R(36,91)                1.0891         estimate D2E/DX2                !
 ! R90   R(36,92)                1.093          estimate D2E/DX2                !
 ! R91   R(37,38)                1.5269         estimate D2E/DX2                !
 ! R92   R(37,93)                1.0933         estimate D2E/DX2                !
 ! R93   R(37,94)                1.0925         estimate D2E/DX2                !
 ! R94   R(38,39)                1.5237         estimate D2E/DX2                !
 ! R95   R(38,95)                1.0923         estimate D2E/DX2                !
 ! R96   R(38,96)                1.0923         estimate D2E/DX2                !
 ! R97   R(39,97)                1.0874         estimate D2E/DX2                !
 ! R98   R(39,98)                1.0879         estimate D2E/DX2                !
 ! R99   R(39,99)                1.0879         estimate D2E/DX2                !
 ! R100  R(40,41)                1.3831         estimate D2E/DX2                !
 ! R101  R(40,100)               1.0786         estimate D2E/DX2                !
 ! R102  R(41,101)               1.0804         estimate D2E/DX2                !
 ! R103  R(42,43)                1.3808         estimate D2E/DX2                !
 ! R104  R(42,102)               1.0805         estimate D2E/DX2                !
 ! R105  R(43,103)               1.0799         estimate D2E/DX2                !
 ! R106  R(44,104)               1.0928         estimate D2E/DX2                !
 ! R107  R(44,105)               1.091          estimate D2E/DX2                !
 ! A1    A(2,1,45)             121.6775         estimate D2E/DX2                !
 ! A2    A(2,1,46)             122.1921         estimate D2E/DX2                !
 ! A3    A(45,1,46)            116.1294         estimate D2E/DX2                !
 ! A4    A(1,2,3)              124.6115         estimate D2E/DX2                !
 ! A5    A(1,2,47)             120.1286         estimate D2E/DX2                !
 ! A6    A(3,2,47)             115.2539         estimate D2E/DX2                !
 ! A7    A(2,3,4)              110.9361         estimate D2E/DX2                !
 ! A8    A(2,3,48)             109.4498         estimate D2E/DX2                !
 ! A9    A(2,3,49)             109.1587         estimate D2E/DX2                !
 ! A10   A(4,3,48)             110.1542         estimate D2E/DX2                !
 ! A11   A(4,3,49)             108.7513         estimate D2E/DX2                !
 ! A12   A(48,3,49)            108.34           estimate D2E/DX2                !
 ! A13   A(3,4,5)              113.3245         estimate D2E/DX2                !
 ! A14   A(3,4,50)             108.6934         estimate D2E/DX2                !
 ! A15   A(3,4,51)             109.1558         estimate D2E/DX2                !
 ! A16   A(5,4,50)             108.1877         estimate D2E/DX2                !
 ! A17   A(5,4,51)             110.0038         estimate D2E/DX2                !
 ! A18   A(50,4,51)            107.2877         estimate D2E/DX2                !
 ! A19   A(4,5,6)              115.0928         estimate D2E/DX2                !
 ! A20   A(4,5,52)             108.6793         estimate D2E/DX2                !
 ! A21   A(4,5,53)             108.2902         estimate D2E/DX2                !
 ! A22   A(6,5,52)             108.4357         estimate D2E/DX2                !
 ! A23   A(6,5,53)             108.6354         estimate D2E/DX2                !
 ! A24   A(52,5,53)            107.4561         estimate D2E/DX2                !
 ! A25   A(5,6,7)              113.2782         estimate D2E/DX2                !
 ! A26   A(5,6,54)             107.9256         estimate D2E/DX2                !
 ! A27   A(5,6,55)             109.7144         estimate D2E/DX2                !
 ! A28   A(7,6,54)             109.3756         estimate D2E/DX2                !
 ! A29   A(7,6,55)             109.2011         estimate D2E/DX2                !
 ! A30   A(54,6,55)            107.159          estimate D2E/DX2                !
 ! A31   A(6,7,8)              112.9908         estimate D2E/DX2                !
 ! A32   A(6,7,56)             109.398          estimate D2E/DX2                !
 ! A33   A(6,7,57)             108.5795         estimate D2E/DX2                !
 ! A34   A(8,7,56)             109.3744         estimate D2E/DX2                !
 ! A35   A(8,7,57)             108.9849         estimate D2E/DX2                !
 ! A36   A(56,7,57)            107.3534         estimate D2E/DX2                !
 ! A37   A(7,8,9)              114.0794         estimate D2E/DX2                !
 ! A38   A(7,8,58)             109.452          estimate D2E/DX2                !
 ! A39   A(7,8,59)             109.1435         estimate D2E/DX2                !
 ! A40   A(9,8,58)             109.3152         estimate D2E/DX2                !
 ! A41   A(9,8,59)             107.4115         estimate D2E/DX2                !
 ! A42   A(58,8,59)            107.2021         estimate D2E/DX2                !
 ! A43   A(8,9,10)             113.91           estimate D2E/DX2                !
 ! A44   A(8,9,60)             109.1723         estimate D2E/DX2                !
 ! A45   A(8,9,61)             108.5274         estimate D2E/DX2                !
 ! A46   A(10,9,60)            108.6756         estimate D2E/DX2                !
 ! A47   A(10,9,61)            108.699          estimate D2E/DX2                !
 ! A48   A(60,9,61)            107.6796         estimate D2E/DX2                !
 ! A49   A(9,10,11)            112.2019         estimate D2E/DX2                !
 ! A50   A(9,10,62)            109.8559         estimate D2E/DX2                !
 ! A51   A(9,10,63)            109.8082         estimate D2E/DX2                !
 ! A52   A(11,10,62)           108.0072         estimate D2E/DX2                !
 ! A53   A(11,10,63)           108.093          estimate D2E/DX2                !
 ! A54   A(62,10,63)           108.7902         estimate D2E/DX2                !
 ! A55   A(10,11,12)           109.2719         estimate D2E/DX2                !
 ! A56   A(10,11,64)           110.3256         estimate D2E/DX2                !
 ! A57   A(10,11,65)           109.2766         estimate D2E/DX2                !
 ! A58   A(12,11,64)           109.6459         estimate D2E/DX2                !
 ! A59   A(12,11,65)           110.5399         estimate D2E/DX2                !
 ! A60   A(64,11,65)           107.7674         estimate D2E/DX2                !
 ! A61   A(11,12,13)           114.8196         estimate D2E/DX2                !
 ! A62   A(12,13,14)           111.1802         estimate D2E/DX2                !
 ! A63   A(12,13,15)           107.7602         estimate D2E/DX2                !
 ! A64   A(12,13,66)           109.2702         estimate D2E/DX2                !
 ! A65   A(14,13,15)           110.1957         estimate D2E/DX2                !
 ! A66   A(14,13,66)           108.8729         estimate D2E/DX2                !
 ! A67   A(15,13,66)           109.5397         estimate D2E/DX2                !
 ! A68   A(13,14,67)           110.6474         estimate D2E/DX2                !
 ! A69   A(13,14,68)           109.7413         estimate D2E/DX2                !
 ! A70   A(13,14,69)           110.0983         estimate D2E/DX2                !
 ! A71   A(67,14,68)           108.5358         estimate D2E/DX2                !
 ! A72   A(67,14,69)           108.4002         estimate D2E/DX2                !
 ! A73   A(68,14,69)           109.3808         estimate D2E/DX2                !
 ! A74   A(13,15,16)           114.3675         estimate D2E/DX2                !
 ! A75   A(13,15,70)           107.7846         estimate D2E/DX2                !
 ! A76   A(13,15,71)           108.6387         estimate D2E/DX2                !
 ! A77   A(16,15,70)           108.9899         estimate D2E/DX2                !
 ! A78   A(16,15,71)           108.559          estimate D2E/DX2                !
 ! A79   A(70,15,71)           108.3527         estimate D2E/DX2                !
 ! A80   A(15,16,17)           107.8312         estimate D2E/DX2                !
 ! A81   A(15,16,19)           112.0391         estimate D2E/DX2                !
 ! A82   A(15,16,44)           109.6333         estimate D2E/DX2                !
 ! A83   A(17,16,19)           108.6192         estimate D2E/DX2                !
 ! A84   A(17,16,44)           108.1284         estimate D2E/DX2                !
 ! A85   A(19,16,44)           110.4695         estimate D2E/DX2                !
 ! A86   A(16,19,20)           112.4248         estimate D2E/DX2                !
 ! A87   A(16,19,72)           109.1143         estimate D2E/DX2                !
 ! A88   A(16,19,73)           108.7246         estimate D2E/DX2                !
 ! A89   A(20,19,72)           109.1947         estimate D2E/DX2                !
 ! A90   A(20,19,73)           109.8866         estimate D2E/DX2                !
 ! A91   A(72,19,73)           107.3631         estimate D2E/DX2                !
 ! A92   A(19,20,21)           110.801          estimate D2E/DX2                !
 ! A93   A(19,20,74)           109.9528         estimate D2E/DX2                !
 ! A94   A(19,20,75)           109.013          estimate D2E/DX2                !
 ! A95   A(21,20,74)           110.1221         estimate D2E/DX2                !
 ! A96   A(21,20,75)           109.6484         estimate D2E/DX2                !
 ! A97   A(74,20,75)           107.2265         estimate D2E/DX2                !
 ! A98   A(20,21,22)           112.1827         estimate D2E/DX2                !
 ! A99   A(20,21,76)           108.2697         estimate D2E/DX2                !
 ! A100  A(20,21,77)           110.0734         estimate D2E/DX2                !
 ! A101  A(22,21,76)           109.0704         estimate D2E/DX2                !
 ! A102  A(22,21,77)           109.637          estimate D2E/DX2                !
 ! A103  A(76,21,77)           107.4795         estimate D2E/DX2                !
 ! A104  A(21,22,23)           113.0512         estimate D2E/DX2                !
 ! A105  A(21,22,44)           110.9172         estimate D2E/DX2                !
 ! A106  A(21,22,78)           108.109          estimate D2E/DX2                !
 ! A107  A(23,22,44)           109.3234         estimate D2E/DX2                !
 ! A108  A(23,22,78)           107.6547         estimate D2E/DX2                !
 ! A109  A(44,22,78)           107.5798         estimate D2E/DX2                !
 ! A110  A(22,23,24)           120.2178         estimate D2E/DX2                !
 ! A111  A(22,23,43)           121.6549         estimate D2E/DX2                !
 ! A112  A(24,23,43)           118.1153         estimate D2E/DX2                !
 ! A113  A(23,24,25)           121.1215         estimate D2E/DX2                !
 ! A114  A(23,24,79)           119.3861         estimate D2E/DX2                !
 ! A115  A(25,24,79)           119.4924         estimate D2E/DX2                !
 ! A116  A(24,25,26)           120.7739         estimate D2E/DX2                !
 ! A117  A(24,25,80)           119.6496         estimate D2E/DX2                !
 ! A118  A(26,25,80)           119.5658         estimate D2E/DX2                !
 ! A119  A(25,26,27)           120.993          estimate D2E/DX2                !
 ! A120  A(25,26,42)           118.1006         estimate D2E/DX2                !
 ! A121  A(27,26,42)           120.9064         estimate D2E/DX2                !
 ! A122  A(26,27,28)           121.0301         estimate D2E/DX2                !
 ! A123  A(26,27,41)           121.0272         estimate D2E/DX2                !
 ! A124  A(28,27,41)           117.9427         estimate D2E/DX2                !
 ! A125  A(27,28,29)           120.9213         estimate D2E/DX2                !
 ! A126  A(27,28,81)           119.6239         estimate D2E/DX2                !
 ! A127  A(29,28,81)           119.4394         estimate D2E/DX2                !
 ! A128  A(28,29,30)           120.8479         estimate D2E/DX2                !
 ! A129  A(28,29,82)           121.0182         estimate D2E/DX2                !
 ! A130  A(30,29,82)           118.1335         estimate D2E/DX2                !
 ! A131  A(29,30,31)           115.1794         estimate D2E/DX2                !
 ! A132  A(29,30,40)           118.5858         estimate D2E/DX2                !
 ! A133  A(31,30,40)           126.2329         estimate D2E/DX2                !
 ! A134  A(30,31,32)           120.4341         estimate D2E/DX2                !
 ! A135  A(31,32,33)           107.7592         estimate D2E/DX2                !
 ! A136  A(31,32,36)           111.2077         estimate D2E/DX2                !
 ! A137  A(31,32,83)           108.987          estimate D2E/DX2                !
 ! A138  A(33,32,36)           112.859          estimate D2E/DX2                !
 ! A139  A(33,32,83)           107.7165         estimate D2E/DX2                !
 ! A140  A(36,32,83)           108.1991         estimate D2E/DX2                !
 ! A141  A(32,33,34)           115.2555         estimate D2E/DX2                !
 ! A142  A(32,33,84)           108.3172         estimate D2E/DX2                !
 ! A143  A(32,33,85)           108.4244         estimate D2E/DX2                !
 ! A144  A(34,33,84)           109.527          estimate D2E/DX2                !
 ! A145  A(34,33,85)           107.4182         estimate D2E/DX2                !
 ! A146  A(84,33,85)           107.6479         estimate D2E/DX2                !
 ! A147  A(33,34,35)           114.3733         estimate D2E/DX2                !
 ! A148  A(33,34,86)           108.8406         estimate D2E/DX2                !
 ! A149  A(33,34,87)           107.4439         estimate D2E/DX2                !
 ! A150  A(35,34,86)           109.0563         estimate D2E/DX2                !
 ! A151  A(35,34,87)           109.0672         estimate D2E/DX2                !
 ! A152  A(86,34,87)           107.8661         estimate D2E/DX2                !
 ! A153  A(34,35,88)           110.4903         estimate D2E/DX2                !
 ! A154  A(34,35,89)           109.9336         estimate D2E/DX2                !
 ! A155  A(34,35,90)           110.8607         estimate D2E/DX2                !
 ! A156  A(88,35,89)           108.1146         estimate D2E/DX2                !
 ! A157  A(88,35,90)           109.2062         estimate D2E/DX2                !
 ! A158  A(89,35,90)           108.1607         estimate D2E/DX2                !
 ! A159  A(32,36,37)           112.3998         estimate D2E/DX2                !
 ! A160  A(32,36,91)           109.6251         estimate D2E/DX2                !
 ! A161  A(32,36,92)           108.5487         estimate D2E/DX2                !
 ! A162  A(37,36,91)           109.5066         estimate D2E/DX2                !
 ! A163  A(37,36,92)           109.1544         estimate D2E/DX2                !
 ! A164  A(91,36,92)           107.4775         estimate D2E/DX2                !
 ! A165  A(36,37,38)           111.7568         estimate D2E/DX2                !
 ! A166  A(36,37,93)           109.6054         estimate D2E/DX2                !
 ! A167  A(36,37,94)           109.7284         estimate D2E/DX2                !
 ! A168  A(38,37,93)           109.0899         estimate D2E/DX2                !
 ! A169  A(38,37,94)           109.1955         estimate D2E/DX2                !
 ! A170  A(93,37,94)           107.3597         estimate D2E/DX2                !
 ! A171  A(37,38,39)           111.8049         estimate D2E/DX2                !
 ! A172  A(37,38,95)           109.2493         estimate D2E/DX2                !
 ! A173  A(37,38,96)           109.2502         estimate D2E/DX2                !
 ! A174  A(39,38,95)           109.4338         estimate D2E/DX2                !
 ! A175  A(39,38,96)           109.4077         estimate D2E/DX2                !
 ! A176  A(95,38,96)           107.5999         estimate D2E/DX2                !
 ! A177  A(38,39,97)           110.6132         estimate D2E/DX2                !
 ! A178  A(38,39,98)           110.5542         estimate D2E/DX2                !
 ! A179  A(38,39,99)           110.5439         estimate D2E/DX2                !
 ! A180  A(97,39,98)           108.371          estimate D2E/DX2                !
 ! A181  A(97,39,99)           108.3934         estimate D2E/DX2                !
 ! A182  A(98,39,99)           108.2855         estimate D2E/DX2                !
 ! A183  A(30,40,41)           120.0859         estimate D2E/DX2                !
 ! A184  A(30,40,100)          121.2306         estimate D2E/DX2                !
 ! A185  A(41,40,100)          118.6833         estimate D2E/DX2                !
 ! A186  A(27,41,40)           121.6131         estimate D2E/DX2                !
 ! A187  A(27,41,101)          119.4865         estimate D2E/DX2                !
 ! A188  A(40,41,101)          118.882          estimate D2E/DX2                !
 ! A189  A(26,42,43)           120.9075         estimate D2E/DX2                !
 ! A190  A(26,42,102)          119.4729         estimate D2E/DX2                !
 ! A191  A(43,42,102)          119.608          estimate D2E/DX2                !
 ! A192  A(23,43,42)           120.9805         estimate D2E/DX2                !
 ! A193  A(23,43,103)          120.0011         estimate D2E/DX2                !
 ! A194  A(42,43,103)          119.0158         estimate D2E/DX2                !
 ! A195  A(16,44,22)           111.3635         estimate D2E/DX2                !
 ! A196  A(16,44,104)          109.8236         estimate D2E/DX2                !
 ! A197  A(16,44,105)          108.8095         estimate D2E/DX2                !
 ! A198  A(22,44,104)          108.9301         estimate D2E/DX2                !
 ! A199  A(22,44,105)          110.3553         estimate D2E/DX2                !
 ! A200  A(104,44,105)         107.4788         estimate D2E/DX2                !
 ! A201  L(16,17,18,14,-1)     179.9468         estimate D2E/DX2                !
 ! A202  L(16,17,18,14,-2)     180.9417         estimate D2E/DX2                !
 ! D1    D(45,1,2,3)            -0.7979         estimate D2E/DX2                !
 ! D2    D(45,1,2,47)         -179.8611         estimate D2E/DX2                !
 ! D3    D(46,1,2,3)           179.569          estimate D2E/DX2                !
 ! D4    D(46,1,2,47)            0.5058         estimate D2E/DX2                !
 ! D5    D(1,2,3,4)           -118.3896         estimate D2E/DX2                !
 ! D6    D(1,2,3,48)             3.3683         estimate D2E/DX2                !
 ! D7    D(1,2,3,49)           121.7897         estimate D2E/DX2                !
 ! D8    D(47,2,3,4)            60.7145         estimate D2E/DX2                !
 ! D9    D(47,2,3,48)         -177.5276         estimate D2E/DX2                !
 ! D10   D(47,2,3,49)          -59.1062         estimate D2E/DX2                !
 ! D11   D(2,3,4,5)           -173.4892         estimate D2E/DX2                !
 ! D12   D(2,3,4,50)           -53.1759         estimate D2E/DX2                !
 ! D13   D(2,3,4,51)            63.5449         estimate D2E/DX2                !
 ! D14   D(48,3,4,5)            65.166          estimate D2E/DX2                !
 ! D15   D(48,3,4,50)         -174.5207         estimate D2E/DX2                !
 ! D16   D(48,3,4,51)          -57.8            estimate D2E/DX2                !
 ! D17   D(49,3,4,5)           -53.4256         estimate D2E/DX2                !
 ! D18   D(49,3,4,50)           66.8877         estimate D2E/DX2                !
 ! D19   D(49,3,4,51)         -176.3916         estimate D2E/DX2                !
 ! D20   D(3,4,5,6)            -61.2416         estimate D2E/DX2                !
 ! D21   D(3,4,5,52)            60.5566         estimate D2E/DX2                !
 ! D22   D(3,4,5,53)           176.9958         estimate D2E/DX2                !
 ! D23   D(50,4,5,6)           178.1583         estimate D2E/DX2                !
 ! D24   D(50,4,5,52)          -60.0435         estimate D2E/DX2                !
 ! D25   D(50,4,5,53)           56.3957         estimate D2E/DX2                !
 ! D26   D(51,4,5,6)            61.2551         estimate D2E/DX2                !
 ! D27   D(51,4,5,52)         -176.9467         estimate D2E/DX2                !
 ! D28   D(51,4,5,53)          -60.5075         estimate D2E/DX2                !
 ! D29   D(4,5,6,7)            -60.6993         estimate D2E/DX2                !
 ! D30   D(4,5,6,54)           178.052          estimate D2E/DX2                !
 ! D31   D(4,5,6,55)            61.6095         estimate D2E/DX2                !
 ! D32   D(52,5,6,7)           177.3709         estimate D2E/DX2                !
 ! D33   D(52,5,6,54)           56.1223         estimate D2E/DX2                !
 ! D34   D(52,5,6,55)          -60.3202         estimate D2E/DX2                !
 ! D35   D(53,5,6,7)            60.8765         estimate D2E/DX2                !
 ! D36   D(53,5,6,54)          -60.3722         estimate D2E/DX2                !
 ! D37   D(53,5,6,55)         -176.8147         estimate D2E/DX2                !
 ! D38   D(5,6,7,8)           -171.4325         estimate D2E/DX2                !
 ! D39   D(5,6,7,56)           -49.329          estimate D2E/DX2                !
 ! D40   D(5,6,7,57)            67.5406         estimate D2E/DX2                !
 ! D41   D(54,6,7,8)           -51.0036         estimate D2E/DX2                !
 ! D42   D(54,6,7,56)           71.1            estimate D2E/DX2                !
 ! D43   D(54,6,7,57)         -172.0304         estimate D2E/DX2                !
 ! D44   D(55,6,7,8)            65.9735         estimate D2E/DX2                !
 ! D45   D(55,6,7,56)         -171.923          estimate D2E/DX2                !
 ! D46   D(55,6,7,57)          -55.0534         estimate D2E/DX2                !
 ! D47   D(6,7,8,9)             99.6854         estimate D2E/DX2                !
 ! D48   D(6,7,8,58)           -23.1381         estimate D2E/DX2                !
 ! D49   D(6,7,8,59)          -140.1776         estimate D2E/DX2                !
 ! D50   D(56,7,8,9)           -22.4313         estimate D2E/DX2                !
 ! D51   D(56,7,8,58)         -145.2549         estimate D2E/DX2                !
 ! D52   D(56,7,8,59)           97.7056         estimate D2E/DX2                !
 ! D53   D(57,7,8,9)          -139.518          estimate D2E/DX2                !
 ! D54   D(57,7,8,58)           97.6585         estimate D2E/DX2                !
 ! D55   D(57,7,8,59)          -19.381          estimate D2E/DX2                !
 ! D56   D(7,8,9,10)           -64.7379         estimate D2E/DX2                !
 ! D57   D(7,8,9,60)            56.9294         estimate D2E/DX2                !
 ! D58   D(7,8,9,61)           174.0345         estimate D2E/DX2                !
 ! D59   D(58,8,9,10)           58.1601         estimate D2E/DX2                !
 ! D60   D(58,8,9,60)          179.8274         estimate D2E/DX2                !
 ! D61   D(58,8,9,61)          -63.0675         estimate D2E/DX2                !
 ! D62   D(59,8,9,10)          174.1585         estimate D2E/DX2                !
 ! D63   D(59,8,9,60)          -64.1742         estimate D2E/DX2                !
 ! D64   D(59,8,9,61)           52.9309         estimate D2E/DX2                !
 ! D65   D(8,9,10,11)         -173.6652         estimate D2E/DX2                !
 ! D66   D(8,9,10,62)           66.177          estimate D2E/DX2                !
 ! D67   D(8,9,10,63)          -53.4316         estimate D2E/DX2                !
 ! D68   D(60,9,10,11)          64.3929         estimate D2E/DX2                !
 ! D69   D(60,9,10,62)         -55.765          estimate D2E/DX2                !
 ! D70   D(60,9,10,63)        -175.3735         estimate D2E/DX2                !
 ! D71   D(61,9,10,11)         -52.5332         estimate D2E/DX2                !
 ! D72   D(61,9,10,62)        -172.691          estimate D2E/DX2                !
 ! D73   D(61,9,10,63)          67.7004         estimate D2E/DX2                !
 ! D74   D(9,10,11,12)         -64.6985         estimate D2E/DX2                !
 ! D75   D(9,10,11,64)          55.9207         estimate D2E/DX2                !
 ! D76   D(9,10,11,65)         174.234          estimate D2E/DX2                !
 ! D77   D(62,10,11,12)         56.5277         estimate D2E/DX2                !
 ! D78   D(62,10,11,64)        177.1468         estimate D2E/DX2                !
 ! D79   D(62,10,11,65)        -64.5398         estimate D2E/DX2                !
 ! D80   D(63,10,11,12)        174.0771         estimate D2E/DX2                !
 ! D81   D(63,10,11,64)        -65.3037         estimate D2E/DX2                !
 ! D82   D(63,10,11,65)         53.0096         estimate D2E/DX2                !
 ! D83   D(10,11,12,13)       -177.6911         estimate D2E/DX2                !
 ! D84   D(64,11,12,13)         61.2755         estimate D2E/DX2                !
 ! D85   D(65,11,12,13)        -57.3947         estimate D2E/DX2                !
 ! D86   D(11,12,13,14)         83.9106         estimate D2E/DX2                !
 ! D87   D(11,12,13,15)       -155.2339         estimate D2E/DX2                !
 ! D88   D(11,12,13,66)        -36.2854         estimate D2E/DX2                !
 ! D89   D(12,13,14,67)        -56.9749         estimate D2E/DX2                !
 ! D90   D(12,13,14,68)         62.7713         estimate D2E/DX2                !
 ! D91   D(12,13,14,69)       -176.7816         estimate D2E/DX2                !
 ! D92   D(15,13,14,67)       -176.3873         estimate D2E/DX2                !
 ! D93   D(15,13,14,68)        -56.6412         estimate D2E/DX2                !
 ! D94   D(15,13,14,69)         63.8059         estimate D2E/DX2                !
 ! D95   D(66,13,14,67)         63.4561         estimate D2E/DX2                !
 ! D96   D(66,13,14,68)       -176.7978         estimate D2E/DX2                !
 ! D97   D(66,13,14,69)        -56.3507         estimate D2E/DX2                !
 ! D98   D(12,13,15,16)         84.5203         estimate D2E/DX2                !
 ! D99   D(12,13,15,70)        -36.8415         estimate D2E/DX2                !
 ! D100  D(12,13,15,71)       -154.0456         estimate D2E/DX2                !
 ! D101  D(14,13,15,16)       -154.0095         estimate D2E/DX2                !
 ! D102  D(14,13,15,70)         84.6287         estimate D2E/DX2                !
 ! D103  D(14,13,15,71)        -32.5754         estimate D2E/DX2                !
 ! D104  D(66,13,15,16)        -34.256          estimate D2E/DX2                !
 ! D105  D(66,13,15,70)       -155.6177         estimate D2E/DX2                !
 ! D106  D(66,13,15,71)         87.1781         estimate D2E/DX2                !
 ! D107  D(13,15,16,17)         59.9882         estimate D2E/DX2                !
 ! D108  D(13,15,16,19)        -59.4868         estimate D2E/DX2                !
 ! D109  D(13,15,16,44)        177.4899         estimate D2E/DX2                !
 ! D110  D(70,15,16,17)       -179.3161         estimate D2E/DX2                !
 ! D111  D(70,15,16,19)         61.2089         estimate D2E/DX2                !
 ! D112  D(70,15,16,44)        -61.8144         estimate D2E/DX2                !
 ! D113  D(71,15,16,17)        -61.4898         estimate D2E/DX2                !
 ! D114  D(71,15,16,19)        179.0352         estimate D2E/DX2                !
 ! D115  D(71,15,16,44)         56.0119         estimate D2E/DX2                !
 ! D116  D(15,16,19,20)       -138.6094         estimate D2E/DX2                !
 ! D117  D(15,16,19,72)        100.0956         estimate D2E/DX2                !
 ! D118  D(15,16,19,73)        -16.7097         estimate D2E/DX2                !
 ! D119  D(17,16,19,20)        102.3791         estimate D2E/DX2                !
 ! D120  D(17,16,19,72)        -18.916          estimate D2E/DX2                !
 ! D121  D(17,16,19,73)       -135.7213         estimate D2E/DX2                !
 ! D122  D(44,16,19,20)        -16.0599         estimate D2E/DX2                !
 ! D123  D(44,16,19,72)       -137.3549         estimate D2E/DX2                !
 ! D124  D(44,16,19,73)        105.8398         estimate D2E/DX2                !
 ! D125  D(15,16,44,22)       -173.8551         estimate D2E/DX2                !
 ! D126  D(15,16,44,104)       -53.1046         estimate D2E/DX2                !
 ! D127  D(15,16,44,105)        64.2872         estimate D2E/DX2                !
 ! D128  D(17,16,44,22)        -56.5395         estimate D2E/DX2                !
 ! D129  D(17,16,44,104)        64.2111         estimate D2E/DX2                !
 ! D130  D(17,16,44,105)      -178.3972         estimate D2E/DX2                !
 ! D131  D(19,16,44,22)         62.1986         estimate D2E/DX2                !
 ! D132  D(19,16,44,104)      -177.0508         estimate D2E/DX2                !
 ! D133  D(19,16,44,105)       -59.6591         estimate D2E/DX2                !
 ! D134  D(16,19,20,21)        -43.5369         estimate D2E/DX2                !
 ! D135  D(16,19,20,74)         78.4295         estimate D2E/DX2                !
 ! D136  D(16,19,20,75)       -164.2906         estimate D2E/DX2                !
 ! D137  D(72,19,20,21)         77.7122         estimate D2E/DX2                !
 ! D138  D(72,19,20,74)       -160.3214         estimate D2E/DX2                !
 ! D139  D(72,19,20,75)        -43.0415         estimate D2E/DX2                !
 ! D140  D(73,19,20,21)       -164.774          estimate D2E/DX2                !
 ! D141  D(73,19,20,74)        -42.8076         estimate D2E/DX2                !
 ! D142  D(73,19,20,75)         74.4723         estimate D2E/DX2                !
 ! D143  D(19,20,21,22)         61.8498         estimate D2E/DX2                !
 ! D144  D(19,20,21,76)        -58.5602         estimate D2E/DX2                !
 ! D145  D(19,20,21,77)       -175.7798         estimate D2E/DX2                !
 ! D146  D(74,20,21,22)        -60.0174         estimate D2E/DX2                !
 ! D147  D(74,20,21,76)        179.5726         estimate D2E/DX2                !
 ! D148  D(74,20,21,77)         62.3529         estimate D2E/DX2                !
 ! D149  D(75,20,21,22)       -177.7739         estimate D2E/DX2                !
 ! D150  D(75,20,21,76)         61.8161         estimate D2E/DX2                !
 ! D151  D(75,20,21,77)        -55.4035         estimate D2E/DX2                !
 ! D152  D(20,21,22,23)        107.1617         estimate D2E/DX2                !
 ! D153  D(20,21,22,44)        -16.0426         estimate D2E/DX2                !
 ! D154  D(20,21,22,78)       -133.7648         estimate D2E/DX2                !
 ! D155  D(76,21,22,23)       -132.8936         estimate D2E/DX2                !
 ! D156  D(76,21,22,44)        103.9021         estimate D2E/DX2                !
 ! D157  D(76,21,22,78)        -13.8201         estimate D2E/DX2                !
 ! D158  D(77,21,22,23)        -15.4561         estimate D2E/DX2                !
 ! D159  D(77,21,22,44)       -138.6604         estimate D2E/DX2                !
 ! D160  D(77,21,22,78)        103.6174         estimate D2E/DX2                !
 ! D161  D(21,22,23,24)        131.4537         estimate D2E/DX2                !
 ! D162  D(21,22,23,43)        -49.8313         estimate D2E/DX2                !
 ! D163  D(44,22,23,24)       -104.4646         estimate D2E/DX2                !
 ! D164  D(44,22,23,43)         74.2505         estimate D2E/DX2                !
 ! D165  D(78,22,23,24)         12.118          estimate D2E/DX2                !
 ! D166  D(78,22,23,43)       -169.167          estimate D2E/DX2                !
 ! D167  D(21,22,44,16)        -44.3962         estimate D2E/DX2                !
 ! D168  D(21,22,44,104)      -165.6695         estimate D2E/DX2                !
 ! D169  D(21,22,44,105)        76.5608         estimate D2E/DX2                !
 ! D170  D(23,22,44,16)       -169.722          estimate D2E/DX2                !
 ! D171  D(23,22,44,104)        69.0047         estimate D2E/DX2                !
 ! D172  D(23,22,44,105)       -48.765          estimate D2E/DX2                !
 ! D173  D(78,22,44,16)         73.648          estimate D2E/DX2                !
 ! D174  D(78,22,44,104)       -47.6253         estimate D2E/DX2                !
 ! D175  D(78,22,44,105)      -165.395          estimate D2E/DX2                !
 ! D176  D(22,23,24,25)        179.0705         estimate D2E/DX2                !
 ! D177  D(22,23,24,79)         -0.932          estimate D2E/DX2                !
 ! D178  D(43,23,24,25)          0.3107         estimate D2E/DX2                !
 ! D179  D(43,23,24,79)       -179.6919         estimate D2E/DX2                !
 ! D180  D(22,23,43,42)       -178.9322         estimate D2E/DX2                !
 ! D181  D(22,23,43,103)         1.6516         estimate D2E/DX2                !
 ! D182  D(24,23,43,42)         -0.1911         estimate D2E/DX2                !
 ! D183  D(24,23,43,103)      -179.6073         estimate D2E/DX2                !
 ! D184  D(23,24,25,26)         -0.2437         estimate D2E/DX2                !
 ! D185  D(23,24,25,80)       -179.0493         estimate D2E/DX2                !
 ! D186  D(79,24,25,26)        179.7588         estimate D2E/DX2                !
 ! D187  D(79,24,25,80)          0.9532         estimate D2E/DX2                !
 ! D188  D(24,25,26,27)       -179.9725         estimate D2E/DX2                !
 ! D189  D(24,25,26,42)          0.0485         estimate D2E/DX2                !
 ! D190  D(80,25,26,27)         -1.1659         estimate D2E/DX2                !
 ! D191  D(80,25,26,42)        178.8551         estimate D2E/DX2                !
 ! D192  D(25,26,27,28)        140.06           estimate D2E/DX2                !
 ! D193  D(25,26,27,41)        -40.0103         estimate D2E/DX2                !
 ! D194  D(42,26,27,28)        -39.9615         estimate D2E/DX2                !
 ! D195  D(42,26,27,41)        139.9682         estimate D2E/DX2                !
 ! D196  D(25,26,42,43)          0.0702         estimate D2E/DX2                !
 ! D197  D(25,26,42,102)       178.8237         estimate D2E/DX2                !
 ! D198  D(27,26,42,43)       -179.9089         estimate D2E/DX2                !
 ! D199  D(27,26,42,102)        -1.1554         estimate D2E/DX2                !
 ! D200  D(26,27,28,29)       -179.8279         estimate D2E/DX2                !
 ! D201  D(26,27,28,81)         -1.2632         estimate D2E/DX2                !
 ! D202  D(41,27,28,29)          0.2403         estimate D2E/DX2                !
 ! D203  D(41,27,28,81)        178.805          estimate D2E/DX2                !
 ! D204  D(26,27,41,40)       -179.6632         estimate D2E/DX2                !
 ! D205  D(26,27,41,101)        -1.2405         estimate D2E/DX2                !
 ! D206  D(28,27,41,40)          0.2686         estimate D2E/DX2                !
 ! D207  D(28,27,41,101)       178.6914         estimate D2E/DX2                !
 ! D208  D(27,28,29,30)         -0.396          estimate D2E/DX2                !
 ! D209  D(27,28,29,82)        179.363          estimate D2E/DX2                !
 ! D210  D(81,28,29,30)       -178.9633         estimate D2E/DX2                !
 ! D211  D(81,28,29,82)          0.7957         estimate D2E/DX2                !
 ! D212  D(28,29,30,31)        179.5708         estimate D2E/DX2                !
 ! D213  D(28,29,30,40)          0.0423         estimate D2E/DX2                !
 ! D214  D(82,29,30,31)         -0.1951         estimate D2E/DX2                !
 ! D215  D(82,29,30,40)       -179.7235         estimate D2E/DX2                !
 ! D216  D(29,30,31,32)        179.0387         estimate D2E/DX2                !
 ! D217  D(40,30,31,32)         -1.4746         estimate D2E/DX2                !
 ! D218  D(29,30,40,41)          0.4582         estimate D2E/DX2                !
 ! D219  D(29,30,40,100)      -179.4212         estimate D2E/DX2                !
 ! D220  D(31,30,40,41)       -179.0127         estimate D2E/DX2                !
 ! D221  D(31,30,40,100)         1.1078         estimate D2E/DX2                !
 ! D222  D(30,31,32,33)        159.7788         estimate D2E/DX2                !
 ! D223  D(30,31,32,36)        -76.04           estimate D2E/DX2                !
 ! D224  D(30,31,32,83)         43.1557         estimate D2E/DX2                !
 ! D225  D(31,32,33,34)         28.9099         estimate D2E/DX2                !
 ! D226  D(31,32,33,84)        151.9671         estimate D2E/DX2                !
 ! D227  D(31,32,33,85)        -91.4889         estimate D2E/DX2                !
 ! D228  D(36,32,33,34)        -94.2684         estimate D2E/DX2                !
 ! D229  D(36,32,33,84)         28.7887         estimate D2E/DX2                !
 ! D230  D(36,32,33,85)        145.3328         estimate D2E/DX2                !
 ! D231  D(83,32,33,34)        146.3589         estimate D2E/DX2                !
 ! D232  D(83,32,33,84)        -90.5839         estimate D2E/DX2                !
 ! D233  D(83,32,33,85)         25.9601         estimate D2E/DX2                !
 ! D234  D(31,32,36,37)        157.2242         estimate D2E/DX2                !
 ! D235  D(31,32,36,91)        -80.7427         estimate D2E/DX2                !
 ! D236  D(31,32,36,92)         36.3846         estimate D2E/DX2                !
 ! D237  D(33,32,36,37)        -81.5345         estimate D2E/DX2                !
 ! D238  D(33,32,36,91)         40.4986         estimate D2E/DX2                !
 ! D239  D(33,32,36,92)        157.6259         estimate D2E/DX2                !
 ! D240  D(83,32,36,37)         37.5587         estimate D2E/DX2                !
 ! D241  D(83,32,36,91)        159.5918         estimate D2E/DX2                !
 ! D242  D(83,32,36,92)        -83.2809         estimate D2E/DX2                !
 ! D243  D(32,33,34,35)         63.8739         estimate D2E/DX2                !
 ! D244  D(32,33,34,86)        -58.3567         estimate D2E/DX2                !
 ! D245  D(32,33,34,87)       -174.9085         estimate D2E/DX2                !
 ! D246  D(84,33,34,35)        -58.5381         estimate D2E/DX2                !
 ! D247  D(84,33,34,86)        179.2313         estimate D2E/DX2                !
 ! D248  D(84,33,34,87)         62.6795         estimate D2E/DX2                !
 ! D249  D(85,33,34,35)       -175.1786         estimate D2E/DX2                !
 ! D250  D(85,33,34,86)         62.5908         estimate D2E/DX2                !
 ! D251  D(85,33,34,87)        -53.961          estimate D2E/DX2                !
 ! D252  D(33,34,35,88)        -66.695          estimate D2E/DX2                !
 ! D253  D(33,34,35,89)        174.0568         estimate D2E/DX2                !
 ! D254  D(33,34,35,90)         54.5185         estimate D2E/DX2                !
 ! D255  D(86,34,35,88)         55.4178         estimate D2E/DX2                !
 ! D256  D(86,34,35,89)        -63.8304         estimate D2E/DX2                !
 ! D257  D(86,34,35,90)        176.6314         estimate D2E/DX2                !
 ! D258  D(87,34,35,88)        172.9868         estimate D2E/DX2                !
 ! D259  D(87,34,35,89)         53.7386         estimate D2E/DX2                !
 ! D260  D(87,34,35,90)        -65.7997         estimate D2E/DX2                !
 ! D261  D(32,36,37,38)        178.9855         estimate D2E/DX2                !
 ! D262  D(32,36,37,93)        -59.9529         estimate D2E/DX2                !
 ! D263  D(32,36,37,94)         57.7065         estimate D2E/DX2                !
 ! D264  D(91,36,37,38)         56.8851         estimate D2E/DX2                !
 ! D265  D(91,36,37,93)        177.9468         estimate D2E/DX2                !
 ! D266  D(91,36,37,94)        -64.3938         estimate D2E/DX2                !
 ! D267  D(92,36,37,38)        -60.5237         estimate D2E/DX2                !
 ! D268  D(92,36,37,93)         60.5379         estimate D2E/DX2                !
 ! D269  D(92,36,37,94)        178.1973         estimate D2E/DX2                !
 ! D270  D(36,37,38,39)        179.7187         estimate D2E/DX2                !
 ! D271  D(36,37,38,95)         58.4345         estimate D2E/DX2                !
 ! D272  D(36,37,38,96)        -59.0294         estimate D2E/DX2                !
 ! D273  D(93,37,38,39)         58.3582         estimate D2E/DX2                !
 ! D274  D(93,37,38,95)        -62.9259         estimate D2E/DX2                !
 ! D275  D(93,37,38,96)        179.6101         estimate D2E/DX2                !
 ! D276  D(94,37,38,39)        -58.6943         estimate D2E/DX2                !
 ! D277  D(94,37,38,95)       -179.9785         estimate D2E/DX2                !
 ! D278  D(94,37,38,96)         62.5576         estimate D2E/DX2                !
 ! D279  D(37,38,39,97)        179.9301         estimate D2E/DX2                !
 ! D280  D(37,38,39,98)        -60.0264         estimate D2E/DX2                !
 ! D281  D(37,38,39,99)         59.8653         estimate D2E/DX2                !
 ! D282  D(95,38,39,97)        -58.8925         estimate D2E/DX2                !
 ! D283  D(95,38,39,98)         61.151          estimate D2E/DX2                !
 ! D284  D(95,38,39,99)       -178.9573         estimate D2E/DX2                !
 ! D285  D(96,38,39,97)         58.7694         estimate D2E/DX2                !
 ! D286  D(96,38,39,98)        178.8129         estimate D2E/DX2                !
 ! D287  D(96,38,39,99)        -61.2954         estimate D2E/DX2                !
 ! D288  D(30,40,41,27)         -0.6228         estimate D2E/DX2                !
 ! D289  D(30,40,41,101)      -179.0547         estimate D2E/DX2                !
 ! D290  D(100,40,41,27)       179.2597         estimate D2E/DX2                !
 ! D291  D(100,40,41,101)        0.8277         estimate D2E/DX2                !
 ! D292  D(26,42,43,23)          0.0031         estimate D2E/DX2                !
 ! D293  D(26,42,43,103)       179.425          estimate D2E/DX2                !
 ! D294  D(102,42,43,23)      -178.7487         estimate D2E/DX2                !
 ! D295  D(102,42,43,103)        0.6732         estimate D2E/DX2                !
 --------------------------------------------------------------------------------
 Trust Radius=3.00D-01 FncErr=1.00D-07 GrdErr=1.00D-06 EigMax=2.50D+02 EigMin=1.00D-04
 Number of steps in this run=    614 maximum allowed number of steps=    630.
 GradGradGradGradGradGradGradGradGradGradGradGradGradGradGradGradGradGrad

 Leave Link  103 at Fri Nov  4 20:26:26 2022, MaxMem=   805306368 cpu:               0.4 elap:               0.1
 (Enter /home/wykgroup/appl/g16/l202.exe)
 Stoichiometry    C41H61NO2
 Framework group  C1[X(C41H61NO2)]
 Deg. of freedom   309
 Full point group                 C1      NOp   1
 Largest Abelian subgroup         C1      NOp   1
 Largest concise Abelian subgroup C1      NOp   1
                         Standard orientation:                         
 ---------------------------------------------------------------------
 Center     Atomic      Atomic             Coordinates (Angstroms)
 Number     Number       Type             X           Y           Z
 ---------------------------------------------------------------------
      1          6           0      -10.027014    6.874984    1.363454
      2          6           0      -10.456776    6.205924    0.310533
      3          6           0      -10.580803    4.717773    0.242748
      4          6           0       -9.676736    4.142454   -0.851888
      5          6           0       -9.876738    2.643079   -1.076340
      6          6           0       -9.573772    1.759549    0.135365
      7          6           0       -8.126680    1.868072    0.615354
      8          6           0       -7.772377    0.831504    1.691508
      9          6           0       -7.018552   -0.387867    1.159126
     10          6           0       -7.829940   -1.241416    0.188571
     11          6           0       -7.101718   -2.525361   -0.197603
     12          8           0       -5.930748   -2.199354   -0.911731
     13          6           0       -5.186133   -3.313980   -1.374805
     14          6           0       -5.738589   -3.834439   -2.705410
     15          6           0       -3.727258   -2.864521   -1.545809
     16          6           0       -2.887738   -2.924561   -0.254415
     17          6           0       -2.879491   -4.297710    0.205720
     18          7           0       -2.885693   -5.378616    0.580978
     19          6           0       -3.477741   -2.032446    0.863629
     20          6           0       -2.398978   -1.269985    1.631032
     21          6           0       -1.213801   -2.176884    1.944064
     22          6           0       -0.530146   -2.704990    0.664738
     23          6           0        0.807270   -2.060454    0.400957
     24          6           0        1.914793   -2.844555    0.103851
     25          6           0        3.144309   -2.272874   -0.159593
     26          6           0        3.306074   -0.889891   -0.139286
     27          6           0        4.610821   -0.277005   -0.419210
     28          6           0        4.709868    0.886614   -1.182324
     29          6           0        5.933988    1.457098   -1.446212
     30          6           0        7.110946    0.890087   -0.949475
     31          8           0        8.252632    1.541271   -1.286852
     32          6           0        9.509589    1.073610   -0.825487
     33          6           0       10.597714    1.661837   -1.747291
     34          6           0       10.255647    3.012002   -2.382540
     35          6           0       10.082272    4.149859   -1.385296
     36          6           0        9.725757    1.428177    0.656465
     37          6           0       10.743545    0.512300    1.331212
     38          6           0       10.965116    0.892442    2.793359
     39          6           0       11.975803   -0.025424    3.469880
     40          6           0        7.020125   -0.266832   -0.181152
     41          6           0        5.785500   -0.837651    0.069304
     42          6           0        2.194540   -0.103545    0.154721
     43          6           0        0.968117   -0.679890    0.419767
     44          6           0       -1.437497   -2.513892   -0.561204
     45          1           0       -9.740838    6.374212    2.274359
     46          1           0       -9.946705    7.948850    1.367252
     47          1           0      -10.735580    6.734401   -0.592666
     48          1           0      -10.320133    4.287282    1.210033
     49          1           0      -11.618495    4.453790    0.016749
     50          1           0       -9.890938    4.659638   -1.790972
     51          1           0       -8.634936    4.346419   -0.599703
     52          1           0      -10.912532    2.469624   -1.380396
     53          1           0       -9.235165    2.331612   -1.904956
     54          1           0       -9.786906    0.725683   -0.141142
     55          1           0      -10.244816    2.018163    0.956684
     56          1           0       -7.452642    1.751543   -0.235654
     57          1           0       -7.968996    2.868694    1.020759
     58          1           0       -8.684823    0.501515    2.193105
     59          1           0       -7.140084    1.302122    2.447817
     60          1           0       -6.109498   -0.055520    0.656083
     61          1           0       -6.720218   -1.009494    2.007496
     62          1           0       -8.027162   -0.678561   -0.723590
     63          1           0       -8.783015   -1.516327    0.645257
     64          1           0       -6.837483   -3.101794    0.704215
     65          1           0       -7.767200   -3.149550   -0.811909
     66          1           0       -5.237695   -4.121992   -0.626876
     67          1           0       -6.789485   -4.095232   -2.608390
     68          1           0       -5.642146   -3.066124   -3.468815
     69          1           0       -5.192442   -4.720994   -3.015170
     70          1           0       -3.735953   -1.837891   -1.916379
     71          1           0       -3.252920   -3.497744   -2.298477
     72          1           0       -4.040622   -2.658035    1.561061
     73          1           0       -4.180536   -1.330561    0.416599
     74          1           0       -2.068509   -0.407452    1.050606
     75          1           0       -2.825860   -0.889465    2.561223
     76          1           0       -1.576395   -3.024036    2.530655
     77          1           0       -0.484583   -1.642648    2.555831
     78          1           0       -0.362194   -3.780343    0.787599
     79          1           0        1.811700   -3.920554    0.078657
     80          1           0        3.986178   -2.904488   -0.403092
     81          1           0        3.816245    1.334317   -1.591622
     82          1           0        6.013239    2.351382   -2.044777
     83          1           0        9.542601   -0.022220   -0.925178
     84          1           0       11.521094    1.752358   -1.173340
     85          1           0       10.780782    0.955238   -2.559786
     86          1           0        9.339710    2.905570   -2.963833
     87          1           0       11.064287    3.263150   -3.073837
     88          1           0        9.206443    3.981874   -0.765268
     89          1           0        9.946137    5.090270   -1.915458
     90          1           0       10.959726    4.243679   -0.747783
[...]
 Alpha virt. eigenvalues --    0.11698   0.11964   0.12180   0.12375   0.12781
 Alpha virt. eigenvalues --    0.13018   0.13229   0.13381   0.13967   0.14272
 Alpha virt. eigenvalues --    0.14306   0.14616   0.14687   0.14899   0.15261
 Alpha virt. eigenvalues --    0.15392   0.15561   0.15747   0.15816   0.16115
 Alpha virt. eigenvalues --    0.16349   0.16458   0.16680   0.16874   0.17015
 Alpha virt. eigenvalues --    0.17260   0.17353   0.17594   0.17837   0.17936
 Alpha virt. eigenvalues --    0.17988   0.18147   0.18428   0.18471   0.18744
 Alpha virt. eigenvalues --    0.18824   0.19037   0.19300   0.19415   0.19497
 Alpha virt. eigenvalues --    0.19757   0.19968   0.20299   0.20551   0.20765
 Alpha virt. eigenvalues --    0.20872   0.21303   0.21549   0.21819   0.22021
 Alpha virt. eigenvalues --    0.22420   0.22833   0.23298   0.23574   0.23690
 Alpha virt. eigenvalues --    0.23923   0.24184   0.24370   0.24730   0.24843
 Alpha virt. eigenvalues --    0.24933   0.25217   0.25334   0.25623   0.26238
 Alpha virt. eigenvalues --    0.26430   0.26687   0.26760   0.26939   0.27175
 Alpha virt. eigenvalues --    0.27796   0.27965   0.28610   0.28896   0.29314
 Alpha virt. eigenvalues --    0.29848   0.30317   0.30655   0.31139   0.31578
 Alpha virt. eigenvalues --    0.32012   0.32274   0.33274   0.33545   0.34061
 Alpha virt. eigenvalues --    0.34817   0.36182   0.37658   0.37891   0.38506
 Alpha virt. eigenvalues --    0.39906   0.40532   0.47389   0.48844   0.49038
 Alpha virt. eigenvalues --    0.49284   0.49515   0.49915   0.50150   0.50796
 Alpha virt. eigenvalues --    0.51139   0.51468   0.51878   0.52145   0.52232
 Alpha virt. eigenvalues --    0.52494   0.52677   0.53172   0.53261   0.53640
 Alpha virt. eigenvalues --    0.53872   0.54256   0.54388   0.54568   0.54855
 Alpha virt. eigenvalues --    0.55098   0.55298   0.55597   0.55799   0.56213
 Alpha virt. eigenvalues --    0.56531   0.56725   0.57302   0.57514   0.58187
 Alpha virt. eigenvalues --    0.58296   0.58553   0.58857   0.58947   0.59355
 Alpha virt. eigenvalues --    0.59599   0.60055   0.60178   0.60352   0.60787
 Alpha virt. eigenvalues --    0.60898   0.61027   0.61172   0.61473   0.61634
 Alpha virt. eigenvalues --    0.61817   0.62751   0.63097   0.63213   0.63485
 Alpha virt. eigenvalues --    0.63948   0.64556   0.65004   0.65100   0.65668
 Alpha virt. eigenvalues --    0.65707   0.65954   0.66412   0.66620   0.66882
 Alpha virt. eigenvalues --    0.67184   0.67419   0.67776   0.68217   0.68310
 Alpha virt. eigenvalues --    0.69020   0.69299   0.69464   0.69640   0.69895
 Alpha virt. eigenvalues --    0.70049   0.70128   0.70417   0.70619   0.71048
 Alpha virt. eigenvalues --    0.71546   0.71794   0.72714   0.73301   0.74033
 Alpha virt. eigenvalues --    0.74408   0.74598   0.75530   0.75781   0.76376
 Alpha virt. eigenvalues --    0.76646   0.77106   0.78245   0.78754   0.79124
 Alpha virt. eigenvalues --    0.79707   0.80229   0.80829   0.81006   0.81346
 Alpha virt. eigenvalues --    0.81678   0.82092   0.82727   0.83428   0.83832
 Alpha virt. eigenvalues --    0.84037   0.84381   0.84584   0.84641   0.85040
 Alpha virt. eigenvalues --    0.85313   0.85562   0.85614   0.85846   0.86123
 Alpha virt. eigenvalues --    0.86443   0.86898   0.87067   0.87412   0.87440
 Alpha virt. eigenvalues --    0.87655   0.88079   0.88385   0.88628   0.88736
 Alpha virt. eigenvalues --    0.88957   0.89395   0.89773   0.89937   0.90205
 Alpha virt. eigenvalues --    0.90393   0.90578   0.90720   0.90785   0.91374
 Alpha virt. eigenvalues --    0.91796   0.91936   0.92474   0.92608   0.93022
 Alpha virt. eigenvalues --    0.93263   0.93492   0.93627   0.93787   0.94221
 Alpha virt. eigenvalues --    0.94242   0.94444   0.94947   0.95054   0.95231
 Alpha virt. eigenvalues --    0.95588   0.95769   0.95782   0.96249   0.96334
 Alpha virt. eigenvalues --    0.96543   0.96680   0.97100   0.97569   0.97607
 Alpha virt. eigenvalues --    0.97812   0.98161   0.98542   0.98909   0.99648
 Alpha virt. eigenvalues --    0.99776   1.00123   1.00668   1.01054   1.01122
 Alpha virt. eigenvalues --    1.01356   1.01654   1.01898   1.02491   1.02718
 Alpha virt. eigenvalues --    1.03328   1.03782   1.04734   1.05002   1.06118
 Alpha virt. eigenvalues --    1.06640   1.07089   1.07472   1.07829   1.08467
 Alpha virt. eigenvalues --    1.08963   1.09987   1.10530   1.11744   1.12405
 Alpha virt. eigenvalues --    1.12498   1.13597   1.13739   1.15191   1.15657
 Alpha virt. eigenvalues --    1.15867   1.16880   1.17745   1.18256   1.19463
 Alpha virt. eigenvalues --    1.19636   1.20345   1.20787   1.21994   1.23022
 Alpha virt. eigenvalues --    1.24771   1.25830   1.26105   1.27435   1.27975
 Alpha virt. eigenvalues --    1.29212   1.30748   1.31469   1.32185   1.33482
 Alpha virt. eigenvalues --    1.33651   1.34471   1.36284   1.37304   1.38118
 Alpha virt. eigenvalues --    1.39134   1.40012   1.41156   1.41968   1.42846
 Alpha virt. eigenvalues --    1.43580   1.44504   1.44956   1.45523   1.46527
 Alpha virt. eigenvalues --    1.46987   1.47371   1.47536   1.48307   1.48767
 Alpha virt. eigenvalues --    1.49027   1.50325   1.51221   1.51547   1.51672
 Alpha virt. eigenvalues --    1.51709   1.52185   1.52630   1.53624   1.54980
 Alpha virt. eigenvalues --    1.55877   1.56100   1.56371   1.56898   1.57933
 Alpha virt. eigenvalues --    1.58898   1.59159   1.59619   1.61446   1.61638
 Alpha virt. eigenvalues --    1.61790   1.63059   1.64555   1.65897   1.66925
 Alpha virt. eigenvalues --    1.67701   1.68013   1.68534   1.69121   1.70075
 Alpha virt. eigenvalues --    1.70528   1.71378   1.72510   1.72817   1.73923
 Alpha virt. eigenvalues --    1.75019   1.75752   1.76581   1.76911   1.77196
 Alpha virt. eigenvalues --    1.77885   1.78483   1.79227   1.79879   1.80635
 Alpha virt. eigenvalues --    1.81282   1.81425   1.82648   1.82765   1.83333
 Alpha virt. eigenvalues --    1.83868   1.84231   1.84417   1.84856   1.85526
 Alpha virt. eigenvalues --    1.85810   1.86511   1.86774   1.87617   1.88027
 Alpha virt. eigenvalues --    1.88226   1.88663   1.89340   1.89624   1.90787
 Alpha virt. eigenvalues --    1.91894   1.91907   1.92475   1.92682   1.92827
 Alpha virt. eigenvalues --    1.93342   1.93499   1.94602   1.95062   1.95282
 Alpha virt. eigenvalues --    1.95423   1.95628   1.96904   1.97120   1.97663
 Alpha virt. eigenvalues --    1.97857   1.98079   1.98170   1.98758   1.99011
 Alpha virt. eigenvalues --    1.99283   1.99568   1.99923   2.00637   2.00876
 Alpha virt. eigenvalues --    2.01187   2.01623   2.02041   2.02901   2.03514
 Alpha virt. eigenvalues --    2.03691   2.04022   2.04161   2.05365   2.06169
 Alpha virt. eigenvalues --    2.06749   2.07039   2.07872   2.08060   2.08851
 Alpha virt. eigenvalues --    2.09177   2.09784   2.10558   2.11157   2.11538
 Alpha virt. eigenvalues --    2.12033   2.12274   2.13144   2.13518   2.14297
 Alpha virt. eigenvalues --    2.14782   2.15149   2.15614   2.15888   2.16481
 Alpha virt. eigenvalues --    2.18068   2.18854   2.19183   2.19846   2.20425
 Alpha virt. eigenvalues --    2.21721   2.21949   2.22278   2.23381   2.23772
 Alpha virt. eigenvalues --    2.24964   2.25906   2.26983   2.27267   2.27451
 Alpha virt. eigenvalues --    2.28628   2.29362   2.30141   2.30699   2.31312
 Alpha virt. eigenvalues --    2.31698   2.31908   2.31985   2.32617   2.32959
 Alpha virt. eigenvalues --    2.33436   2.34093   2.35090   2.36032   2.36380
 Alpha virt. eigenvalues --    2.37211   2.37549   2.37686   2.38302   2.39021
 Alpha virt. eigenvalues --    2.39503   2.40230   2.40742   2.41190   2.41346
 Alpha virt. eigenvalues --    2.41974   2.42830   2.44219   2.44627   2.44972
 Alpha virt. eigenvalues --    2.45493   2.45790   2.46308   2.47006   2.50220
 Alpha virt. eigenvalues --    2.50531   2.52539   2.53652   2.54721   2.55394
 Alpha virt. eigenvalues --    2.55768   2.57195   2.57754   2.57902   2.59791
 Alpha virt. eigenvalues --    2.60678   2.60886   2.61583   2.61746   2.62207
 Alpha virt. eigenvalues --    2.62741   2.63275   2.64398   2.64925   2.65201
 Alpha virt. eigenvalues --    2.67363   2.68682   2.69143   2.69625   2.71022
 Alpha virt. eigenvalues --    2.71113   2.71201   2.72090   2.72553   2.73253
 Alpha virt. eigenvalues --    2.74214   2.75396   2.76373   2.78073   2.79208
 Alpha virt. eigenvalues --    2.79441   2.79768   2.80526   2.82722   2.84130
 Alpha virt. eigenvalues --    2.84680   2.84983   2.85832   2.86942   2.88691
 Alpha virt. eigenvalues --    2.89842   2.91658   2.92399   2.94109   2.99621
 Alpha virt. eigenvalues --    3.01751   3.02588   3.04762   3.15275   3.26026
 Alpha virt. eigenvalues --    3.28804   3.38037   3.47648   3.99889   4.06824
 Alpha virt. eigenvalues --    4.09517   4.09797   4.10299   4.11775   4.12288
 Alpha virt. eigenvalues --    4.12606   4.12733   4.14689   4.14874   4.15673
 Alpha virt. eigenvalues --    4.16853   4.19168   4.21326   4.23547   4.24179
 Alpha virt. eigenvalues --    4.29635   4.30004   4.31208   4.32338   4.33473
 Alpha virt. eigenvalues --    4.34845   4.36134   4.36877   4.38757   4.40065
 Alpha virt. eigenvalues --    4.41589   4.42454   4.43641   4.45443   4.48198
 Alpha virt. eigenvalues --    4.51516   4.52336   4.55387   4.55805   4.56680
 Alpha virt. eigenvalues --    4.58276   4.62092   4.63689   4.67500   4.72604
 Alpha virt. eigenvalues --    4.81725   4.91701
          Condensed to atoms (all electrons):
 Mulliken charges:
               1
     1  C   -0.342377
     2  C   -0.040971
     3  C   -0.302187
     4  C   -0.258130
     5  C   -0.259636
     6  C   -0.264967
     7  C   -0.257342
     8  C   -0.262935
     9  C   -0.258849
    10  C   -0.274840
    11  C   -0.020500
    12  O   -0.493592
    13  C    0.147543
    14  C   -0.460813
    15  C   -0.282810
    16  C    0.010390
    17  C    0.349677
    18  N   -0.504184
    19  C   -0.281104
    20  C   -0.278353
    21  C   -0.287080
    22  C   -0.180985
    23  C    0.168588
    24  C   -0.199815
    25  C   -0.175136
    26  C    0.092976
    27  C    0.089266
    28  C   -0.178150
    29  C   -0.186112
    30  C    0.385714
    31  O   -0.546157
    32  C    0.143813
    33  C   -0.288834
    34  C   -0.244666
    35  C   -0.447983
    36  C   -0.288809
    37  C   -0.262116
    38  C   -0.247618
    39  C   -0.442861
    40  C   -0.196031
    41  C   -0.188968
    42  C   -0.179977
    43  C   -0.190960
    44  C   -0.275000
    45  H    0.132523
    46  H    0.136593
    47  H    0.122032
    48  H    0.140591
    49  H    0.138502
    50  H    0.129168
    51  H    0.141984
    52  H    0.126472
    53  H    0.128628
    54  H    0.135424
    55  H    0.132104
    56  H    0.129223
    57  H    0.135344
    58  H    0.127718
    59  H    0.129623
    60  H    0.149704
    61  H    0.125982
    62  H    0.148671
    63  H    0.130941
    64  H    0.128041
    65  H    0.120725
    66  H    0.139727
    67  H    0.151784
    68  H    0.151559
    69  H    0.146534
    70  H    0.151522
    71  H    0.145637
    72  H    0.160577
    73  H    0.167740
    74  H    0.138316
    75  H    0.141618
    76  H    0.152755
    77  H    0.148177
    78  H    0.151860
    79  H    0.128143
    80  H    0.129397
    81  H    0.131120
    82  H    0.135455
    83  H    0.127769
    84  H    0.136841
    85  H    0.139955
    86  H    0.154207
    87  H    0.129669
    88  H    0.157742
    89  H    0.141385
    90  H    0.135675
    91  H    0.149791
    92  H    0.147140
    93  H    0.127922
    94  H    0.135131
    95  H    0.134740
    96  H    0.134193
    97  H    0.144777
    98  H    0.142263
    99  H    0.142042
   100  H    0.135222
   101  H    0.132206
   102  H    0.129485
   103  H    0.124811
   104  H    0.149914
   105  H    0.148089
 Sum of Mulliken charges =  -0.00000
 Mulliken charges with hydrogens summed into heavy atoms:
               1
     1  C   -0.073260
     2  C    0.081061
     3  C   -0.023094
     4  C    0.013022
     5  C   -0.004536
     6  C    0.002561
     7  C    0.007225
     8  C   -0.005594
     9  C    0.016836
    10  C    0.004771
    11  C    0.228266
    12  O   -0.493592
    13  C    0.287270
    14  C   -0.010936
    15  C    0.014349
    16  C    0.010390
    17  C    0.349677
    18  N   -0.504184
    19  C    0.047213
    20  C    0.001581
    21  C    0.013852
    22  C   -0.029125
    23  C    0.168588
    24  C   -0.071672
    25  C   -0.045739
    26  C    0.092976
    27  C    0.089266
    28  C   -0.047030
    29  C   -0.050656
    30  C    0.385714
    31  O   -0.546157
    32  C    0.271582
    33  C   -0.012037
    34  C    0.039210
    35  C   -0.013181
    36  C    0.008122
    37  C    0.000936
    38  C    0.021315
    39  C   -0.013778
    40  C   -0.060809
    41  C   -0.056762
    42  C   -0.050493
    43  C   -0.066149
    44  C    0.023003
 Electronic spatial extent (au):  <R**2>=          81256.2437
 Charge=             -0.0000 electrons
 Dipole moment (field-independent basis, Debye):
    X=              1.1267    Y=              1.7822    Z=             -1.4538  Tot=              2.5611
 Quadrupole moment (field-independent basis, Debye-Ang):
   XX=           -235.2477   YY=           -288.4673   ZZ=           -271.9401
   XY=             -2.3180   XZ=             13.1111   YZ=              7.4778
 Traceless Quadrupole moment (field-independent basis, Debye-Ang):
   XX=             29.9707   YY=            -23.2490   ZZ=             -6.7217
   XY=             -2.3180   XZ=             13.1111   YZ=              7.4778
 Octapole moment (field-independent basis, Debye-Ang**2):
  XXX=            380.9933  YYY=             99.0730  ZZZ=            -13.5550  XYY=             65.8266
  XXY=            -69.0533  XXZ=            -27.8113  XZZ=            -13.3039  YZZ=             17.0965
  YYZ=            -69.3876  XYZ=            -29.2529
 Hexadecapole moment (field-independent basis, Debye-Ang**3):
 XXXX=         -93614.0745 YYYY=         -11029.8723 ZZZZ=          -3714.0569 XXXY=           1296.2000
 XXXZ=            843.8183 YYYX=           -210.9840 YYYZ=            268.4828 ZZZX=            -37.4646
 ZZZY=             33.4369 XXYY=         -18216.1420 XXZZ=         -16800.4192 YYZZ=          -2357.7432
 XXYZ=           -136.8700 YYXZ=            296.4913 ZZXY=             22.3691
 N-N= 4.660950204992D+03 E-N=-1.350077398860D+04  KE= 1.786617333486D+03
 Leave Link  601 at Fri Nov  4 21:19:17 2022, MaxMem=   805306368 cpu:               1.5 elap:               0.3
 (Enter /home/wykgroup/appl/g16/l9999.exe)
 1\1\GINC-NODE61\FOpt\RB3LYP\6-31G(d)\C41H61N1O2\WYKGROUP\04-Nov-2022\0
 \\#p b3lyp/6-31g(d) opt SCF=XQC\\Gaussian input prepared by ASE\\0,1\C
 ,11.598800503,-0.3124932695,-6.1278218589\C,11.7545193659,0.6004013429
 ,-5.1682718527\C,11.5229921344,0.3696441592,-3.6995347529\C,10.4225038
 479,1.2821040686,-3.1220420737\C,10.2489316512,1.1777633244,-1.5965707
 14\C,9.8125094627,-0.1955553779,-1.0547585112\C,8.4367457754,-0.667721
 0015,-1.5535673644\C,7.9453206792,-1.9993976051,-0.9397947769\C,7.0539
 021816,-1.8780134781,0.3097283759\C,7.7241974395,-1.2787061629,1.55278
 52962\C,6.8550083857,-1.3205944439,2.8059382087\O,5.702011314,-0.50986
 50132,2.6066736346\C,4.8929624329,-0.3349870924,3.7734758268\C,5.45790
 66475,0.7804101768,4.6623159322\C,3.465056072,0.0039672518,3.327706438
 \C,2.6250362255,-1.1209867967,2.6532830271\C,2.6283952824,-2.298639344
 9,3.5452322575\N,2.6358162243,-3.2201907181,4.2535325808\C,3.18009116,
 -1.5282117068,1.2403010559\C,2.0722542143,-1.8165556637,0.2069331415\C
 ,0.8686643307,-2.5425870916,0.8203575769\C,0.1975775666,-1.7256969778,
 1.9711443801\C,-1.1477847674,-1.1187175887,1.604339658\C,-2.2611709851
 ,-1.3093372992,2.4322448176\C,-3.4983819802,-0.7434243416,2.1300286801
 \C,-3.6784367702,0.0366944966,0.9765886639\C,-4.9944985347,0.636145423
 6,0.6473092339\C,-5.0924075936,1.909124105,0.0538148393\C,-6.322056241
 ,2.4724348227,-0.2553547214\C,-7.5126237692,1.7816143999,0.0202583167\
 O,-8.6607461338,2.4413777195,-0.3083703854\C,-9.9502837279,1.841386445
 2,-0.0844560676\C,-10.9483350488,3.005319077,0.086416411\C,-10.7791206
 32,4.235700954,-0.8256691591\C,-10.9809276217,4.0194299036,-2.32998278
 64\C,-10.2804524505,0.8310549655,-1.1987694644\C,-11.4580222399,-0.095
 9382907,-0.8640959486\C,-11.7368875711,-1.129869974,-1.9636411124\C,-1
 2.9072705516,-2.0610569963,-1.6320308029\C,-7.4383036449,0.511147899,0
 .6062553035\C,-6.1929465367,-0.0408137403,0.9113931678\C,-2.561562336,
 0.2257078584,0.1439896072\C,-1.3257060277,-0.3358265385,0.4534979638\C
 ,1.156686994,-0.6310157074,2.5042299494\H,11.2915679897,-1.3320490589,
 -5.9017606273\H,11.7746694152,-0.0806420425,-7.1750217248\H,12.0617109
 693,1.6110458147,-5.445488986\H,11.2716947999,-0.6851079819,-3.5324841
 785\H,12.4576561121,0.5601042932,-3.1483068051\H,10.663582066,2.325052
 8273,-3.3714890232\H,9.4750038002,1.0645938865,-3.6314413351\H,11.1974
 968685,1.4585247102,-1.1163155067\H,9.5138953942,1.9307805723,-1.27782
 6487\H,9.8108199904,-0.1429941541,0.0408486569\H,10.5634470456,-0.9556
 925471,-1.3126962722\H,7.6894805912,0.118406635,-1.3667799583\H,8.4815
 41973,-0.7805694265,-2.6443107611\H,8.8119937797,-2.6380208503,-0.7124
 643382\H,7.3667890074,-2.5439657346,-1.6975328297\H,6.1682433351,-1.28
 04977074,0.0604811017\H,6.6828027383,-2.8814899517,0.5659195858\H,8.00
 7671907,-0.2349037478,1.3710187662\H,8.6517421903,-1.8261716798,1.7736
 439006\H,6.5486514786,-2.356424048,3.030645563\H,7.4380861248,-0.95872
 52688,3.6666584287\H,4.8754157636,-1.2767162888,4.3438707222\H,6.49482
 06835,0.5742617923,4.9459926162\H,5.4357969219,1.7387931909,4.13120823
 16\H,4.8749612304,0.8789294633,5.584929147\H,3.5082806712,0.8512041739
 ,2.631530904\H,2.9163925793,0.3468835858,4.2136481956\H,3.830199406,-2
 .401535987,1.3475372124\H,3.8221778475,-0.7198262244,0.8824120633\H,1.
 7406713836,-0.874823034,-0.2497693807\H,2.493897664,-2.413063397,-0.61
 09983812\H,1.2066910932,-3.506481995,1.220813547\H,0.1292161391,-2.772
 0354065,0.0457060794\H,0.0165403367,-2.4173181573,2.8018210088\H,-2.15
 63759846,-1.9067031312,3.3356407044\H,-4.3319100509,-0.8911642344,2.81
 13697091\H,-4.188088136,2.4781749716,-0.1436704668\H,-6.3899511296,3.4
 604239824,-0.7004157106\H,-9.9195105565,1.2985614094,0.8707292897\H,-1
 1.9636765189,2.6008205922,-0.0196518226\H,-10.8696054333,3.358194599,1
 .1226013148\H,-9.7861863225,4.6646074044,-0.6537312174\H,-11.502301384
 2,4.9860551999,-0.4784209206\H,-10.1751059784,3.4195127691,-2.76422659
 63\H,-10.990423494,4.9811729695,-2.8563100191\H,-11.9330559403,3.51739
 91902,-2.5443020076\H,-10.4803192992,1.3627969298,-2.1345986659\H,-9.3
 880151099,0.2178625691,-1.3772468186\H,-11.2543886807,-0.6216833008,0.
 0814116515\H,-12.3690394531,0.4940869747,-0.6913200708\H,-10.830357133
 1,-1.7265628236,-2.1370648598\H,-11.9409257026,-0.6061594549,-2.908135
 6547\H,-13.080734482,-2.7858518984,-2.4354381356\H,-12.7172066642,-2.6
 248979675,-0.7104071999\H,-13.8360819039,-1.495449771,-1.4876072863\H,
 -8.332690657,-0.0633887028,0.8170239624\H,-6.1586690893,-1.0386196541,
 1.3402557085\H,-2.6701409922,0.7993080092,-0.7725964943\H,-0.491147800
 7,-0.1711218183,-0.2240104275\H,0.7851295156,-0.2598141099,3.465967328
 4\H,1.1672033585,0.2276858674,1.8216505782\\Version=ES64L-G16RevB.01\S
 tate=1-A\HF=-1804.2883115\RMSD=2.140e-09\RMSF=1.453e-06\Dipole=-0.3763
 416,0.822089,-0.4447714\Quadrupole=23.7928413,-11.7785052,-12.0143361,
 6.7621491,2.2584865,7.9756067\PG=C01 [X(C41H61N1O2)]\\@


 THE BEST WAY TO CONVINCE A FOOL THAT HE IS WRONG 
 IS TO LET HIM HAVE HIS OWN WAY.

                                         JOSH BILLINGS
 Job cpu time:       0 days  6 hours  5 minutes 40.6 seconds.
 Elapsed time:       0 days  0 hours 52 minutes 47.7 seconds.
 File lengths (MBytes):  RWF=    385 Int=      0 D2E=      0 Chk=     53 Scr=      1
 Normal termination of Gaussian 16 at Fri Nov  4 21:19:17 2022.
