 Entering Gaussian System, Link 0=/home/wykgroup/appl/g16/g16
 Input=calculation/no_transfer_pubchem_sampling_4_b3lyp/68333253_rwf.com
 Output=calculation/no_transfer_pubchem_sampling_4_b3lyp/68333253_rwf.log
 Initial command:
 /home/wykgroup/appl/g16/l1.exe "/userdata/scratch/wykgroup/khs/calculation/no_transfer_pubchem_sampling_4_b3lyp/68333253_rwf/Gau-2117.inp" -scrdir="/userdata/scratch/wykgroup/khs/calculation/no_transfer_pubchem_sampling_4_b3lyp/68333253_rwf/"
 Entering Link 1 = /home/wykgroup/appl/g16/l1.exe PID=      2118.
  
 Copyright (c) 1988-2017, Gaussian, Inc.  All Rights Reserved.
  
 This is part of the Gaussian(R) 16 program.  It is based on
 the Gaussian(R) 09 system (copyright 2009, Gaussian, Inc.),
 the Gaussian(R) 03 system (copyright 2003, Gaussian, Inc.),
 the Gaussian(R) 98 system (copyright 1998, Gaussian, Inc.),
 the Gaussian(R) 94 system (copyright 1995, Gaussian, Inc.),
 the Gaussian 92(TM) system (copyright 1992, Gaussian, Inc.),
 the Gaussian 90(TM) system (copyright 1990, Gaussian, Inc.),
 the Gaussian 88(TM) system (copyright 1988, Gaussian, Inc.),
 the Gaussian 86(TM) system (copyright 1986, Carnegie Mellon
 University), and the Gaussian 82(TM) system (copyright 1983,
 Carnegie Mellon University). Gaussian is a federally registered
 trademark of Gaussian, Inc.
  
 This software contains proprietary and confidential information,
 including trade secrets, belonging to Gaussian, Inc.
  
 This software is provided under written license and may be
 used, copied, transmitted, or stored only in accord with that
 written license.
  
 The following legend is applicable only to US Government
 contracts under FAR:
  
                    RESTRICTED RIGHTS LEGEND
  
 Use, reproduction and disclosure by the US Government is
 subject to restrictions as set forth in subparagraphs (a)
 and (c) of the Commercial Computer Software - Restricted
 Rights clause in FAR 52.227-19.
  
 Gaussian, Inc.
 340 Quinnipiac St., Bldg. 40, Wallingford CT 06492
  
  
 ---------------------------------------------------------------
 Warning -- This program may not be used in any manner that
 competes with the business of Gaussian, Inc. or will provide
 assistance to any competitor of Gaussian, Inc.  The licensee
 of this program is prohibited from giving any competitor of
 Gaussian, Inc. access to this program.  By using this program,
 the user acknowledges that Gaussian, Inc. is engaged in the
 business of creating and licensing software in the field of
 computational chemistry and represents and warrants to the
 licensee that it is not a competitor of Gaussian, Inc. and that
 it will not use this program in any manner prohibited above.
 ---------------------------------------------------------------
  

 Cite this work as:
 Gaussian 16, Revision B.01,
 M. J. Frisch, G. W. Trucks, H. B. Schlegel, G. E. Scuseria, 
 M. A. Robb, J. R. Cheeseman, G. Scalmani, V. Barone, 
 G. A. Petersson, H. Nakatsuji, X. Li, M. Caricato, A. V. Marenich, 
 J. Bloino, B. G. Janesko, R. Gomperts, B. Mennucci, H. P. Hratchian, 
 J. V. Ortiz, A. F. Izmaylov, J. L. Sonnenberg, D. Williams-Young, 
 F. Ding, F. Lipparini, F. Egidi, J. Goings, B. Peng, A. Petrone, 
 T. Henderson, D. Ranasinghe, V. G. Zakrzewski, J. Gao, N. Rega, 
 G. Zheng, W. Liang, M. Hada, M. Ehara, K. Toyota, R. Fukuda, 
 J. Hasegawa, M. Ishida, T. Nakajima, Y. Honda, O. Kitao, H. Nakai, 
 T. Vreven, K. Throssell, J. A. Montgomery, Jr., J. E. Peralta, 
 F. Ogliaro, M. J. Bearpark, J. J. Heyd, E. N. Brothers, K. N. Kudin, 
 V. N. Staroverov, T. A. Keith, R. Kobayashi, J. Normand, 
 K. Raghavachari, A. P. Rendell, J. C. Burant, S. S. Iyengar, 
 J. Tomasi, M. Cossi, J. M. Millam, M. Klene, C. Adamo, R. Cammi, 
 J. W. Ochterski, R. L. Martin, K. Morokuma, O. Farkas, 
 J. B. Foresman, and D. J. Fox, Gaussian, Inc., Wallingford CT, 2016.
 
 ******************************************
 Gaussian 16:  ES64L-G16RevB.01 20-Dec-2017
                 5-Nov-2022 
 ******************************************
 %chk=calculation/no_transfer_pubchem_sampling_4_b3lyp/68333253_rwf.chk
 %rwf=calculation/no_transfer_pubchem_sampling_4_b3lyp/68333253_rwf.rwf
 %nprocshared=14
 Will use up to   14 processors via shared memory.
 %mem=3GB
 -------------------------------------------------------------------
 #p b3lyp/6-31g(d) 6D 10F nosymm GFInput td=(50-50,nstate=2) SCF=XQC
 -------------------------------------------------------------------
 1/38=1,172=1/1;
 2/12=2,15=1,17=6,18=5,40=1/2;
 3/5=1,6=6,7=1,8=22,11=9,24=10,25=1,30=1,74=-5/1,2,3,8;
 4//1;
 5/5=2,8=3,13=1,38=5/2,8;
 8/6=1,10=2,108=2/1;
 9/41=2,42=1,48=2,70=2/14;
 6/7=2,8=2,9=2,10=2/1;
 99/5=1,9=1/99;
 Leave Link    1 at Sat Nov  5 12:06:34 2022, MaxMem=   402653184 cpu:               3.5 elap:               0.3
 (Enter /home/wykgroup/appl/g16/l101.exe)
 ------------------------------
 Gaussian input prepared by ASE
 ------------------------------
 Symbolic Z-matrix:
 Charge =  0 Multiplicity = 1
 C                    -7.47335   0.90354   1.86938 
 C                    -6.91347  -0.33303   1.13279 
 C                    -7.65308  -0.5818   -0.15903 
 C                    -7.13975  -0.20866  -1.33938 
 C                    -5.81424   0.39138  -1.44714 
 C                    -5.33777   0.93306  -2.64301 
 C                    -4.06053   1.48576  -2.72244 
 C                    -3.25099   1.48085  -1.58941 
 C                    -3.68517   0.93642  -0.37095 
 C                    -2.7132    0.94856   0.7969 
 N                    -1.68382  -0.10553   0.73233 
 C                    -2.16396  -1.48106   0.90903 
 C                    -1.03249  -2.47393   1.15061 
 C                     0.06209  -2.2583    0.10892 
 C                     0.66136  -0.84159   0.20651 
 C                     1.59394  -0.55702  -1.00409 
 C                     3.06029  -0.89003  -0.72297 
 N                     3.5681   -0.05032   0.36646 
 C                     4.88007   0.34305   0.37306 
 C                     5.35955   1.33042   1.31741 
 N                     6.60556   1.72113   1.36082 
 C                     7.47288   1.1671    0.45674 
 C                     8.83342   1.55375   0.46297 
 C                     9.71023   1.01246  -0.45396 
 C                     9.24881   0.07049  -1.40531 
 C                     7.92665  -0.32176  -1.43182 
 C                     7.00406   0.2157   -0.49791 
 N                     5.70457  -0.18922  -0.52149 
 C                     2.61853   0.34344   1.4103 
 C                     1.49775  -0.69382   1.52141 
 C                    -0.43926   0.24464   0.26768 
 O                    -0.16328   1.41389  -0.01154 
 C                    -4.98498   0.38928  -0.2927 
 N                    -5.4731   -0.23133   0.85622 
 H                    -8.54123   0.77606   2.08402 
 H                    -7.35137   1.80209   1.25558 
 H                    -6.95464   1.05865   2.82444 
 H                    -7.0421   -1.20272   1.79307 
 H                    -8.64729  -1.01492  -0.08724 
 H                    -7.70797  -0.3455   -2.25729 
 H                    -5.98695   0.92197  -3.51601 
 H                    -3.70067   1.91409  -3.65304 
 H                    -2.25091   1.90422  -1.63012 
 H                    -3.22392   0.84852   1.76319 
 H                    -2.1732    1.89512   0.81339 
 H                    -2.86097  -1.48501   1.7561 
 H                    -2.74577  -1.77893   0.02484 
 H                    -1.43768  -3.49071   1.09172 
 H                    -0.62945  -2.34919   2.1632 
 H                     0.86198  -3.00236   0.21408 
 H                    -0.36753  -2.4      -0.89289 
 H                     1.51891   0.5022   -1.26352 
 H                     1.25941  -1.13262  -1.87571 
 H                     3.19071  -1.95757  -0.48387 
 H                     3.67326  -0.69801  -1.60529 
 H                     4.67696   1.80404   2.01857 
 H                     9.15186   2.2814    1.20375 
 H                     10.75586   1.30722  -0.45166 
 H                     9.94887  -0.34794  -2.12405 
 H                     7.55869  -1.04404  -2.15443 
 H                     2.18629   1.33355   1.20972 
 H                     3.13932   0.39208   2.37208 
 H                     0.85485  -0.42173   2.36534 
 H                     1.94466  -1.6661    1.76669 
 H                    -4.92541  -0.07141   1.69062 
 
 ITRead=  0  0  0  0  0  0  0  0  0  0  0  0  0  0  0  0  0  0  0  0
 ITRead=  0  0  0  0  0  0  0  0  0  0  0  0  0  0  0  0  0  0  0  0
 ITRead=  0  0  0  0  0  0  0  0  0  0  0  0  0  0  0  0  0  0  0  0
 ITRead=  0  0  0  0  0
 MicOpt= -1 -1 -1 -1 -1 -1 -1 -1 -1 -1 -1 -1 -1 -1 -1 -1 -1 -1 -1 -1
 MicOpt= -1 -1 -1 -1 -1 -1 -1 -1 -1 -1 -1 -1 -1 -1 -1 -1 -1 -1 -1 -1
 MicOpt= -1 -1 -1 -1 -1 -1 -1 -1 -1 -1 -1 -1 -1 -1 -1 -1 -1 -1 -1 -1
 MicOpt= -1 -1 -1 -1 -1
 NAtoms=     65 NQM=       65 NQMF=       0 NMMI=      0 NMMIF=      0
                NMic=       0 NMicF=      0.
                    Isotopes and Nuclear Properties:
 (Nuclear quadrupole moments (NQMom) in fm**2, nuclear magnetic moments (NMagM)
  in nuclear magnetons)

  Atom         1           2           3           4           5           6           7           8           9          10
 IAtWgt=          12          12          12          12          12          12          12          12          12          12
 AtmWgt=  12.0000000  12.0000000  12.0000000  12.0000000  12.0000000  12.0000000  12.0000000  12.0000000  12.0000000  12.0000000
 NucSpn=           0           0           0           0           0           0           0           0           0           0
 AtZEff=  -0.0000000  -0.0000000  -0.0000000  -0.0000000  -0.0000000  -0.0000000  -0.0000000  -0.0000000  -0.0000000  -0.0000000
 NQMom=    0.0000000   0.0000000   0.0000000   0.0000000   0.0000000   0.0000000   0.0000000   0.0000000   0.0000000   0.0000000
 NMagM=    0.0000000   0.0000000   0.0000000   0.0000000   0.0000000   0.0000000   0.0000000   0.0000000   0.0000000   0.0000000
 AtZNuc=   6.0000000   6.0000000   6.0000000   6.0000000   6.0000000   6.0000000   6.0000000   6.0000000   6.0000000   6.0000000

  Atom        11          12          13          14          15          16          17          18          19          20
 IAtWgt=          14          12          12          12          12          12          12          14          12          12
 AtmWgt=  14.0030740  12.0000000  12.0000000  12.0000000  12.0000000  12.0000000  12.0000000  14.0030740  12.0000000  12.0000000
 NucSpn=           2           0           0           0           0           0           0           2           0           0
 AtZEff=  -0.0000000  -0.0000000  -0.0000000  -0.0000000  -0.0000000  -0.0000000  -0.0000000  -0.0000000  -0.0000000  -0.0000000
 NQMom=    2.0440000   0.0000000   0.0000000   0.0000000   0.0000000   0.0000000   0.0000000   2.0440000   0.0000000   0.0000000
 NMagM=    0.4037610   0.0000000   0.0000000   0.0000000   0.0000000   0.0000000   0.0000000   0.4037610   0.0000000   0.0000000
 AtZNuc=   7.0000000   6.0000000   6.0000000   6.0000000   6.0000000   6.0000000   6.0000000   7.0000000   6.0000000   6.0000000

  Atom        21          22          23          24          25          26          27          28          29          30
 IAtWgt=          14          12          12          12          12          12          12          14          12          12
 AtmWgt=  14.0030740  12.0000000  12.0000000  12.0000000  12.0000000  12.0000000  12.0000000  14.0030740  12.0000000  12.0000000
 NucSpn=           2           0           0           0           0           0           0           2           0           0
 AtZEff=  -0.0000000  -0.0000000  -0.0000000  -0.0000000  -0.0000000  -0.0000000  -0.0000000  -0.0000000  -0.0000000  -0.0000000
 NQMom=    2.0440000   0.0000000   0.0000000   0.0000000   0.0000000   0.0000000   0.0000000   2.0440000   0.0000000   0.0000000
 NMagM=    0.4037610   0.0000000   0.0000000   0.0000000   0.0000000   0.0000000   0.0000000   0.4037610   0.0000000   0.0000000
 AtZNuc=   7.0000000   6.0000000   6.0000000   6.0000000   6.0000000   6.0000000   6.0000000   7.0000000   6.0000000   6.0000000

  Atom        31          32          33          34          35          36          37          38          39          40
 IAtWgt=          12          16          12          14           1           1           1           1           1           1
 AtmWgt=  12.0000000  15.9949146  12.0000000  14.0030740   1.0078250   1.0078250   1.0078250   1.0078250   1.0078250   1.0078250
 NucSpn=           0           0           0           2           1           1           1           1           1           1
 AtZEff=  -0.0000000  -0.0000000  -0.0000000  -0.0000000  -0.0000000  -0.0000000  -0.0000000  -0.0000000  -0.0000000  -0.0000000
 NQMom=    0.0000000   0.0000000   0.0000000   2.0440000   0.0000000   0.0000000   0.0000000   0.0000000   0.0000000   0.0000000
 NMagM=    0.0000000   0.0000000   0.0000000   0.4037610   2.7928460   2.7928460   2.7928460   2.7928460   2.7928460   2.7928460
 AtZNuc=   6.0000000   8.0000000   6.0000000   7.0000000   1.0000000   1.0000000   1.0000000   1.0000000   1.0000000   1.0000000

  Atom        41          42          43          44          45          46          47          48          49          50
 IAtWgt=           1           1           1           1           1           1           1           1           1           1
 AtmWgt=   1.0078250   1.0078250   1.0078250   1.0078250   1.0078250   1.0078250   1.0078250   1.0078250   1.0078250   1.0078250
 NucSpn=           1           1           1           1           1           1           1           1           1           1
 AtZEff=  -0.0000000  -0.0000000  -0.0000000  -0.0000000  -0.0000000  -0.0000000  -0.0000000  -0.0000000  -0.0000000  -0.0000000
 NQMom=    0.0000000   0.0000000   0.0000000   0.0000000   0.0000000   0.0000000   0.0000000   0.0000000   0.0000000   0.0000000
 NMagM=    2.7928460   2.7928460   2.7928460   2.7928460   2.7928460   2.7928460   2.7928460   2.7928460   2.7928460   2.7928460
 AtZNuc=   1.0000000   1.0000000   1.0000000   1.0000000   1.0000000   1.0000000   1.0000000   1.0000000   1.0000000   1.0000000

  Atom        51          52          53          54          55          56          57          58          59          60
 IAtWgt=           1           1           1           1           1           1           1           1           1           1
 AtmWgt=   1.0078250   1.0078250   1.0078250   1.0078250   1.0078250   1.0078250   1.0078250   1.0078250   1.0078250   1.0078250
 NucSpn=           1           1           1           1           1           1           1           1           1           1
 AtZEff=  -0.0000000  -0.0000000  -0.0000000  -0.0000000  -0.0000000  -0.0000000  -0.0000000  -0.0000000  -0.0000000  -0.0000000
 NQMom=    0.0000000   0.0000000   0.0000000   0.0000000   0.0000000   0.0000000   0.0000000   0.0000000   0.0000000   0.0000000
 NMagM=    2.7928460   2.7928460   2.7928460   2.7928460   2.7928460   2.7928460   2.7928460   2.7928460   2.7928460   2.7928460
 AtZNuc=   1.0000000   1.0000000   1.0000000   1.0000000   1.0000000   1.0000000   1.0000000   1.0000000   1.0000000   1.0000000

  Atom        61          62          63          64          65
 IAtWgt=           1           1           1           1           1
 AtmWgt=   1.0078250   1.0078250   1.0078250   1.0078250   1.0078250
 NucSpn=           1           1           1           1           1
 AtZEff=  -0.0000000  -0.0000000  -0.0000000  -0.0000000  -0.0000000
 NQMom=    0.0000000   0.0000000   0.0000000   0.0000000   0.0000000
 NMagM=    2.7928460   2.7928460   2.7928460   2.7928460   2.7928460
 AtZNuc=   1.0000000   1.0000000   1.0000000   1.0000000   1.0000000
 Leave Link  101 at Sat Nov  5 12:06:34 2022, MaxMem=   402653184 cpu:               1.3 elap:               0.1
 (Enter /home/wykgroup/appl/g16/l202.exe)
 Symmetry turned off by external request.
 Stoichiometry    C28H31N5O
 Framework group  C1[X(C28H31N5O)]
 Deg. of freedom   189
 Full point group                 C1      NOp   1
                          Input orientation:                          
 ---------------------------------------------------------------------
 Center     Atomic      Atomic             Coordinates (Angstroms)
 Number     Number       Type             X           Y           Z
 ---------------------------------------------------------------------
      1          6           0       -7.473352    0.903544    1.869382
      2          6           0       -6.913467   -0.333027    1.132789
      3          6           0       -7.653082   -0.581805   -0.159034
      4          6           0       -7.139750   -0.208662   -1.339383
      5          6           0       -5.814242    0.391384   -1.447135
      6          6           0       -5.337771    0.933058   -2.643013
      7          6           0       -4.060529    1.485759   -2.722443
      8          6           0       -3.250990    1.480850   -1.589405
      9          6           0       -3.685170    0.936424   -0.370949
     10          6           0       -2.713198    0.948561    0.796896
     11          7           0       -1.683817   -0.105528    0.732332
     12          6           0       -2.163958   -1.481062    0.909032
     13          6           0       -1.032487   -2.473930    1.150606
     14          6           0        0.062091   -2.258297    0.108917
     15          6           0        0.661360   -0.841589    0.206515
     16          6           0        1.593942   -0.557017   -1.004094
     17          6           0        3.060289   -0.890028   -0.722973
     18          7           0        3.568097   -0.050317    0.366455
     19          6           0        4.880070    0.343049    0.373062
     20          6           0        5.359553    1.330421    1.317406
     21          7           0        6.605560    1.721132    1.360821
     22          6           0        7.472884    1.167103    0.456740
     23          6           0        8.833416    1.553746    0.462974
     24          6           0        9.710228    1.012462   -0.453963
     25          6           0        9.248808    0.070491   -1.405307
     26          6           0        7.926647   -0.321761   -1.431822
     27          6           0        7.004062    0.215698   -0.497906
     28          7           0        5.704575   -0.189219   -0.521489
     29          6           0        2.618532    0.343440    1.410296
     30          6           0        1.497748   -0.693816    1.521409
     31          6           0       -0.439259    0.244638    0.267675
     32          8           0       -0.163279    1.413894   -0.011543
     33          6           0       -4.984983    0.389282   -0.292698
     34          7           0       -5.473099   -0.231331    0.856217
     35          1           0       -8.541230    0.776064    2.084019
     36          1           0       -7.351373    1.802088    1.255576
     37          1           0       -6.954639    1.058647    2.824440
     38          1           0       -7.042096   -1.202721    1.793066
     39          1           0       -8.647292   -1.014919   -0.087244
     40          1           0       -7.707966   -0.345504   -2.257287
     41          1           0       -5.986947    0.921973   -3.516008
     42          1           0       -3.700669    1.914092   -3.653040
     43          1           0       -2.250906    1.904219   -1.630119
     44          1           0       -3.223922    0.848516    1.763194
     45          1           0       -2.173205    1.895123    0.813387
     46          1           0       -2.860969   -1.485011    1.756101
     47          1           0       -2.745769   -1.778934    0.024839
     48          1           0       -1.437682   -3.490709    1.091715
     49          1           0       -0.629445   -2.349187    2.163200
     50          1           0        0.861975   -3.002359    0.214080
     51          1           0       -0.367529   -2.400002   -0.892887
     52          1           0        1.518908    0.502200   -1.263517
     53          1           0        1.259406   -1.132620   -1.875707
     54          1           0        3.190709   -1.957571   -0.483875
     55          1           0        3.673260   -0.698006   -1.605289
     56          1           0        4.676956    1.804039    2.018569
     57          1           0        9.151856    2.281401    1.203745
     58          1           0       10.755858    1.307222   -0.451661
     59          1           0        9.948870   -0.347939   -2.124053
     60          1           0        7.558691   -1.044041   -2.154433
     61          1           0        2.186294    1.333552    1.209720
     62          1           0        3.139319    0.392078    2.372082
     63          1           0        0.854851   -0.421727    2.365336
     64          1           0        1.944664   -1.666099    1.766686
     65          1           0       -4.925409   -0.071408    1.690617
 ---------------------------------------------------------------------
 Rotational constants (GHZ):           0.4346205           0.0381093           0.0375172
 Leave Link  202 at Sat Nov  5 12:06:34 2022, MaxMem=   402653184 cpu:               0.1 elap:               0.0
 (Enter /home/wykgroup/appl/g16/l301.exe)
 Standard basis: 6-31G(d) (6D, 10F)
 Ernie: Thresh=  0.10000D-02 Tol=  0.10000D-05 Strict=F.
 AO basis set in the form of general basis input (Overlap normalization):
      1 0
 S   6 1.00       0.000000000000
      0.3047524880D+04  0.1834737132D-02
      0.4573695180D+03  0.1403732281D-01
      0.1039486850D+03  0.6884262226D-01
      0.2921015530D+02  0.2321844432D+00
      0.9286662960D+01  0.4679413484D+00
      0.3163926960D+01  0.3623119853D+00
 SP   3 1.00       0.000000000000
      0.7868272350D+01 -0.1193324198D+00  0.6899906659D-01
      0.1881288540D+01 -0.1608541517D+00  0.3164239610D+00
      0.5442492580D+00  0.1143456438D+01  0.7443082909D+00
 SP   1 1.00       0.000000000000
      0.1687144782D+00  0.1000000000D+01  0.1000000000D+01
 D   1 1.00       0.000000000000
      0.8000000000D+00  0.1000000000D+01
 ****
      2 0
 S   6 1.00       0.000000000000
      0.3047524880D+04  0.1834737132D-02
      0.4573695180D+03  0.1403732281D-01
      0.1039486850D+03  0.6884262226D-01
      0.2921015530D+02  0.2321844432D+00
      0.9286662960D+01  0.4679413484D+00
      0.3163926960D+01  0.3623119853D+00
 SP   3 1.00       0.000000000000
      0.7868272350D+01 -0.1193324198D+00  0.6899906659D-01
      0.1881288540D+01 -0.1608541517D+00  0.3164239610D+00
      0.5442492580D+00  0.1143456438D+01  0.7443082909D+00
 SP   1 1.00       0.000000000000
      0.1687144782D+00  0.1000000000D+01  0.1000000000D+01
 D   1 1.00       0.000000000000
      0.8000000000D+00  0.1000000000D+01
 ****
      3 0
 S   6 1.00       0.000000000000
      0.3047524880D+04  0.1834737132D-02
      0.4573695180D+03  0.1403732281D-01
      0.1039486850D+03  0.6884262226D-01
      0.2921015530D+02  0.2321844432D+00
      0.9286662960D+01  0.4679413484D+00
      0.3163926960D+01  0.3623119853D+00
 SP   3 1.00       0.000000000000
      0.7868272350D+01 -0.1193324198D+00  0.6899906659D-01
      0.1881288540D+01 -0.1608541517D+00  0.3164239610D+00
      0.5442492580D+00  0.1143456438D+01  0.7443082909D+00
 SP   1 1.00       0.000000000000
      0.1687144782D+00  0.1000000000D+01  0.1000000000D+01
 D   1 1.00       0.000000000000
      0.8000000000D+00  0.1000000000D+01
 ****
      4 0
 S   6 1.00       0.000000000000
      0.3047524880D+04  0.1834737132D-02
      0.4573695180D+03  0.1403732281D-01
      0.1039486850D+03  0.6884262226D-01
      0.2921015530D+02  0.2321844432D+00
      0.9286662960D+01  0.4679413484D+00
      0.3163926960D+01  0.3623119853D+00
 SP   3 1.00       0.000000000000
      0.7868272350D+01 -0.1193324198D+00  0.6899906659D-01
      0.1881288540D+01 -0.1608541517D+00  0.3164239610D+00
      0.5442492580D+00  0.1143456438D+01  0.7443082909D+00
 SP   1 1.00       0.000000000000
      0.1687144782D+00  0.1000000000D+01  0.1000000000D+01
 D   1 1.00       0.000000000000
      0.8000000000D+00  0.1000000000D+01
 ****
      5 0
 S   6 1.00       0.000000000000
      0.3047524880D+04  0.1834737132D-02
      0.4573695180D+03  0.1403732281D-01
      0.1039486850D+03  0.6884262226D-01
      0.2921015530D+02  0.2321844432D+00
      0.9286662960D+01  0.4679413484D+00
      0.3163926960D+01  0.3623119853D+00
 SP   3 1.00       0.000000000000
      0.7868272350D+01 -0.1193324198D+00  0.6899906659D-01
      0.1881288540D+01 -0.1608541517D+00  0.3164239610D+00
      0.5442492580D+00  0.1143456438D+01  0.7443082909D+00
 SP   1 1.00       0.000000000000
      0.1687144782D+00  0.1000000000D+01  0.1000000000D+01
 D   1 1.00       0.000000000000
      0.8000000000D+00  0.1000000000D+01
 ****
      6 0
 S   6 1.00       0.000000000000
      0.3047524880D+04  0.1834737132D-02
      0.4573695180D+03  0.1403732281D-01
      0.1039486850D+03  0.6884262226D-01
      0.2921015530D+02  0.2321844432D+00
      0.9286662960D+01  0.4679413484D+00
      0.3163926960D+01  0.3623119853D+00
 SP   3 1.00       0.000000000000
      0.7868272350D+01 -0.1193324198D+00  0.6899906659D-01
      0.1881288540D+01 -0.1608541517D+00  0.3164239610D+00
      0.5442492580D+00  0.1143456438D+01  0.7443082909D+00
 SP   1 1.00       0.000000000000
      0.1687144782D+00  0.1000000000D+01  0.1000000000D+01
 D   1 1.00       0.000000000000
      0.8000000000D+00  0.1000000000D+01
 ****
      7 0
 S   6 1.00       0.000000000000
      0.3047524880D+04  0.1834737132D-02
      0.4573695180D+03  0.1403732281D-01
      0.1039486850D+03  0.6884262226D-01
      0.2921015530D+02  0.2321844432D+00
      0.9286662960D+01  0.4679413484D+00
      0.3163926960D+01  0.3623119853D+00
 SP   3 1.00       0.000000000000
      0.7868272350D+01 -0.1193324198D+00  0.6899906659D-01
      0.1881288540D+01 -0.1608541517D+00  0.3164239610D+00
      0.5442492580D+00  0.1143456438D+01  0.7443082909D+00
 SP   1 1.00       0.000000000000
      0.1687144782D+00  0.1000000000D+01  0.1000000000D+01
 D   1 1.00       0.000000000000
      0.8000000000D+00  0.1000000000D+01
 ****
      8 0
 S   6 1.00       0.000000000000
      0.3047524880D+04  0.1834737132D-02
      0.4573695180D+03  0.1403732281D-01
      0.1039486850D+03  0.6884262226D-01
      0.2921015530D+02  0.2321844432D+00
      0.9286662960D+01  0.4679413484D+00
      0.3163926960D+01  0.3623119853D+00
 SP   3 1.00       0.000000000000
      0.7868272350D+01 -0.1193324198D+00  0.6899906659D-01
      0.1881288540D+01 -0.1608541517D+00  0.3164239610D+00
      0.5442492580D+00  0.1143456438D+01  0.7443082909D+00
 SP   1 1.00       0.000000000000
      0.1687144782D+00  0.1000000000D+01  0.1000000000D+01
 D   1 1.00       0.000000000000
      0.8000000000D+00  0.1000000000D+01
 ****
      9 0
 S   6 1.00       0.000000000000
      0.3047524880D+04  0.1834737132D-02
      0.4573695180D+03  0.1403732281D-01
      0.1039486850D+03  0.6884262226D-01
      0.2921015530D+02  0.2321844432D+00
      0.9286662960D+01  0.4679413484D+00
      0.3163926960D+01  0.3623119853D+00
 SP   3 1.00       0.000000000000
      0.7868272350D+01 -0.1193324198D+00  0.6899906659D-01
      0.1881288540D+01 -0.1608541517D+00  0.3164239610D+00
      0.5442492580D+00  0.1143456438D+01  0.7443082909D+00
 SP   1 1.00       0.000000000000
      0.1687144782D+00  0.1000000000D+01  0.1000000000D+01
 D   1 1.00       0.000000000000
      0.8000000000D+00  0.1000000000D+01
 ****
     10 0
 S   6 1.00       0.000000000000
      0.3047524880D+04  0.1834737132D-02
      0.4573695180D+03  0.1403732281D-01
      0.1039486850D+03  0.6884262226D-01
      0.2921015530D+02  0.2321844432D+00
      0.9286662960D+01  0.4679413484D+00
      0.3163926960D+01  0.3623119853D+00
 SP   3 1.00       0.000000000000
      0.7868272350D+01 -0.1193324198D+00  0.6899906659D-01
      0.1881288540D+01 -0.1608541517D+00  0.3164239610D+00
      0.5442492580D+00  0.1143456438D+01  0.7443082909D+00
 SP   1 1.00       0.000000000000
      0.1687144782D+00  0.1000000000D+01  0.1000000000D+01
 D   1 1.00       0.000000000000
      0.8000000000D+00  0.1000000000D+01
 ****
     11 0
 S   6 1.00       0.000000000000
      0.4173511460D+04  0.1834772160D-02
      0.6274579110D+03  0.1399462700D-01
      0.1429020930D+03  0.6858655181D-01
      0.4023432930D+02  0.2322408730D+00
      0.1282021290D+02  0.4690699481D+00
      0.4390437010D+01  0.3604551991D+00
 SP   3 1.00       0.000000000000
      0.1162636186D+02 -0.1149611817D+00  0.6757974388D-01
      0.2716279807D+01 -0.1691174786D+00  0.3239072959D+00
      0.7722183966D+00  0.1145851947D+01  0.7408951398D+00
 SP   1 1.00       0.000000000000
      0.2120314975D+00  0.1000000000D+01  0.1000000000D+01
 D   1 1.00       0.000000000000
      0.8000000000D+00  0.1000000000D+01
 ****
     12 0
 S   6 1.00       0.000000000000
      0.3047524880D+04  0.1834737132D-02
      0.4573695180D+03  0.1403732281D-01
      0.1039486850D+03  0.6884262226D-01
      0.2921015530D+02  0.2321844432D+00
      0.9286662960D+01  0.4679413484D+00
      0.3163926960D+01  0.3623119853D+00
 SP   3 1.00       0.000000000000
      0.7868272350D+01 -0.1193324198D+00  0.6899906659D-01
      0.1881288540D+01 -0.1608541517D+00  0.3164239610D+00
      0.5442492580D+00  0.1143456438D+01  0.7443082909D+00
 SP   1 1.00       0.000000000000
      0.1687144782D+00  0.1000000000D+01  0.1000000000D+01
 D   1 1.00       0.000000000000
      0.8000000000D+00  0.1000000000D+01
 ****
     13 0
 S   6 1.00       0.000000000000
      0.3047524880D+04  0.1834737132D-02
      0.4573695180D+03  0.1403732281D-01
      0.1039486850D+03  0.6884262226D-01
      0.2921015530D+02  0.2321844432D+00
      0.9286662960D+01  0.4679413484D+00
      0.3163926960D+01  0.3623119853D+00
 SP   3 1.00       0.000000000000
      0.7868272350D+01 -0.1193324198D+00  0.6899906659D-01
      0.1881288540D+01 -0.1608541517D+00  0.3164239610D+00
      0.5442492580D+00  0.1143456438D+01  0.7443082909D+00
 SP   1 1.00       0.000000000000
      0.1687144782D+00  0.1000000000D+01  0.1000000000D+01
 D   1 1.00       0.000000000000
      0.8000000000D+00  0.1000000000D+01
 ****
     14 0
 S   6 1.00       0.000000000000
      0.3047524880D+04  0.1834737132D-02
      0.4573695180D+03  0.1403732281D-01
      0.1039486850D+03  0.6884262226D-01
      0.2921015530D+02  0.2321844432D+00
      0.9286662960D+01  0.4679413484D+00
      0.3163926960D+01  0.3623119853D+00
 SP   3 1.00       0.000000000000
      0.7868272350D+01 -0.1193324198D+00  0.6899906659D-01
      0.1881288540D+01 -0.1608541517D+00  0.3164239610D+00
      0.5442492580D+00  0.1143456438D+01  0.7443082909D+00
 SP   1 1.00       0.000000000000
      0.1687144782D+00  0.1000000000D+01  0.1000000000D+01
 D   1 1.00       0.000000000000
      0.8000000000D+00  0.1000000000D+01
 ****
     15 0
 S   6 1.00       0.000000000000
      0.3047524880D+04  0.1834737132D-02
      0.4573695180D+03  0.1403732281D-01
      0.1039486850D+03  0.6884262226D-01
      0.2921015530D+02  0.2321844432D+00
      0.9286662960D+01  0.4679413484D+00
      0.3163926960D+01  0.3623119853D+00
 SP   3 1.00       0.000000000000
      0.7868272350D+01 -0.1193324198D+00  0.6899906659D-01
      0.1881288540D+01 -0.1608541517D+00  0.3164239610D+00
      0.5442492580D+00  0.1143456438D+01  0.7443082909D+00
 SP   1 1.00       0.000000000000
      0.1687144782D+00  0.1000000000D+01  0.1000000000D+01
 D   1 1.00       0.000000000000
      0.8000000000D+00  0.1000000000D+01
 ****
     16 0
 S   6 1.00       0.000000000000
      0.3047524880D+04  0.1834737132D-02
      0.4573695180D+03  0.1403732281D-01
      0.1039486850D+03  0.6884262226D-01
      0.2921015530D+02  0.2321844432D+00
      0.9286662960D+01  0.4679413484D+00
      0.3163926960D+01  0.3623119853D+00
 SP   3 1.00       0.000000000000
      0.7868272350D+01 -0.1193324198D+00  0.6899906659D-01
      0.1881288540D+01 -0.1608541517D+00  0.3164239610D+00
      0.5442492580D+00  0.1143456438D+01  0.7443082909D+00
 SP   1 1.00       0.000000000000
      0.1687144782D+00  0.1000000000D+01  0.1000000000D+01
 D   1 1.00       0.000000000000
      0.8000000000D+00  0.1000000000D+01
 ****
     17 0
 S   6 1.00       0.000000000000
      0.3047524880D+04  0.1834737132D-02
      0.4573695180D+03  0.1403732281D-01
      0.1039486850D+03  0.6884262226D-01
      0.2921015530D+02  0.2321844432D+00
      0.9286662960D+01  0.4679413484D+00
      0.3163926960D+01  0.3623119853D+00
 SP   3 1.00       0.000000000000
      0.7868272350D+01 -0.1193324198D+00  0.6899906659D-01
      0.1881288540D+01 -0.1608541517D+00  0.3164239610D+00
      0.5442492580D+00  0.1143456438D+01  0.7443082909D+00
 SP   1 1.00       0.000000000000
      0.1687144782D+00  0.1000000000D+01  0.1000000000D+01
 D   1 1.00       0.000000000000
      0.8000000000D+00  0.1000000000D+01
 ****
     18 0
 S   6 1.00       0.000000000000
      0.4173511460D+04  0.1834772160D-02
      0.6274579110D+03  0.1399462700D-01
      0.1429020930D+03  0.6858655181D-01
      0.4023432930D+02  0.2322408730D+00
      0.1282021290D+02  0.4690699481D+00
      0.4390437010D+01  0.3604551991D+00
 SP   3 1.00       0.000000000000
      0.1162636186D+02 -0.1149611817D+00  0.6757974388D-01
      0.2716279807D+01 -0.1691174786D+00  0.3239072959D+00
      0.7722183966D+00  0.1145851947D+01  0.7408951398D+00
 SP   1 1.00       0.000000000000
      0.2120314975D+00  0.1000000000D+01  0.1000000000D+01
 D   1 1.00       0.000000000000
      0.8000000000D+00  0.1000000000D+01
 ****
     19 0
 S   6 1.00       0.000000000000
      0.3047524880D+04  0.1834737132D-02
      0.4573695180D+03  0.1403732281D-01
      0.1039486850D+03  0.6884262226D-01
      0.2921015530D+02  0.2321844432D+00
      0.9286662960D+01  0.4679413484D+00
      0.3163926960D+01  0.3623119853D+00
 SP   3 1.00       0.000000000000
      0.7868272350D+01 -0.1193324198D+00  0.6899906659D-01
      0.1881288540D+01 -0.1608541517D+00  0.3164239610D+00
      0.5442492580D+00  0.1143456438D+01  0.7443082909D+00
 SP   1 1.00       0.000000000000
      0.1687144782D+00  0.1000000000D+01  0.1000000000D+01
 D   1 1.00       0.000000000000
      0.8000000000D+00  0.1000000000D+01
 ****
     20 0
 S   6 1.00       0.000000000000
      0.3047524880D+04  0.1834737132D-02
      0.4573695180D+03  0.1403732281D-01
      0.1039486850D+03  0.6884262226D-01
      0.2921015530D+02  0.2321844432D+00
      0.9286662960D+01  0.4679413484D+00
      0.3163926960D+01  0.3623119853D+00
 SP   3 1.00       0.000000000000
      0.7868272350D+01 -0.1193324198D+00  0.6899906659D-01
      0.1881288540D+01 -0.1608541517D+00  0.3164239610D+00
      0.5442492580D+00  0.1143456438D+01  0.7443082909D+00
 SP   1 1.00       0.000000000000
      0.1687144782D+00  0.1000000000D+01  0.1000000000D+01
 D   1 1.00       0.000000000000
      0.8000000000D+00  0.1000000000D+01
 ****
     21 0
 S   6 1.00       0.000000000000
      0.4173511460D+04  0.1834772160D-02
      0.6274579110D+03  0.1399462700D-01
      0.1429020930D+03  0.6858655181D-01
      0.4023432930D+02  0.2322408730D+00
      0.1282021290D+02  0.4690699481D+00
      0.4390437010D+01  0.3604551991D+00
 SP   3 1.00       0.000000000000
      0.1162636186D+02 -0.1149611817D+00  0.6757974388D-01
      0.2716279807D+01 -0.1691174786D+00  0.3239072959D+00
      0.7722183966D+00  0.1145851947D+01  0.7408951398D+00
 SP   1 1.00       0.000000000000
      0.2120314975D+00  0.1000000000D+01  0.1000000000D+01
 D   1 1.00       0.000000000000
      0.8000000000D+00  0.1000000000D+01
 ****
     22 0
 S   6 1.00       0.000000000000
      0.3047524880D+04  0.1834737132D-02
      0.4573695180D+03  0.1403732281D-01
      0.1039486850D+03  0.6884262226D-01
      0.2921015530D+02  0.2321844432D+00
      0.9286662960D+01  0.4679413484D+00
      0.3163926960D+01  0.3623119853D+00
 SP   3 1.00       0.000000000000
      0.7868272350D+01 -0.1193324198D+00  0.6899906659D-01
      0.1881288540D+01 -0.1608541517D+00  0.3164239610D+00
      0.5442492580D+00  0.1143456438D+01  0.7443082909D+00
 SP   1 1.00       0.000000000000
      0.1687144782D+00  0.1000000000D+01  0.1000000000D+01
 D   1 1.00       0.000000000000
      0.8000000000D+00  0.1000000000D+01
 ****
     23 0
 S   6 1.00       0.000000000000
      0.3047524880D+04  0.1834737132D-02
      0.4573695180D+03  0.1403732281D-01
      0.1039486850D+03  0.6884262226D-01
      0.2921015530D+02  0.2321844432D+00
      0.9286662960D+01  0.4679413484D+00
      0.3163926960D+01  0.3623119853D+00
 SP   3 1.00       0.000000000000
      0.7868272350D+01 -0.1193324198D+00  0.6899906659D-01
      0.1881288540D+01 -0.1608541517D+00  0.3164239610D+00
      0.5442492580D+00  0.1143456438D+01  0.7443082909D+00
 SP   1 1.00       0.000000000000
      0.1687144782D+00  0.1000000000D+01  0.1000000000D+01
 D   1 1.00       0.000000000000
      0.8000000000D+00  0.1000000000D+01
 ****
     24 0
 S   6 1.00       0.000000000000
      0.3047524880D+04  0.1834737132D-02
      0.4573695180D+03  0.1403732281D-01
      0.1039486850D+03  0.6884262226D-01
      0.2921015530D+02  0.2321844432D+00
      0.9286662960D+01  0.4679413484D+00
      0.3163926960D+01  0.3623119853D+00
 SP   3 1.00       0.000000000000
      0.7868272350D+01 -0.1193324198D+00  0.6899906659D-01
      0.1881288540D+01 -0.1608541517D+00  0.3164239610D+00
      0.5442492580D+00  0.1143456438D+01  0.7443082909D+00
 SP   1 1.00       0.000000000000
      0.1687144782D+00  0.1000000000D+01  0.1000000000D+01
 D   1 1.00       0.000000000000
      0.8000000000D+00  0.1000000000D+01
 ****
     25 0
 S   6 1.00       0.000000000000
      0.3047524880D+04  0.1834737132D-02
      0.4573695180D+03  0.1403732281D-01
      0.1039486850D+03  0.6884262226D-01
      0.2921015530D+02  0.2321844432D+00
      0.9286662960D+01  0.4679413484D+00
      0.3163926960D+01  0.3623119853D+00
 SP   3 1.00       0.000000000000
      0.7868272350D+01 -0.1193324198D+00  0.6899906659D-01
      0.1881288540D+01 -0.1608541517D+00  0.3164239610D+00
      0.5442492580D+00  0.1143456438D+01  0.7443082909D+00
 SP   1 1.00       0.000000000000
      0.1687144782D+00  0.1000000000D+01  0.1000000000D+01
 D   1 1.00       0.000000000000
      0.8000000000D+00  0.1000000000D+01
 ****
     26 0
 S   6 1.00       0.000000000000
      0.3047524880D+04  0.1834737132D-02
      0.4573695180D+03  0.1403732281D-01
      0.1039486850D+03  0.6884262226D-01
      0.2921015530D+02  0.2321844432D+00
      0.9286662960D+01  0.4679413484D+00
      0.3163926960D+01  0.3623119853D+00
 SP   3 1.00       0.000000000000
      0.7868272350D+01 -0.1193324198D+00  0.6899906659D-01
      0.1881288540D+01 -0.1608541517D+00  0.3164239610D+00
      0.5442492580D+00  0.1143456438D+01  0.7443082909D+00
 SP   1 1.00       0.000000000000
      0.1687144782D+00  0.1000000000D+01  0.1000000000D+01
 D   1 1.00       0.000000000000
      0.8000000000D+00  0.1000000000D+01
 ****
     27 0
 S   6 1.00       0.000000000000
      0.3047524880D+04  0.1834737132D-02
      0.4573695180D+03  0.1403732281D-01
      0.1039486850D+03  0.6884262226D-01
      0.2921015530D+02  0.2321844432D+00
      0.9286662960D+01  0.4679413484D+00
      0.3163926960D+01  0.3623119853D+00
 SP   3 1.00       0.000000000000
      0.7868272350D+01 -0.1193324198D+00  0.6899906659D-01
      0.1881288540D+01 -0.1608541517D+00  0.3164239610D+00
      0.5442492580D+00  0.1143456438D+01  0.7443082909D+00
 SP   1 1.00       0.000000000000
      0.1687144782D+00  0.1000000000D+01  0.1000000000D+01
 D   1 1.00       0.000000000000
      0.8000000000D+00  0.1000000000D+01
 ****
     28 0
 S   6 1.00       0.000000000000
      0.4173511460D+04  0.1834772160D-02
      0.6274579110D+03  0.1399462700D-01
      0.1429020930D+03  0.6858655181D-01
      0.4023432930D+02  0.2322408730D+00
      0.1282021290D+02  0.4690699481D+00
      0.4390437010D+01  0.3604551991D+00
 SP   3 1.00       0.000000000000
      0.1162636186D+02 -0.1149611817D+00  0.6757974388D-01
      0.2716279807D+01 -0.1691174786D+00  0.3239072959D+00
      0.7722183966D+00  0.1145851947D+01  0.7408951398D+00
 SP   1 1.00       0.000000000000
      0.2120314975D+00  0.1000000000D+01  0.1000000000D+01
 D   1 1.00       0.000000000000
      0.8000000000D+00  0.1000000000D+01
 ****
     29 0
 S   6 1.00       0.000000000000
      0.3047524880D+04  0.1834737132D-02
      0.4573695180D+03  0.1403732281D-01
      0.1039486850D+03  0.6884262226D-01
      0.2921015530D+02  0.2321844432D+00
      0.9286662960D+01  0.4679413484D+00
      0.3163926960D+01  0.3623119853D+00
 SP   3 1.00       0.000000000000
      0.7868272350D+01 -0.1193324198D+00  0.6899906659D-01
      0.1881288540D+01 -0.1608541517D+00  0.3164239610D+00
      0.5442492580D+00  0.1143456438D+01  0.7443082909D+00
 SP   1 1.00       0.000000000000
      0.1687144782D+00  0.1000000000D+01  0.1000000000D+01
 D   1 1.00       0.000000000000
      0.8000000000D+00  0.1000000000D+01
 ****
     30 0
 S   6 1.00       0.000000000000
      0.3047524880D+04  0.1834737132D-02
      0.4573695180D+03  0.1403732281D-01
      0.1039486850D+03  0.6884262226D-01
      0.2921015530D+02  0.2321844432D+00
      0.9286662960D+01  0.4679413484D+00
      0.3163926960D+01  0.3623119853D+00
 SP   3 1.00       0.000000000000
      0.7868272350D+01 -0.1193324198D+00  0.6899906659D-01
      0.1881288540D+01 -0.1608541517D+00  0.3164239610D+00
      0.5442492580D+00  0.1143456438D+01  0.7443082909D+00
 SP   1 1.00       0.000000000000
      0.1687144782D+00  0.1000000000D+01  0.1000000000D+01
 D   1 1.00       0.000000000000
      0.8000000000D+00  0.1000000000D+01
 ****
     31 0
 S   6 1.00       0.000000000000
      0.3047524880D+04  0.1834737132D-02
      0.4573695180D+03  0.1403732281D-01
      0.1039486850D+03  0.6884262226D-01
      0.2921015530D+02  0.2321844432D+00
      0.9286662960D+01  0.4679413484D+00
      0.3163926960D+01  0.3623119853D+00
 SP   3 1.00       0.000000000000
      0.7868272350D+01 -0.1193324198D+00  0.6899906659D-01
      0.1881288540D+01 -0.1608541517D+00  0.3164239610D+00
      0.5442492580D+00  0.1143456438D+01  0.7443082909D+00
 SP   1 1.00       0.000000000000
      0.1687144782D+00  0.1000000000D+01  0.1000000000D+01
 D   1 1.00       0.000000000000
      0.8000000000D+00  0.1000000000D+01
 ****
     32 0
 S   6 1.00       0.000000000000
      0.5484671660D+04  0.1831074430D-02
      0.8252349460D+03  0.1395017220D-01
      0.1880469580D+03  0.6844507810D-01
      0.5296450000D+02  0.2327143360D+00
      0.1689757040D+02  0.4701928980D+00
      0.5799635340D+01  0.3585208530D+00
 SP   3 1.00       0.000000000000
      0.1553961625D+02 -0.1107775495D+00  0.7087426823D-01
      0.3599933586D+01 -0.1480262627D+00  0.3397528391D+00
      0.1013761750D+01  0.1130767015D+01  0.7271585773D+00
 SP   1 1.00       0.000000000000
      0.2700058226D+00  0.1000000000D+01  0.1000000000D+01
 D   1 1.00       0.000000000000
      0.8000000000D+00  0.1000000000D+01
 ****
     33 0
 S   6 1.00       0.000000000000
      0.3047524880D+04  0.1834737132D-02
      0.4573695180D+03  0.1403732281D-01
      0.1039486850D+03  0.6884262226D-01
      0.2921015530D+02  0.2321844432D+00
      0.9286662960D+01  0.4679413484D+00
      0.3163926960D+01  0.3623119853D+00
 SP   3 1.00       0.000000000000
      0.7868272350D+01 -0.1193324198D+00  0.6899906659D-01
      0.1881288540D+01 -0.1608541517D+00  0.3164239610D+00
      0.5442492580D+00  0.1143456438D+01  0.7443082909D+00
 SP   1 1.00       0.000000000000
      0.1687144782D+00  0.1000000000D+01  0.1000000000D+01
 D   1 1.00       0.000000000000
      0.8000000000D+00  0.1000000000D+01
 ****
     34 0
 S   6 1.00       0.000000000000
      0.4173511460D+04  0.1834772160D-02
      0.6274579110D+03  0.1399462700D-01
      0.1429020930D+03  0.6858655181D-01
      0.4023432930D+02  0.2322408730D+00
      0.1282021290D+02  0.4690699481D+00
      0.4390437010D+01  0.3604551991D+00
 SP   3 1.00       0.000000000000
      0.1162636186D+02 -0.1149611817D+00  0.6757974388D-01
      0.2716279807D+01 -0.1691174786D+00  0.3239072959D+00
      0.7722183966D+00  0.1145851947D+01  0.7408951398D+00
 SP   1 1.00       0.000000000000
      0.2120314975D+00  0.1000000000D+01  0.1000000000D+01
 D   1 1.00       0.000000000000
      0.8000000000D+00  0.1000000000D+01
 ****
     35 0
 S   3 1.00       0.000000000000
      0.1873113696D+02  0.3349460434D-01
      0.2825394365D+01  0.2347269535D+00
      0.6401216923D+00  0.8137573261D+00
 S   1 1.00       0.000000000000
      0.1612777588D+00  0.1000000000D+01
 ****
     36 0
 S   3 1.00       0.000000000000
      0.1873113696D+02  0.3349460434D-01
      0.2825394365D+01  0.2347269535D+00
      0.6401216923D+00  0.8137573261D+00
 S   1 1.00       0.000000000000
      0.1612777588D+00  0.1000000000D+01
 ****
     37 0
 S   3 1.00       0.000000000000
      0.1873113696D+02  0.3349460434D-01
      0.2825394365D+01  0.2347269535D+00
      0.6401216923D+00  0.8137573261D+00
 S   1 1.00       0.000000000000
      0.1612777588D+00  0.1000000000D+01
 ****
     38 0
 S   3 1.00       0.000000000000
      0.1873113696D+02  0.3349460434D-01
      0.2825394365D+01  0.2347269535D+00
      0.6401216923D+00  0.8137573261D+00
 S   1 1.00       0.000000000000
      0.1612777588D+00  0.1000000000D+01
 ****
     39 0
 S   3 1.00       0.000000000000
      0.1873113696D+02  0.3349460434D-01
      0.2825394365D+01  0.2347269535D+00
      0.6401216923D+00  0.8137573261D+00
 S   1 1.00       0.000000000000
      0.1612777588D+00  0.1000000000D+01
 ****
     40 0
 S   3 1.00       0.000000000000
      0.1873113696D+02  0.3349460434D-01
      0.2825394365D+01  0.2347269535D+00
      0.6401216923D+00  0.8137573261D+00
 S   1 1.00       0.000000000000
      0.1612777588D+00  0.1000000000D+01
 ****
     41 0
 S   3 1.00       0.000000000000
      0.1873113696D+02  0.3349460434D-01
      0.2825394365D+01  0.2347269535D+00
      0.6401216923D+00  0.8137573261D+00
 S   1 1.00       0.000000000000
      0.1612777588D+00  0.1000000000D+01
 ****
     42 0
 S   3 1.00       0.000000000000
      0.1873113696D+02  0.3349460434D-01
      0.2825394365D+01  0.2347269535D+00
      0.6401216923D+00  0.8137573261D+00
 S   1 1.00       0.000000000000
      0.1612777588D+00  0.1000000000D+01
 ****
     43 0
 S   3 1.00       0.000000000000
      0.1873113696D+02  0.3349460434D-01
      0.2825394365D+01  0.2347269535D+00
      0.6401216923D+00  0.8137573261D+00
 S   1 1.00       0.000000000000
      0.1612777588D+00  0.1000000000D+01
 ****
     44 0
 S   3 1.00       0.000000000000
      0.1873113696D+02  0.3349460434D-01
      0.2825394365D+01  0.2347269535D+00
      0.6401216923D+00  0.8137573261D+00
 S   1 1.00       0.000000000000
      0.1612777588D+00  0.1000000000D+01
 ****
     45 0
 S   3 1.00       0.000000000000
      0.1873113696D+02  0.3349460434D-01
      0.2825394365D+01  0.2347269535D+00
      0.6401216923D+00  0.8137573261D+00
 S   1 1.00       0.000000000000
      0.1612777588D+00  0.1000000000D+01
 ****
     46 0
 S   3 1.00       0.000000000000
      0.1873113696D+02  0.3349460434D-01
      0.2825394365D+01  0.2347269535D+00
      0.6401216923D+00  0.8137573261D+00
 S   1 1.00       0.000000000000
      0.1612777588D+00  0.1000000000D+01
 ****
     47 0
 S   3 1.00       0.000000000000
      0.1873113696D+02  0.3349460434D-01
      0.2825394365D+01  0.2347269535D+00
      0.6401216923D+00  0.8137573261D+00
 S   1 1.00       0.000000000000
      0.1612777588D+00  0.1000000000D+01
 ****
     48 0
 S   3 1.00       0.000000000000
      0.1873113696D+02  0.3349460434D-01
      0.2825394365D+01  0.2347269535D+00
      0.6401216923D+00  0.8137573261D+00
 S   1 1.00       0.000000000000
      0.1612777588D+00  0.1000000000D+01
 ****
     49 0
 S   3 1.00       0.000000000000
      0.1873113696D+02  0.3349460434D-01
      0.2825394365D+01  0.2347269535D+00
      0.6401216923D+00  0.8137573261D+00
 S   1 1.00       0.000000000000
      0.1612777588D+00  0.1000000000D+01
 ****
     50 0
 S   3 1.00       0.000000000000
      0.1873113696D+02  0.3349460434D-01
      0.2825394365D+01  0.2347269535D+00
      0.6401216923D+00  0.8137573261D+00
 S   1 1.00       0.000000000000
      0.1612777588D+00  0.1000000000D+01
 ****
     51 0
 S   3 1.00       0.000000000000
      0.1873113696D+02  0.3349460434D-01
      0.2825394365D+01  0.2347269535D+00
      0.6401216923D+00  0.8137573261D+00
 S   1 1.00       0.000000000000
      0.1612777588D+00  0.1000000000D+01
 ****
     52 0
 S   3 1.00       0.000000000000
      0.1873113696D+02  0.3349460434D-01
      0.2825394365D+01  0.2347269535D+00
      0.6401216923D+00  0.8137573261D+00
 S   1 1.00       0.000000000000
      0.1612777588D+00  0.1000000000D+01
 ****
     53 0
 S   3 1.00       0.000000000000
      0.1873113696D+02  0.3349460434D-01
      0.2825394365D+01  0.2347269535D+00
      0.6401216923D+00  0.8137573261D+00
 S   1 1.00       0.000000000000
      0.1612777588D+00  0.1000000000D+01
 ****
     54 0
 S   3 1.00       0.000000000000
      0.1873113696D+02  0.3349460434D-01
      0.2825394365D+01  0.2347269535D+00
      0.6401216923D+00  0.8137573261D+00
 S   1 1.00       0.000000000000
      0.1612777588D+00  0.1000000000D+01
 ****
     55 0
 S   3 1.00       0.000000000000
      0.1873113696D+02  0.3349460434D-01
      0.2825394365D+01  0.2347269535D+00
      0.6401216923D+00  0.8137573261D+00
 S   1 1.00       0.000000000000
      0.1612777588D+00  0.1000000000D+01
 ****
     56 0
 S   3 1.00       0.000000000000
      0.1873113696D+02  0.3349460434D-01
      0.2825394365D+01  0.2347269535D+00
      0.6401216923D+00  0.8137573261D+00
 S   1 1.00       0.000000000000
      0.1612777588D+00  0.1000000000D+01
 ****
     57 0
 S   3 1.00       0.000000000000
      0.1873113696D+02  0.3349460434D-01
      0.2825394365D+01  0.2347269535D+00
      0.6401216923D+00  0.8137573261D+00
 S   1 1.00       0.000000000000
      0.1612777588D+00  0.1000000000D+01
 ****
     58 0
 S   3 1.00       0.000000000000
      0.1873113696D+02  0.3349460434D-01
      0.2825394365D+01  0.2347269535D+00
      0.6401216923D+00  0.8137573261D+00
 S   1 1.00       0.000000000000
      0.1612777588D+00  0.1000000000D+01
 ****
     59 0
 S   3 1.00       0.000000000000
      0.1873113696D+02  0.3349460434D-01
      0.2825394365D+01  0.2347269535D+00
      0.6401216923D+00  0.8137573261D+00
 S   1 1.00       0.000000000000
      0.1612777588D+00  0.1000000000D+01
 ****
     60 0
 S   3 1.00       0.000000000000
      0.1873113696D+02  0.3349460434D-01
      0.2825394365D+01  0.2347269535D+00
      0.6401216923D+00  0.8137573261D+00
 S   1 1.00       0.000000000000
      0.1612777588D+00  0.1000000000D+01
 ****
     61 0
 S   3 1.00       0.000000000000
      0.1873113696D+02  0.3349460434D-01
      0.2825394365D+01  0.2347269535D+00
      0.6401216923D+00  0.8137573261D+00
 S   1 1.00       0.000000000000
      0.1612777588D+00  0.1000000000D+01
 ****
     62 0
 S   3 1.00       0.000000000000
      0.1873113696D+02  0.3349460434D-01
      0.2825394365D+01  0.2347269535D+00
      0.6401216923D+00  0.8137573261D+00
 S   1 1.00       0.000000000000
      0.1612777588D+00  0.1000000000D+01
 ****
     63 0
 S   3 1.00       0.000000000000
      0.1873113696D+02  0.3349460434D-01
      0.2825394365D+01  0.2347269535D+00
      0.6401216923D+00  0.8137573261D+00
 S   1 1.00       0.000000000000
      0.1612777588D+00  0.1000000000D+01
 ****
     64 0
 S   3 1.00       0.000000000000
      0.1873113696D+02  0.3349460434D-01
      0.2825394365D+01  0.2347269535D+00
      0.6401216923D+00  0.8137573261D+00
 S   1 1.00       0.000000000000
      0.1612777588D+00  0.1000000000D+01
 ****
     65 0
 S   3 1.00       0.000000000000
      0.1873113696D+02  0.3349460434D-01
      0.2825394365D+01  0.2347269535D+00
      0.6401216923D+00  0.8137573261D+00
 S   1 1.00       0.000000000000
      0.1612777588D+00  0.1000000000D+01
 ****

   572 basis functions,  1076 primitive gaussians,   572 cartesian basis functions
   121 alpha electrons      121 beta electrons
       nuclear repulsion energy      3309.9195161358 Hartrees.
 IExCor=  402 DFT=T Ex+Corr=B3LYP ExCW=0 ScaHFX=  0.200000
 ScaDFX=  0.800000  0.720000  1.000000  0.810000 ScalE2=  1.000000  1.000000
 IRadAn=      5 IRanWt=     -1 IRanGd=            0 ICorTp=0 IEmpDi=  4
 NAtoms=   65 NActive=   65 NUniq=   65 SFac= 1.00D+00 NAtFMM=   60 NAOKFM=T Big=T
 Integral buffers will be    131072 words long.
 Regular integral format.
 Two-electron integral symmetry is turned off.
 Leave Link  301 at Sat Nov  5 12:06:34 2022, MaxMem=   402653184 cpu:               0.7 elap:               0.1
 (Enter /home/wykgroup/appl/g16/l302.exe)
 NPDir=0 NMtPBC=     1 NCelOv=     1 NCel=       1 NClECP=     1 NCelD=      1
         NCelK=      1 NCelE2=     1 NClLst=     1 CellRange=     0.0.
 One-electron integrals computed using PRISM.
 NBasis=   572 RedAO= T EigKep=  3.27D-04  NBF=   572
 NBsUse=   572 1.00D-06 EigRej= -1.00D+00 NBFU=   572
 Precomputing XC quadrature grid using
 IXCGrd= 4 IRadAn=           5 IRanWt=          -1 IRanGd=           0 AccXCQ= 0.00D+00.
 Generated NRdTot=       0 NPtTot=           0 NUsed=           0 NTot=          32
 NSgBfM=   539   539   539   539   539 MxSgAt=    65 MxSgA2=    65.
 Leave Link  302 at Sat Nov  5 12:06:35 2022, MaxMem=   402653184 cpu:              11.1 elap:               0.8
 (Enter /home/wykgroup/appl/g16/l303.exe)
 DipDrv:  MaxL=1.
 Leave Link  303 at Sat Nov  5 12:06:35 2022, MaxMem=   402653184 cpu:               0.9 elap:               0.1
 (Enter /home/wykgroup/appl/g16/l308.exe)
 Leave Link  308 at Sat Nov  5 12:06:36 2022, MaxMem=   402653184 cpu:               0.9 elap:               0.1
 (Enter /home/wykgroup/appl/g16/l401.exe)
 ExpMin= 1.61D-01 ExpMax= 5.48D+03 ExpMxC= 8.25D+02 IAcc=3 IRadAn=         5 AccDes= 0.00D+00
 Harris functional with IExCor=  402 and IRadAn=       5 diagonalized for initial guess.
 HarFok:  IExCor=  402 AccDes= 0.00D+00 IRadAn=         5 IDoV= 1 UseB2=F ITyADJ=14
 ICtDFT=  3500011 ScaDFX=  1.000000  1.000000  1.000000  1.000000
 FoFCou: FMM=F IPFlag=           0 FMFlag=      100000 FMFlg1=        2001
         NFxFlg=           0 DoJE=T BraDBF=F KetDBF=T FulRan=T
         wScrn=  0.000000 ICntrl=       500 IOpCl=  0 I1Cent=   200000004 NGrid=           0
         NMat0=    1 NMatS0=      1 NMatT0=    0 NMatD0=    1 NMtDS0=    0 NMtDT0=    0
 Symmetry not used in FoFCou.
 Harris En= -1434.59861797333    
 JPrj=0 DoOrth=F DoCkMO=F.
 Leave Link  401 at Sat Nov  5 12:06:38 2022, MaxMem=   402653184 cpu:              35.2 elap:               2.5
 (Enter /home/wykgroup/appl/g16/l502.exe)
 Two-electron integral symmetry not used.
 Closed shell SCF:
 Using DIIS extrapolation, IDIIS=  1040.
 NGot=   402653184 LenX=   401985767 LenY=   401658011
 Requested convergence on RMS density matrix=1.00D-08 within  32 cycles.
 Requested convergence on MAX density matrix=1.00D-06.
 Requested convergence on             energy=1.00D-06.
 No special actions if energy rises.
 Fock matrices will be formed incrementally for  20 cycles.
 Integral accuracy reduced to 1.0D-05 until final iterations.

 Cycle   1  Pass 0  IDiag  1:
 FoFJK:  IHMeth= 1 ICntrl=       0 DoSepK=F KAlg= 0 I1Cent=           0 FoldK=F
 IRaf= 850000000 NMat=       1 IRICut=       1 DoRegI=T DoRafI=F ISym2E= 0 IDoP0=0 IntGTp=1.
 FoFCou: FMM=T IPFlag=           0 FMFlag=      100000 FMFlg1=        2001
         NFxFlg=           0 DoJE=F BraDBF=F KetDBF=F FulRan=T
         wScrn=  0.000000 ICntrl=         0 IOpCl=  0 I1Cent=           0 NGrid=           0
         NMat0=    1 NMatS0=      1 NMatT0=    0 NMatD0=    1 NMtDS0=    0 NMtDT0=    0
 Symmetry not used in FoFCou.
 FMM levels:  10  Number of levels for PrismC:   9
 E= -1433.90347658547    
 DIIS: error= 1.77D-02 at cycle   1 NSaved=   1.
 NSaved= 1 IEnMin= 1 EnMin= -1433.90347658547     IErMin= 1 ErrMin= 1.77D-02
 ErrMax= 1.77D-02  0.00D+00 EMaxC= 1.00D-01 BMatC= 7.29D-01 BMatP= 7.29D-01
 IDIUse=3 WtCom= 8.23D-01 WtEn= 1.77D-01
 Coeff-Com:  0.100D+01
 Coeff-En:   0.100D+01
 Coeff:      0.100D+01
 Gap=     0.168 Goal=   None    Shift=    0.000
 GapD=    0.168 DampG=1.000 DampE=0.500 DampFc=0.5000 IDamp=-1.
 Damping current iteration by 5.00D-01
 RMSDP=3.79D-03 MaxDP=2.18D-01              OVMax= 3.05D-01

 Cycle   2  Pass 0  IDiag  1:
 RMSU=  1.87D-03    CP:  9.76D-01
 E= -1434.19814530854     Delta-E=       -0.294668723063 Rises=F Damp=T
 DIIS: error= 1.02D-02 at cycle   2 NSaved=   2.
 NSaved= 2 IEnMin= 2 EnMin= -1434.19814530854     IErMin= 2 ErrMin= 1.02D-02
 ErrMax= 1.02D-02  0.00D+00 EMaxC= 1.00D-01 BMatC= 8.26D-02 BMatP= 7.29D-01
 IDIUse=3 WtCom= 8.98D-01 WtEn= 1.02D-01
 Coeff-Com:  0.118D+00 0.882D+00
 Coeff-En:   0.185D+00 0.815D+00
 Coeff:      0.125D+00 0.875D+00
 Gap=     0.220 Goal=   None    Shift=    0.000
 RMSDP=1.23D-03 MaxDP=9.78D-02 DE=-2.95D-01 OVMax= 2.47D-01

 Cycle   3  Pass 0  IDiag  1:
 RMSU=  1.17D-03    CP:  9.63D-01  8.32D-01
 E= -1434.54924681919     Delta-E=       -0.351101510655 Rises=F Damp=F
 DIIS: error= 1.65D-02 at cycle   3 NSaved=   3.
 NSaved= 3 IEnMin= 3 EnMin= -1434.54924681919     IErMin= 2 ErrMin= 1.02D-02
 ErrMax= 1.65D-02  0.00D+00 EMaxC= 1.00D-01 BMatC= 1.14D-01 BMatP= 8.26D-02
 IDIUse=2 WtCom= 0.00D+00 WtEn= 1.00D+00
 Coeff-En:   0.000D+00 0.000D+00 0.100D+01
 Coeff:      0.000D+00 0.000D+00 0.100D+01
 Gap=     0.157 Goal=   None    Shift=    0.000
 RMSDP=2.10D-03 MaxDP=2.33D-01 DE=-3.51D-01 OVMax= 3.48D-01

 Cycle   4  Pass 0  IDiag  1:
 RMSU=  1.24D-03    CP:  9.69D-01  1.24D+00 -2.89D-01
 E= -1434.04933628639     Delta-E=        0.499910532803 Rises=F Damp=F
 DIIS: error= 4.20D-02 at cycle   4 NSaved=   4.
 NSaved= 4 IEnMin= 3 EnMin= -1434.54924681919     IErMin= 2 ErrMin= 1.02D-02
 ErrMax= 4.20D-02  0.00D+00 EMaxC= 1.00D-01 BMatC= 6.92D-01 BMatP= 8.26D-02
 IDIUse=2 WtCom= 0.00D+00 WtEn= 1.00D+00
 Coeff-En:   0.000D+00 0.000D+00 0.799D+00 0.201D+00
 Coeff:      0.000D+00 0.000D+00 0.799D+00 0.201D+00
 Gap=     0.166 Goal=   None    Shift=    0.000
 RMSDP=1.17D-03 MaxDP=1.55D-01 DE= 5.00D-01 OVMax= 1.85D-01

 Cycle   5  Pass 0  IDiag  1:
 RMSU=  2.51D-04    CP:  9.67D-01  9.74D-01  3.70D-01  4.50D-01
 E= -1434.60554613669     Delta-E=       -0.556209850298 Rises=F Damp=F
 DIIS: error= 9.32D-03 at cycle   5 NSaved=   5.
 NSaved= 5 IEnMin= 5 EnMin= -1434.60554613669     IErMin= 5 ErrMin= 9.32D-03
 ErrMax= 9.32D-03  0.00D+00 EMaxC= 1.00D-01 BMatC= 5.10D-02 BMatP= 8.26D-02
 IDIUse=3 WtCom= 9.07D-01 WtEn= 9.32D-02
 Coeff-Com:  0.428D-02 0.220D-01 0.363D+00-0.332D-01 0.644D+00
 Coeff-En:   0.000D+00 0.000D+00 0.355D+00 0.000D+00 0.645D+00
 Coeff:      0.389D-02 0.199D-01 0.362D+00-0.301D-01 0.644D+00
 Gap=     0.143 Goal=   None    Shift=    0.000
 RMSDP=4.36D-04 MaxDP=3.49D-02 DE=-5.56D-01 OVMax= 7.04D-02

 Cycle   6  Pass 0  IDiag  1:
 RMSU=  1.06D-04    CP:  9.66D-01  9.00D-01  6.29D-01  2.58D-01  5.77D-01
 E= -1434.65074611630     Delta-E=       -0.045199979613 Rises=F Damp=F
 DIIS: error= 1.60D-03 at cycle   6 NSaved=   6.
 NSaved= 6 IEnMin= 6 EnMin= -1434.65074611630     IErMin= 6 ErrMin= 1.60D-03
 ErrMax= 1.60D-03  0.00D+00 EMaxC= 1.00D-01 BMatC= 1.25D-03 BMatP= 5.10D-02
 IDIUse=3 WtCom= 9.84D-01 WtEn= 1.60D-02
 Coeff-Com: -0.121D-02 0.837D-02 0.166D+00-0.569D-01 0.450D+00 0.435D+00
 Coeff-En:   0.000D+00 0.000D+00 0.000D+00 0.000D+00 0.000D+00 0.100D+01
 Coeff:     -0.119D-02 0.823D-02 0.163D+00-0.560D-01 0.442D+00 0.444D+00
 Gap=     0.144 Goal=   None    Shift=    0.000
 RMSDP=7.25D-05 MaxDP=3.55D-03 DE=-4.52D-02 OVMax= 1.56D-02

 Cycle   7  Pass 0  IDiag  1:
 RMSU=  2.60D-05    CP:  9.66D-01  9.09D-01  6.16D-01  2.65D-01  7.12D-01
                    CP:  4.96D-01
 E= -1434.65193064013     Delta-E=       -0.001184523831 Rises=F Damp=F
 DIIS: error= 2.29D-04 at cycle   7 NSaved=   7.
 NSaved= 7 IEnMin= 7 EnMin= -1434.65193064013     IErMin= 7 ErrMin= 2.29D-04
 ErrMax= 2.29D-04  0.00D+00 EMaxC= 1.00D-01 BMatC= 5.28D-05 BMatP= 1.25D-03
 IDIUse=3 WtCom= 9.98D-01 WtEn= 2.29D-03
 Coeff-Com: -0.449D-03 0.253D-02 0.665D-01-0.277D-01 0.190D+00 0.228D+00
 Coeff-Com:  0.541D+00
 Coeff-En:   0.000D+00 0.000D+00 0.000D+00 0.000D+00 0.000D+00 0.000D+00
 Coeff-En:   0.100D+01
 Coeff:     -0.448D-03 0.252D-02 0.664D-01-0.277D-01 0.190D+00 0.228D+00
 Coeff:      0.542D+00
 Gap=     0.143 Goal=   None    Shift=    0.000
 RMSDP=1.83D-05 MaxDP=1.15D-03 DE=-1.18D-03 OVMax= 3.73D-03

 Cycle   8  Pass 0  IDiag  1:
 RMSU=  1.13D-05    CP:  9.66D-01  9.07D-01  6.19D-01  2.64D-01  7.08D-01
                    CP:  5.35D-01  5.13D-01
 E= -1434.65197441718     Delta-E=       -0.000043777045 Rises=F Damp=F
 DIIS: error= 9.98D-05 at cycle   8 NSaved=   8.
 NSaved= 8 IEnMin= 8 EnMin= -1434.65197441718     IErMin= 8 ErrMin= 9.98D-05
 ErrMax= 9.98D-05  0.00D+00 EMaxC= 1.00D-01 BMatC= 1.19D-05 BMatP= 5.28D-05
 IDIUse=1 WtCom= 1.00D+00 WtEn= 0.00D+00
 Coeff-Com:  0.239D-03-0.529D-03 0.144D-01-0.673D-02 0.374D-01 0.623D-01
 Coeff-Com:  0.359D+00 0.534D+00
 Coeff:      0.239D-03-0.529D-03 0.144D-01-0.673D-02 0.374D-01 0.623D-01
 Coeff:      0.359D+00 0.534D+00
 Gap=     0.143 Goal=   None    Shift=    0.000
 RMSDP=7.47D-06 MaxDP=5.36D-04 DE=-4.38D-05 OVMax= 1.00D-03

 Initial convergence to 1.0D-05 achieved.  Increase integral accuracy.
 Cycle   9  Pass 1  IDiag  1:
 E= -1434.65203614957     Delta-E=       -0.000061732393 Rises=F Damp=F
 DIIS: error= 9.03D-05 at cycle   1 NSaved=   1.
 NSaved= 1 IEnMin= 1 EnMin= -1434.65203614957     IErMin= 1 ErrMin= 9.03D-05
 ErrMax= 9.03D-05  0.00D+00 EMaxC= 1.00D-01 BMatC= 4.89D-06 BMatP= 4.89D-06
 IDIUse=1 WtCom= 1.00D+00 WtEn= 0.00D+00
 Coeff-Com:  0.100D+01
 Coeff:      0.100D+01
 Gap=     0.143 Goal=   None    Shift=    0.000
 RMSDP=7.47D-06 MaxDP=5.36D-04 DE=-6.17D-05 OVMax= 7.98D-04

 Cycle  10  Pass 1  IDiag  1:
 RMSU=  4.58D-05    CP:  1.00D+00
 E= -1434.65203782054     Delta-E=       -0.000001670968 Rises=F Damp=F
 DIIS: error= 5.01D-05 at cycle   2 NSaved=   2.
 NSaved= 2 IEnMin= 2 EnMin= -1434.65203782054     IErMin= 2 ErrMin= 5.01D-05
 ErrMax= 5.01D-05  0.00D+00 EMaxC= 1.00D-01 BMatC= 2.80D-06 BMatP= 4.89D-06
 IDIUse=1 WtCom= 1.00D+00 WtEn= 0.00D+00
 Coeff-Com:  0.400D+00 0.600D+00
 Coeff:      0.400D+00 0.600D+00
 Gap=     0.143 Goal=   None    Shift=    0.000
 RMSDP=5.66D-06 MaxDP=4.43D-04 DE=-1.67D-06 OVMax= 1.24D-03

 Cycle  11  Pass 1  IDiag  1:
 RMSU=  5.64D-06    CP:  1.00D+00  9.91D-01
 E= -1434.65203836226     Delta-E=       -0.000000541720 Rises=F Damp=F
 DIIS: error= 4.72D-05 at cycle   3 NSaved=   3.
 NSaved= 3 IEnMin= 3 EnMin= -1434.65203836226     IErMin= 3 ErrMin= 4.72D-05
 ErrMax= 4.72D-05  0.00D+00 EMaxC= 1.00D-01 BMatC= 2.18D-06 BMatP= 2.80D-06
 IDIUse=1 WtCom= 1.00D+00 WtEn= 0.00D+00
 Coeff-Com:  0.236D-01 0.463D+00 0.513D+00
 Coeff:      0.236D-01 0.463D+00 0.513D+00
 Gap=     0.143 Goal=   None    Shift=    0.000
 RMSDP=3.15D-06 MaxDP=2.65D-04 DE=-5.42D-07 OVMax= 7.55D-04

 Cycle  12  Pass 1  IDiag  1:
 RMSU=  1.16D-06    CP:  1.00D+00  1.00D+00  4.92D-01
 E= -1434.65204037152     Delta-E=       -0.000002009268 Rises=F Damp=F
 DIIS: error= 9.97D-06 at cycle   4 NSaved=   4.
 NSaved= 4 IEnMin= 4 EnMin= -1434.65204037152     IErMin= 4 ErrMin= 9.97D-06
 ErrMax= 9.97D-06  0.00D+00 EMaxC= 1.00D-01 BMatC= 1.09D-07 BMatP= 2.18D-06
 IDIUse=1 WtCom= 1.00D+00 WtEn= 0.00D+00
 Coeff-Com: -0.276D-02 0.264D+00 0.324D+00 0.415D+00
 Coeff:     -0.276D-02 0.264D+00 0.324D+00 0.415D+00
 Gap=     0.143 Goal=   None    Shift=    0.000
 RMSDP=6.93D-07 MaxDP=4.38D-05 DE=-2.01D-06 OVMax= 1.43D-04

 Cycle  13  Pass 1  IDiag  1:
 RMSU=  1.90D-07    CP:  1.00D+00  1.00D+00  5.33D-01  4.59D-01
 E= -1434.65204047891     Delta-E=       -0.000000107388 Rises=F Damp=F
 DIIS: error= 1.76D-06 at cycle   5 NSaved=   5.
 NSaved= 5 IEnMin= 5 EnMin= -1434.65204047891     IErMin= 5 ErrMin= 1.76D-06
 ErrMax= 1.76D-06  0.00D+00 EMaxC= 1.00D-01 BMatC= 1.94D-09 BMatP= 1.09D-07
 IDIUse=1 WtCom= 1.00D+00 WtEn= 0.00D+00
 Coeff-Com: -0.211D-02 0.150D+00 0.185D+00 0.251D+00 0.416D+00
 Coeff:     -0.211D-02 0.150D+00 0.185D+00 0.251D+00 0.416D+00
 Gap=     0.143 Goal=   None    Shift=    0.000
 RMSDP=1.03D-07 MaxDP=4.70D-06 DE=-1.07D-07 OVMax= 1.33D-05

 Cycle  14  Pass 1  IDiag  1:
 RMSU=  6.37D-08    CP:  1.00D+00  1.00D+00  5.32D-01  4.55D-01  5.81D-01
 E= -1434.65204048086     Delta-E=       -0.000000001944 Rises=F Damp=F
 DIIS: error= 2.46D-07 at cycle   6 NSaved=   6.
 NSaved= 6 IEnMin= 6 EnMin= -1434.65204048086     IErMin= 6 ErrMin= 2.46D-07
 ErrMax= 2.46D-07  0.00D+00 EMaxC= 1.00D-01 BMatC= 9.74D-11 BMatP= 1.94D-09
 IDIUse=1 WtCom= 1.00D+00 WtEn= 0.00D+00
 Coeff-Com: -0.102D-02 0.680D-01 0.836D-01 0.117D+00 0.236D+00 0.497D+00
 Coeff:     -0.102D-02 0.680D-01 0.836D-01 0.117D+00 0.236D+00 0.497D+00
 Gap=     0.143 Goal=   None    Shift=    0.000
 RMSDP=2.36D-08 MaxDP=1.03D-06 DE=-1.94D-09 OVMax= 3.03D-06

 Cycle  15  Pass 1  IDiag  1:
 RMSU=  1.90D-08    CP:  1.00D+00  1.00D+00  5.31D-01  4.55D-01  6.11D-01
                    CP:  8.03D-01
 E= -1434.65204048097     Delta-E=       -0.000000000117 Rises=F Damp=F
 DIIS: error= 8.91D-08 at cycle   7 NSaved=   7.
 NSaved= 7 IEnMin= 7 EnMin= -1434.65204048097     IErMin= 7 ErrMin= 8.91D-08
 ErrMax= 8.91D-08  0.00D+00 EMaxC= 1.00D-01 BMatC= 8.59D-12 BMatP= 9.74D-11
 IDIUse=1 WtCom= 1.00D+00 WtEn= 0.00D+00
 Coeff-Com: -0.182D-03 0.107D-01 0.128D-01 0.201D-01 0.488D-01 0.244D+00
 Coeff-Com:  0.664D+00
 Coeff:     -0.182D-03 0.107D-01 0.128D-01 0.201D-01 0.488D-01 0.244D+00
 Coeff:      0.664D+00
 Gap=     0.143 Goal=   None    Shift=    0.000
 RMSDP=7.89D-09 MaxDP=5.39D-07 DE=-1.17D-10 OVMax= 1.21D-06

 SCF Done:  E(RB3LYP) =  -1434.65204048     A.U. after   15 cycles
            NFock= 15  Conv=0.79D-08     -V/T= 2.0096
 KE= 1.420943322304D+03 PE=-9.948066334036D+03 EE= 3.782551455116D+03
 Leave Link  502 at Sat Nov  5 12:07:38 2022, MaxMem=   402653184 cpu:             804.3 elap:              59.0
 (Enter /home/wykgroup/appl/g16/l508.exe)
 QCSCF skips out because SCF is already converged.
 Leave Link  508 at Sat Nov  5 12:07:38 2022, MaxMem=   402653184 cpu:               0.2 elap:               0.1
 (Enter /home/wykgroup/appl/g16/l801.exe)
 DoSCS=F DFT=T ScalE2(SS,OS)=  1.000000  1.000000
 ExpMin= 1.61D-01 ExpMax= 5.48D+03 ExpMxC= 8.25D+02 IAcc=3 IRadAn=         5 AccDes= 0.00D+00
 HarFok:  IExCor=  205 AccDes= 0.00D+00 IRadAn=         5 IDoV=-2 UseB2=F ITyADJ=14
 ICtDFT= 12500011 ScaDFX=  1.000000  1.000000  1.000000  1.000000
 GSVD:  LWork=       -1428 too small for GESVD, short by        6290 words or        6290 for optimal perf.
 Largest valence mixing into a core orbital is  5.80D-05
 Largest core mixing into a valence orbital is  1.53D-05
 Range of M.O.s used for correlation:    35   572
 NBasis=   572 NAE=   121 NBE=   121 NFC=    34 NFV=     0
 NROrb=    538 NOA=    87 NOB=    87 NVA=   451 NVB=   451

 **** Warning!!: The largest alpha MO coefficient is  0.10181652D+02

 Leave Link  801 at Sat Nov  5 12:07:38 2022, MaxMem=   402653184 cpu:               2.8 elap:               0.2
 (Enter /home/wykgroup/appl/g16/l914.exe)
 RHF ground state
 Two-electron integral symmetry not used.
 MDV=   402653184 DFT=T DoStab=F Mixed=T DoRPA=T DoScal=F NonHer=T
 Making orbital integer symmetry assigments:
    16 initial guesses have been made.
 Convergence on wavefunction:    0.001000000000000
 Davidson Disk Diagonalization:  ConvIn= 1.00D-03 SkipCon=T Conv= 1.00D-03.
 Max sub-space:  2000 roots to seek:    16 dimension of matrix:        78474
 Iteration     1 Dimension    16 NMult     0 NNew     16
 CISAX will form    16 AO SS matrices at one time.
 NMat=    16 NSing=     8 JSym2X= 0.
 FoFJK:  IHMeth= 1 ICntrl=       0 DoSepK=F KAlg= 0 I1Cent=           0 FoldK=F
 IRaf= 850000000 NMat=      32 IRICut=       1 DoRegI=T DoRafI=F ISym2E= 0 IDoP0=0 IntGTp=1.
 FoFCou: FMM=T IPFlag=           0 FMFlag=      100000 FMFlg1=        2001
         NFxFlg=           0 DoJE=F BraDBF=F KetDBF=F FulRan=T
         wScrn=  0.000000 ICntrl=         0 IOpCl=  0 I1Cent=           0 NGrid=           0
         NMat0=   32 NMatS0=      8 NMatT0=    8 NMatD0=   32 NMtDS0=    0 NMtDT0=    0
 Symmetry not used in FoFCou.
 FMM levels:  10  Number of levels for PrismC:   9
 New state      1 was old state      4
 New state      2 was old state      6
 New state      3 was old state     12
 New state      4 was old state     14
 New state      5 was old state      1
 New state      6 was old state      2
 New state      7 was old state     13
 New state      8 was old state      7
 Excitation Energies [eV] at current iteration:
 Root      1 :     2.748658310502346
 Root      2 :     3.073656233226695
 Root      3 :     3.478408332847627
 Root      4 :     3.573924957632810
 Root      5 :     3.655846868030835
 Root      6 :     3.655909214539045
 Root      7 :     3.902976453671681
 Root      8 :     4.283739774097540
 Root      9 :     4.283757089773185
 Root     10 :     4.337459238068349
 Root     11 :     4.409257982443147
 Root     12 :     4.608643156859921
 Root     13 :     4.608781452088358
 Root     14 :     5.039628512860962
 Root     15 :     5.050179207995145
 Root     16 :     5.369448283321139
 Vector   3 SDiff=1.53D-01 TDiff=1.23D+01 assumed to be singlet.
 Vector   4 SDiff=2.42D+00 TDiff=3.43D+00 assumed to be singlet.
 Vector   7 SDiff=1.54D-01 TDiff=1.17D+01 assumed to be singlet.
 Vector   8 SDiff=2.63D+00 TDiff=2.97D+00 assumed to be singlet.
 Iteration     2 Dimension    24 NMult    16 NNew      8
 CISAX will form     8 AO SS matrices at one time.
 NMat=     8 NSing=     4 JSym2X= 0.
 Root      1 not converged, maximum delta is    0.057643084317818
 Root      2 not converged, maximum delta is    0.189262783688460
 New state      3 was old state      5
 Root      3 not converged, maximum delta is    0.007163754037020
 New state      4 was old state      7
 Root      4 not converged, maximum delta is    0.061253891227317
 Excitation Energies [eV] at current iteration:
 Root      1 :     2.582714951730725   Change is   -0.165943358771621
 Root      2 :     2.789921083347672   Change is   -0.283735149879022
 Root      3 :     3.655506833576706   Change is   -0.000340034454130
 Root      4 :     3.817793538749201   Change is   -0.085182914922481
 Iteration     3 Dimension    32 NMult    24 NNew      8
 CISAX will form     8 AO SS matrices at one time.
 NMat=     8 NSing=     4 JSym2X= 0.
 Root      1 not converged, maximum delta is    0.049879691450858
 Root      2 not converged, maximum delta is    0.145706600889909
 Root      3 not converged, maximum delta is    0.572170458734143
 Root      4 not converged, maximum delta is    0.637382691128001
 Excitation Energies [eV] at current iteration:
 Root      1 :     2.558727145359679   Change is   -0.023987806371046
 Root      2 :     2.677615815406832   Change is   -0.112305267940841
 Root      3 :     3.649051163110574   Change is   -0.006455670466131
 Root      4 :     3.656682045350047   Change is   -0.161111493399154
 Iteration     4 Dimension    40 NMult    32 NNew      8
 CISAX will form     8 AO SS matrices at one time.
 NMat=     8 NSing=     4 JSym2X= 0.
 Root      1 not converged, maximum delta is    0.023539117131333
 Root      2 not converged, maximum delta is    0.017373190722985
 Root      3 not converged, maximum delta is    0.259454432027203
 Root      4 not converged, maximum delta is    0.229304651396419
 Excitation Energies [eV] at current iteration:
 Root      1 :     2.553425161363059   Change is   -0.005301983996620
 Root      2 :     2.668654415732584   Change is   -0.008961399674247
 Root      3 :     3.564345555406066   Change is   -0.084705607704508
 Root      4 :     3.655549817702818   Change is   -0.001132227647230
 Iteration     5 Dimension    48 NMult    40 NNew      8
 CISAX will form     8 AO SS matrices at one time.
 NMat=     8 NSing=     4 JSym2X= 0.
 Root      1 not converged, maximum delta is    0.006590490196195
 Root      2 not converged, maximum delta is    0.006393373528810
 Root      3 not converged, maximum delta is    0.016758818263053
 Root      4 not converged, maximum delta is    0.003126975193660
 Excitation Energies [eV] at current iteration:
 Root      1 :     2.552778889561322   Change is   -0.000646271801737
 Root      2 :     2.667698752346042   Change is   -0.000955663386542
 Root      3 :     3.547117672988882   Change is   -0.017227882417184
 Root      4 :     3.655535006149161   Change is   -0.000014811553657
 Iteration     6 Dimension    56 NMult    48 NNew      8
 CISAX will form     8 AO SS matrices at one time.
 NMat=     8 NSing=     4 JSym2X= 0.
 Root      1 not converged, maximum delta is    0.001313735665003
 Root      2 not converged, maximum delta is    0.003379920783554
 Root      3 not converged, maximum delta is    0.014914196239335
 Root      4 has converged.
 Excitation Energies [eV] at current iteration:
 Root      1 :     2.552712532373512   Change is   -0.000066357187810
 Root      2 :     2.667545310856094   Change is   -0.000153441489948
 Root      3 :     3.543897441634495   Change is   -0.003220231354387
 Root      4 :     3.655532397978737   Change is   -0.000002608170424
 Iteration     7 Dimension    62 NMult    56 NNew      6
 CISAX will form     6 AO SS matrices at one time.
 NMat=     6 NSing=     2 JSym2X= 0.
 Root      1 has converged.
 Root      2 has converged.
 Root      3 not converged, maximum delta is    0.006817796994049
 Root      4 has converged.
 Excitation Energies [eV] at current iteration:
 Root      1 :     2.552707989592693   Change is   -0.000004542780819
 Root      2 :     2.667531709658826   Change is   -0.000013601197268
 Root      3 :     3.543233647784608   Change is   -0.000663793849888
 Root      4 :     3.655531776187976   Change is   -0.000000621790760
 Iteration     8 Dimension    64 NMult    62 NNew      2
 CISAX will form     2 AO SS matrices at one time.
 NMat=     2 NSing=     2 JSym2X= 0.
 Root      1 has converged.
 Root      2 has converged.
 Root      3 not converged, maximum delta is    0.004065024781088
 Root      4 has converged.
 Excitation Energies [eV] at current iteration:
 Root      1 :     2.552707989592629   Change is   -0.000000000000064
 Root      2 :     2.667531709658949   Change is    0.000000000000123
 Root      3 :     3.543097831303208   Change is   -0.000135816481400
 Root      4 :     3.655531558206185   Change is   -0.000000217981792
 Iteration     9 Dimension    66 NMult    64 NNew      2
 CISAX will form     2 AO SS matrices at one time.
 NMat=     2 NSing=     2 JSym2X= 0.
 Root      1 has converged.
 Root      2 has converged.
 Root      3 not converged, maximum delta is    0.002192679677675
 Root      4 has converged.
 Excitation Energies [eV] at current iteration:
 Root      1 :     2.552707989592500   Change is   -0.000000000000129
 Root      2 :     2.667531709658826   Change is   -0.000000000000123
 Root      3 :     3.543071022373427   Change is   -0.000026808929781
 Root      4 :     3.655531436747792   Change is   -0.000000121458393
 Iteration    10 Dimension    68 NMult    66 NNew      2
 CISAX will form     2 AO SS matrices at one time.
 NMat=     2 NSing=     2 JSym2X= 0.
 Root      1 has converged.
 Root      2 has converged.
 Root      3 has converged.
 Root      4 has converged.
 Excitation Energies [eV] at current iteration:
 Root      1 :     2.552707989592629   Change is    0.000000000000129
 Root      2 :     2.667531709658826   Change is    0.000000000000000
 Root      3 :     3.543065583035327   Change is   -0.000005439338100
 Root      4 :     3.655531358166447   Change is   -0.000000078581345
 Convergence achieved on expansion vectors.
 ***********************************************************************
 Excited states from <AA,BB:AA,BB> singles matrix:
 ***********************************************************************
 
 1PDM for each excited state written to RWF  633
 Ground to excited state transition densities written to RWF  633
 Ground to excited state transition electric dipole moments (Au):
       state          X           Y           Z        Dip. S.      Osc.
         1        -0.0000      0.0000     -0.0000      0.0000      0.0000
         2         0.0000     -0.0000     -0.0000      0.0000      0.0000
         3         1.1259     -0.1546     -0.5348      1.5775      0.1369
         4        -0.0134      0.0036      0.0083      0.0003      0.0000
 Ground to excited state transition velocity dipole moments (Au):
       state          X           Y           Z        Dip. S.      Osc.
         1         0.0000     -0.0000      0.0000      0.0000      0.0000
         2        -0.0000      0.0000     -0.0000      0.0000      0.0000
         3        -0.1383      0.0276      0.0745      0.0254      0.1303
         4         0.0017     -0.0008     -0.0010      0.0000      0.0000
 Ground to excited state transition magnetic dipole moments (Au):
       state          X           Y           Z
         1         0.0000      0.0000     -0.0000
         2        -0.0000      0.0000      0.0000
         3         0.2526     -1.5014      0.9717
         4        -0.0071      0.0257     -0.0212
 Ground to excited state transition velocity quadrupole moments (Au):
       state          XX          YY          ZZ          XY          XZ          YZ
         1         0.0000     -0.0000      0.0000     -0.0000     -0.0000     -0.0000
         2         0.0000      0.0000      0.0000      0.0000     -0.0000     -0.0000
         3        -2.4696      0.1308      0.0790      0.3725      0.9663      0.0891
         4         0.0569     -0.0045     -0.0002     -0.0102     -0.0131     -0.0011
 <0|del|b> * <b|rxdel|0> + <0|del|b> * <b|delr+rdel|0>
 Rotatory Strengths (R) in cgs (10**-40 erg-esu-cm/Gauss)
       state          XX          YY          ZZ    R(velocity)    E-M Angle
         1        -0.0000     -0.0000     -0.0000     -0.0000       90.00
         2        -0.0000     -0.0000      0.0000     -0.0000       90.00
         3        87.4112     -7.0173   -101.4523     -7.0195       90.77
         4        -0.0030     -0.0068     -0.0542     -0.0213       90.00
 1/2[<0|r|b>*<b|rxdel|0> + (<0|rxdel|b>*<b|r|0>)*]
 Rotatory Strengths (R) in cgs (10**-40 erg-esu-cm/Gauss)
       state          XX          YY          ZZ     R(length)
         1         0.0000     -0.0000     -0.0000     -0.0000
         2         0.0000      0.0000      0.0000      0.0000
         3      -201.0824   -164.1063    367.5159      0.7757
         4        -0.0668     -0.0658      0.1239     -0.0029
  1/2[<0|del|b>*<b|r|0> + (<0|r|b>*<b|del|0>)*] (Au)
       state          X           Y           Z        Dip. S.   Osc.(frdel)
         1        -0.0000     -0.0000     -0.0000      0.0000      0.0000
         2        -0.0000     -0.0000      0.0000      0.0000      0.0000
         3        -0.1557     -0.0043     -0.0399      0.1998      0.1332
         4        -0.0000     -0.0000     -0.0000      0.0000      0.0000

 Excitation energies and oscillator strengths:
 
 Excited state symmetry could not be determined.
 Excited State   1:      Triplet-?Sym    2.5527 eV  485.70 nm  f=0.0000  <S**2>=2.000
     120 ->122         0.68181
     120 ->124         0.10077
 This state for optimization and/or second-order correction.
 Total Energy, E(TD-HF/TD-DFT) =  -1434.55823019    
 Copying the excited state density for this state as the 1-particle RhoCI density.
 
 Excited state symmetry could not be determined.
 Excited State   2:      Triplet-?Sym    2.6675 eV  464.79 nm  f=0.0000  <S**2>=2.000
     119 ->123        -0.28456
     121 ->123         0.61179
     121 ->125         0.15803
 
 Excited state symmetry could not be determined.
 Excited State   3:      Singlet-?Sym    3.5431 eV  349.93 nm  f=0.1369  <S**2>=0.000
     120 ->122         0.69159
 
 Excited state symmetry could not be determined.
 Excited State   4:      Singlet-?Sym    3.6555 eV  339.17 nm  f=0.0000  <S**2>=0.000
     121 ->122         0.70660
 SavETr:  write IOETrn=   770 NScale= 10 NData=  16 NLR=1 NState=    4 LETran=      82.
 Leave Link  914 at Sat Nov  5 12:16:55 2022, MaxMem=   402653184 cpu:            7473.4 elap:             556.7
 (Enter /home/wykgroup/appl/g16/l601.exe)
 Copying SCF densities to generalized density rwf, IOpCl= 0 IROHF=0.

 **********************************************************************

            Population analysis using the SCF Density.

 **********************************************************************

 Alpha  occ. eigenvalues --  -19.11367 -14.36895 -14.35465 -14.35051 -14.33235
 Alpha  occ. eigenvalues --  -14.31403 -10.28585 -10.25607 -10.23697 -10.23255
 Alpha  occ. eigenvalues --  -10.23105 -10.22599 -10.22374 -10.22055 -10.21406
 Alpha  occ. eigenvalues --  -10.21319 -10.21310 -10.20667 -10.20143 -10.20115
 Alpha  occ. eigenvalues --  -10.19696 -10.19199 -10.19049 -10.19036 -10.18915
 Alpha  occ. eigenvalues --  -10.18613 -10.18520 -10.18502 -10.18345 -10.18249
 Alpha  occ. eigenvalues --  -10.18090 -10.18010 -10.17691 -10.17614  -1.03391
 Alpha  occ. eigenvalues --   -0.97895  -0.94704  -0.93662  -0.93630  -0.88566
 Alpha  occ. eigenvalues --   -0.84630  -0.83908  -0.82828  -0.80639  -0.78672
 Alpha  occ. eigenvalues --   -0.76631  -0.76554  -0.75086  -0.74538  -0.73554
 Alpha  occ. eigenvalues --   -0.71113  -0.70424  -0.69384  -0.66877  -0.65537
 Alpha  occ. eigenvalues --   -0.63462  -0.63342  -0.62064  -0.61555  -0.61538
 Alpha  occ. eigenvalues --   -0.59549  -0.58915  -0.56178  -0.53938  -0.53419
 Alpha  occ. eigenvalues --   -0.52729  -0.52403  -0.51895  -0.50922  -0.50205
 Alpha  occ. eigenvalues --   -0.49879  -0.49277  -0.48104  -0.47134  -0.46553
 Alpha  occ. eigenvalues --   -0.46142  -0.45568  -0.45238  -0.44429  -0.44089
 Alpha  occ. eigenvalues --   -0.43708  -0.43089  -0.42609  -0.42346  -0.42172
 Alpha  occ. eigenvalues --   -0.42062  -0.41608  -0.41344  -0.41112  -0.40487
 Alpha  occ. eigenvalues --   -0.39998  -0.39586  -0.39119  -0.38647  -0.37940
 Alpha  occ. eigenvalues --   -0.37875  -0.37305  -0.36822  -0.36015  -0.35671
 Alpha  occ. eigenvalues --   -0.35358  -0.35151  -0.34934  -0.34343  -0.34157
 Alpha  occ. eigenvalues --   -0.33605  -0.32983  -0.32576  -0.32094  -0.31429
 Alpha  occ. eigenvalues --   -0.29989  -0.29073  -0.28609  -0.26670  -0.25301
 Alpha  occ. eigenvalues --   -0.24178  -0.23190  -0.22930  -0.22512  -0.19373
 Alpha  occ. eigenvalues --   -0.18935
 Alpha virt. eigenvalues --   -0.04611  -0.02646   0.00471   0.00779   0.01937
 Alpha virt. eigenvalues --    0.02938   0.05176   0.05750   0.07527   0.09352
 Alpha virt. eigenvalues --    0.09919   0.10138   0.10916   0.11045   0.11284
 Alpha virt. eigenvalues --    0.11863   0.12647   0.12826   0.13509   0.13952
 Alpha virt. eigenvalues --    0.14639   0.15019   0.15079   0.15506   0.15650
 Alpha virt. eigenvalues --    0.15816   0.15836   0.16244   0.16345   0.16699
 Alpha virt. eigenvalues --    0.17060   0.17512   0.17640   0.17939   0.18388
 Alpha virt. eigenvalues --    0.18781   0.18939   0.19002   0.19147   0.19394
 Alpha virt. eigenvalues --    0.20284   0.20760   0.20851   0.21106   0.21413
 Alpha virt. eigenvalues --    0.21552   0.22515   0.23233   0.24007   0.24374
 Alpha virt. eigenvalues --    0.24581   0.25086   0.25974   0.26204   0.27094
 Alpha virt. eigenvalues --    0.27635   0.28200   0.28722   0.29469   0.30540
 Alpha virt. eigenvalues --    0.31158   0.31646   0.31889   0.32862   0.33790
 Alpha virt. eigenvalues --    0.35028   0.35229   0.35956   0.36332   0.39123
 Alpha virt. eigenvalues --    0.39790   0.40577   0.41372   0.42597   0.45249
 Alpha virt. eigenvalues --    0.46671   0.47462   0.48005   0.48294   0.49266
 Alpha virt. eigenvalues --    0.50191   0.50576   0.51266   0.51611   0.51824
 Alpha virt. eigenvalues --    0.52006   0.52351   0.52998   0.53738   0.54041
 Alpha virt. eigenvalues --    0.54364   0.54993   0.55234   0.55635   0.56086
 Alpha virt. eigenvalues --    0.56348   0.56908   0.57527   0.57717   0.58096
 Alpha virt. eigenvalues --    0.58521   0.59252   0.59586   0.60379   0.60456
 Alpha virt. eigenvalues --    0.60631   0.60819   0.61219   0.61299   0.62024
 Alpha virt. eigenvalues --    0.62181   0.62420   0.62625   0.63064   0.63309
 Alpha virt. eigenvalues --    0.63775   0.63898   0.64375   0.65172   0.65416
 Alpha virt. eigenvalues --    0.65775   0.65989   0.66412   0.66768   0.67351
 Alpha virt. eigenvalues --    0.68275   0.68629   0.69076   0.69767   0.69933
 Alpha virt. eigenvalues --    0.71654   0.72216   0.73064   0.73963   0.74199
 Alpha virt. eigenvalues --    0.74616   0.76033   0.76895   0.77562   0.78806
 Alpha virt. eigenvalues --    0.79830   0.80188   0.80643   0.81270   0.81468
 Alpha virt. eigenvalues --    0.81687   0.82055   0.82917   0.83208   0.83671
 Alpha virt. eigenvalues --    0.84226   0.84378   0.84860   0.85031   0.85087
 Alpha virt. eigenvalues --    0.85388   0.85733   0.86078   0.86451   0.86536
 Alpha virt. eigenvalues --    0.87336   0.87453   0.87612   0.87908   0.88051
 Alpha virt. eigenvalues --    0.88786   0.89571   0.89900   0.90576   0.90655
 Alpha virt. eigenvalues --    0.91160   0.91964   0.92347   0.92504   0.93132
 Alpha virt. eigenvalues --    0.93671   0.94419   0.94879   0.95414   0.95808
 Alpha virt. eigenvalues --    0.95845   0.96574   0.96788   0.97770   0.98107
 Alpha virt. eigenvalues --    0.98185   0.98585   0.99388   0.99713   1.00209
 Alpha virt. eigenvalues --    1.01301   1.01585   1.02869   1.03544   1.04117
 Alpha virt. eigenvalues --    1.05381   1.05803   1.06271   1.08308   1.08916
 Alpha virt. eigenvalues --    1.09139   1.10280   1.10532   1.11463   1.12179
 Alpha virt. eigenvalues --    1.12727   1.13628   1.13936   1.15923   1.16673
 Alpha virt. eigenvalues --    1.20076   1.20958   1.21851   1.22867   1.24391
 Alpha virt. eigenvalues --    1.24625   1.25285   1.26010   1.26543   1.27306
 Alpha virt. eigenvalues --    1.28885   1.30486   1.31121   1.33353   1.34119
 Alpha virt. eigenvalues --    1.34710   1.36036   1.37020   1.37876   1.38711
 Alpha virt. eigenvalues --    1.39654   1.41127   1.41498   1.42273   1.42572
 Alpha virt. eigenvalues --    1.43155   1.44188   1.44862   1.46434   1.46874
 Alpha virt. eigenvalues --    1.47389   1.47878   1.48048   1.48287   1.50094
 Alpha virt. eigenvalues --    1.50257   1.51036   1.51375   1.52002   1.52900
 Alpha virt. eigenvalues --    1.54486   1.55847   1.56436   1.58394   1.59739
 Alpha virt. eigenvalues --    1.61783   1.63321   1.63947   1.65018   1.65604
 Alpha virt. eigenvalues --    1.67514   1.69097   1.69968   1.71390   1.72094
 Alpha virt. eigenvalues --    1.74536   1.75563   1.75751   1.76149   1.76994
 Alpha virt. eigenvalues --    1.77088   1.78618   1.78865   1.79188   1.80402
 Alpha virt. eigenvalues --    1.81373   1.81506   1.82397   1.82759   1.83843
 Alpha virt. eigenvalues --    1.84668   1.84794   1.85112   1.86670   1.86991
 Alpha virt. eigenvalues --    1.87840   1.89051   1.89177   1.90060   1.90462
 Alpha virt. eigenvalues --    1.90884   1.91809   1.92049   1.92200   1.93148
 Alpha virt. eigenvalues --    1.93751   1.94687   1.95149   1.95916   1.96371
 Alpha virt. eigenvalues --    1.97158   1.97926   1.98439   1.99097   1.99413
 Alpha virt. eigenvalues --    2.00343   2.00629   2.01545   2.01850   2.02443
 Alpha virt. eigenvalues --    2.04560   2.05253   2.05949   2.06244   2.06775
 Alpha virt. eigenvalues --    2.07212   2.08354   2.09840   2.10481   2.11876
 Alpha virt. eigenvalues --    2.12435   2.13691   2.14935   2.15153   2.15897
 Alpha virt. eigenvalues --    2.16582   2.16964   2.18961   2.19430   2.20284
 Alpha virt. eigenvalues --    2.21216   2.22878   2.23244   2.23638   2.24142
 Alpha virt. eigenvalues --    2.24802   2.25588   2.25976   2.26176   2.27196
 Alpha virt. eigenvalues --    2.27969   2.29241   2.29630   2.30924   2.31433
 Alpha virt. eigenvalues --    2.32938   2.33465   2.34584   2.35931   2.36055
 Alpha virt. eigenvalues --    2.36687   2.37130   2.37312   2.38243   2.39243
 Alpha virt. eigenvalues --    2.40343   2.40872   2.42084   2.42771   2.42892
 Alpha virt. eigenvalues --    2.45483   2.46469   2.47811   2.48469   2.49175
 Alpha virt. eigenvalues --    2.50602   2.52648   2.53734   2.54730   2.56210
 Alpha virt. eigenvalues --    2.57814   2.59838   2.60646   2.60737   2.61738
 Alpha virt. eigenvalues --    2.62110   2.63191   2.63438   2.64759   2.65245
 Alpha virt. eigenvalues --    2.65600   2.66344   2.67181   2.67974   2.69365
 Alpha virt. eigenvalues --    2.69673   2.71343   2.73168   2.73335   2.74785
 Alpha virt. eigenvalues --    2.76406   2.76791   2.77821   2.78612   2.78925
 Alpha virt. eigenvalues --    2.79417   2.80630   2.82159   2.84622   2.87426
 Alpha virt. eigenvalues --    2.87849   2.88913   2.89896   2.92668   2.94054
 Alpha virt. eigenvalues --    2.98401   3.00075   3.02063   3.04941   3.06254
 Alpha virt. eigenvalues --    3.08526   3.18213   3.23617   3.27248   3.44156
 Alpha virt. eigenvalues --    3.44670   3.49734   4.01070   4.03518   4.04238
 Alpha virt. eigenvalues --    4.06421   4.09635   4.10216   4.12207   4.13743
 Alpha virt. eigenvalues --    4.15159   4.15936   4.18645   4.19643   4.20430
 Alpha virt. eigenvalues --    4.22904   4.24964   4.26922   4.31007   4.34109
 Alpha virt. eigenvalues --    4.36985   4.38000   4.38737   4.40729   4.42482
 Alpha virt. eigenvalues --    4.46177   4.48269   4.51527   4.55618   4.56471
 Alpha virt. eigenvalues --    4.58312   4.60332   4.67532   4.79954   4.80785
 Alpha virt. eigenvalues --    4.86434
          Condensed to atoms (all electrons):
 Mulliken charges:
               1
     1  C   -0.438566
     2  C    0.012064
     3  C   -0.151771
     4  C   -0.132448
     5  C    0.140332
     6  C   -0.214231
     7  C   -0.135547
     8  C   -0.203253
     9  C    0.121648
    10  C   -0.266385
    11  N   -0.430804
    12  C   -0.119936
    13  C   -0.292367
    14  C   -0.296680
    15  C    0.031866
    16  C   -0.312468
    17  C   -0.132933
    18  N   -0.492571
    19  C    0.528472
    20  C   -0.008199
    21  N   -0.465226
    22  C    0.247570
    23  C   -0.151496
    24  C   -0.145035
    25  C   -0.132666
    26  C   -0.168898
    27  C    0.307431
    28  N   -0.606049
    29  C   -0.133552
    30  C   -0.310027
    31  C    0.602427
    32  O   -0.543073
    33  C    0.225312
    34  N   -0.680146
    35  H    0.146948
    36  H    0.163952
    37  H    0.134409
    38  H    0.137493
    39  H    0.132125
    40  H    0.129222
    41  H    0.124669
    42  H    0.125258
    43  H    0.157786
    44  H    0.130683
    45  H    0.204315
    46  H    0.138546
    47  H    0.168943
    48  H    0.149520
    49  H    0.149370
    50  H    0.142638
    51  H    0.143998
    52  H    0.189093
    53  H    0.140349
    54  H    0.138200
    55  H    0.183709
    56  H    0.144997
    57  H    0.138508
    58  H    0.127621
    59  H    0.128648
    60  H    0.132592
    61  H    0.179262
    62  H    0.151329
    63  H    0.152622
    64  H    0.151630
    65  H    0.308770
 Sum of Mulliken charges =  -0.00000
 Mulliken charges with hydrogens summed into heavy atoms:
               1
     1  C    0.006743
     2  C    0.149557
     3  C   -0.019646
     4  C   -0.003225
     5  C    0.140332
     6  C   -0.089561
     7  C   -0.010289
     8  C   -0.045468
     9  C    0.121648
    10  C    0.068613
    11  N   -0.430804
    12  C    0.187554
    13  C    0.006523
    14  C   -0.010044
    15  C    0.031866
    16  C    0.016974
    17  C    0.188976
    18  N   -0.492571
    19  C    0.528472
    20  C    0.136798
    21  N   -0.465226
    22  C    0.247570
    23  C   -0.012989
    24  C   -0.017415
    25  C   -0.004017
    26  C   -0.036305
    27  C    0.307431
    28  N   -0.606049
    29  C    0.197040
    30  C   -0.005776
    31  C    0.602427
    32  O   -0.543073
    33  C    0.225312
    34  N   -0.371377
 Electronic spatial extent (au):  <R**2>=          27422.4368
 Charge=             -0.0000 electrons
 Dipole moment (field-independent basis, Debye):
    X=             -5.5334    Y=             -3.4479    Z=              2.0327  Tot=              6.8292
 Quadrupole moment (field-independent basis, Debye-Ang):
   XX=           -199.1230   YY=           -203.3553   ZZ=           -189.4363
   XY=             -2.0827   XZ=            -12.1857   YZ=             -1.1139
 Traceless Quadrupole moment (field-independent basis, Debye-Ang):
   XX=             -1.8181   YY=             -6.0505   ZZ=              7.8686
   XY=             -2.0827   XZ=            -12.1857   YZ=             -1.1139
 Octapole moment (field-independent basis, Debye-Ang**2):
  XXX=           -414.4267  YYY=           -102.1132  ZZZ=             -4.9133  XYY=            -82.8244
  XXY=            -68.3252  XXZ=            -25.3949  XZZ=           -113.1739  YZZ=            -28.2046
  YYZ=              2.7439  XYZ=              6.0839
 Hexadecapole moment (field-independent basis, Debye-Ang**3):
 XXXX=         -32051.4518 YYYY=          -1700.6746 ZZZZ=          -1963.6063 XXXY=           -259.6368
 XXXZ=           -842.2608 YYYX=           -492.0985 YYYZ=             94.0902 ZZZX=            -89.6338
 ZZZY=             73.7101 XXYY=          -6241.0155 XXZZ=          -5872.4625 YYZZ=           -622.0779
 XXYZ=             56.8835 YYXZ=            -67.5805 ZZXY=           -227.1231
 N-N= 3.309919516136D+03 E-N=-9.948066368320D+03  KE= 1.420943322304D+03
 Leave Link  601 at Sat Nov  5 12:16:55 2022, MaxMem=   402653184 cpu:               2.0 elap:               0.2
 (Enter /home/wykgroup/appl/g16/l9999.exe)
 Electronic transition elements 
                 1             2             3             4 
      1  -0.143456D+04 -0.143455D+04 -0.143452D+04 -0.143452D+04
      2   0.000000D+00  0.000000D+00  0.112587D+01 -0.133671D-01
      3   0.000000D+00  0.000000D+00 -0.154560D+00  0.361733D-02
      4   0.000000D+00  0.000000D+00 -0.534842D+00  0.827470D-02
      5   0.000000D+00  0.000000D+00 -0.138298D+00  0.166713D-02
      6   0.000000D+00  0.000000D+00  0.275605D-01 -0.845520D-03
      7   0.000000D+00  0.000000D+00  0.745415D-01 -0.101020D-02
      8   0.000000D+00  0.000000D+00  0.252560D+00 -0.706625D-02
      9   0.000000D+00  0.000000D+00 -0.150144D+01  0.257276D-01
     10   0.000000D+00  0.000000D+00  0.971694D+00 -0.211689D-01
     11   0.000000D+00  0.000000D+00 -0.246956D+01  0.569114D-01
     12   0.000000D+00  0.000000D+00  0.130800D+00 -0.452018D-02
     13   0.000000D+00  0.000000D+00  0.789956D-01 -0.151038D-03
     14   0.000000D+00  0.000000D+00  0.372546D+00 -0.102302D-01
     15   0.000000D+00  0.000000D+00  0.966329D+00 -0.131223D-01
     16   0.000000D+00  0.000000D+00  0.890611D-01 -0.111158D-02
 1\1\GINC-NODE61\SP\RB3LYP TD-FC\6-31G(d)\C28H31N5O1\WYKGROUP\05-Nov-20
 22\0\\#p b3lyp/6-31g(d) 6D 10F nosymm GFInput td=(50-50,nstate=2) SCF=
 XQC\\Gaussian input prepared by ASE\\0,1\C,0,-7.4733523551,0.903543546
 5,1.8693815019\C,0,-6.9134670351,-0.3330273995,1.1327888236\C,0,-7.653
 0822915,-0.5818046344,-0.1590342155\C,0,-7.1397503187,-0.2086616062,-1
 .3393827751\C,0,-5.8142418234,0.3913843433,-1.4471353604\C,0,-5.337770
 7633,0.933058168,-2.6430127467\C,0,-4.0605293953,1.4857592354,-2.72244
 31551\C,0,-3.2509901537,1.4808504204,-1.589405387\C,0,-3.6851704292,0.
 936424464,-0.3709493632\C,0,-2.7131984734,0.9485613311,0.796895751\N,0
 ,-1.6838171407,-0.105527765,0.732332417\C,0,-2.1639583484,-1.481062308
 7,0.9090321562\C,0,-1.0324868785,-2.4739295979,1.1506055071\C,0,0.0620
 90575,-2.2582965441,0.1089172029\C,0,0.6613604315,-0.8415887309,0.2065
 148338\C,0,1.5939415558,-0.5570170889,-1.0040940297\C,0,3.0602890891,-
 0.8900281494,-0.7229726185\N,0,3.5680969371,-0.0503174106,0.366455304\
 C,0,4.8800704736,0.3430491245,0.3730621027\C,0,5.3595526361,1.33042123
 73,1.317405646\N,0,6.6055604876,1.7211322289,1.3608210483\C,0,7.472883
 9105,1.1671028305,0.4567403734\C,0,8.8334162499,1.5537455374,0.4629736
 676\C,0,9.7102282054,1.0124623033,-0.4539626288\C,0,9.2488084017,0.070
 4908614,-1.4053069245\C,0,7.9266468822,-0.3217609099,-1.4318217477\C,0
 ,7.0040618236,0.2156980032,-0.4979060427\N,0,5.704574833,-0.1892187799
 ,-0.5214891848\C,0,2.6185315447,0.3434398092,1.4102960562\C,0,1.497747
 7321,-0.6938162249,1.5214089514\C,0,-0.4392594391,0.2446381182,0.26767
 53981\O,0,-0.163278644,1.4138940405,-0.0115431597\C,0,-4.9849828104,0.
 389282449,-0.2926975432\N,0,-5.4730986461,-0.2313310862,0.8562171219\H
 ,0,-8.5412299061,0.7760641436,2.084018939\H,0,-7.3513730247,1.80208761
 59,1.2555761989\H,0,-6.9546394518,1.0586471494,2.8244396844\H,0,-7.042
 0957275,-1.2027207812,1.7930657731\H,0,-8.647291848,-1.0149186462,-0.0
 872438908\H,0,-7.7079662512,-0.3455041116,-2.2572868573\H,0,-5.9869473
 727,0.9219729285,-3.5160078378\H,0,-3.7006685075,1.9140920299,-3.65303
 96653\H,0,-2.2509060404,1.9042192143,-1.6301192215\H,0,-3.2239219068,0
 .848515859,1.7631938093\H,0,-2.1732049271,1.8951231946,0.8133871858\H,
 0,-2.8609688657,-1.4850111183,1.7561006971\H,0,-2.7457691561,-1.778934
 1581,0.0248387689\H,0,-1.4376819301,-3.4907088844,1.0917153578\H,0,-0.
 6294453625,-2.349187373,2.1631996016\H,0,0.8619751152,-3.0023593749,0.
 2140802092\H,0,-0.3675289836,-2.4000022693,-0.8928866268\H,0,1.5189081
 509,0.502199621,-1.2635169093\H,0,1.2594057956,-1.1326202402,-1.875706
 9767\H,0,3.1907094684,-1.957570575,-0.4838748016\H,0,3.6732601977,-0.6
 980063139,-1.6052890958\H,0,4.6769561427,1.8040385251,2.018568836\H,0,
 9.1518561241,2.2814009968,1.2037451401\H,0,10.7558582635,1.3072217772,
 -0.4516611648\H,0,9.9488704756,-0.3479390102,-2.1240533474\H,0,7.55869
 0618,-1.0440409754,-2.1544325131\H,0,2.186293954,1.3335519791,1.209719
 8057\H,0,3.1393188656,0.3920784354,2.3720816824\H,0,0.8548514901,-0.42
 1726526,2.365335919\H,0,1.9446643675,-1.6660993604,1.7666860761\H,0,-4
 .9254085903,-0.0714075673,1.6906172436\\Version=ES64L-G16RevB.01\HF=-1
 434.6520405\RMSD=7.893e-09\PG=C01 [X(C28H31N5O1)]\\@


 MOST BUREAUCRACIES FUNCTION LIKE A SEPTIC TANK.
 THE LARGE CHUNKS RISE TO THE TOP.
 Job cpu time:       0 days  2 hours 18 minutes 59.1 seconds.
 Elapsed time:       0 days  0 hours 10 minutes 20.6 seconds.
 File lengths (MBytes):  RWF=   1942 Int=      0 D2E=      0 Chk=     69 Scr=      1
 Normal termination of Gaussian 16 at Sat Nov  5 12:16:55 2022.
