 Entering Gaussian System, Link 0=/home/wykgroup/appl/g16/g16
 Input=calculation/no_transfer_pubchem_sampling_4_b3lyp/98330511_rwf.com
 Output=calculation/no_transfer_pubchem_sampling_4_b3lyp/98330511_rwf.log
 Initial command:
 /home/wykgroup/appl/g16/l1.exe "/userdata/scratch/wykgroup/khs/calculation/no_transfer_pubchem_sampling_4_b3lyp/98330511_rwf/Gau-26165.inp" -scrdir="/userdata/scratch/wykgroup/khs/calculation/no_transfer_pubchem_sampling_4_b3lyp/98330511_rwf/"
 Entering Link 1 = /home/wykgroup/appl/g16/l1.exe PID=     26166.
  
 Copyright (c) 1988-2017, Gaussian, Inc.  All Rights Reserved.
  
 This is part of the Gaussian(R) 16 program.  It is based on
 the Gaussian(R) 09 system (copyright 2009, Gaussian, Inc.),
 the Gaussian(R) 03 system (copyright 2003, Gaussian, Inc.),
 the Gaussian(R) 98 system (copyright 1998, Gaussian, Inc.),
 the Gaussian(R) 94 system (copyright 1995, Gaussian, Inc.),
 the Gaussian 92(TM) system (copyright 1992, Gaussian, Inc.),
 the Gaussian 90(TM) system (copyright 1990, Gaussian, Inc.),
 the Gaussian 88(TM) system (copyright 1988, Gaussian, Inc.),
 the Gaussian 86(TM) system (copyright 1986, Carnegie Mellon
 University), and the Gaussian 82(TM) system (copyright 1983,
 Carnegie Mellon University). Gaussian is a federally registered
 trademark of Gaussian, Inc.
  
 This software contains proprietary and confidential information,
 including trade secrets, belonging to Gaussian, Inc.
  
 This software is provided under written license and may be
 used, copied, transmitted, or stored only in accord with that
 written license.
  
 The following legend is applicable only to US Government
 contracts under FAR:
  
                    RESTRICTED RIGHTS LEGEND
  
 Use, reproduction and disclosure by the US Government is
 subject to restrictions as set forth in subparagraphs (a)
 and (c) of the Commercial Computer Software - Restricted
 Rights clause in FAR 52.227-19.
  
 Gaussian, Inc.
 340 Quinnipiac St., Bldg. 40, Wallingford CT 06492
  
  
 ---------------------------------------------------------------
 Warning -- This program may not be used in any manner that
 competes with the business of Gaussian, Inc. or will provide
 assistance to any competitor of Gaussian, Inc.  The licensee
 of this program is prohibited from giving any competitor of
 Gaussian, Inc. access to this program.  By using this program,
 the user acknowledges that Gaussian, Inc. is engaged in the
 business of creating and licensing software in the field of
 computational chemistry and represents and warrants to the
 licensee that it is not a competitor of Gaussian, Inc. and that
 it will not use this program in any manner prohibited above.
 ---------------------------------------------------------------
  

 Cite this work as:
 Gaussian 16, Revision B.01,
 M. J. Frisch, G. W. Trucks, H. B. Schlegel, G. E. Scuseria, 
 M. A. Robb, J. R. Cheeseman, G. Scalmani, V. Barone, 
 G. A. Petersson, H. Nakatsuji, X. Li, M. Caricato, A. V. Marenich, 
 J. Bloino, B. G. Janesko, R. Gomperts, B. Mennucci, H. P. Hratchian, 
 J. V. Ortiz, A. F. Izmaylov, J. L. Sonnenberg, D. Williams-Young, 
 F. Ding, F. Lipparini, F. Egidi, J. Goings, B. Peng, A. Petrone, 
 T. Henderson, D. Ranasinghe, V. G. Zakrzewski, J. Gao, N. Rega, 
 G. Zheng, W. Liang, M. Hada, M. Ehara, K. Toyota, R. Fukuda, 
 J. Hasegawa, M. Ishida, T. Nakajima, Y. Honda, O. Kitao, H. Nakai, 
 T. Vreven, K. Throssell, J. A. Montgomery, Jr., J. E. Peralta, 
 F. Ogliaro, M. J. Bearpark, J. J. Heyd, E. N. Brothers, K. N. Kudin, 
 V. N. Staroverov, T. A. Keith, R. Kobayashi, J. Normand, 
 K. Raghavachari, A. P. Rendell, J. C. Burant, S. S. Iyengar, 
 J. Tomasi, M. Cossi, J. M. Millam, M. Klene, C. Adamo, R. Cammi, 
 J. W. Ochterski, R. L. Martin, K. Morokuma, O. Farkas, 
 J. B. Foresman, and D. J. Fox, Gaussian, Inc., Wallingford CT, 2016.
 
 ******************************************
 Gaussian 16:  ES64L-G16RevB.01 20-Dec-2017
                 5-Nov-2022 
 ******************************************
 %chk=calculation/no_transfer_pubchem_sampling_4_b3lyp/98330511_rwf.chk
 %rwf=calculation/no_transfer_pubchem_sampling_4_b3lyp/98330511_rwf.rwf
 %nprocshared=14
 Will use up to   14 processors via shared memory.
 %mem=3GB
 -------------------------------------------------------------------
 #p b3lyp/6-31g(d) 6D 10F nosymm GFInput td=(50-50,nstate=2) SCF=XQC
 -------------------------------------------------------------------
 1/38=1,172=1/1;
 2/12=2,15=1,17=6,18=5,40=1/2;
 3/5=1,6=6,7=1,8=22,11=9,24=10,25=1,30=1,74=-5/1,2,3,8;
 4//1;
 5/5=2,8=3,13=1,38=5/2,8;
 8/6=1,10=2,108=2/1;
 9/41=2,42=1,48=2,70=2/14;
 6/7=2,8=2,9=2,10=2/1;
 99/5=1,9=1/99;
 Leave Link    1 at Sat Nov  5 12:05:41 2022, MaxMem=   402653184 cpu:               2.9 elap:               0.2
 (Enter /home/wykgroup/appl/g16/l101.exe)
 ------------------------------
 Gaussian input prepared by ASE
 ------------------------------
 Symbolic Z-matrix:
 Charge =  0 Multiplicity = 1
 C                     1.33104   7.63815  -0.27732 
 C                     0.74441   6.26747  -0.40656 
 N                     1.05292   5.44769  -1.36943 
 N                     0.39183   4.24871  -1.29803 
 C                    -0.41323   4.1844   -0.27221 
 N                    -1.18339   3.06857  -0.01278 
 C                    -2.17866   3.02124   0.94647 
 O                    -2.43918   3.89926   1.74743 
 C                    -2.89176   1.66861   0.77719 
 O                    -3.81532   1.32859   1.49833 
 C                    -2.25205   1.01506  -0.35842 
 C                    -2.66956  -0.0873   -1.04734 
 O                    -2.00708  -0.33971  -2.20807 
 C                    -3.77387  -1.00746  -0.72774 
 C                    -4.55794  -1.52252  -1.78207 
 C                    -5.58514  -2.42071  -1.52435 
 C                    -5.83699  -2.84122  -0.2167 
 C                    -5.03645  -2.35889   0.83733 
 C                    -4.02305  -1.44204   0.5815 
 O                    -5.22522  -2.77121   2.13044 
 C                    -6.02702  -3.94631   2.25554 
 C                    -7.25566  -3.83764   1.36888 
 O                    -6.86179  -3.71805  -0.00302 
 C                    -1.05315   1.83126  -0.82668 
 C                     0.28649   1.13519  -0.61792 
 C                     0.6526    0.63067   0.63116 
 C                     1.87332  -0.01886   0.82505 
 C                     2.75026  -0.17528  -0.25582 
 O                     3.96403  -0.79859  -0.1895 
 C                     4.42296  -1.26354   1.07874 
 C                     5.81605  -1.82406   0.92141 
 C                     6.77088  -1.15967   0.14136 
 C                     8.06826  -1.65948   0.03854 
 C                     8.43026  -2.82405   0.72043 
 C                     7.48441  -3.49016   1.49992 
 C                     6.18271  -2.99386   1.59409 
 C                     2.39165   0.32522  -1.51533 
 C                     1.17687   0.97548  -1.68699 
 S                    -0.44396   5.62882   0.72911 
 H                     2.03052   7.7926   -1.10249 
 H                     0.55676   8.41279  -0.32072 
 H                     1.8697    7.75819   0.66969 
 H                    -2.24471  -1.2291   -2.51968 
 H                    -4.40558  -1.17129  -2.79894 
 H                    -6.22079  -2.79704  -2.3194 
 H                    -3.43747  -1.07761   1.41449 
 H                    -5.43775  -4.83058   1.976 
 H                    -6.30239  -4.01891   3.31046 
 H                    -7.87669  -4.7345    1.43045 
 H                    -7.85361  -2.96288   1.65564 
 H                    -1.14092   2.11197  -1.88015 
 H                    -0.01838   0.74024   1.47998 
 H                     2.12282  -0.39684   1.80969 
 H                     4.42184  -0.42566   1.793 
 H                     3.74328  -2.03295   1.47125 
 H                     6.48657  -0.25914  -0.39438 
 H                     8.79923  -1.13842  -0.57421 
 H                     9.44254  -3.21123   0.64046 
 H                     7.75461  -4.40092   2.02776 
 H                     5.44541  -3.5231    2.19407 
 H                     3.08618   0.20198  -2.34034 
 H                     0.9183    1.3786   -2.66167 
 
 ITRead=  0  0  0  0  0  0  0  0  0  0  0  0  0  0  0  0  0  0  0  0
 ITRead=  0  0  0  0  0  0  0  0  0  0  0  0  0  0  0  0  0  0  0  0
 ITRead=  0  0  0  0  0  0  0  0  0  0  0  0  0  0  0  0  0  0  0  0
 ITRead=  0  0
 MicOpt= -1 -1 -1 -1 -1 -1 -1 -1 -1 -1 -1 -1 -1 -1 -1 -1 -1 -1 -1 -1
 MicOpt= -1 -1 -1 -1 -1 -1 -1 -1 -1 -1 -1 -1 -1 -1 -1 -1 -1 -1 -1 -1
 MicOpt= -1 -1 -1 -1 -1 -1 -1 -1 -1 -1 -1 -1 -1 -1 -1 -1 -1 -1 -1 -1
 MicOpt= -1 -1
 NAtoms=     62 NQM=       62 NQMF=       0 NMMI=      0 NMMIF=      0
                NMic=       0 NMicF=      0.
                    Isotopes and Nuclear Properties:
 (Nuclear quadrupole moments (NQMom) in fm**2, nuclear magnetic moments (NMagM)
  in nuclear magnetons)

  Atom         1           2           3           4           5           6           7           8           9          10
 IAtWgt=          12          12          14          14          12          14          12          16          12          16
 AtmWgt=  12.0000000  12.0000000  14.0030740  14.0030740  12.0000000  14.0030740  12.0000000  15.9949146  12.0000000  15.9949146
 NucSpn=           0           0           2           2           0           2           0           0           0           0
 AtZEff=  -0.0000000  -0.0000000  -0.0000000  -0.0000000  -0.0000000  -0.0000000  -0.0000000  -0.0000000  -0.0000000  -0.0000000
 NQMom=    0.0000000   0.0000000   2.0440000   2.0440000   0.0000000   2.0440000   0.0000000   0.0000000   0.0000000   0.0000000
 NMagM=    0.0000000   0.0000000   0.4037610   0.4037610   0.0000000   0.4037610   0.0000000   0.0000000   0.0000000   0.0000000
 AtZNuc=   6.0000000   6.0000000   7.0000000   7.0000000   6.0000000   7.0000000   6.0000000   8.0000000   6.0000000   8.0000000

  Atom        11          12          13          14          15          16          17          18          19          20
 IAtWgt=          12          12          16          12          12          12          12          12          12          16
 AtmWgt=  12.0000000  12.0000000  15.9949146  12.0000000  12.0000000  12.0000000  12.0000000  12.0000000  12.0000000  15.9949146
 NucSpn=           0           0           0           0           0           0           0           0           0           0
 AtZEff=  -0.0000000  -0.0000000  -0.0000000  -0.0000000  -0.0000000  -0.0000000  -0.0000000  -0.0000000  -0.0000000  -0.0000000
 NQMom=    0.0000000   0.0000000   0.0000000   0.0000000   0.0000000   0.0000000   0.0000000   0.0000000   0.0000000   0.0000000
 NMagM=    0.0000000   0.0000000   0.0000000   0.0000000   0.0000000   0.0000000   0.0000000   0.0000000   0.0000000   0.0000000
 AtZNuc=   6.0000000   6.0000000   8.0000000   6.0000000   6.0000000   6.0000000   6.0000000   6.0000000   6.0000000   8.0000000

  Atom        21          22          23          24          25          26          27          28          29          30
 IAtWgt=          12          12          16          12          12          12          12          12          16          12
 AtmWgt=  12.0000000  12.0000000  15.9949146  12.0000000  12.0000000  12.0000000  12.0000000  12.0000000  15.9949146  12.0000000
 NucSpn=           0           0           0           0           0           0           0           0           0           0
 AtZEff=  -0.0000000  -0.0000000  -0.0000000  -0.0000000  -0.0000000  -0.0000000  -0.0000000  -0.0000000  -0.0000000  -0.0000000
 NQMom=    0.0000000   0.0000000   0.0000000   0.0000000   0.0000000   0.0000000   0.0000000   0.0000000   0.0000000   0.0000000
 NMagM=    0.0000000   0.0000000   0.0000000   0.0000000   0.0000000   0.0000000   0.0000000   0.0000000   0.0000000   0.0000000
 AtZNuc=   6.0000000   6.0000000   8.0000000   6.0000000   6.0000000   6.0000000   6.0000000   6.0000000   8.0000000   6.0000000

  Atom        31          32          33          34          35          36          37          38          39          40
 IAtWgt=          12          12          12          12          12          12          12          12          32           1
 AtmWgt=  12.0000000  12.0000000  12.0000000  12.0000000  12.0000000  12.0000000  12.0000000  12.0000000  31.9720718   1.0078250
 NucSpn=           0           0           0           0           0           0           0           0           0           1
 AtZEff=  -0.0000000  -0.0000000  -0.0000000  -0.0000000  -0.0000000  -0.0000000  -0.0000000  -0.0000000  -0.0000000  -0.0000000
 NQMom=    0.0000000   0.0000000   0.0000000   0.0000000   0.0000000   0.0000000   0.0000000   0.0000000   0.0000000   0.0000000
 NMagM=    0.0000000   0.0000000   0.0000000   0.0000000   0.0000000   0.0000000   0.0000000   0.0000000   0.0000000   2.7928460
 AtZNuc=   6.0000000   6.0000000   6.0000000   6.0000000   6.0000000   6.0000000   6.0000000   6.0000000  16.0000000   1.0000000

  Atom        41          42          43          44          45          46          47          48          49          50
 IAtWgt=           1           1           1           1           1           1           1           1           1           1
 AtmWgt=   1.0078250   1.0078250   1.0078250   1.0078250   1.0078250   1.0078250   1.0078250   1.0078250   1.0078250   1.0078250
 NucSpn=           1           1           1           1           1           1           1           1           1           1
 AtZEff=  -0.0000000  -0.0000000  -0.0000000  -0.0000000  -0.0000000  -0.0000000  -0.0000000  -0.0000000  -0.0000000  -0.0000000
 NQMom=    0.0000000   0.0000000   0.0000000   0.0000000   0.0000000   0.0000000   0.0000000   0.0000000   0.0000000   0.0000000
 NMagM=    2.7928460   2.7928460   2.7928460   2.7928460   2.7928460   2.7928460   2.7928460   2.7928460   2.7928460   2.7928460
 AtZNuc=   1.0000000   1.0000000   1.0000000   1.0000000   1.0000000   1.0000000   1.0000000   1.0000000   1.0000000   1.0000000

  Atom        51          52          53          54          55          56          57          58          59          60
 IAtWgt=           1           1           1           1           1           1           1           1           1           1
 AtmWgt=   1.0078250   1.0078250   1.0078250   1.0078250   1.0078250   1.0078250   1.0078250   1.0078250   1.0078250   1.0078250
 NucSpn=           1           1           1           1           1           1           1           1           1           1
 AtZEff=  -0.0000000  -0.0000000  -0.0000000  -0.0000000  -0.0000000  -0.0000000  -0.0000000  -0.0000000  -0.0000000  -0.0000000
 NQMom=    0.0000000   0.0000000   0.0000000   0.0000000   0.0000000   0.0000000   0.0000000   0.0000000   0.0000000   0.0000000
 NMagM=    2.7928460   2.7928460   2.7928460   2.7928460   2.7928460   2.7928460   2.7928460   2.7928460   2.7928460   2.7928460
 AtZNuc=   1.0000000   1.0000000   1.0000000   1.0000000   1.0000000   1.0000000   1.0000000   1.0000000   1.0000000   1.0000000

  Atom        61          62
 IAtWgt=           1           1
 AtmWgt=   1.0078250   1.0078250
 NucSpn=           1           1
 AtZEff=  -0.0000000  -0.0000000
 NQMom=    0.0000000   0.0000000
 NMagM=    2.7928460   2.7928460
 AtZNuc=   1.0000000   1.0000000
 Leave Link  101 at Sat Nov  5 12:05:41 2022, MaxMem=   402653184 cpu:               1.3 elap:               0.1
 (Enter /home/wykgroup/appl/g16/l202.exe)
 Symmetry turned off by external request.
 Stoichiometry    C29H23N3O6S
 Framework group  C1[X(C29H23N3O6S)]
 Deg. of freedom   180
 Full point group                 C1      NOp   1
                          Input orientation:                          
 ---------------------------------------------------------------------
 Center     Atomic      Atomic             Coordinates (Angstroms)
 Number     Number       Type             X           Y           Z
 ---------------------------------------------------------------------
      1          6           0        1.331044    7.638153   -0.277321
      2          6           0        0.744410    6.267469   -0.406561
      3          7           0        1.052923    5.447690   -1.369427
      4          7           0        0.391834    4.248713   -1.298029
      5          6           0       -0.413226    4.184396   -0.272205
      6          7           0       -1.183388    3.068565   -0.012777
      7          6           0       -2.178661    3.021242    0.946474
      8          8           0       -2.439185    3.899255    1.747426
      9          6           0       -2.891761    1.668608    0.777190
     10          8           0       -3.815319    1.328588    1.498329
     11          6           0       -2.252052    1.015059   -0.358419
     12          6           0       -2.669560   -0.087302   -1.047336
     13          8           0       -2.007078   -0.339706   -2.208071
     14          6           0       -3.773868   -1.007460   -0.727736
     15          6           0       -4.557944   -1.522516   -1.782074
     16          6           0       -5.585137   -2.420708   -1.524353
     17          6           0       -5.836989   -2.841224   -0.216700
     18          6           0       -5.036446   -2.358885    0.837332
     19          6           0       -4.023047   -1.442042    0.581504
     20          8           0       -5.225222   -2.771209    2.130440
     21          6           0       -6.027017   -3.946309    2.255536
     22          6           0       -7.255663   -3.837643    1.368876
     23          8           0       -6.861786   -3.718046   -0.003024
     24          6           0       -1.053150    1.831261   -0.826676
     25          6           0        0.286493    1.135193   -0.617919
     26          6           0        0.652605    0.630670    0.631162
     27          6           0        1.873317   -0.018864    0.825054
     28          6           0        2.750263   -0.175280   -0.255817
     29          8           0        3.964030   -0.798593   -0.189500
     30          6           0        4.422961   -1.263544    1.078738
     31          6           0        5.816050   -1.824057    0.921413
     32          6           0        6.770881   -1.159668    0.141361
     33          6           0        8.068264   -1.659480    0.038542
     34          6           0        8.430260   -2.824045    0.720428
     35          6           0        7.484410   -3.490156    1.499915
     36          6           0        6.182707   -2.993860    1.594087
     37          6           0        2.391648    0.325218   -1.515330
     38          6           0        1.176869    0.975480   -1.686992
     39         16           0       -0.443960    5.628824    0.729110
     40          1           0        2.030523    7.792598   -1.102487
     41          1           0        0.556759    8.412790   -0.320724
     42          1           0        1.869700    7.758189    0.669687
     43          1           0       -2.244706   -1.229102   -2.519677
     44          1           0       -4.405577   -1.171291   -2.798940
     45          1           0       -6.220785   -2.797037   -2.319403
     46          1           0       -3.437467   -1.077613    1.414486
     47          1           0       -5.437747   -4.830583    1.976004
     48          1           0       -6.302391   -4.018907    3.310459
     49          1           0       -7.876689   -4.734501    1.430454
     50          1           0       -7.853612   -2.962880    1.655636
     51          1           0       -1.140920    2.111971   -1.880151
     52          1           0       -0.018384    0.740244    1.479981
     53          1           0        2.122825   -0.396839    1.809692
     54          1           0        4.421840   -0.425662    1.793001
     55          1           0        3.743279   -2.032947    1.471248
     56          1           0        6.486568   -0.259142   -0.394376
     57          1           0        8.799229   -1.138416   -0.574208
     58          1           0        9.442544   -3.211226    0.640463
     59          1           0        7.754606   -4.400923    2.027755
     60          1           0        5.445414   -3.523095    2.194065
     61          1           0        3.086179    0.201978   -2.340339
     62          1           0        0.918298    1.378604   -2.661669
 ---------------------------------------------------------------------
 Rotational constants (GHZ):           0.0830282           0.0480931           0.0333164
 Leave Link  202 at Sat Nov  5 12:05:41 2022, MaxMem=   402653184 cpu:               0.1 elap:               0.0
 (Enter /home/wykgroup/appl/g16/l301.exe)
 Standard basis: 6-31G(d) (6D, 10F)
 Ernie: Thresh=  0.10000D-02 Tol=  0.10000D-05 Strict=F.
 AO basis set in the form of general basis input (Overlap normalization):
      1 0
 S   6 1.00       0.000000000000
      0.3047524880D+04  0.1834737132D-02
      0.4573695180D+03  0.1403732281D-01
      0.1039486850D+03  0.6884262226D-01
      0.2921015530D+02  0.2321844432D+00
      0.9286662960D+01  0.4679413484D+00
      0.3163926960D+01  0.3623119853D+00
 SP   3 1.00       0.000000000000
      0.7868272350D+01 -0.1193324198D+00  0.6899906659D-01
      0.1881288540D+01 -0.1608541517D+00  0.3164239610D+00
      0.5442492580D+00  0.1143456438D+01  0.7443082909D+00
 SP   1 1.00       0.000000000000
      0.1687144782D+00  0.1000000000D+01  0.1000000000D+01
 D   1 1.00       0.000000000000
      0.8000000000D+00  0.1000000000D+01
 ****
      2 0
 S   6 1.00       0.000000000000
      0.3047524880D+04  0.1834737132D-02
      0.4573695180D+03  0.1403732281D-01
      0.1039486850D+03  0.6884262226D-01
      0.2921015530D+02  0.2321844432D+00
      0.9286662960D+01  0.4679413484D+00
      0.3163926960D+01  0.3623119853D+00
 SP   3 1.00       0.000000000000
      0.7868272350D+01 -0.1193324198D+00  0.6899906659D-01
      0.1881288540D+01 -0.1608541517D+00  0.3164239610D+00
      0.5442492580D+00  0.1143456438D+01  0.7443082909D+00
 SP   1 1.00       0.000000000000
      0.1687144782D+00  0.1000000000D+01  0.1000000000D+01
 D   1 1.00       0.000000000000
      0.8000000000D+00  0.1000000000D+01
 ****
      3 0
 S   6 1.00       0.000000000000
      0.4173511460D+04  0.1834772160D-02
      0.6274579110D+03  0.1399462700D-01
      0.1429020930D+03  0.6858655181D-01
      0.4023432930D+02  0.2322408730D+00
      0.1282021290D+02  0.4690699481D+00
      0.4390437010D+01  0.3604551991D+00
 SP   3 1.00       0.000000000000
      0.1162636186D+02 -0.1149611817D+00  0.6757974388D-01
      0.2716279807D+01 -0.1691174786D+00  0.3239072959D+00
      0.7722183966D+00  0.1145851947D+01  0.7408951398D+00
 SP   1 1.00       0.000000000000
      0.2120314975D+00  0.1000000000D+01  0.1000000000D+01
 D   1 1.00       0.000000000000
      0.8000000000D+00  0.1000000000D+01
 ****
      4 0
 S   6 1.00       0.000000000000
      0.4173511460D+04  0.1834772160D-02
      0.6274579110D+03  0.1399462700D-01
      0.1429020930D+03  0.6858655181D-01
      0.4023432930D+02  0.2322408730D+00
      0.1282021290D+02  0.4690699481D+00
      0.4390437010D+01  0.3604551991D+00
 SP   3 1.00       0.000000000000
      0.1162636186D+02 -0.1149611817D+00  0.6757974388D-01
      0.2716279807D+01 -0.1691174786D+00  0.3239072959D+00
      0.7722183966D+00  0.1145851947D+01  0.7408951398D+00
 SP   1 1.00       0.000000000000
      0.2120314975D+00  0.1000000000D+01  0.1000000000D+01
 D   1 1.00       0.000000000000
      0.8000000000D+00  0.1000000000D+01
 ****
      5 0
 S   6 1.00       0.000000000000
      0.3047524880D+04  0.1834737132D-02
      0.4573695180D+03  0.1403732281D-01
      0.1039486850D+03  0.6884262226D-01
      0.2921015530D+02  0.2321844432D+00
      0.9286662960D+01  0.4679413484D+00
      0.3163926960D+01  0.3623119853D+00
 SP   3 1.00       0.000000000000
      0.7868272350D+01 -0.1193324198D+00  0.6899906659D-01
      0.1881288540D+01 -0.1608541517D+00  0.3164239610D+00
      0.5442492580D+00  0.1143456438D+01  0.7443082909D+00
 SP   1 1.00       0.000000000000
      0.1687144782D+00  0.1000000000D+01  0.1000000000D+01
 D   1 1.00       0.000000000000
      0.8000000000D+00  0.1000000000D+01
 ****
      6 0
 S   6 1.00       0.000000000000
      0.4173511460D+04  0.1834772160D-02
      0.6274579110D+03  0.1399462700D-01
      0.1429020930D+03  0.6858655181D-01
      0.4023432930D+02  0.2322408730D+00
      0.1282021290D+02  0.4690699481D+00
      0.4390437010D+01  0.3604551991D+00
 SP   3 1.00       0.000000000000
      0.1162636186D+02 -0.1149611817D+00  0.6757974388D-01
      0.2716279807D+01 -0.1691174786D+00  0.3239072959D+00
      0.7722183966D+00  0.1145851947D+01  0.7408951398D+00
 SP   1 1.00       0.000000000000
      0.2120314975D+00  0.1000000000D+01  0.1000000000D+01
 D   1 1.00       0.000000000000
      0.8000000000D+00  0.1000000000D+01
 ****
      7 0
 S   6 1.00       0.000000000000
      0.3047524880D+04  0.1834737132D-02
      0.4573695180D+03  0.1403732281D-01
      0.1039486850D+03  0.6884262226D-01
      0.2921015530D+02  0.2321844432D+00
      0.9286662960D+01  0.4679413484D+00
      0.3163926960D+01  0.3623119853D+00
 SP   3 1.00       0.000000000000
      0.7868272350D+01 -0.1193324198D+00  0.6899906659D-01
      0.1881288540D+01 -0.1608541517D+00  0.3164239610D+00
      0.5442492580D+00  0.1143456438D+01  0.7443082909D+00
 SP   1 1.00       0.000000000000
      0.1687144782D+00  0.1000000000D+01  0.1000000000D+01
 D   1 1.00       0.000000000000
      0.8000000000D+00  0.1000000000D+01
 ****
      8 0
 S   6 1.00       0.000000000000
      0.5484671660D+04  0.1831074430D-02
      0.8252349460D+03  0.1395017220D-01
      0.1880469580D+03  0.6844507810D-01
      0.5296450000D+02  0.2327143360D+00
      0.1689757040D+02  0.4701928980D+00
      0.5799635340D+01  0.3585208530D+00
 SP   3 1.00       0.000000000000
      0.1553961625D+02 -0.1107775495D+00  0.7087426823D-01
      0.3599933586D+01 -0.1480262627D+00  0.3397528391D+00
      0.1013761750D+01  0.1130767015D+01  0.7271585773D+00
 SP   1 1.00       0.000000000000
      0.2700058226D+00  0.1000000000D+01  0.1000000000D+01
 D   1 1.00       0.000000000000
      0.8000000000D+00  0.1000000000D+01
 ****
      9 0
 S   6 1.00       0.000000000000
      0.3047524880D+04  0.1834737132D-02
      0.4573695180D+03  0.1403732281D-01
      0.1039486850D+03  0.6884262226D-01
      0.2921015530D+02  0.2321844432D+00
      0.9286662960D+01  0.4679413484D+00
      0.3163926960D+01  0.3623119853D+00
 SP   3 1.00       0.000000000000
      0.7868272350D+01 -0.1193324198D+00  0.6899906659D-01
      0.1881288540D+01 -0.1608541517D+00  0.3164239610D+00
      0.5442492580D+00  0.1143456438D+01  0.7443082909D+00
 SP   1 1.00       0.000000000000
      0.1687144782D+00  0.1000000000D+01  0.1000000000D+01
 D   1 1.00       0.000000000000
      0.8000000000D+00  0.1000000000D+01
 ****
     10 0
 S   6 1.00       0.000000000000
      0.5484671660D+04  0.1831074430D-02
      0.8252349460D+03  0.1395017220D-01
      0.1880469580D+03  0.6844507810D-01
      0.5296450000D+02  0.2327143360D+00
      0.1689757040D+02  0.4701928980D+00
      0.5799635340D+01  0.3585208530D+00
 SP   3 1.00       0.000000000000
      0.1553961625D+02 -0.1107775495D+00  0.7087426823D-01
      0.3599933586D+01 -0.1480262627D+00  0.3397528391D+00
      0.1013761750D+01  0.1130767015D+01  0.7271585773D+00
 SP   1 1.00       0.000000000000
      0.2700058226D+00  0.1000000000D+01  0.1000000000D+01
 D   1 1.00       0.000000000000
      0.8000000000D+00  0.1000000000D+01
 ****
     11 0
 S   6 1.00       0.000000000000
      0.3047524880D+04  0.1834737132D-02
      0.4573695180D+03  0.1403732281D-01
      0.1039486850D+03  0.6884262226D-01
      0.2921015530D+02  0.2321844432D+00
      0.9286662960D+01  0.4679413484D+00
      0.3163926960D+01  0.3623119853D+00
 SP   3 1.00       0.000000000000
      0.7868272350D+01 -0.1193324198D+00  0.6899906659D-01
      0.1881288540D+01 -0.1608541517D+00  0.3164239610D+00
      0.5442492580D+00  0.1143456438D+01  0.7443082909D+00
 SP   1 1.00       0.000000000000
      0.1687144782D+00  0.1000000000D+01  0.1000000000D+01
 D   1 1.00       0.000000000000
      0.8000000000D+00  0.1000000000D+01
 ****
     12 0
 S   6 1.00       0.000000000000
      0.3047524880D+04  0.1834737132D-02
      0.4573695180D+03  0.1403732281D-01
      0.1039486850D+03  0.6884262226D-01
      0.2921015530D+02  0.2321844432D+00
      0.9286662960D+01  0.4679413484D+00
      0.3163926960D+01  0.3623119853D+00
 SP   3 1.00       0.000000000000
      0.7868272350D+01 -0.1193324198D+00  0.6899906659D-01
      0.1881288540D+01 -0.1608541517D+00  0.3164239610D+00
      0.5442492580D+00  0.1143456438D+01  0.7443082909D+00
 SP   1 1.00       0.000000000000
      0.1687144782D+00  0.1000000000D+01  0.1000000000D+01
 D   1 1.00       0.000000000000
      0.8000000000D+00  0.1000000000D+01
 ****
     13 0
 S   6 1.00       0.000000000000
      0.5484671660D+04  0.1831074430D-02
      0.8252349460D+03  0.1395017220D-01
      0.1880469580D+03  0.6844507810D-01
      0.5296450000D+02  0.2327143360D+00
      0.1689757040D+02  0.4701928980D+00
      0.5799635340D+01  0.3585208530D+00
 SP   3 1.00       0.000000000000
      0.1553961625D+02 -0.1107775495D+00  0.7087426823D-01
      0.3599933586D+01 -0.1480262627D+00  0.3397528391D+00
      0.1013761750D+01  0.1130767015D+01  0.7271585773D+00
 SP   1 1.00       0.000000000000
      0.2700058226D+00  0.1000000000D+01  0.1000000000D+01
 D   1 1.00       0.000000000000
      0.8000000000D+00  0.1000000000D+01
 ****
     14 0
 S   6 1.00       0.000000000000
      0.3047524880D+04  0.1834737132D-02
      0.4573695180D+03  0.1403732281D-01
      0.1039486850D+03  0.6884262226D-01
      0.2921015530D+02  0.2321844432D+00
      0.9286662960D+01  0.4679413484D+00
      0.3163926960D+01  0.3623119853D+00
 SP   3 1.00       0.000000000000
      0.7868272350D+01 -0.1193324198D+00  0.6899906659D-01
      0.1881288540D+01 -0.1608541517D+00  0.3164239610D+00
      0.5442492580D+00  0.1143456438D+01  0.7443082909D+00
 SP   1 1.00       0.000000000000
      0.1687144782D+00  0.1000000000D+01  0.1000000000D+01
 D   1 1.00       0.000000000000
      0.8000000000D+00  0.1000000000D+01
 ****
     15 0
 S   6 1.00       0.000000000000
      0.3047524880D+04  0.1834737132D-02
      0.4573695180D+03  0.1403732281D-01
      0.1039486850D+03  0.6884262226D-01
      0.2921015530D+02  0.2321844432D+00
      0.9286662960D+01  0.4679413484D+00
      0.3163926960D+01  0.3623119853D+00
 SP   3 1.00       0.000000000000
      0.7868272350D+01 -0.1193324198D+00  0.6899906659D-01
      0.1881288540D+01 -0.1608541517D+00  0.3164239610D+00
      0.5442492580D+00  0.1143456438D+01  0.7443082909D+00
 SP   1 1.00       0.000000000000
      0.1687144782D+00  0.1000000000D+01  0.1000000000D+01
 D   1 1.00       0.000000000000
      0.8000000000D+00  0.1000000000D+01
 ****
     16 0
 S   6 1.00       0.000000000000
      0.3047524880D+04  0.1834737132D-02
      0.4573695180D+03  0.1403732281D-01
      0.1039486850D+03  0.6884262226D-01
      0.2921015530D+02  0.2321844432D+00
      0.9286662960D+01  0.4679413484D+00
      0.3163926960D+01  0.3623119853D+00
 SP   3 1.00       0.000000000000
      0.7868272350D+01 -0.1193324198D+00  0.6899906659D-01
      0.1881288540D+01 -0.1608541517D+00  0.3164239610D+00
      0.5442492580D+00  0.1143456438D+01  0.7443082909D+00
 SP   1 1.00       0.000000000000
      0.1687144782D+00  0.1000000000D+01  0.1000000000D+01
 D   1 1.00       0.000000000000
      0.8000000000D+00  0.1000000000D+01
 ****
     17 0
 S   6 1.00       0.000000000000
      0.3047524880D+04  0.1834737132D-02
      0.4573695180D+03  0.1403732281D-01
      0.1039486850D+03  0.6884262226D-01
      0.2921015530D+02  0.2321844432D+00
      0.9286662960D+01  0.4679413484D+00
      0.3163926960D+01  0.3623119853D+00
 SP   3 1.00       0.000000000000
      0.7868272350D+01 -0.1193324198D+00  0.6899906659D-01
      0.1881288540D+01 -0.1608541517D+00  0.3164239610D+00
      0.5442492580D+00  0.1143456438D+01  0.7443082909D+00
 SP   1 1.00       0.000000000000
      0.1687144782D+00  0.1000000000D+01  0.1000000000D+01
 D   1 1.00       0.000000000000
      0.8000000000D+00  0.1000000000D+01
 ****
     18 0
 S   6 1.00       0.000000000000
      0.3047524880D+04  0.1834737132D-02
      0.4573695180D+03  0.1403732281D-01
      0.1039486850D+03  0.6884262226D-01
      0.2921015530D+02  0.2321844432D+00
      0.9286662960D+01  0.4679413484D+00
      0.3163926960D+01  0.3623119853D+00
 SP   3 1.00       0.000000000000
      0.7868272350D+01 -0.1193324198D+00  0.6899906659D-01
      0.1881288540D+01 -0.1608541517D+00  0.3164239610D+00
      0.5442492580D+00  0.1143456438D+01  0.7443082909D+00
 SP   1 1.00       0.000000000000
      0.1687144782D+00  0.1000000000D+01  0.1000000000D+01
 D   1 1.00       0.000000000000
      0.8000000000D+00  0.1000000000D+01
 ****
     19 0
 S   6 1.00       0.000000000000
      0.3047524880D+04  0.1834737132D-02
      0.4573695180D+03  0.1403732281D-01
      0.1039486850D+03  0.6884262226D-01
      0.2921015530D+02  0.2321844432D+00
      0.9286662960D+01  0.4679413484D+00
      0.3163926960D+01  0.3623119853D+00
 SP   3 1.00       0.000000000000
      0.7868272350D+01 -0.1193324198D+00  0.6899906659D-01
      0.1881288540D+01 -0.1608541517D+00  0.3164239610D+00
      0.5442492580D+00  0.1143456438D+01  0.7443082909D+00
 SP   1 1.00       0.000000000000
      0.1687144782D+00  0.1000000000D+01  0.1000000000D+01
 D   1 1.00       0.000000000000
      0.8000000000D+00  0.1000000000D+01
 ****
     20 0
 S   6 1.00       0.000000000000
      0.5484671660D+04  0.1831074430D-02
      0.8252349460D+03  0.1395017220D-01
      0.1880469580D+03  0.6844507810D-01
      0.5296450000D+02  0.2327143360D+00
      0.1689757040D+02  0.4701928980D+00
      0.5799635340D+01  0.3585208530D+00
 SP   3 1.00       0.000000000000
      0.1553961625D+02 -0.1107775495D+00  0.7087426823D-01
      0.3599933586D+01 -0.1480262627D+00  0.3397528391D+00
      0.1013761750D+01  0.1130767015D+01  0.7271585773D+00
 SP   1 1.00       0.000000000000
      0.2700058226D+00  0.1000000000D+01  0.1000000000D+01
 D   1 1.00       0.000000000000
      0.8000000000D+00  0.1000000000D+01
 ****
     21 0
 S   6 1.00       0.000000000000
      0.3047524880D+04  0.1834737132D-02
      0.4573695180D+03  0.1403732281D-01
      0.1039486850D+03  0.6884262226D-01
      0.2921015530D+02  0.2321844432D+00
      0.9286662960D+01  0.4679413484D+00
      0.3163926960D+01  0.3623119853D+00
 SP   3 1.00       0.000000000000
      0.7868272350D+01 -0.1193324198D+00  0.6899906659D-01
      0.1881288540D+01 -0.1608541517D+00  0.3164239610D+00
      0.5442492580D+00  0.1143456438D+01  0.7443082909D+00
 SP   1 1.00       0.000000000000
      0.1687144782D+00  0.1000000000D+01  0.1000000000D+01
 D   1 1.00       0.000000000000
      0.8000000000D+00  0.1000000000D+01
 ****
     22 0
 S   6 1.00       0.000000000000
      0.3047524880D+04  0.1834737132D-02
      0.4573695180D+03  0.1403732281D-01
      0.1039486850D+03  0.6884262226D-01
      0.2921015530D+02  0.2321844432D+00
      0.9286662960D+01  0.4679413484D+00
      0.3163926960D+01  0.3623119853D+00
 SP   3 1.00       0.000000000000
      0.7868272350D+01 -0.1193324198D+00  0.6899906659D-01
      0.1881288540D+01 -0.1608541517D+00  0.3164239610D+00
      0.5442492580D+00  0.1143456438D+01  0.7443082909D+00
 SP   1 1.00       0.000000000000
      0.1687144782D+00  0.1000000000D+01  0.1000000000D+01
 D   1 1.00       0.000000000000
      0.8000000000D+00  0.1000000000D+01
 ****
     23 0
 S   6 1.00       0.000000000000
      0.5484671660D+04  0.1831074430D-02
      0.8252349460D+03  0.1395017220D-01
      0.1880469580D+03  0.6844507810D-01
      0.5296450000D+02  0.2327143360D+00
      0.1689757040D+02  0.4701928980D+00
      0.5799635340D+01  0.3585208530D+00
 SP   3 1.00       0.000000000000
      0.1553961625D+02 -0.1107775495D+00  0.7087426823D-01
      0.3599933586D+01 -0.1480262627D+00  0.3397528391D+00
      0.1013761750D+01  0.1130767015D+01  0.7271585773D+00
 SP   1 1.00       0.000000000000
      0.2700058226D+00  0.1000000000D+01  0.1000000000D+01
 D   1 1.00       0.000000000000
      0.8000000000D+00  0.1000000000D+01
 ****
     24 0
 S   6 1.00       0.000000000000
      0.3047524880D+04  0.1834737132D-02
      0.4573695180D+03  0.1403732281D-01
      0.1039486850D+03  0.6884262226D-01
      0.2921015530D+02  0.2321844432D+00
      0.9286662960D+01  0.4679413484D+00
      0.3163926960D+01  0.3623119853D+00
 SP   3 1.00       0.000000000000
      0.7868272350D+01 -0.1193324198D+00  0.6899906659D-01
      0.1881288540D+01 -0.1608541517D+00  0.3164239610D+00
      0.5442492580D+00  0.1143456438D+01  0.7443082909D+00
 SP   1 1.00       0.000000000000
      0.1687144782D+00  0.1000000000D+01  0.1000000000D+01
 D   1 1.00       0.000000000000
      0.8000000000D+00  0.1000000000D+01
 ****
     25 0
 S   6 1.00       0.000000000000
      0.3047524880D+04  0.1834737132D-02
      0.4573695180D+03  0.1403732281D-01
      0.1039486850D+03  0.6884262226D-01
      0.2921015530D+02  0.2321844432D+00
      0.9286662960D+01  0.4679413484D+00
      0.3163926960D+01  0.3623119853D+00
 SP   3 1.00       0.000000000000
      0.7868272350D+01 -0.1193324198D+00  0.6899906659D-01
      0.1881288540D+01 -0.1608541517D+00  0.3164239610D+00
      0.5442492580D+00  0.1143456438D+01  0.7443082909D+00
 SP   1 1.00       0.000000000000
      0.1687144782D+00  0.1000000000D+01  0.1000000000D+01
 D   1 1.00       0.000000000000
      0.8000000000D+00  0.1000000000D+01
 ****
     26 0
 S   6 1.00       0.000000000000
      0.3047524880D+04  0.1834737132D-02
      0.4573695180D+03  0.1403732281D-01
      0.1039486850D+03  0.6884262226D-01
      0.2921015530D+02  0.2321844432D+00
      0.9286662960D+01  0.4679413484D+00
      0.3163926960D+01  0.3623119853D+00
 SP   3 1.00       0.000000000000
      0.7868272350D+01 -0.1193324198D+00  0.6899906659D-01
      0.1881288540D+01 -0.1608541517D+00  0.3164239610D+00
      0.5442492580D+00  0.1143456438D+01  0.7443082909D+00
 SP   1 1.00       0.000000000000
      0.1687144782D+00  0.1000000000D+01  0.1000000000D+01
 D   1 1.00       0.000000000000
      0.8000000000D+00  0.1000000000D+01
 ****
     27 0
 S   6 1.00       0.000000000000
      0.3047524880D+04  0.1834737132D-02
      0.4573695180D+03  0.1403732281D-01
      0.1039486850D+03  0.6884262226D-01
      0.2921015530D+02  0.2321844432D+00
      0.9286662960D+01  0.4679413484D+00
      0.3163926960D+01  0.3623119853D+00
 SP   3 1.00       0.000000000000
      0.7868272350D+01 -0.1193324198D+00  0.6899906659D-01
      0.1881288540D+01 -0.1608541517D+00  0.3164239610D+00
      0.5442492580D+00  0.1143456438D+01  0.7443082909D+00
 SP   1 1.00       0.000000000000
      0.1687144782D+00  0.1000000000D+01  0.1000000000D+01
 D   1 1.00       0.000000000000
      0.8000000000D+00  0.1000000000D+01
 ****
     28 0
 S   6 1.00       0.000000000000
      0.3047524880D+04  0.1834737132D-02
      0.4573695180D+03  0.1403732281D-01
      0.1039486850D+03  0.6884262226D-01
      0.2921015530D+02  0.2321844432D+00
      0.9286662960D+01  0.4679413484D+00
      0.3163926960D+01  0.3623119853D+00
 SP   3 1.00       0.000000000000
      0.7868272350D+01 -0.1193324198D+00  0.6899906659D-01
      0.1881288540D+01 -0.1608541517D+00  0.3164239610D+00
      0.5442492580D+00  0.1143456438D+01  0.7443082909D+00
 SP   1 1.00       0.000000000000
      0.1687144782D+00  0.1000000000D+01  0.1000000000D+01
 D   1 1.00       0.000000000000
      0.8000000000D+00  0.1000000000D+01
 ****
     29 0
 S   6 1.00       0.000000000000
      0.5484671660D+04  0.1831074430D-02
      0.8252349460D+03  0.1395017220D-01
      0.1880469580D+03  0.6844507810D-01
      0.5296450000D+02  0.2327143360D+00
      0.1689757040D+02  0.4701928980D+00
      0.5799635340D+01  0.3585208530D+00
 SP   3 1.00       0.000000000000
      0.1553961625D+02 -0.1107775495D+00  0.7087426823D-01
      0.3599933586D+01 -0.1480262627D+00  0.3397528391D+00
      0.1013761750D+01  0.1130767015D+01  0.7271585773D+00
 SP   1 1.00       0.000000000000
      0.2700058226D+00  0.1000000000D+01  0.1000000000D+01
 D   1 1.00       0.000000000000
      0.8000000000D+00  0.1000000000D+01
 ****
     30 0
 S   6 1.00       0.000000000000
      0.3047524880D+04  0.1834737132D-02
      0.4573695180D+03  0.1403732281D-01
      0.1039486850D+03  0.6884262226D-01
      0.2921015530D+02  0.2321844432D+00
      0.9286662960D+01  0.4679413484D+00
      0.3163926960D+01  0.3623119853D+00
 SP   3 1.00       0.000000000000
      0.7868272350D+01 -0.1193324198D+00  0.6899906659D-01
      0.1881288540D+01 -0.1608541517D+00  0.3164239610D+00
      0.5442492580D+00  0.1143456438D+01  0.7443082909D+00
 SP   1 1.00       0.000000000000
      0.1687144782D+00  0.1000000000D+01  0.1000000000D+01
 D   1 1.00       0.000000000000
      0.8000000000D+00  0.1000000000D+01
 ****
     31 0
 S   6 1.00       0.000000000000
      0.3047524880D+04  0.1834737132D-02
      0.4573695180D+03  0.1403732281D-01
      0.1039486850D+03  0.6884262226D-01
      0.2921015530D+02  0.2321844432D+00
      0.9286662960D+01  0.4679413484D+00
      0.3163926960D+01  0.3623119853D+00
 SP   3 1.00       0.000000000000
      0.7868272350D+01 -0.1193324198D+00  0.6899906659D-01
      0.1881288540D+01 -0.1608541517D+00  0.3164239610D+00
      0.5442492580D+00  0.1143456438D+01  0.7443082909D+00
 SP   1 1.00       0.000000000000
      0.1687144782D+00  0.1000000000D+01  0.1000000000D+01
 D   1 1.00       0.000000000000
      0.8000000000D+00  0.1000000000D+01
 ****
     32 0
 S   6 1.00       0.000000000000
      0.3047524880D+04  0.1834737132D-02
      0.4573695180D+03  0.1403732281D-01
      0.1039486850D+03  0.6884262226D-01
      0.2921015530D+02  0.2321844432D+00
      0.9286662960D+01  0.4679413484D+00
      0.3163926960D+01  0.3623119853D+00
 SP   3 1.00       0.000000000000
      0.7868272350D+01 -0.1193324198D+00  0.6899906659D-01
      0.1881288540D+01 -0.1608541517D+00  0.3164239610D+00
      0.5442492580D+00  0.1143456438D+01  0.7443082909D+00
 SP   1 1.00       0.000000000000
      0.1687144782D+00  0.1000000000D+01  0.1000000000D+01
 D   1 1.00       0.000000000000
      0.8000000000D+00  0.1000000000D+01
 ****
     33 0
 S   6 1.00       0.000000000000
      0.3047524880D+04  0.1834737132D-02
      0.4573695180D+03  0.1403732281D-01
      0.1039486850D+03  0.6884262226D-01
      0.2921015530D+02  0.2321844432D+00
      0.9286662960D+01  0.4679413484D+00
      0.3163926960D+01  0.3623119853D+00
 SP   3 1.00       0.000000000000
      0.7868272350D+01 -0.1193324198D+00  0.6899906659D-01
      0.1881288540D+01 -0.1608541517D+00  0.3164239610D+00
      0.5442492580D+00  0.1143456438D+01  0.7443082909D+00
 SP   1 1.00       0.000000000000
      0.1687144782D+00  0.1000000000D+01  0.1000000000D+01
 D   1 1.00       0.000000000000
      0.8000000000D+00  0.1000000000D+01
 ****
     34 0
 S   6 1.00       0.000000000000
      0.3047524880D+04  0.1834737132D-02
      0.4573695180D+03  0.1403732281D-01
      0.1039486850D+03  0.6884262226D-01
      0.2921015530D+02  0.2321844432D+00
      0.9286662960D+01  0.4679413484D+00
      0.3163926960D+01  0.3623119853D+00
 SP   3 1.00       0.000000000000
      0.7868272350D+01 -0.1193324198D+00  0.6899906659D-01
      0.1881288540D+01 -0.1608541517D+00  0.3164239610D+00
      0.5442492580D+00  0.1143456438D+01  0.7443082909D+00
 SP   1 1.00       0.000000000000
      0.1687144782D+00  0.1000000000D+01  0.1000000000D+01
 D   1 1.00       0.000000000000
      0.8000000000D+00  0.1000000000D+01
 ****
     35 0
 S   6 1.00       0.000000000000
      0.3047524880D+04  0.1834737132D-02
      0.4573695180D+03  0.1403732281D-01
      0.1039486850D+03  0.6884262226D-01
      0.2921015530D+02  0.2321844432D+00
      0.9286662960D+01  0.4679413484D+00
      0.3163926960D+01  0.3623119853D+00
 SP   3 1.00       0.000000000000
      0.7868272350D+01 -0.1193324198D+00  0.6899906659D-01
      0.1881288540D+01 -0.1608541517D+00  0.3164239610D+00
      0.5442492580D+00  0.1143456438D+01  0.7443082909D+00
 SP   1 1.00       0.000000000000
      0.1687144782D+00  0.1000000000D+01  0.1000000000D+01
 D   1 1.00       0.000000000000
      0.8000000000D+00  0.1000000000D+01
 ****
     36 0
 S   6 1.00       0.000000000000
      0.3047524880D+04  0.1834737132D-02
      0.4573695180D+03  0.1403732281D-01
      0.1039486850D+03  0.6884262226D-01
      0.2921015530D+02  0.2321844432D+00
      0.9286662960D+01  0.4679413484D+00
      0.3163926960D+01  0.3623119853D+00
 SP   3 1.00       0.000000000000
      0.7868272350D+01 -0.1193324198D+00  0.6899906659D-01
      0.1881288540D+01 -0.1608541517D+00  0.3164239610D+00
      0.5442492580D+00  0.1143456438D+01  0.7443082909D+00
 SP   1 1.00       0.000000000000
      0.1687144782D+00  0.1000000000D+01  0.1000000000D+01
 D   1 1.00       0.000000000000
      0.8000000000D+00  0.1000000000D+01
 ****
     37 0
 S   6 1.00       0.000000000000
      0.3047524880D+04  0.1834737132D-02
      0.4573695180D+03  0.1403732281D-01
      0.1039486850D+03  0.6884262226D-01
      0.2921015530D+02  0.2321844432D+00
      0.9286662960D+01  0.4679413484D+00
      0.3163926960D+01  0.3623119853D+00
 SP   3 1.00       0.000000000000
      0.7868272350D+01 -0.1193324198D+00  0.6899906659D-01
      0.1881288540D+01 -0.1608541517D+00  0.3164239610D+00
      0.5442492580D+00  0.1143456438D+01  0.7443082909D+00
 SP   1 1.00       0.000000000000
      0.1687144782D+00  0.1000000000D+01  0.1000000000D+01
 D   1 1.00       0.000000000000
      0.8000000000D+00  0.1000000000D+01
 ****
     38 0
 S   6 1.00       0.000000000000
      0.3047524880D+04  0.1834737132D-02
      0.4573695180D+03  0.1403732281D-01
      0.1039486850D+03  0.6884262226D-01
      0.2921015530D+02  0.2321844432D+00
      0.9286662960D+01  0.4679413484D+00
      0.3163926960D+01  0.3623119853D+00
 SP   3 1.00       0.000000000000
      0.7868272350D+01 -0.1193324198D+00  0.6899906659D-01
      0.1881288540D+01 -0.1608541517D+00  0.3164239610D+00
      0.5442492580D+00  0.1143456438D+01  0.7443082909D+00
 SP   1 1.00       0.000000000000
      0.1687144782D+00  0.1000000000D+01  0.1000000000D+01
 D   1 1.00       0.000000000000
      0.8000000000D+00  0.1000000000D+01
 ****
     39 0
 S   6 1.00       0.000000000000
      0.2191710000D+05  0.1869240849D-02
      0.3301490000D+04  0.1423030646D-01
      0.7541460000D+03  0.6969623166D-01
      0.2127110000D+03  0.2384871083D+00
      0.6798960000D+02  0.4833072195D+00
      0.2305150000D+02  0.3380741536D+00
 SP   6 1.00       0.000000000000
      0.4237350000D+03 -0.2376770499D-02  0.4061009982D-02
      0.1007100000D+03 -0.3169300665D-01  0.3068129986D-01
      0.3215990000D+02 -0.1133170238D+00  0.1304519994D+00
      0.1180790000D+02  0.5609001177D-01  0.3272049985D+00
      0.4631100000D+01  0.5922551243D+00  0.4528509980D+00
      0.1870250000D+01  0.4550060955D+00  0.2560419989D+00
 SP   3 1.00       0.000000000000
      0.2615840000D+01 -0.2503731142D+00 -0.1451048955D-01
      0.9221670000D+00  0.6695676310D-01  0.3102627765D+00
      0.3412870000D+00  0.1054506269D+01  0.7544824565D+00
 SP   1 1.00       0.000000000000
      0.1171670000D+00  0.1000000000D+01  0.1000000000D+01
 D   1 1.00       0.000000000000
      0.6500000000D+00  0.1000000000D+01
 ****
     40 0
 S   3 1.00       0.000000000000
      0.1873113696D+02  0.3349460434D-01
      0.2825394365D+01  0.2347269535D+00
      0.6401216923D+00  0.8137573261D+00
 S   1 1.00       0.000000000000
      0.1612777588D+00  0.1000000000D+01
 ****
     41 0
 S   3 1.00       0.000000000000
      0.1873113696D+02  0.3349460434D-01
      0.2825394365D+01  0.2347269535D+00
      0.6401216923D+00  0.8137573261D+00
 S   1 1.00       0.000000000000
      0.1612777588D+00  0.1000000000D+01
 ****
     42 0
 S   3 1.00       0.000000000000
      0.1873113696D+02  0.3349460434D-01
      0.2825394365D+01  0.2347269535D+00
      0.6401216923D+00  0.8137573261D+00
 S   1 1.00       0.000000000000
      0.1612777588D+00  0.1000000000D+01
 ****
     43 0
 S   3 1.00       0.000000000000
      0.1873113696D+02  0.3349460434D-01
      0.2825394365D+01  0.2347269535D+00
      0.6401216923D+00  0.8137573261D+00
 S   1 1.00       0.000000000000
      0.1612777588D+00  0.1000000000D+01
 ****
     44 0
 S   3 1.00       0.000000000000
      0.1873113696D+02  0.3349460434D-01
      0.2825394365D+01  0.2347269535D+00
      0.6401216923D+00  0.8137573261D+00
 S   1 1.00       0.000000000000
      0.1612777588D+00  0.1000000000D+01
 ****
     45 0
 S   3 1.00       0.000000000000
      0.1873113696D+02  0.3349460434D-01
      0.2825394365D+01  0.2347269535D+00
      0.6401216923D+00  0.8137573261D+00
 S   1 1.00       0.000000000000
      0.1612777588D+00  0.1000000000D+01
 ****
     46 0
 S   3 1.00       0.000000000000
      0.1873113696D+02  0.3349460434D-01
      0.2825394365D+01  0.2347269535D+00
      0.6401216923D+00  0.8137573261D+00
 S   1 1.00       0.000000000000
      0.1612777588D+00  0.1000000000D+01
 ****
     47 0
 S   3 1.00       0.000000000000
      0.1873113696D+02  0.3349460434D-01
      0.2825394365D+01  0.2347269535D+00
      0.6401216923D+00  0.8137573261D+00
 S   1 1.00       0.000000000000
      0.1612777588D+00  0.1000000000D+01
 ****
     48 0
 S   3 1.00       0.000000000000
      0.1873113696D+02  0.3349460434D-01
      0.2825394365D+01  0.2347269535D+00
      0.6401216923D+00  0.8137573261D+00
 S   1 1.00       0.000000000000
      0.1612777588D+00  0.1000000000D+01
 ****
     49 0
 S   3 1.00       0.000000000000
      0.1873113696D+02  0.3349460434D-01
      0.2825394365D+01  0.2347269535D+00
      0.6401216923D+00  0.8137573261D+00
 S   1 1.00       0.000000000000
      0.1612777588D+00  0.1000000000D+01
 ****
     50 0
 S   3 1.00       0.000000000000
      0.1873113696D+02  0.3349460434D-01
      0.2825394365D+01  0.2347269535D+00
      0.6401216923D+00  0.8137573261D+00
 S   1 1.00       0.000000000000
      0.1612777588D+00  0.1000000000D+01
 ****
     51 0
 S   3 1.00       0.000000000000
      0.1873113696D+02  0.3349460434D-01
      0.2825394365D+01  0.2347269535D+00
      0.6401216923D+00  0.8137573261D+00
 S   1 1.00       0.000000000000
      0.1612777588D+00  0.1000000000D+01
 ****
     52 0
 S   3 1.00       0.000000000000
      0.1873113696D+02  0.3349460434D-01
      0.2825394365D+01  0.2347269535D+00
      0.6401216923D+00  0.8137573261D+00
 S   1 1.00       0.000000000000
      0.1612777588D+00  0.1000000000D+01
 ****
     53 0
 S   3 1.00       0.000000000000
      0.1873113696D+02  0.3349460434D-01
      0.2825394365D+01  0.2347269535D+00
      0.6401216923D+00  0.8137573261D+00
 S   1 1.00       0.000000000000
      0.1612777588D+00  0.1000000000D+01
 ****
     54 0
 S   3 1.00       0.000000000000
      0.1873113696D+02  0.3349460434D-01
      0.2825394365D+01  0.2347269535D+00
      0.6401216923D+00  0.8137573261D+00
 S   1 1.00       0.000000000000
      0.1612777588D+00  0.1000000000D+01
 ****
     55 0
 S   3 1.00       0.000000000000
      0.1873113696D+02  0.3349460434D-01
      0.2825394365D+01  0.2347269535D+00
      0.6401216923D+00  0.8137573261D+00
 S   1 1.00       0.000000000000
      0.1612777588D+00  0.1000000000D+01
 ****
     56 0
 S   3 1.00       0.000000000000
      0.1873113696D+02  0.3349460434D-01
      0.2825394365D+01  0.2347269535D+00
      0.6401216923D+00  0.8137573261D+00
 S   1 1.00       0.000000000000
      0.1612777588D+00  0.1000000000D+01
 ****
     57 0
 S   3 1.00       0.000000000000
      0.1873113696D+02  0.3349460434D-01
      0.2825394365D+01  0.2347269535D+00
      0.6401216923D+00  0.8137573261D+00
 S   1 1.00       0.000000000000
      0.1612777588D+00  0.1000000000D+01
 ****
     58 0
 S   3 1.00       0.000000000000
      0.1873113696D+02  0.3349460434D-01
      0.2825394365D+01  0.2347269535D+00
      0.6401216923D+00  0.8137573261D+00
 S   1 1.00       0.000000000000
      0.1612777588D+00  0.1000000000D+01
 ****
     59 0
 S   3 1.00       0.000000000000
      0.1873113696D+02  0.3349460434D-01
      0.2825394365D+01  0.2347269535D+00
      0.6401216923D+00  0.8137573261D+00
 S   1 1.00       0.000000000000
      0.1612777588D+00  0.1000000000D+01
 ****
     60 0
 S   3 1.00       0.000000000000
      0.1873113696D+02  0.3349460434D-01
      0.2825394365D+01  0.2347269535D+00
      0.6401216923D+00  0.8137573261D+00
 S   1 1.00       0.000000000000
      0.1612777588D+00  0.1000000000D+01
 ****
     61 0
 S   3 1.00       0.000000000000
      0.1873113696D+02  0.3349460434D-01
      0.2825394365D+01  0.2347269535D+00
      0.6401216923D+00  0.8137573261D+00
 S   1 1.00       0.000000000000
      0.1612777588D+00  0.1000000000D+01
 ****
     62 0
 S   3 1.00       0.000000000000
      0.1873113696D+02  0.3349460434D-01
      0.2825394365D+01  0.2347269535D+00
      0.6401216923D+00  0.8137573261D+00
 S   1 1.00       0.000000000000
      0.1612777588D+00  0.1000000000D+01
 ****

   635 basis functions,  1208 primitive gaussians,   635 cartesian basis functions
   141 alpha electrons      141 beta electrons
       nuclear repulsion energy      4204.3600961590 Hartrees.
 IExCor=  402 DFT=T Ex+Corr=B3LYP ExCW=0 ScaHFX=  0.200000
 ScaDFX=  0.800000  0.720000  1.000000  0.810000 ScalE2=  1.000000  1.000000
 IRadAn=      5 IRanWt=     -1 IRanGd=            0 ICorTp=0 IEmpDi=  4
 NAtoms=   62 NActive=   62 NUniq=   62 SFac= 1.00D+00 NAtFMM=   60 NAOKFM=T Big=T
 Integral buffers will be    131072 words long.
 Regular integral format.
 Two-electron integral symmetry is turned off.
 Leave Link  301 at Sat Nov  5 12:05:42 2022, MaxMem=   402653184 cpu:               0.6 elap:               0.1
 (Enter /home/wykgroup/appl/g16/l302.exe)
 NPDir=0 NMtPBC=     1 NCelOv=     1 NCel=       1 NClECP=     1 NCelD=      1
         NCelK=      1 NCelE2=     1 NClLst=     1 CellRange=     0.0.
 One-electron integrals computed using PRISM.
 NBasis=   635 RedAO= T EigKep=  3.89D-04  NBF=   635
 NBsUse=   635 1.00D-06 EigRej= -1.00D+00 NBFU=   635
 Precomputing XC quadrature grid using
 IXCGrd= 4 IRadAn=           5 IRanWt=          -1 IRanGd=           0 AccXCQ= 0.00D+00.
 Generated NRdTot=       0 NPtTot=           0 NUsed=           0 NTot=          32
 NSgBfM=   604   604   604   604   604 MxSgAt=    62 MxSgA2=    62.
 Leave Link  302 at Sat Nov  5 12:05:42 2022, MaxMem=   402653184 cpu:              11.4 elap:               0.8
 (Enter /home/wykgroup/appl/g16/l303.exe)
 DipDrv:  MaxL=1.
 Leave Link  303 at Sat Nov  5 12:05:42 2022, MaxMem=   402653184 cpu:               0.8 elap:               0.1
 (Enter /home/wykgroup/appl/g16/l308.exe)
 Leave Link  308 at Sat Nov  5 12:05:43 2022, MaxMem=   402653184 cpu:               1.0 elap:               0.1
 (Enter /home/wykgroup/appl/g16/l401.exe)
 ExpMin= 1.17D-01 ExpMax= 2.19D+04 ExpMxC= 3.30D+03 IAcc=3 IRadAn=         5 AccDes= 0.00D+00
 Harris functional with IExCor=  402 and IRadAn=       5 diagonalized for initial guess.
 HarFok:  IExCor=  402 AccDes= 0.00D+00 IRadAn=         5 IDoV= 1 UseB2=F ITyADJ=14
 ICtDFT=  3500011 ScaDFX=  1.000000  1.000000  1.000000  1.000000
 FoFCou: FMM=F IPFlag=           0 FMFlag=      100000 FMFlg1=        2001
         NFxFlg=           0 DoJE=T BraDBF=F KetDBF=T FulRan=T
         wScrn=  0.000000 ICntrl=       500 IOpCl=  0 I1Cent=   200000004 NGrid=           0
         NMat0=    1 NMatS0=      1 NMatT0=    0 NMatD0=    1 NMtDS0=    0 NMtDT0=    0
 Symmetry not used in FoFCou.
 Harris En= -2132.56674810410    
 JPrj=0 DoOrth=F DoCkMO=F.
 Leave Link  401 at Sat Nov  5 12:05:45 2022, MaxMem=   402653184 cpu:              33.7 elap:               2.4
 (Enter /home/wykgroup/appl/g16/l502.exe)
 Two-electron integral symmetry not used.
 Closed shell SCF:
 Using DIIS extrapolation, IDIIS=  1040.
 NGot=   402653184 LenX=   401832581 LenY=   401428721
 Requested convergence on RMS density matrix=1.00D-08 within  32 cycles.
 Requested convergence on MAX density matrix=1.00D-06.
 Requested convergence on             energy=1.00D-06.
 No special actions if energy rises.
 Fock matrices will be formed incrementally for  20 cycles.
 Integral accuracy reduced to 1.0D-05 until final iterations.

 Cycle   1  Pass 0  IDiag  1:
 FoFJK:  IHMeth= 1 ICntrl=       0 DoSepK=F KAlg= 0 I1Cent=           0 FoldK=F
 IRaf= 730000000 NMat=       1 IRICut=       1 DoRegI=T DoRafI=F ISym2E= 0 IDoP0=0 IntGTp=1.
 FoFCou: FMM=T IPFlag=           0 FMFlag=      100000 FMFlg1=        2001
         NFxFlg=           0 DoJE=F BraDBF=F KetDBF=F FulRan=T
         wScrn=  0.000000 ICntrl=         0 IOpCl=  0 I1Cent=           0 NGrid=           0
         NMat0=    1 NMatS0=      1 NMatT0=    0 NMatD0=    1 NMtDS0=    0 NMtDT0=    0
 Symmetry not used in FoFCou.
 FMM levels:  10  Number of levels for PrismC:   9
 E= -2131.88396456131    
 DIIS: error= 2.82D-02 at cycle   1 NSaved=   1.
 NSaved= 1 IEnMin= 1 EnMin= -2131.88396456131     IErMin= 1 ErrMin= 2.82D-02
 ErrMax= 2.82D-02  0.00D+00 EMaxC= 1.00D-01 BMatC= 8.23D-01 BMatP= 8.23D-01
 IDIUse=3 WtCom= 7.18D-01 WtEn= 2.82D-01
 Coeff-Com:  0.100D+01
 Coeff-En:   0.100D+01
 Coeff:      0.100D+01
 Gap=     0.224 Goal=   None    Shift=    0.000
 GapD=    0.224 DampG=1.000 DampE=0.500 DampFc=0.5000 IDamp=-1.
 Damping current iteration by 5.00D-01
 RMSDP=3.98D-03 MaxDP=2.36D-01              OVMax= 3.05D-01

 Cycle   2  Pass 0  IDiag  1:
 RMSU=  1.98D-03    CP:  9.85D-01
 E= -2132.07609136883     Delta-E=       -0.192126807518 Rises=F Damp=T
 DIIS: error= 9.29D-03 at cycle   2 NSaved=   2.
 NSaved= 2 IEnMin= 2 EnMin= -2132.07609136883     IErMin= 2 ErrMin= 9.29D-03
 ErrMax= 9.29D-03  0.00D+00 EMaxC= 1.00D-01 BMatC= 1.70D-01 BMatP= 8.23D-01
 IDIUse=3 WtCom= 9.07D-01 WtEn= 9.29D-02
 Coeff-Com:  0.228D+00 0.772D+00
 Coeff-En:   0.359D+00 0.641D+00
 Coeff:      0.240D+00 0.760D+00
 Gap=     0.254 Goal=   None    Shift=    0.000
 RMSDP=1.48D-03 MaxDP=1.41D-01 DE=-1.92D-01 OVMax= 2.60D-01

 Cycle   3  Pass 0  IDiag  1:
 RMSU=  1.27D-03    CP:  9.74D-01  6.19D-01
 E= -2132.48252452672     Delta-E=       -0.406433157893 Rises=F Damp=F
 DIIS: error= 1.21D-02 at cycle   3 NSaved=   3.
 NSaved= 3 IEnMin= 3 EnMin= -2132.48252452672     IErMin= 2 ErrMin= 9.29D-03
 ErrMax= 1.21D-02  0.00D+00 EMaxC= 1.00D-01 BMatC= 2.11D-01 BMatP= 1.70D-01
 IDIUse=2 WtCom= 0.00D+00 WtEn= 1.00D+00
 Coeff-En:   0.000D+00 0.820D-02 0.992D+00
 Coeff:      0.000D+00 0.820D-02 0.992D+00
 Gap=     0.135 Goal=   None    Shift=    0.000
 RMSDP=2.68D-03 MaxDP=2.74D-01 DE=-4.06D-01 OVMax= 2.87D-01

 Cycle   4  Pass 0  IDiag  1:
 RMSU=  1.24D-03    CP:  9.82D-01  1.35D+00 -4.89D-01
 E= -2131.38615885691     Delta-E=        1.096365669815 Rises=F Damp=F
 DIIS: error= 3.18D-02 at cycle   4 NSaved=   4.
 NSaved= 4 IEnMin= 3 EnMin= -2132.48252452672     IErMin= 2 ErrMin= 9.29D-03
 ErrMax= 3.18D-02  0.00D+00 EMaxC= 1.00D-01 BMatC= 1.53D+00 BMatP= 1.70D-01
 IDIUse=2 WtCom= 0.00D+00 WtEn= 1.00D+00
 Coeff-En:   0.000D+00 0.000D+00 0.814D+00 0.186D+00
 Coeff:      0.000D+00 0.000D+00 0.814D+00 0.186D+00
 Gap=     0.134 Goal=   None    Shift=    0.000
 RMSDP=1.52D-03 MaxDP=1.68D-01 DE= 1.10D+00 OVMax= 1.65D-01

 Cycle   5  Pass 0  IDiag  1:
 RMSU=  2.89D-04    CP:  9.79D-01  8.69D-01  2.72D-01  4.94D-01
 E= -2132.56631410142     Delta-E=       -1.180155244511 Rises=F Damp=F
 DIIS: error= 9.40D-03 at cycle   5 NSaved=   5.
 NSaved= 5 IEnMin= 5 EnMin= -2132.56631410142     IErMin= 2 ErrMin= 9.29D-03
 ErrMax= 9.40D-03  0.00D+00 EMaxC= 1.00D-01 BMatC= 1.22D-01 BMatP= 1.70D-01
 IDIUse=3 WtCom= 9.06D-01 WtEn= 9.40D-02
 Coeff-Com:  0.115D-02 0.349D-01 0.348D+00-0.792D-01 0.695D+00
 Coeff-En:   0.000D+00 0.000D+00 0.394D+00 0.000D+00 0.606D+00
 Coeff:      0.104D-02 0.316D-01 0.352D+00-0.718D-01 0.687D+00
 Gap=     0.152 Goal=   None    Shift=    0.000
 RMSDP=5.47D-04 MaxDP=5.21D-02 DE=-1.18D+00 OVMax= 6.48D-02

 Cycle   6  Pass 0  IDiag  1:
 RMSU=  1.03D-04    CP:  9.77D-01  7.44D-01  5.82D-01  2.88D-01  7.05D-01
 E= -2132.66998259853     Delta-E=       -0.103668497110 Rises=F Damp=F
 DIIS: error= 9.84D-04 at cycle   6 NSaved=   6.
 NSaved= 6 IEnMin= 6 EnMin= -2132.66998259853     IErMin= 6 ErrMin= 9.84D-04
 ErrMax= 9.84D-04  0.00D+00 EMaxC= 1.00D-01 BMatC= 1.37D-03 BMatP= 1.22D-01
 IDIUse=3 WtCom= 9.90D-01 WtEn= 9.84D-03
 Coeff-Com: -0.283D-02 0.206D-01 0.189D+00-0.671D-01 0.454D+00 0.406D+00
 Coeff-En:   0.000D+00 0.000D+00 0.000D+00 0.000D+00 0.000D+00 0.100D+01
 Coeff:     -0.280D-02 0.204D-01 0.187D+00-0.664D-01 0.450D+00 0.412D+00
 Gap=     0.129 Goal=   None    Shift=    0.000
 RMSDP=7.17D-05 MaxDP=4.74D-03 DE=-1.04D-01 OVMax= 1.03D-02

 Cycle   7  Pass 0  IDiag  1:
 RMSU=  3.35D-05    CP:  9.77D-01  7.48D-01  5.79D-01  2.80D-01  7.85D-01
                    CP:  4.43D-01
 E= -2132.67115143584     Delta-E=       -0.001168837307 Rises=F Damp=F
 DIIS: error= 4.23D-04 at cycle   7 NSaved=   7.
 NSaved= 7 IEnMin= 7 EnMin= -2132.67115143584     IErMin= 7 ErrMin= 4.23D-04
 ErrMax= 4.23D-04  0.00D+00 EMaxC= 1.00D-01 BMatC= 1.37D-04 BMatP= 1.37D-03
 IDIUse=3 WtCom= 9.96D-01 WtEn= 4.23D-03
 Coeff-Com: -0.507D-03 0.405D-02 0.620D-01-0.243D-01 0.150D+00 0.243D+00
 Coeff-Com:  0.566D+00
 Coeff-En:   0.000D+00 0.000D+00 0.000D+00 0.000D+00 0.000D+00 0.752D-01
 Coeff-En:   0.925D+00
 Coeff:     -0.505D-03 0.404D-02 0.617D-01-0.242D-01 0.150D+00 0.242D+00
 Coeff:      0.567D+00
 Gap=     0.130 Goal=   None    Shift=    0.000
 RMSDP=2.53D-05 MaxDP=1.72D-03 DE=-1.17D-03 OVMax= 4.22D-03

 Cycle   8  Pass 0  IDiag  1:
 RMSU=  1.62D-05    CP:  9.77D-01  7.45D-01  5.83D-01  2.81D-01  7.73D-01
                    CP:  5.10D-01  5.32D-01
 E= -2132.67126031603     Delta-E=       -0.000108880196 Rises=F Damp=F
 DIIS: error= 1.60D-04 at cycle   8 NSaved=   8.
 NSaved= 8 IEnMin= 8 EnMin= -2132.67126031603     IErMin= 8 ErrMin= 1.60D-04
 ErrMax= 1.60D-04  0.00D+00 EMaxC= 1.00D-01 BMatC= 2.83D-05 BMatP= 1.37D-04
 IDIUse=3 WtCom= 9.98D-01 WtEn= 1.60D-03
 Coeff-Com:  0.516D-03-0.204D-02 0.153D-01-0.525D-02 0.313D-01 0.103D+00
 Coeff-Com:  0.393D+00 0.464D+00
 Coeff-En:   0.000D+00 0.000D+00 0.000D+00 0.000D+00 0.000D+00 0.000D+00
 Coeff-En:   0.125D+00 0.875D+00
 Coeff:      0.515D-03-0.204D-02 0.153D-01-0.524D-02 0.312D-01 0.103D+00
 Coeff:      0.392D+00 0.465D+00
 Gap=     0.129 Goal=   None    Shift=    0.000
 RMSDP=1.05D-05 MaxDP=6.54D-04 DE=-1.09D-04 OVMax= 1.72D-03

 Cycle   9  Pass 0  IDiag  1:
 RMSU=  4.65D-06    CP:  9.77D-01  7.44D-01  5.84D-01  2.81D-01  7.71D-01
                    CP:  5.16D-01  6.56D-01  4.95D-01
 E= -2132.67128799635     Delta-E=       -0.000027680316 Rises=F Damp=F
 DIIS: error= 4.88D-05 at cycle   9 NSaved=   9.
 NSaved= 9 IEnMin= 9 EnMin= -2132.67128799635     IErMin= 9 ErrMin= 4.88D-05
 ErrMax= 4.88D-05  0.00D+00 EMaxC= 1.00D-01 BMatC= 1.44D-06 BMatP= 2.83D-05
 IDIUse=1 WtCom= 1.00D+00 WtEn= 0.00D+00
 Coeff-Com:  0.419D-03-0.152D-02 0.305D-02-0.712D-03 0.331D-02 0.369D-01
 Coeff-Com:  0.174D+00 0.262D+00 0.522D+00
 Coeff:      0.419D-03-0.152D-02 0.305D-02-0.712D-03 0.331D-02 0.369D-01
 Coeff:      0.174D+00 0.262D+00 0.522D+00
 Gap=     0.129 Goal=   None    Shift=    0.000
 RMSDP=2.83D-06 MaxDP=1.52D-04 DE=-2.77D-05 OVMax= 2.93D-04

 Initial convergence to 1.0D-05 achieved.  Increase integral accuracy.
 Cycle  10  Pass 1  IDiag  1:
 E= -2132.67124321307     Delta-E=        0.000044783280 Rises=F Damp=F
 DIIS: error= 9.90D-05 at cycle   1 NSaved=   1.
 NSaved= 1 IEnMin= 1 EnMin= -2132.67124321307     IErMin= 1 ErrMin= 9.90D-05
 ErrMax= 9.90D-05  0.00D+00 EMaxC= 1.00D-01 BMatC= 6.14D-06 BMatP= 6.14D-06
 IDIUse=1 WtCom= 1.00D+00 WtEn= 0.00D+00
 Coeff-Com:  0.100D+01
 Coeff:      0.100D+01
 Gap=     0.129 Goal=   None    Shift=    0.000
 RMSDP=2.83D-06 MaxDP=1.52D-04 DE= 4.48D-05 OVMax= 3.49D-04

 Cycle  11  Pass 1  IDiag  1:
 RMSU=  5.97D-05    CP:  1.00D+00
 E= -2132.67124785879     Delta-E=       -0.000004645722 Rises=F Damp=F
 DIIS: error= 2.01D-05 at cycle   2 NSaved=   2.
 NSaved= 2 IEnMin= 2 EnMin= -2132.67124785879     IErMin= 2 ErrMin= 2.01D-05
 ErrMax= 2.01D-05  0.00D+00 EMaxC= 1.00D-01 BMatC= 6.59D-07 BMatP= 6.14D-06
 IDIUse=1 WtCom= 1.00D+00 WtEn= 0.00D+00
 Coeff-Com:  0.127D+00 0.873D+00
 Coeff:      0.127D+00 0.873D+00
 Gap=     0.129 Goal=   None    Shift=    0.000
 RMSDP=3.62D-06 MaxDP=2.80D-04 DE=-4.65D-06 OVMax= 4.27D-04

 Cycle  12  Pass 1  IDiag  1:
 RMSU=  3.58D-06    CP:  1.00D+00  1.01D+00
 E= -2132.67124663532     Delta-E=        0.000001223468 Rises=F Damp=F
 DIIS: error= 3.42D-05 at cycle   3 NSaved=   3.
 NSaved= 3 IEnMin= 2 EnMin= -2132.67124785879     IErMin= 2 ErrMin= 2.01D-05
 ErrMax= 3.42D-05  0.00D+00 EMaxC= 1.00D-01 BMatC= 2.03D-06 BMatP= 6.59D-07
 IDIUse=1 WtCom= 1.00D+00 WtEn= 0.00D+00
 Coeff-Com: -0.212D-02 0.640D+00 0.363D+00
 Coeff:     -0.212D-02 0.640D+00 0.363D+00
 Gap=     0.129 Goal=   None    Shift=    0.000
 RMSDP=2.35D-06 MaxDP=2.15D-04 DE= 1.22D-06 OVMax= 3.34D-04

 Cycle  13  Pass 1  IDiag  1:
 RMSU=  4.97D-07    CP:  1.00D+00  1.01D+00  3.60D-01
 E= -2132.67124842321     Delta-E=       -0.000001787887 Rises=F Damp=F
 DIIS: error= 4.56D-06 at cycle   4 NSaved=   4.
 NSaved= 4 IEnMin= 4 EnMin= -2132.67124842321     IErMin= 4 ErrMin= 4.56D-06
 ErrMax= 4.56D-06  0.00D+00 EMaxC= 1.00D-01 BMatC= 3.86D-08 BMatP= 6.59D-07
 IDIUse=1 WtCom= 1.00D+00 WtEn= 0.00D+00
 Coeff-Com: -0.373D-02 0.419D+00 0.246D+00 0.338D+00
 Coeff:     -0.373D-02 0.419D+00 0.246D+00 0.338D+00
 Gap=     0.129 Goal=   None    Shift=    0.000
 RMSDP=3.24D-07 MaxDP=2.53D-05 DE=-1.79D-06 OVMax= 5.36D-05

 Cycle  14  Pass 1  IDiag  1:
 RMSU=  1.43D-07    CP:  1.00D+00  1.01D+00  3.73D-01  4.23D-01
 E= -2132.67124845652     Delta-E=       -0.000000033307 Rises=F Damp=F
 DIIS: error= 8.31D-07 at cycle   5 NSaved=   5.
 NSaved= 5 IEnMin= 5 EnMin= -2132.67124845652     IErMin= 5 ErrMin= 8.31D-07
 ErrMax= 8.31D-07  0.00D+00 EMaxC= 1.00D-01 BMatC= 8.38D-10 BMatP= 3.86D-08
 IDIUse=1 WtCom= 1.00D+00 WtEn= 0.00D+00
 Coeff-Com: -0.226D-02 0.242D+00 0.143D+00 0.214D+00 0.403D+00
 Coeff:     -0.226D-02 0.242D+00 0.143D+00 0.214D+00 0.403D+00
 Gap=     0.129 Goal=   None    Shift=    0.000
 RMSDP=6.36D-08 MaxDP=3.90D-06 DE=-3.33D-08 OVMax= 7.22D-06

 Cycle  15  Pass 1  IDiag  1:
 RMSU=  5.01D-08    CP:  1.00D+00  1.01D+00  3.73D-01  4.39D-01  7.33D-01
 E= -2132.67124845732     Delta-E=       -0.000000000806 Rises=F Damp=F
 DIIS: error= 2.32D-07 at cycle   6 NSaved=   6.
 NSaved= 6 IEnMin= 6 EnMin= -2132.67124845732     IErMin= 6 ErrMin= 2.32D-07
 ErrMax= 2.32D-07  0.00D+00 EMaxC= 1.00D-01 BMatC= 5.81D-11 BMatP= 8.38D-10
 IDIUse=1 WtCom= 1.00D+00 WtEn= 0.00D+00
 Coeff-Com: -0.644D-03 0.652D-01 0.386D-01 0.637D-01 0.232D+00 0.601D+00
 Coeff:     -0.644D-03 0.652D-01 0.386D-01 0.637D-01 0.232D+00 0.601D+00
 Gap=     0.129 Goal=   None    Shift=    0.000
 RMSDP=1.50D-08 MaxDP=1.13D-06 DE=-8.06D-10 OVMax= 1.57D-06

 Cycle  16  Pass 1  IDiag  1:
 RMSU=  1.17D-08    CP:  1.00D+00  1.01D+00  3.73D-01  4.38D-01  7.74D-01
                    CP:  8.60D-01
 E= -2132.67124845737     Delta-E=       -0.000000000043 Rises=F Damp=F
 DIIS: error= 6.76D-08 at cycle   7 NSaved=   7.
 NSaved= 7 IEnMin= 7 EnMin= -2132.67124845737     IErMin= 7 ErrMin= 6.76D-08
 ErrMax= 6.76D-08  0.00D+00 EMaxC= 1.00D-01 BMatC= 8.10D-12 BMatP= 5.81D-11
 IDIUse=1 WtCom= 1.00D+00 WtEn= 0.00D+00
 Coeff-Com: -0.135D-03 0.123D-01 0.727D-02 0.149D-01 0.928D-01 0.347D+00
 Coeff-Com:  0.526D+00
 Coeff:     -0.135D-03 0.123D-01 0.727D-02 0.149D-01 0.928D-01 0.347D+00
 Coeff:      0.526D+00
 Gap=     0.129 Goal=   None    Shift=    0.000
 RMSDP=6.72D-09 MaxDP=4.29D-07 DE=-4.27D-11 OVMax= 8.80D-07

 SCF Done:  E(RB3LYP) =  -2132.67124846     A.U. after   16 cycles
            NFock= 16  Conv=0.67D-08     -V/T= 2.0081
 KE= 2.115431184904D+03 PE=-1.339292130285D+04 EE= 4.940458773335D+03
 Leave Link  502 at Sat Nov  5 12:06:46 2022, MaxMem=   402653184 cpu:             819.7 elap:              61.2
 (Enter /home/wykgroup/appl/g16/l508.exe)
 QCSCF skips out because SCF is already converged.
 Leave Link  508 at Sat Nov  5 12:06:46 2022, MaxMem=   402653184 cpu:               0.1 elap:               0.0
 (Enter /home/wykgroup/appl/g16/l801.exe)
 DoSCS=F DFT=T ScalE2(SS,OS)=  1.000000  1.000000
 ExpMin= 1.17D-01 ExpMax= 2.19D+04 ExpMxC= 3.30D+03 IAcc=3 IRadAn=         5 AccDes= 0.00D+00
 HarFok:  IExCor=  205 AccDes= 0.00D+00 IRadAn=         5 IDoV=-2 UseB2=F ITyADJ=14
 ICtDFT= 12500011 ScaDFX=  1.000000  1.000000  1.000000  1.000000
 GSVD:  LWork=       -2193 too small for GESVD, short by        9890 words or        9890 for optimal perf.
 Largest valence mixing into a core orbital is  1.06D-04
 Largest core mixing into a valence orbital is  2.13D-05
 Range of M.O.s used for correlation:    44   635
 NBasis=   635 NAE=   141 NBE=   141 NFC=    43 NFV=     0
 NROrb=    592 NOA=    98 NOB=    98 NVA=   494 NVB=   494
 Leave Link  801 at Sat Nov  5 12:06:47 2022, MaxMem=   402653184 cpu:               3.6 elap:               0.4
 (Enter /home/wykgroup/appl/g16/l914.exe)
 RHF ground state
 Two-electron integral symmetry not used.
 MDV=   402653184 DFT=T DoStab=F Mixed=T DoRPA=T DoScal=F NonHer=T
 Making orbital integer symmetry assigments:
    16 initial guesses have been made.
 Convergence on wavefunction:    0.001000000000000
 Davidson Disk Diagonalization:  ConvIn= 1.00D-03 SkipCon=T Conv= 1.00D-03.
 Max sub-space:  2000 roots to seek:    16 dimension of matrix:        96824
 Iteration     1 Dimension    16 NMult     0 NNew     16
 CISAX will form    16 AO SS matrices at one time.
 NMat=    16 NSing=     8 JSym2X= 0.
 FoFJK:  IHMeth= 1 ICntrl=       0 DoSepK=F KAlg= 0 I1Cent=           0 FoldK=F
 IRaf= 730000000 NMat=      32 IRICut=       1 DoRegI=T DoRafI=F ISym2E= 0 IDoP0=0 IntGTp=1.
 FoFCou: FMM=T IPFlag=           0 FMFlag=      100000 FMFlg1=        2001
         NFxFlg=           0 DoJE=F BraDBF=F KetDBF=F FulRan=T
         wScrn=  0.000000 ICntrl=         0 IOpCl=  0 I1Cent=           0 NGrid=           0
         NMat0=   32 NMatS0=      8 NMatT0=    8 NMatD0=   32 NMtDS0=    0 NMtDT0=    0
 Symmetry not used in FoFCou.
 FMM levels:  10  Number of levels for PrismC:   9
 New state      1 was old state      2
 New state      2 was old state      8
 New state      3 was old state      7
 New state      4 was old state      1
 New state      5 was old state      4
 New state      7 was old state     12
 New state      8 was old state      3
 Excitation Energies [eV] at current iteration:
 Root      1 :     2.647870220293059
 Root      2 :     2.670338112167103
 Root      3 :     2.966066577788241
 Root      4 :     3.029930604368387
 Root      5 :     3.064782643543710
 Root      6 :     3.198918423499731
 Root      7 :     3.433925712806864
 Root      8 :     3.681975266460199
 Root      9 :     3.827134653887262
 Root     10 :     3.827517401295494
 Root     11 :     3.938609863628421
 Root     12 :     4.114281785055359
 Root     13 :     4.115225125883947
 Root     14 :     4.240775242009013
 Root     15 :     4.240875020571559
 Root     16 :     4.445283361182153
 Iteration     2 Dimension    24 NMult    16 NNew      8
 CISAX will form     8 AO SS matrices at one time.
 NMat=     8 NSing=     4 JSym2X= 0.
 Root      1 not converged, maximum delta is    0.209838519703964
 Root      2 not converged, maximum delta is    0.183203664533192
 Root      3 not converged, maximum delta is    0.118840352929526
 Root      4 not converged, maximum delta is    0.123696914315325
 Excitation Energies [eV] at current iteration:
 Root      1 :     2.356856304030164   Change is   -0.291013916262894
 Root      2 :     2.416674562599272   Change is   -0.253663549567831
 Root      3 :     2.844828520281347   Change is   -0.121238057506895
 Root      4 :     2.985458974376757   Change is   -0.044471629991630
 Iteration     3 Dimension    32 NMult    24 NNew      8
 CISAX will form     8 AO SS matrices at one time.
 NMat=     8 NSing=     4 JSym2X= 0.
 Root      1 not converged, maximum delta is    0.031522540501336
 Root      2 not converged, maximum delta is    0.021226760084048
 Root      3 not converged, maximum delta is    0.009993747316596
 Root      4 not converged, maximum delta is    0.025660837254460
 Excitation Energies [eV] at current iteration:
 Root      1 :     2.321789401086694   Change is   -0.035066902943470
 Root      2 :     2.408831316753292   Change is   -0.007843245845980
 Root      3 :     2.830677634891017   Change is   -0.014150885390330
 Root      4 :     2.979552773067626   Change is   -0.005906201309131
 Iteration     4 Dimension    40 NMult    32 NNew      8
 CISAX will form     8 AO SS matrices at one time.
 NMat=     8 NSing=     4 JSym2X= 0.
 Root      1 not converged, maximum delta is    0.004053460979708
 Root      2 not converged, maximum delta is    0.003646793841892
 Root      3 not converged, maximum delta is    0.004501305292751
 Root      4 not converged, maximum delta is    0.007627506442854
 Excitation Energies [eV] at current iteration:
 Root      1 :     2.319713229828300   Change is   -0.002076171258394
 Root      2 :     2.408258653398264   Change is   -0.000572663355028
 Root      3 :     2.828630948215319   Change is   -0.002046686675698
 Root      4 :     2.978537407004326   Change is   -0.001015366063300
 Iteration     5 Dimension    48 NMult    40 NNew      8
 CISAX will form     8 AO SS matrices at one time.
 NMat=     8 NSing=     4 JSym2X= 0.
 Root      1 has converged.
 Root      2 has converged.
 Root      3 not converged, maximum delta is    0.001189738278331
 Root      4 not converged, maximum delta is    0.001055960709683
 Excitation Energies [eV] at current iteration:
 Root      1 :     2.319583903312614   Change is   -0.000129326515686
 Root      2 :     2.408206802046853   Change is   -0.000051851351410
 Root      3 :     2.828230410166794   Change is   -0.000400538048525
 Root      4 :     2.978359926597172   Change is   -0.000177480407155
 Iteration     6 Dimension    52 NMult    48 NNew      4
 CISAX will form     4 AO SS matrices at one time.
 NMat=     4 NSing=     4 JSym2X= 0.
 Root      1 has converged.
 Root      2 has converged.
 Root      3 has converged.
 Root      4 has converged.
 Excitation Energies [eV] at current iteration:
 Root      1 :     2.319583903312508   Change is   -0.000000000000106
 Root      2 :     2.408206802046785   Change is   -0.000000000000068
 Root      3 :     2.828183100801061   Change is   -0.000047309365733
 Root      4 :     2.978322398217209   Change is   -0.000037528379962
 Convergence achieved on expansion vectors.
 ***********************************************************************
 Excited states from <AA,BB:AA,BB> singles matrix:
 ***********************************************************************
 
 1PDM for each excited state written to RWF  633
 Ground to excited state transition densities written to RWF  633
 Ground to excited state transition electric dipole moments (Au):
       state          X           Y           Z        Dip. S.      Osc.
         1         0.0000      0.0000     -0.0000      0.0000      0.0000
         2         0.0000      0.0000      0.0000      0.0000      0.0000
         3        -0.0364     -0.1076      0.0551      0.0159      0.0011
         4        -0.6493     -0.5525     -0.0748      0.7324      0.0534
 Ground to excited state transition velocity dipole moments (Au):
       state          X           Y           Z        Dip. S.      Osc.
         1        -0.0000     -0.0000      0.0000      0.0000      0.0000
         2        -0.0000     -0.0000     -0.0000      0.0000      0.0000
         3         0.0068      0.0092     -0.0039      0.0001      0.0009
         4         0.0682      0.0574      0.0081      0.0080      0.0488
 Ground to excited state transition magnetic dipole moments (Au):
       state          X           Y           Z
         1         0.0000      0.0000      0.0000
         2        -0.0000      0.0000      0.0000
         3        -0.2438     -0.4662      0.2316
         4         0.1357     -0.1538     -0.4855
 Ground to excited state transition velocity quadrupole moments (Au):
       state          XX          YY          ZZ          XY          XZ          YZ
         1         0.0000     -0.0000     -0.0000      0.0000     -0.0000      0.0000
         2         0.0000     -0.0000      0.0000      0.0000     -0.0000     -0.0000
         3        -0.0839      0.0302     -0.0186     -0.0393      0.0185      0.0037
         4        -0.4373      0.1574     -0.0378     -0.3825     -0.0529     -0.0134
 <0|del|b> * <b|rxdel|0> + <0|del|b> * <b|delr+rdel|0>
 Rotatory Strengths (R) in cgs (10**-40 erg-esu-cm/Gauss)
       state          XX          YY          ZZ    R(velocity)    E-M Angle
         1        -0.0000     -0.0000     -0.0000     -0.0000       90.00
         2        -0.0000      0.0000     -0.0000     -0.0000       90.00
         3       -17.7586     -9.1201    -19.7369    -15.5385      170.56
         4       -41.3861     24.2264     -5.5082     -7.5560       94.27
 1/2[<0|r|b>*<b|rxdel|0> + (<0|rxdel|b>*<b|r|0>)*]
 Rotatory Strengths (R) in cgs (10**-40 erg-esu-cm/Gauss)
       state          XX          YY          ZZ     R(length)
         1        -0.0000     -0.0000      0.0000     -0.0000
         2         0.0000     -0.0000     -0.0000     -0.0000
         3        -6.2750    -35.4631     -9.0264    -16.9215
         4        62.3005    -60.0756    -25.6781     -7.8177
  1/2[<0|del|b>*<b|r|0> + (<0|r|b>*<b|del|0>)*] (Au)
       state          X           Y           Z        Dip. S.   Osc.(frdel)
         1        -0.0000     -0.0000     -0.0000      0.0000      0.0000
         2        -0.0000     -0.0000     -0.0000      0.0000      0.0000
         3        -0.0002     -0.0010     -0.0002      0.0015      0.0010
         4        -0.0443     -0.0317     -0.0006      0.0766      0.0511

 Excitation energies and oscillator strengths:
 
 Excited state symmetry could not be determined.
 Excited State   1:      Triplet-?Sym    2.3196 eV  534.51 nm  f=0.0000  <S**2>=2.000
     132 ->142         0.19226
     136 ->142         0.24896
     138 ->142         0.12411
     140 ->142         0.42142
     141 ->142         0.41533
 This state for optimization and/or second-order correction.
 Total Energy, E(TD-HF/TD-DFT) =  -2132.58600532    
 Copying the excited state density for this state as the 1-particle RhoCI density.
 
 Excited state symmetry could not be determined.
 Excited State   2:      Triplet-?Sym    2.4082 eV  514.84 nm  f=0.0000  <S**2>=2.000
     136 ->142        -0.16748
     138 ->142         0.55690
     139 ->142        -0.32763
 
 Excited state symmetry could not be determined.
 Excited State   3:      Singlet-?Sym    2.8282 eV  438.39 nm  f=0.0011  <S**2>=0.000
     136 ->142        -0.11842
     138 ->142         0.57613
     139 ->142        -0.32155
     140 ->142         0.11910
     141 ->142        -0.11319
 
 Excited state symmetry could not be determined.
 Excited State   4:      Singlet-?Sym    2.9783 eV  416.29 nm  f=0.0534  <S**2>=0.000
     138 ->142         0.10086
     141 ->142         0.68764
 SavETr:  write IOETrn=   770 NScale= 10 NData=  16 NLR=1 NState=    4 LETran=      82.
 Leave Link  914 at Sat Nov  5 12:15:05 2022, MaxMem=   402653184 cpu:            5374.8 elap:             497.9
 (Enter /home/wykgroup/appl/g16/l601.exe)
 Copying SCF densities to generalized density rwf, IOpCl= 0 IROHF=0.

 **********************************************************************

            Population analysis using the SCF Density.

 **********************************************************************

 Alpha  occ. eigenvalues --  -88.91366 -19.21215 -19.20175 -19.19552 -19.17759
 Alpha  occ. eigenvalues --  -19.13726 -19.13677 -14.39748 -14.35100 -14.34932
 Alpha  occ. eigenvalues --  -10.29557 -10.29076 -10.28598 -10.27564 -10.26993
 Alpha  occ. eigenvalues --  -10.26696 -10.26577 -10.26461 -10.24918 -10.24847
 Alpha  occ. eigenvalues --  -10.24823 -10.24690 -10.22173 -10.21461 -10.20954
 Alpha  occ. eigenvalues --  -10.20821 -10.20344 -10.19925 -10.19672 -10.19248
 Alpha  occ. eigenvalues --  -10.19174 -10.19155 -10.19083 -10.19073 -10.19021
 Alpha  occ. eigenvalues --  -10.18824 -10.18786 -10.18725 -10.18163  -7.97455
 Alpha  occ. eigenvalues --   -5.93845  -5.93512  -5.93134  -1.10474  -1.09501
 Alpha  occ. eigenvalues --   -1.06834  -1.06412  -1.06149  -1.02943  -1.02019
 Alpha  occ. eigenvalues --   -0.97021  -0.87884  -0.85929  -0.85226  -0.83731
 Alpha  occ. eigenvalues --   -0.81814  -0.80494  -0.78734  -0.78199  -0.77134
 Alpha  occ. eigenvalues --   -0.75348  -0.74562  -0.74441  -0.74039  -0.72384
 Alpha  occ. eigenvalues --   -0.70708  -0.70116  -0.68429  -0.67173  -0.64301
 Alpha  occ. eigenvalues --   -0.62167  -0.61449  -0.60873  -0.60211  -0.59076
 Alpha  occ. eigenvalues --   -0.58570  -0.57630  -0.56973  -0.54769  -0.54390
 Alpha  occ. eigenvalues --   -0.53730  -0.53044  -0.52789  -0.51777  -0.51083
 Alpha  occ. eigenvalues --   -0.50549  -0.49821  -0.48013  -0.47826  -0.47333
 Alpha  occ. eigenvalues --   -0.46994  -0.46007  -0.45694  -0.45396  -0.45209
 Alpha  occ. eigenvalues --   -0.45121  -0.44976  -0.44360  -0.44146  -0.43987
 Alpha  occ. eigenvalues --   -0.43596  -0.42806  -0.42647  -0.42016  -0.41944
 Alpha  occ. eigenvalues --   -0.41782  -0.41360  -0.41003  -0.40823  -0.40282
 Alpha  occ. eigenvalues --   -0.40145  -0.39457  -0.38787  -0.38597  -0.38394
 Alpha  occ. eigenvalues --   -0.37488  -0.37201  -0.36471  -0.36273  -0.35693
 Alpha  occ. eigenvalues --   -0.35084  -0.34390  -0.34306  -0.33948  -0.32418
 Alpha  occ. eigenvalues --   -0.32117  -0.31915  -0.30957  -0.29970  -0.29004
 Alpha  occ. eigenvalues --   -0.28067  -0.26564  -0.25565  -0.25060  -0.24866
 Alpha  occ. eigenvalues --   -0.24677  -0.24518  -0.23552  -0.23162  -0.22731
 Alpha  occ. eigenvalues --   -0.21405
 Alpha virt. eigenvalues --   -0.08493  -0.02883  -0.01712  -0.00705  -0.00513
 Alpha virt. eigenvalues --   -0.00142   0.00085   0.00950   0.02337   0.03040
 Alpha virt. eigenvalues --    0.05373   0.06413   0.07120   0.09033   0.09268
 Alpha virt. eigenvalues --    0.09619   0.09838   0.10640   0.11093   0.11454
 Alpha virt. eigenvalues --    0.12016   0.12033   0.12894   0.13187   0.13602
 Alpha virt. eigenvalues --    0.13935   0.14568   0.14590   0.14874   0.15276
 Alpha virt. eigenvalues --    0.15429   0.15920   0.16050   0.16331   0.16820
 Alpha virt. eigenvalues --    0.17082   0.17310   0.17803   0.17988   0.18391
 Alpha virt. eigenvalues --    0.19042   0.19346   0.20058   0.20312   0.20382
 Alpha virt. eigenvalues --    0.21377   0.21487   0.22431   0.23615   0.24080
 Alpha virt. eigenvalues --    0.24727   0.25676   0.25959   0.26286   0.26837
 Alpha virt. eigenvalues --    0.26941   0.30056   0.30487   0.30998   0.31169
 Alpha virt. eigenvalues --    0.31706   0.32090   0.32634   0.33219   0.33728
 Alpha virt. eigenvalues --    0.34085   0.34213   0.34461   0.35427   0.36587
 Alpha virt. eigenvalues --    0.36794   0.37513   0.38643   0.40088   0.41483
 Alpha virt. eigenvalues --    0.42570   0.44254   0.44948   0.46245   0.47254
 Alpha virt. eigenvalues --    0.47451   0.48405   0.48887   0.49506   0.49612
 Alpha virt. eigenvalues --    0.49811   0.50043   0.51398   0.51583   0.52106
 Alpha virt. eigenvalues --    0.52415   0.52696   0.52753   0.54011   0.54302
 Alpha virt. eigenvalues --    0.54703   0.54934   0.55174   0.55288   0.55822
 Alpha virt. eigenvalues --    0.56126   0.56451   0.57124   0.57362   0.57423
 Alpha virt. eigenvalues --    0.57704   0.58381   0.58539   0.58856   0.59168
 Alpha virt. eigenvalues --    0.59213   0.59426   0.59653   0.59930   0.60079
 Alpha virt. eigenvalues --    0.60473   0.60797   0.61007   0.61378   0.61634
 Alpha virt. eigenvalues --    0.61984   0.62230   0.62712   0.62855   0.63159
 Alpha virt. eigenvalues --    0.63560   0.64050   0.64191   0.64954   0.65064
 Alpha virt. eigenvalues --    0.65554   0.65945   0.66559   0.67601   0.67811
 Alpha virt. eigenvalues --    0.68767   0.69156   0.69202   0.70728   0.71157
 Alpha virt. eigenvalues --    0.71374   0.71965   0.73221   0.73865   0.74677
 Alpha virt. eigenvalues --    0.75687   0.75752   0.76085   0.77271   0.77624
 Alpha virt. eigenvalues --    0.78216   0.78489   0.79925   0.80441   0.80802
 Alpha virt. eigenvalues --    0.81217   0.81717   0.82145   0.82292   0.82767
 Alpha virt. eigenvalues --    0.83271   0.83811   0.84184   0.84489   0.84742
 Alpha virt. eigenvalues --    0.84939   0.85353   0.85866   0.86375   0.86659
 Alpha virt. eigenvalues --    0.86981   0.87200   0.87635   0.88115   0.88494
 Alpha virt. eigenvalues --    0.89472   0.89528   0.90048   0.90383   0.90769
 Alpha virt. eigenvalues --    0.91105   0.91571   0.91709   0.91937   0.92323
 Alpha virt. eigenvalues --    0.92719   0.93365   0.93725   0.94167   0.94753
 Alpha virt. eigenvalues --    0.95283   0.96139   0.97014   0.97788   0.98196
 Alpha virt. eigenvalues --    0.99632   0.99884   1.00226   1.00289   1.00752
 Alpha virt. eigenvalues --    1.01273   1.01887   1.03137   1.03271   1.04034
 Alpha virt. eigenvalues --    1.04604   1.05209   1.05997   1.06357   1.06778
 Alpha virt. eigenvalues --    1.07927   1.08105   1.08346   1.10534   1.10663
 Alpha virt. eigenvalues --    1.11561   1.11848   1.12623   1.13656   1.14276
 Alpha virt. eigenvalues --    1.15031   1.15683   1.16312   1.17370   1.18334
 Alpha virt. eigenvalues --    1.19158   1.19713   1.20445   1.20468   1.22470
 Alpha virt. eigenvalues --    1.22842   1.23606   1.24313   1.24659   1.25574
 Alpha virt. eigenvalues --    1.25871   1.26570   1.28378   1.28517   1.31120
 Alpha virt. eigenvalues --    1.31991   1.32449   1.33130   1.33573   1.34371
 Alpha virt. eigenvalues --    1.35485   1.36179   1.36470   1.36853   1.37928
 Alpha virt. eigenvalues --    1.38438   1.38923   1.40798   1.41782   1.41984
 Alpha virt. eigenvalues --    1.42375   1.43062   1.43445   1.44084   1.44576
 Alpha virt. eigenvalues --    1.45867   1.46275   1.46883   1.47369   1.47951
 Alpha virt. eigenvalues --    1.48268   1.48761   1.49245   1.49591   1.50603
 Alpha virt. eigenvalues --    1.51018   1.51557   1.51823   1.52805   1.53896
 Alpha virt. eigenvalues --    1.55455   1.58450   1.60310   1.62003   1.63137
 Alpha virt. eigenvalues --    1.63399   1.65260   1.65717   1.66888   1.68847
 Alpha virt. eigenvalues --    1.69037   1.70641   1.71386   1.71742   1.73396
 Alpha virt. eigenvalues --    1.74084   1.74812   1.75189   1.76535   1.77187
 Alpha virt. eigenvalues --    1.77593   1.77897   1.78293   1.78984   1.79373
 Alpha virt. eigenvalues --    1.79862   1.80026   1.81293   1.81357   1.81582
 Alpha virt. eigenvalues --    1.82434   1.82762   1.83053   1.83875   1.85262
 Alpha virt. eigenvalues --    1.87107   1.87390   1.87825   1.87920   1.88182
 Alpha virt. eigenvalues --    1.89344   1.89786   1.90251   1.91024   1.91622
 Alpha virt. eigenvalues --    1.92077   1.92376   1.93534   1.94560   1.95056
 Alpha virt. eigenvalues --    1.95642   1.96399   1.97685   1.98003   1.98161
 Alpha virt. eigenvalues --    1.98334   1.98721   1.99579   2.01164   2.02437
 Alpha virt. eigenvalues --    2.03098   2.03676   2.04749   2.05220   2.05691
 Alpha virt. eigenvalues --    2.05852   2.06562   2.06881   2.08094   2.09077
 Alpha virt. eigenvalues --    2.09372   2.10180   2.10571   2.12009   2.13091
 Alpha virt. eigenvalues --    2.13489   2.14179   2.15142   2.15327   2.15765
 Alpha virt. eigenvalues --    2.16333   2.16585   2.18725   2.19068   2.19885
 Alpha virt. eigenvalues --    2.22386   2.22849   2.23417   2.24179   2.25652
 Alpha virt. eigenvalues --    2.26221   2.26508   2.27265   2.28740   2.29505
 Alpha virt. eigenvalues --    2.30182   2.30753   2.31052   2.31558   2.32033
 Alpha virt. eigenvalues --    2.32477   2.33161   2.34037   2.34904   2.35447
 Alpha virt. eigenvalues --    2.36214   2.36661   2.37428   2.38302   2.38952
 Alpha virt. eigenvalues --    2.39357   2.40713   2.41297   2.42164   2.44627
 Alpha virt. eigenvalues --    2.44931   2.45088   2.45218   2.48781   2.49439
 Alpha virt. eigenvalues --    2.51488   2.52064   2.53693   2.54276   2.55704
 Alpha virt. eigenvalues --    2.56634   2.56778   2.58196   2.59280   2.60058
 Alpha virt. eigenvalues --    2.61242   2.62029   2.63079   2.63649   2.64293
 Alpha virt. eigenvalues --    2.65587   2.65828   2.66546   2.66890   2.67174
 Alpha virt. eigenvalues --    2.68476   2.70306   2.71165   2.71849   2.72262
 Alpha virt. eigenvalues --    2.73808   2.74208   2.76550   2.77293   2.77452
 Alpha virt. eigenvalues --    2.77787   2.77958   2.80413   2.80634   2.82511
 Alpha virt. eigenvalues --    2.84068   2.86521   2.87391   2.87778   2.89240
 Alpha virt. eigenvalues --    2.90450   2.92869   2.97406   2.98021   2.98460
 Alpha virt. eigenvalues --    2.99954   3.01511   3.02035   3.02697   3.06822
 Alpha virt. eigenvalues --    3.10108   3.12948   3.18539   3.20153   3.21519
 Alpha virt. eigenvalues --    3.26852   3.36095   3.41176   3.43300   3.44290
 Alpha virt. eigenvalues --    3.75844   3.93118   3.94144   3.98074   4.00145
 Alpha virt. eigenvalues --    4.07105   4.07570   4.08963   4.09941   4.10947
 Alpha virt. eigenvalues --    4.11469   4.11914   4.12695   4.14335   4.18035
 Alpha virt. eigenvalues --    4.19483   4.20131   4.20532   4.25976   4.27606
 Alpha virt. eigenvalues --    4.29362   4.29730   4.32566   4.33907   4.35382
 Alpha virt. eigenvalues --    4.36013   4.40539   4.41632   4.43348   4.43823
 Alpha virt. eigenvalues --    4.47014   4.50314   4.58626   4.62081   4.69594
 Alpha virt. eigenvalues --    4.70870   4.78430   4.92333   5.00227
          Condensed to atoms (all electrons):
 Mulliken charges:
               1
     1  C   -0.516119
     2  C    0.114960
     3  N   -0.262228
     4  N   -0.322274
     5  C    0.313945
     6  N   -0.527683
     7  C    0.570775
     8  O   -0.482247
     9  C    0.314538
    10  O   -0.477749
    11  C   -0.006386
    12  C    0.264928
    13  O   -0.594963
    14  C    0.084884
    15  C   -0.209657
    16  C   -0.191403
    17  C    0.344814
    18  C    0.329515
    19  C   -0.183930
    20  O   -0.514655
    21  C   -0.064041
    22  C   -0.066547
    23  O   -0.515703
    24  C   -0.119759
    25  C    0.223165
    26  C   -0.204866
    27  C   -0.193025
    28  C    0.384465
    29  O   -0.520778
    30  C   -0.110398
    31  C    0.134154
    32  C   -0.158182
    33  C   -0.132820
    34  C   -0.126378
    35  C   -0.128974
    36  C   -0.180544
    37  C   -0.185462
    38  C   -0.164258
    39  S    0.266929
    40  H    0.192770
    41  H    0.176826
    42  H    0.176231
    43  H    0.418273
    44  H    0.147097
    45  H    0.152504
    46  H    0.174832
    47  H    0.162190
    48  H    0.169718
    49  H    0.167213
    50  H    0.172363
    51  H    0.187088
    52  H    0.131037
    53  H    0.136266
    54  H    0.157241
    55  H    0.144951
    56  H    0.145287
    57  H    0.132788
    58  H    0.130550
    59  H    0.130576
    60  H    0.124104
    61  H    0.139983
    62  H    0.144069
 Sum of Mulliken charges =  -0.00000
 Mulliken charges with hydrogens summed into heavy atoms:
               1
     1  C    0.029709
     2  C    0.114960
     3  N   -0.262228
     4  N   -0.322274
     5  C    0.313945
     6  N   -0.527683
     7  C    0.570775
     8  O   -0.482247
     9  C    0.314538
    10  O   -0.477749
    11  C   -0.006386
    12  C    0.264928
    13  O   -0.176690
    14  C    0.084884
    15  C   -0.062561
    16  C   -0.038900
    17  C    0.344814
    18  C    0.329515
    19  C   -0.009097
    20  O   -0.514655
    21  C    0.267867
    22  C    0.273030
    23  O   -0.515703
    24  C    0.067329
    25  C    0.223165
    26  C   -0.073829
    27  C   -0.056760
    28  C    0.384465
    29  O   -0.520778
    30  C    0.191794
    31  C    0.134154
    32  C   -0.012896
    33  C   -0.000033
    34  C    0.004173
    35  C    0.001601
    36  C   -0.056441
    37  C   -0.045478
    38  C   -0.020188
    39  S    0.266929
 Electronic spatial extent (au):  <R**2>=          30995.2838
 Charge=              0.0000 electrons
 Dipole moment (field-independent basis, Debye):
    X=             -1.3348    Y=             -6.7053    Z=             -0.0745  Tot=              6.8373
 Quadrupole moment (field-independent basis, Debye-Ang):
   XX=           -198.1400   YY=           -207.3437   ZZ=           -223.9603
   XY=             29.4978   XZ=              9.8001   YZ=            -10.1294
 Traceless Quadrupole moment (field-independent basis, Debye-Ang):
   XX=             11.6747   YY=              2.4710   ZZ=            -14.1456
   XY=             29.4978   XZ=              9.8001   YZ=            -10.1294
 Octapole moment (field-independent basis, Debye-Ang**2):
  XXX=            107.6530  YYY=           -214.8458  ZZZ=           -103.3893  XYY=             34.1542
  XXY=           -325.1024  XXZ=             12.8593  XZZ=             28.4517  YZZ=           -169.2699
  YYZ=             40.8689  XYZ=             73.2334
 Hexadecapole moment (field-independent basis, Debye-Ang**3):
 XXXX=         -22305.5943 YYYY=         -12262.9251 ZZZZ=          -2089.9263 XXXY=            303.4328
 XXXZ=           -713.9435 YYYX=            109.7313 YYYZ=            406.4956 ZZZX=            -35.7486
 ZZZY=            571.1024 XXYY=          -5814.1017 XXZZ=          -4365.3358 YYZZ=          -2757.0307
 XXYZ=           -476.2591 YYXZ=            -28.1336 ZZXY=             39.2311
 N-N= 4.204360096159D+03 E-N=-1.339292128310D+04  KE= 2.115431184904D+03
 Leave Link  601 at Sat Nov  5 12:15:05 2022, MaxMem=   402653184 cpu:               0.9 elap:               0.1
 (Enter /home/wykgroup/appl/g16/l9999.exe)
 Electronic transition elements 
                 1             2             3             4 
      1  -0.213259D+04 -0.213258D+04 -0.213257D+04 -0.213256D+04
      2   0.000000D+00  0.000000D+00 -0.363946D-01 -0.649327D+00
      3   0.000000D+00  0.000000D+00 -0.107568D+00 -0.552458D+00
      4   0.000000D+00  0.000000D+00  0.551039D-01 -0.747868D-01
      5   0.000000D+00  0.000000D+00  0.676158D-02  0.681632D-01
      6   0.000000D+00  0.000000D+00  0.922169D-02  0.574433D-01
      7   0.000000D+00  0.000000D+00 -0.390053D-02  0.808073D-02
      8   0.000000D+00  0.000000D+00 -0.243812D+00  0.135677D+00
      9   0.000000D+00  0.000000D+00 -0.466200D+00 -0.153772D+00
     10   0.000000D+00  0.000000D+00  0.231638D+00 -0.485531D+00
     11   0.000000D+00  0.000000D+00 -0.839322D-01 -0.437276D+00
     12   0.000000D+00  0.000000D+00  0.301576D-01  0.157352D+00
     13   0.000000D+00  0.000000D+00 -0.186486D-01 -0.377562D-01
     14   0.000000D+00  0.000000D+00 -0.393402D-01 -0.382465D+00
     15   0.000000D+00  0.000000D+00  0.185265D-01 -0.528553D-01
     16   0.000000D+00  0.000000D+00  0.365471D-02 -0.134399D-01
 1\1\GINC-NODE96\SP\RB3LYP TD-FC\6-31G(d)\C29H23N3O6S1\WYKGROUP\05-Nov-
 2022\0\\#p b3lyp/6-31g(d) 6D 10F nosymm GFInput td=(50-50,nstate=2) SC
 F=XQC\\Gaussian input prepared by ASE\\0,1\C,0,1.3310443782,7.63815263
 43,-0.2773205964\C,0,0.7444102395,6.2674692624,-0.4065606539\N,0,1.052
 9226326,5.4476902121,-1.3694274121\N,0,0.3918339676,4.2487130924,-1.29
 80285705\C,0,-0.4132263244,4.1843955637,-0.2722053576\N,0,-1.183388042
 8,3.0685652749,-0.012777495\C,0,-2.1786613244,3.0212422863,0.946473650
 1\O,0,-2.4391846557,3.8992551933,1.7474258488\C,0,-2.8917606691,1.6686
 076626,0.7771903601\O,0,-3.8153189551,1.3285881657,1.4983294624\C,0,-2
 .2520519307,1.015059407,-0.3584187222\C,0,-2.6695598532,-0.0873018815,
 -1.047336155\O,0,-2.0070775051,-0.3397056998,-2.2080706349\C,0,-3.7738
 682035,-1.0074596369,-0.7277362472\C,0,-4.5579439391,-1.5225164209,-1.
 7820736823\C,0,-5.5851365166,-2.4207084558,-1.5243534785\C,0,-5.836988
 7885,-2.8412239245,-0.2166998149\C,0,-5.0364460375,-2.3588852305,0.837
 3317581\C,0,-4.0230465002,-1.442042241,0.5815036946\O,0,-5.2252216107,
 -2.7712094596,2.1304396703\C,0,-6.0270165354,-3.9463089105,2.255536448
 2\C,0,-7.2556634976,-3.8376431526,1.3688762726\O,0,-6.8617859069,-3.71
 80455463,-0.0030237072\C,0,-1.0531502605,1.8312611652,-0.8266758589\C,
 0,0.2864934684,1.1351934136,-0.6179190754\C,0,0.6526046136,0.630670365
 1,0.6311618698\C,0,1.8733173362,-0.0188641554,0.8250538646\C,0,2.75026
 34311,-0.1752804892,-0.2558167473\O,0,3.9640300892,-0.79859268,-0.1894
 995732\C,0,4.4229607424,-1.2635436221,1.0787376239\C,0,5.8160498895,-1
 .8240570178,0.9214133325\C,0,6.7708812039,-1.1596679412,0.1413605106\C
 ,0,8.0682642924,-1.6594802249,0.0385417376\C,0,8.4302601025,-2.8240452
 399,0.7204276924\C,0,7.4844098949,-3.4901558675,1.499915427\C,0,6.1827
 068939,-2.9938595617,1.59408708\C,0,2.3916478965,0.3252177235,-1.51532
 99574\C,0,1.176869182,0.9754800184,-1.6869916447\S,0,-0.4439602863,5.6
 288235134,0.7291099644\H,0,2.0305226391,7.7925975062,-1.1024865249\H,0
 ,0.556758843,8.4127903129,-0.3207237283\H,0,1.869699632,7.7581894105,0
 .6696869963\H,0,-2.2447063694,-1.2291021116,-2.5196771743\H,0,-4.40557
 70755,-1.1712906156,-2.7989397638\H,0,-6.2207853354,-2.797037357,-2.31
 94025307\H,0,-3.4374666816,-1.0776127315,1.414485653\H,0,-5.4377471787
 ,-4.8305829825,1.9760040511\H,0,-6.3023914881,-4.0189071161,3.31045940
 78\H,0,-7.8766888745,-4.7345013439,1.4304539856\H,0,-7.8536117079,-2.9
 628802941,1.6556362051\H,0,-1.1409201372,2.1119714331,-1.8801505978\H,
 0,-0.0183842146,0.7402438104,1.4799808409\H,0,2.1228247294,-0.39683940
 37,1.8096922277\H,0,4.42184011,-0.4256617605,1.7930011617\H,0,3.743279
 0726,-2.0329472052,1.4712478054\H,0,6.4865680144,-0.2591416353,-0.3943
 7567\H,0,8.7992294389,-1.1384164918,-0.5742084275\H,0,9.4425442451,-3.
 2112259846,0.6404625718\H,0,7.754605771,-4.4009227427,2.0277552559\H,0
 ,5.4454136747,-3.5230951451,2.1940650297\H,0,3.0861785167,0.2019783917
 ,-2.3403394252\H,0,0.9182984653,1.3786044618,-2.6616692327\\Version=ES
 64L-G16RevB.01\HF=-2132.6712485\RMSD=6.721e-09\PG=C01 [X(C29H23N3O6S1)
 ]\\@


 Life may have no meaning.  Or even worse, it may have a
 meaning of which I disapprove.
                                 -- Ashleigh Brilliant
 Job cpu time:       0 days  1 hours 44 minutes 12.4 seconds.
 Elapsed time:       0 days  0 hours  9 minutes 23.7 seconds.
 File lengths (MBytes):  RWF=   2362 Int=      0 D2E=      0 Chk=     84 Scr=      1
 Normal termination of Gaussian 16 at Sat Nov  5 12:15:05 2022.
