 Entering Gaussian System, Link 0=/home/wykgroup/appl/g16/g16
 Input=calculation/no_transfer_pubchem_sampling_8_b3lyp/118390352_rwf.com
 Output=calculation/no_transfer_pubchem_sampling_8_b3lyp/118390352_rwf.log
 Initial command:
 /home/wykgroup/appl/g16/l1.exe "/userdata/scratch/wykgroup/khs/calculation/no_transfer_pubchem_sampling_8_b3lyp/118390352_rwf/Gau-16642.inp" -scrdir="/userdata/scratch/wykgroup/khs/calculation/no_transfer_pubchem_sampling_8_b3lyp/118390352_rwf/"
 Entering Link 1 = /home/wykgroup/appl/g16/l1.exe PID=     16643.
  
 Copyright (c) 1988-2017, Gaussian, Inc.  All Rights Reserved.
  
 This is part of the Gaussian(R) 16 program.  It is based on
 the Gaussian(R) 09 system (copyright 2009, Gaussian, Inc.),
 the Gaussian(R) 03 system (copyright 2003, Gaussian, Inc.),
 the Gaussian(R) 98 system (copyright 1998, Gaussian, Inc.),
 the Gaussian(R) 94 system (copyright 1995, Gaussian, Inc.),
 the Gaussian 92(TM) system (copyright 1992, Gaussian, Inc.),
 the Gaussian 90(TM) system (copyright 1990, Gaussian, Inc.),
 the Gaussian 88(TM) system (copyright 1988, Gaussian, Inc.),
 the Gaussian 86(TM) system (copyright 1986, Carnegie Mellon
 University), and the Gaussian 82(TM) system (copyright 1983,
 Carnegie Mellon University). Gaussian is a federally registered
 trademark of Gaussian, Inc.
  
 This software contains proprietary and confidential information,
 including trade secrets, belonging to Gaussian, Inc.
  
 This software is provided under written license and may be
 used, copied, transmitted, or stored only in accord with that
 written license.
  
 The following legend is applicable only to US Government
 contracts under FAR:
  
                    RESTRICTED RIGHTS LEGEND
  
 Use, reproduction and disclosure by the US Government is
 subject to restrictions as set forth in subparagraphs (a)
 and (c) of the Commercial Computer Software - Restricted
 Rights clause in FAR 52.227-19.
  
 Gaussian, Inc.
 340 Quinnipiac St., Bldg. 40, Wallingford CT 06492
  
  
 ---------------------------------------------------------------
 Warning -- This program may not be used in any manner that
 competes with the business of Gaussian, Inc. or will provide
 assistance to any competitor of Gaussian, Inc.  The licensee
 of this program is prohibited from giving any competitor of
 Gaussian, Inc. access to this program.  By using this program,
 the user acknowledges that Gaussian, Inc. is engaged in the
 business of creating and licensing software in the field of
 computational chemistry and represents and warrants to the
 licensee that it is not a competitor of Gaussian, Inc. and that
 it will not use this program in any manner prohibited above.
 ---------------------------------------------------------------
  

 Cite this work as:
 Gaussian 16, Revision B.01,
 M. J. Frisch, G. W. Trucks, H. B. Schlegel, G. E. Scuseria, 
 M. A. Robb, J. R. Cheeseman, G. Scalmani, V. Barone, 
 G. A. Petersson, H. Nakatsuji, X. Li, M. Caricato, A. V. Marenich, 
 J. Bloino, B. G. Janesko, R. Gomperts, B. Mennucci, H. P. Hratchian, 
 J. V. Ortiz, A. F. Izmaylov, J. L. Sonnenberg, D. Williams-Young, 
 F. Ding, F. Lipparini, F. Egidi, J. Goings, B. Peng, A. Petrone, 
 T. Henderson, D. Ranasinghe, V. G. Zakrzewski, J. Gao, N. Rega, 
 G. Zheng, W. Liang, M. Hada, M. Ehara, K. Toyota, R. Fukuda, 
 J. Hasegawa, M. Ishida, T. Nakajima, Y. Honda, O. Kitao, H. Nakai, 
 T. Vreven, K. Throssell, J. A. Montgomery, Jr., J. E. Peralta, 
 F. Ogliaro, M. J. Bearpark, J. J. Heyd, E. N. Brothers, K. N. Kudin, 
 V. N. Staroverov, T. A. Keith, R. Kobayashi, J. Normand, 
 K. Raghavachari, A. P. Rendell, J. C. Burant, S. S. Iyengar, 
 J. Tomasi, M. Cossi, J. M. Millam, M. Klene, C. Adamo, R. Cammi, 
 J. W. Ochterski, R. L. Martin, K. Morokuma, O. Farkas, 
 J. B. Foresman, and D. J. Fox, Gaussian, Inc., Wallingford CT, 2016.
 
 ******************************************
 Gaussian 16:  ES64L-G16RevB.01 20-Dec-2017
                 5-Nov-2022 
 ******************************************
 %chk=calculation/no_transfer_pubchem_sampling_8_b3lyp/118390352_rwf.chk
 %rwf=calculation/no_transfer_pubchem_sampling_8_b3lyp/118390352_rwf.rwf
 %nprocshared=14
 Will use up to   14 processors via shared memory.
 %mem=3GB
 -------------------------------------------------------------------
 #p b3lyp/6-31g(d) 6D 10F nosymm GFInput td=(50-50,nstate=2) SCF=XQC
 -------------------------------------------------------------------
 1/38=1,172=1/1;
 2/12=2,15=1,17=6,18=5,40=1/2;
 3/5=1,6=6,7=1,8=22,11=9,24=10,25=1,30=1,74=-5/1,2,3,8;
 4//1;
 5/5=2,8=3,13=1,38=5/2,8;
 8/6=1,10=2,108=2/1;
 9/41=2,42=1,48=2,70=2/14;
 6/7=2,8=2,9=2,10=2/1;
 99/5=1,9=1/99;
 Leave Link    1 at Sat Nov  5 10:12:19 2022, MaxMem=   402653184 cpu:               2.6 elap:               0.4
 (Enter /home/wykgroup/appl/g16/l101.exe)
 ------------------------------
 Gaussian input prepared by ASE
 ------------------------------
 Symbolic Z-matrix:
 Charge =  0 Multiplicity = 1
 O                     6.70517  -4.94574   1.72878 
 C                     6.0229   -4.2431    1.01225 
 C                     4.64266  -4.59601   0.62246 
 C                     4.20993  -5.90231   0.89753 
 C                     2.93354  -6.3046    0.53515 
 C                     2.07853  -5.39245  -0.09889 
 C                     2.49698  -4.09333  -0.35796 
 C                     3.78908  -3.66445   0.00293 
 C                     4.27941  -2.29784  -0.21227 
 C                     3.43323  -1.27362  -0.6542 
 C                     3.89088   0.02365  -0.89655 
 C                     2.97848   1.08308  -1.39983 
 C                     3.41512   1.998    -2.37232 
 C                     2.55199   2.98952  -2.83562 
 C                     1.24852   3.08322  -2.35519 
 C                     0.79594   2.18281  -1.37674 
 N                    -0.52398   2.28427  -0.86507 
 C                    -1.09001   3.56938  -0.63128 
 C                    -0.34929   4.57064   0.01507 
 C                    -0.90192   5.82836   0.23394 
 C                    -2.21529   6.13311  -0.16278 
 C                    -2.80392   7.47321   0.08264 
 C                    -2.51709   8.18514   1.26032 
 C                    -3.06882   9.44438   1.49063 
 C                    -3.92322   10.02138   0.54929 
 C                    -4.21899   9.32655  -0.62494 
 C                    -3.66497   8.0684   -0.85565 
 C                    -2.94941   5.11837  -0.80073 
 C                    -2.3996    3.86339  -1.04088 
 C                    -1.29467   1.11863  -0.60402 
 C                    -1.24447   0.01673  -1.47883 
 C                    -2.0095   -1.12608  -1.23738 
 C                    -2.84762  -1.17486  -0.12831 
 C                    -2.90993  -0.07009   0.7403 
 C                    -2.13266   1.06531   0.52136 
 C                    -3.87439  -0.36429   1.80659 
 C                    -4.27144   0.39501   2.90932 
 C                    -5.22441  -0.13175   3.78277 
 C                    -5.76935  -1.40052   3.55718 
 C                    -5.36861  -2.16241   2.45419 
 C                    -4.42462  -1.63907   1.57716 
 C                    -3.81383  -2.28711   0.31901 
 C                    -4.83795  -2.52188  -0.81254 
 C                    -4.5262   -3.3747   -1.8838 
 C                    -5.40126  -3.53029  -2.95856 
 C                    -6.61088  -2.83448  -2.9876 
 C                    -6.93133  -1.982    -1.93164 
 C                    -6.0535   -1.82637  -0.85695 
 C                    -3.10058  -3.58616   0.75489 
 C                    -3.80867  -4.79564   0.8372 
 C                    -3.20122  -5.95329   1.32403 
 C                    -1.87084  -5.92679   1.74462 
 C                    -1.15705  -4.73009   1.67327 
 C                    -1.76615  -3.57355   1.18231 
 C                     1.67212   1.1938   -0.90403 
 C                     5.24189   0.28985  -0.66171 
 C                     6.12955  -0.68582  -0.19443 
 C                     7.54016  -0.37999   0.07049 
 C                     8.06883   0.92537   0.0574 
 C                     9.42249   1.14748   0.27412 
 C                     10.29427   0.07495   0.5065 
 C                     9.79191  -1.21723   0.53012 
 C                     8.42202  -1.44527   0.32864 
 C                     7.94811  -2.84262   0.39721 
 O                     8.70136  -3.79388   0.40748 
 N                     6.52262  -3.00965   0.47107 
 C                     5.64507  -1.99976   0.0228 
 H                     4.90282  -6.57635   1.38932 
 H                     2.60057  -7.31861   0.73642 
 H                     1.07609  -5.69593  -0.38681 
 H                     1.81141  -3.41522  -0.85363 
 H                     2.38835  -1.49287  -0.83994 
 H                     4.41527   1.91099  -2.78617 
 H                     2.88925   3.68414  -3.60035 
 H                     0.57714   3.84698  -2.73299 
 H                     0.66628   4.3606    0.33582 
 H                    -0.29694   6.59292   0.71315 
 H                    -1.87617   7.73496   2.01342 
 H                    -2.83785   9.97173   2.41259 
 H                    -4.35424   11.00252   0.72899 
 H                    -4.87609   9.76894  -1.36923 
 H                    -3.88079   7.55015  -1.78593 
 H                    -3.9745    5.31035  -1.10482 
 H                    -2.98817   3.09903  -1.53837 
 H                    -0.61151   0.06715  -2.35869 
 H                    -1.96355  -1.95585  -1.9371 
 H                    -2.17479   1.9101    1.20141 
 H                    -3.8471    1.37961   3.08824 
 H                    -5.54319   0.44676   4.64566 
 H                    -6.5079   -1.8007    4.24653 
 H                    -5.78905  -3.15087   2.29221 
 H                    -3.59617  -3.93512  -1.87089 
 H                    -5.13655  -4.20028  -3.77264 
 H                    -7.29568  -2.95794  -3.82229 
 H                    -7.86972  -1.43336  -1.9385 
 H                    -6.31981  -1.15655  -0.0462 
 H                    -4.84225  -4.8367    0.50753 
 H                    -3.77191  -6.87714   1.37385 
 H                    -1.3973   -6.82745   2.12629 
 H                    -0.12123  -4.69158   1.99926 
 H                    -1.19768  -2.65023   1.13945 
 H                     1.33508   0.52255  -0.12093 
 H                     5.60535   1.29576  -0.83502 
 H                     7.41962   1.77755  -0.11019 
 H                     9.80429   2.16483   0.26406 
 H                     11.35233   0.25495   0.67253 
 H                     10.43113  -2.07472   0.71012 
 
 ITRead=  0  0  0  0  0  0  0  0  0  0  0  0  0  0  0  0  0  0  0  0
 ITRead=  0  0  0  0  0  0  0  0  0  0  0  0  0  0  0  0  0  0  0  0
 ITRead=  0  0  0  0  0  0  0  0  0  0  0  0  0  0  0  0  0  0  0  0
 ITRead=  0  0  0  0  0  0  0  0  0  0  0  0  0  0  0  0  0  0  0  0
 ITRead=  0  0  0  0  0  0  0  0  0  0  0  0  0  0  0  0  0  0  0  0
 ITRead=  0  0  0  0  0  0  0
 MicOpt= -1 -1 -1 -1 -1 -1 -1 -1 -1 -1 -1 -1 -1 -1 -1 -1 -1 -1 -1 -1
 MicOpt= -1 -1 -1 -1 -1 -1 -1 -1 -1 -1 -1 -1 -1 -1 -1 -1 -1 -1 -1 -1
 MicOpt= -1 -1 -1 -1 -1 -1 -1 -1 -1 -1 -1 -1 -1 -1 -1 -1 -1 -1 -1 -1
 MicOpt= -1 -1 -1 -1 -1 -1 -1 -1 -1 -1 -1 -1 -1 -1 -1 -1 -1 -1 -1 -1
 MicOpt= -1 -1 -1 -1 -1 -1 -1 -1 -1 -1 -1 -1 -1 -1 -1 -1 -1 -1 -1 -1
 MicOpt= -1 -1 -1 -1 -1 -1 -1
 NAtoms=    107 NQM=      107 NQMF=       0 NMMI=      0 NMMIF=      0
                NMic=       0 NMicF=      0.
                    Isotopes and Nuclear Properties:
 (Nuclear quadrupole moments (NQMom) in fm**2, nuclear magnetic moments (NMagM)
  in nuclear magnetons)

  Atom         1           2           3           4           5           6           7           8           9          10
 IAtWgt=          16          12          12          12          12          12          12          12          12          12
 AtmWgt=  15.9949146  12.0000000  12.0000000  12.0000000  12.0000000  12.0000000  12.0000000  12.0000000  12.0000000  12.0000000
 NucSpn=           0           0           0           0           0           0           0           0           0           0
 AtZEff=  -0.0000000  -0.0000000  -0.0000000  -0.0000000  -0.0000000  -0.0000000  -0.0000000  -0.0000000  -0.0000000  -0.0000000
 NQMom=    0.0000000   0.0000000   0.0000000   0.0000000   0.0000000   0.0000000   0.0000000   0.0000000   0.0000000   0.0000000
 NMagM=    0.0000000   0.0000000   0.0000000   0.0000000   0.0000000   0.0000000   0.0000000   0.0000000   0.0000000   0.0000000
 AtZNuc=   8.0000000   6.0000000   6.0000000   6.0000000   6.0000000   6.0000000   6.0000000   6.0000000   6.0000000   6.0000000

  Atom        11          12          13          14          15          16          17          18          19          20
 IAtWgt=          12          12          12          12          12          12          14          12          12          12
 AtmWgt=  12.0000000  12.0000000  12.0000000  12.0000000  12.0000000  12.0000000  14.0030740  12.0000000  12.0000000  12.0000000
 NucSpn=           0           0           0           0           0           0           2           0           0           0
 AtZEff=  -0.0000000  -0.0000000  -0.0000000  -0.0000000  -0.0000000  -0.0000000  -0.0000000  -0.0000000  -0.0000000  -0.0000000
 NQMom=    0.0000000   0.0000000   0.0000000   0.0000000   0.0000000   0.0000000   2.0440000   0.0000000   0.0000000   0.0000000
 NMagM=    0.0000000   0.0000000   0.0000000   0.0000000   0.0000000   0.0000000   0.4037610   0.0000000   0.0000000   0.0000000
 AtZNuc=   6.0000000   6.0000000   6.0000000   6.0000000   6.0000000   6.0000000   7.0000000   6.0000000   6.0000000   6.0000000

  Atom        21          22          23          24          25          26          27          28          29          30
 IAtWgt=          12          12          12          12          12          12          12          12          12          12
 AtmWgt=  12.0000000  12.0000000  12.0000000  12.0000000  12.0000000  12.0000000  12.0000000  12.0000000  12.0000000  12.0000000
 NucSpn=           0           0           0           0           0           0           0           0           0           0
 AtZEff=  -0.0000000  -0.0000000  -0.0000000  -0.0000000  -0.0000000  -0.0000000  -0.0000000  -0.0000000  -0.0000000  -0.0000000
 NQMom=    0.0000000   0.0000000   0.0000000   0.0000000   0.0000000   0.0000000   0.0000000   0.0000000   0.0000000   0.0000000
 NMagM=    0.0000000   0.0000000   0.0000000   0.0000000   0.0000000   0.0000000   0.0000000   0.0000000   0.0000000   0.0000000
 AtZNuc=   6.0000000   6.0000000   6.0000000   6.0000000   6.0000000   6.0000000   6.0000000   6.0000000   6.0000000   6.0000000

  Atom        31          32          33          34          35          36          37          38          39          40
 IAtWgt=          12          12          12          12          12          12          12          12          12          12
 AtmWgt=  12.0000000  12.0000000  12.0000000  12.0000000  12.0000000  12.0000000  12.0000000  12.0000000  12.0000000  12.0000000
 NucSpn=           0           0           0           0           0           0           0           0           0           0
 AtZEff=  -0.0000000  -0.0000000  -0.0000000  -0.0000000  -0.0000000  -0.0000000  -0.0000000  -0.0000000  -0.0000000  -0.0000000
 NQMom=    0.0000000   0.0000000   0.0000000   0.0000000   0.0000000   0.0000000   0.0000000   0.0000000   0.0000000   0.0000000
 NMagM=    0.0000000   0.0000000   0.0000000   0.0000000   0.0000000   0.0000000   0.0000000   0.0000000   0.0000000   0.0000000
 AtZNuc=   6.0000000   6.0000000   6.0000000   6.0000000   6.0000000   6.0000000   6.0000000   6.0000000   6.0000000   6.0000000

  Atom        41          42          43          44          45          46          47          48          49          50
 IAtWgt=          12          12          12          12          12          12          12          12          12          12
 AtmWgt=  12.0000000  12.0000000  12.0000000  12.0000000  12.0000000  12.0000000  12.0000000  12.0000000  12.0000000  12.0000000
 NucSpn=           0           0           0           0           0           0           0           0           0           0
 AtZEff=  -0.0000000  -0.0000000  -0.0000000  -0.0000000  -0.0000000  -0.0000000  -0.0000000  -0.0000000  -0.0000000  -0.0000000
 NQMom=    0.0000000   0.0000000   0.0000000   0.0000000   0.0000000   0.0000000   0.0000000   0.0000000   0.0000000   0.0000000
 NMagM=    0.0000000   0.0000000   0.0000000   0.0000000   0.0000000   0.0000000   0.0000000   0.0000000   0.0000000   0.0000000
 AtZNuc=   6.0000000   6.0000000   6.0000000   6.0000000   6.0000000   6.0000000   6.0000000   6.0000000   6.0000000   6.0000000

  Atom        51          52          53          54          55          56          57          58          59          60
 IAtWgt=          12          12          12          12          12          12          12          12          12          12
 AtmWgt=  12.0000000  12.0000000  12.0000000  12.0000000  12.0000000  12.0000000  12.0000000  12.0000000  12.0000000  12.0000000
 NucSpn=           0           0           0           0           0           0           0           0           0           0
 AtZEff=  -0.0000000  -0.0000000  -0.0000000  -0.0000000  -0.0000000  -0.0000000  -0.0000000  -0.0000000  -0.0000000  -0.0000000
 NQMom=    0.0000000   0.0000000   0.0000000   0.0000000   0.0000000   0.0000000   0.0000000   0.0000000   0.0000000   0.0000000
 NMagM=    0.0000000   0.0000000   0.0000000   0.0000000   0.0000000   0.0000000   0.0000000   0.0000000   0.0000000   0.0000000
 AtZNuc=   6.0000000   6.0000000   6.0000000   6.0000000   6.0000000   6.0000000   6.0000000   6.0000000   6.0000000   6.0000000

  Atom        61          62          63          64          65          66          67          68          69          70
 IAtWgt=          12          12          12          12          16          14          12           1           1           1
 AtmWgt=  12.0000000  12.0000000  12.0000000  12.0000000  15.9949146  14.0030740  12.0000000   1.0078250   1.0078250   1.0078250
 NucSpn=           0           0           0           0           0           2           0           1           1           1
 AtZEff=  -0.0000000  -0.0000000  -0.0000000  -0.0000000  -0.0000000  -0.0000000  -0.0000000  -0.0000000  -0.0000000  -0.0000000
 NQMom=    0.0000000   0.0000000   0.0000000   0.0000000   0.0000000   2.0440000   0.0000000   0.0000000   0.0000000   0.0000000
 NMagM=    0.0000000   0.0000000   0.0000000   0.0000000   0.0000000   0.4037610   0.0000000   2.7928460   2.7928460   2.7928460
 AtZNuc=   6.0000000   6.0000000   6.0000000   6.0000000   8.0000000   7.0000000   6.0000000   1.0000000   1.0000000   1.0000000

  Atom        71          72          73          74          75          76          77          78          79          80
 IAtWgt=           1           1           1           1           1           1           1           1           1           1
 AtmWgt=   1.0078250   1.0078250   1.0078250   1.0078250   1.0078250   1.0078250   1.0078250   1.0078250   1.0078250   1.0078250
 NucSpn=           1           1           1           1           1           1           1           1           1           1
 AtZEff=  -0.0000000  -0.0000000  -0.0000000  -0.0000000  -0.0000000  -0.0000000  -0.0000000  -0.0000000  -0.0000000  -0.0000000
 NQMom=    0.0000000   0.0000000   0.0000000   0.0000000   0.0000000   0.0000000   0.0000000   0.0000000   0.0000000   0.0000000
 NMagM=    2.7928460   2.7928460   2.7928460   2.7928460   2.7928460   2.7928460   2.7928460   2.7928460   2.7928460   2.7928460
 AtZNuc=   1.0000000   1.0000000   1.0000000   1.0000000   1.0000000   1.0000000   1.0000000   1.0000000   1.0000000   1.0000000

  Atom        81          82          83          84          85          86          87          88          89          90
 IAtWgt=           1           1           1           1           1           1           1           1           1           1
 AtmWgt=   1.0078250   1.0078250   1.0078250   1.0078250   1.0078250   1.0078250   1.0078250   1.0078250   1.0078250   1.0078250
 NucSpn=           1           1           1           1           1           1           1           1           1           1
 AtZEff=  -0.0000000  -0.0000000  -0.0000000  -0.0000000  -0.0000000  -0.0000000  -0.0000000  -0.0000000  -0.0000000  -0.0000000
 NQMom=    0.0000000   0.0000000   0.0000000   0.0000000   0.0000000   0.0000000   0.0000000   0.0000000   0.0000000   0.0000000
 NMagM=    2.7928460   2.7928460   2.7928460   2.7928460   2.7928460   2.7928460   2.7928460   2.7928460   2.7928460   2.7928460
 AtZNuc=   1.0000000   1.0000000   1.0000000   1.0000000   1.0000000   1.0000000   1.0000000   1.0000000   1.0000000   1.0000000

  Atom        91          92          93          94          95          96          97          98          99         100
 IAtWgt=           1           1           1           1           1           1           1           1           1           1
 AtmWgt=   1.0078250   1.0078250   1.0078250   1.0078250   1.0078250   1.0078250   1.0078250   1.0078250   1.0078250   1.0078250
 NucSpn=           1           1           1           1           1           1           1           1           1           1
 AtZEff=  -0.0000000  -0.0000000  -0.0000000  -0.0000000  -0.0000000  -0.0000000  -0.0000000  -0.0000000  -0.0000000  -0.0000000
 NQMom=    0.0000000   0.0000000   0.0000000   0.0000000   0.0000000   0.0000000   0.0000000   0.0000000   0.0000000   0.0000000
 NMagM=    2.7928460   2.7928460   2.7928460   2.7928460   2.7928460   2.7928460   2.7928460   2.7928460   2.7928460   2.7928460
 AtZNuc=   1.0000000   1.0000000   1.0000000   1.0000000   1.0000000   1.0000000   1.0000000   1.0000000   1.0000000   1.0000000

  Atom       101         102         103         104         105         106         107
 IAtWgt=           1           1           1           1           1           1           1
 AtmWgt=   1.0078250   1.0078250   1.0078250   1.0078250   1.0078250   1.0078250   1.0078250
 NucSpn=           1           1           1           1           1           1           1
 AtZEff=  -0.0000000  -0.0000000  -0.0000000  -0.0000000  -0.0000000  -0.0000000  -0.0000000
 NQMom=    0.0000000   0.0000000   0.0000000   0.0000000   0.0000000   0.0000000   0.0000000
 NMagM=    2.7928460   2.7928460   2.7928460   2.7928460   2.7928460   2.7928460   2.7928460
 AtZNuc=   1.0000000   1.0000000   1.0000000   1.0000000   1.0000000   1.0000000   1.0000000
 Leave Link  101 at Sat Nov  5 10:12:19 2022, MaxMem=   402653184 cpu:               2.0 elap:               0.4
 (Enter /home/wykgroup/appl/g16/l202.exe)
 Symmetry turned off by external request.
 Stoichiometry    C63H40N2O2
 Framework group  C1[X(C63H40N2O2)]
 Deg. of freedom   315
 Full point group                 C1      NOp   1
                          Input orientation:                          
 ---------------------------------------------------------------------
 Center     Atomic      Atomic             Coordinates (Angstroms)
 Number     Number       Type             X           Y           Z
 ---------------------------------------------------------------------
      1          8           0        6.705165   -4.945744    1.728779
      2          6           0        6.022898   -4.243104    1.012247
      3          6           0        4.642660   -4.596007    0.622463
      4          6           0        4.209933   -5.902307    0.897525
      5          6           0        2.933544   -6.304599    0.535152
      6          6           0        2.078528   -5.392449   -0.098887
      7          6           0        2.496983   -4.093332   -0.357962
      8          6           0        3.789083   -3.664449    0.002931
      9          6           0        4.279410   -2.297840   -0.212265
     10          6           0        3.433233   -1.273621   -0.654202
     11          6           0        3.890877    0.023650   -0.896554
     12          6           0        2.978481    1.083077   -1.399829
     13          6           0        3.415118    1.997999   -2.372323
     14          6           0        2.551986    2.989525   -2.835617
     15          6           0        1.248521    3.083219   -2.355188
     16          6           0        0.795935    2.182811   -1.376743
     17          7           0       -0.523984    2.284270   -0.865075
     18          6           0       -1.090013    3.569379   -0.631282
     19          6           0       -0.349285    4.570644    0.015075
     20          6           0       -0.901918    5.828365    0.233945
     21          6           0       -2.215292    6.133107   -0.162775
     22          6           0       -2.803919    7.473214    0.082639
     23          6           0       -2.517086    8.185145    1.260324
     24          6           0       -3.068816    9.444382    1.490627
     25          6           0       -3.923217   10.021381    0.549285
     26          6           0       -4.218994    9.326548   -0.624939
     27          6           0       -3.664975    8.068401   -0.855654
     28          6           0       -2.949414    5.118373   -0.800731
     29          6           0       -2.399597    3.863392   -1.040884
     30          6           0       -1.294666    1.118631   -0.604022
     31          6           0       -1.244466    0.016734   -1.478830
     32          6           0       -2.009498   -1.126084   -1.237379
     33          6           0       -2.847622   -1.174856   -0.128309
     34          6           0       -2.909928   -0.070095    0.740295
     35          6           0       -2.132658    1.065315    0.521360
     36          6           0       -3.874394   -0.364293    1.806593
     37          6           0       -4.271438    0.395009    2.909316
     38          6           0       -5.224414   -0.131752    3.782773
     39          6           0       -5.769355   -1.400522    3.557175
     40          6           0       -5.368610   -2.162409    2.454194
     41          6           0       -4.424624   -1.639074    1.577165
     42          6           0       -3.813834   -2.287109    0.319006
     43          6           0       -4.837948   -2.521883   -0.812542
     44          6           0       -4.526197   -3.374702   -1.883798
     45          6           0       -5.401256   -3.530292   -2.958563
     46          6           0       -6.610878   -2.834478   -2.987603
     47          6           0       -6.931330   -1.982000   -1.931639
     48          6           0       -6.053505   -1.826365   -0.856953
     49          6           0       -3.100579   -3.586157    0.754891
     50          6           0       -3.808674   -4.795644    0.837198
     51          6           0       -3.201219   -5.953292    1.324032
     52          6           0       -1.870839   -5.926790    1.744625
     53          6           0       -1.157045   -4.730092    1.673273
     54          6           0       -1.766151   -3.573549    1.182310
     55          6           0        1.672121    1.193804   -0.904034
     56          6           0        5.241888    0.289845   -0.661710
     57          6           0        6.129552   -0.685819   -0.194428
     58          6           0        7.540156   -0.379989    0.070487
     59          6           0        8.068830    0.925371    0.057400
     60          6           0        9.422491    1.147476    0.274123
     61          6           0       10.294268    0.074950    0.506498
     62          6           0        9.791913   -1.217232    0.530117
     63          6           0        8.422020   -1.445266    0.328639
     64          6           0        7.948112   -2.842621    0.397206
     65          8           0        8.701358   -3.793880    0.407476
     66          7           0        6.522620   -3.009647    0.471074
     67          6           0        5.645070   -1.999764    0.022797
     68          1           0        4.902816   -6.576355    1.389316
     69          1           0        2.600574   -7.318612    0.736422
     70          1           0        1.076088   -5.695928   -0.386813
     71          1           0        1.811406   -3.415216   -0.853628
     72          1           0        2.388349   -1.492870   -0.839944
     73          1           0        4.415270    1.910990   -2.786169
     74          1           0        2.889251    3.684136   -3.600347
     75          1           0        0.577135    3.846977   -2.732993
     76          1           0        0.666282    4.360597    0.335821
     77          1           0       -0.296938    6.592918    0.713148
     78          1           0       -1.876170    7.734964    2.013424
     79          1           0       -2.837845    9.971731    2.412589
     80          1           0       -4.354244   11.002519    0.728988
     81          1           0       -4.876092    9.768937   -1.369227
     82          1           0       -3.880790    7.550153   -1.785928
     83          1           0       -3.974496    5.310347   -1.104823
     84          1           0       -2.988166    3.099029   -1.538366
     85          1           0       -0.611506    0.067147   -2.358687
     86          1           0       -1.963545   -1.955851   -1.937101
     87          1           0       -2.174791    1.910095    1.201411
     88          1           0       -3.847099    1.379615    3.088239
     89          1           0       -5.543188    0.446758    4.645657
     90          1           0       -6.507896   -1.800701    4.246525
     91          1           0       -5.789050   -3.150874    2.292206
     92          1           0       -3.596170   -3.935116   -1.870895
     93          1           0       -5.136546   -4.200283   -3.772639
     94          1           0       -7.295677   -2.957935   -3.822293
     95          1           0       -7.869715   -1.433362   -1.938500
     96          1           0       -6.319807   -1.156552   -0.046202
     97          1           0       -4.842249   -4.836698    0.507532
     98          1           0       -3.771909   -6.877135    1.373851
     99          1           0       -1.397297   -6.827448    2.126286
    100          1           0       -0.121227   -4.691583    1.999260
    101          1           0       -1.197680   -2.650227    1.139445
    102          1           0        1.335078    0.522552   -0.120930
    103          1           0        5.605349    1.295762   -0.835022
    104          1           0        7.419622    1.777549   -0.110190
    105          1           0        9.804292    2.164834    0.264058
    106          1           0       11.352332    0.254947    0.672525
    107          1           0       10.431129   -2.074723    0.710124
 ---------------------------------------------------------------------
 Rotational constants (GHZ):           0.0355775           0.0219336           0.0149100
 Leave Link  202 at Sat Nov  5 10:12:19 2022, MaxMem=   402653184 cpu:               1.6 elap:               0.3
 (Enter /home/wykgroup/appl/g16/l301.exe)
 Standard basis: 6-31G(d) (6D, 10F)
 Ernie: Thresh=  0.10000D-02 Tol=  0.10000D-05 Strict=F.
 AO basis set in the form of general basis input (Overlap normalization):
      1 0
 S   6 1.00       0.000000000000
      0.5484671660D+04  0.1831074430D-02
      0.8252349460D+03  0.1395017220D-01
      0.1880469580D+03  0.6844507810D-01
      0.5296450000D+02  0.2327143360D+00
      0.1689757040D+02  0.4701928980D+00
      0.5799635340D+01  0.3585208530D+00
 SP   3 1.00       0.000000000000
      0.1553961625D+02 -0.1107775495D+00  0.7087426823D-01
      0.3599933586D+01 -0.1480262627D+00  0.3397528391D+00
      0.1013761750D+01  0.1130767015D+01  0.7271585773D+00
 SP   1 1.00       0.000000000000
      0.2700058226D+00  0.1000000000D+01  0.1000000000D+01
 D   1 1.00       0.000000000000
      0.8000000000D+00  0.1000000000D+01
 ****
      2 0
 S   6 1.00       0.000000000000
      0.3047524880D+04  0.1834737132D-02
      0.4573695180D+03  0.1403732281D-01
      0.1039486850D+03  0.6884262226D-01
      0.2921015530D+02  0.2321844432D+00
      0.9286662960D+01  0.4679413484D+00
      0.3163926960D+01  0.3623119853D+00
 SP   3 1.00       0.000000000000
      0.7868272350D+01 -0.1193324198D+00  0.6899906659D-01
      0.1881288540D+01 -0.1608541517D+00  0.3164239610D+00
      0.5442492580D+00  0.1143456438D+01  0.7443082909D+00
 SP   1 1.00       0.000000000000
      0.1687144782D+00  0.1000000000D+01  0.1000000000D+01
 D   1 1.00       0.000000000000
      0.8000000000D+00  0.1000000000D+01
 ****
      3 0
 S   6 1.00       0.000000000000
      0.3047524880D+04  0.1834737132D-02
      0.4573695180D+03  0.1403732281D-01
      0.1039486850D+03  0.6884262226D-01
      0.2921015530D+02  0.2321844432D+00
      0.9286662960D+01  0.4679413484D+00
      0.3163926960D+01  0.3623119853D+00
 SP   3 1.00       0.000000000000
      0.7868272350D+01 -0.1193324198D+00  0.6899906659D-01
      0.1881288540D+01 -0.1608541517D+00  0.3164239610D+00
      0.5442492580D+00  0.1143456438D+01  0.7443082909D+00
 SP   1 1.00       0.000000000000
      0.1687144782D+00  0.1000000000D+01  0.1000000000D+01
 D   1 1.00       0.000000000000
      0.8000000000D+00  0.1000000000D+01
 ****
      4 0
 S   6 1.00       0.000000000000
      0.3047524880D+04  0.1834737132D-02
      0.4573695180D+03  0.1403732281D-01
      0.1039486850D+03  0.6884262226D-01
      0.2921015530D+02  0.2321844432D+00
      0.9286662960D+01  0.4679413484D+00
      0.3163926960D+01  0.3623119853D+00
 SP   3 1.00       0.000000000000
      0.7868272350D+01 -0.1193324198D+00  0.6899906659D-01
      0.1881288540D+01 -0.1608541517D+00  0.3164239610D+00
      0.5442492580D+00  0.1143456438D+01  0.7443082909D+00
 SP   1 1.00       0.000000000000
      0.1687144782D+00  0.1000000000D+01  0.1000000000D+01
 D   1 1.00       0.000000000000
      0.8000000000D+00  0.1000000000D+01
 ****
      5 0
 S   6 1.00       0.000000000000
      0.3047524880D+04  0.1834737132D-02
      0.4573695180D+03  0.1403732281D-01
      0.1039486850D+03  0.6884262226D-01
      0.2921015530D+02  0.2321844432D+00
      0.9286662960D+01  0.4679413484D+00
      0.3163926960D+01  0.3623119853D+00
 SP   3 1.00       0.000000000000
      0.7868272350D+01 -0.1193324198D+00  0.6899906659D-01
      0.1881288540D+01 -0.1608541517D+00  0.3164239610D+00
      0.5442492580D+00  0.1143456438D+01  0.7443082909D+00
 SP   1 1.00       0.000000000000
      0.1687144782D+00  0.1000000000D+01  0.1000000000D+01
 D   1 1.00       0.000000000000
      0.8000000000D+00  0.1000000000D+01
 ****
      6 0
 S   6 1.00       0.000000000000
      0.3047524880D+04  0.1834737132D-02
      0.4573695180D+03  0.1403732281D-01
      0.1039486850D+03  0.6884262226D-01
      0.2921015530D+02  0.2321844432D+00
      0.9286662960D+01  0.4679413484D+00
      0.3163926960D+01  0.3623119853D+00
 SP   3 1.00       0.000000000000
      0.7868272350D+01 -0.1193324198D+00  0.6899906659D-01
      0.1881288540D+01 -0.1608541517D+00  0.3164239610D+00
      0.5442492580D+00  0.1143456438D+01  0.7443082909D+00
 SP   1 1.00       0.000000000000
      0.1687144782D+00  0.1000000000D+01  0.1000000000D+01
 D   1 1.00       0.000000000000
      0.8000000000D+00  0.1000000000D+01
 ****
      7 0
 S   6 1.00       0.000000000000
      0.3047524880D+04  0.1834737132D-02
      0.4573695180D+03  0.1403732281D-01
      0.1039486850D+03  0.6884262226D-01
      0.2921015530D+02  0.2321844432D+00
      0.9286662960D+01  0.4679413484D+00
      0.3163926960D+01  0.3623119853D+00
 SP   3 1.00       0.000000000000
      0.7868272350D+01 -0.1193324198D+00  0.6899906659D-01
      0.1881288540D+01 -0.1608541517D+00  0.3164239610D+00
      0.5442492580D+00  0.1143456438D+01  0.7443082909D+00
 SP   1 1.00       0.000000000000
      0.1687144782D+00  0.1000000000D+01  0.1000000000D+01
 D   1 1.00       0.000000000000
      0.8000000000D+00  0.1000000000D+01
 ****
      8 0
 S   6 1.00       0.000000000000
      0.3047524880D+04  0.1834737132D-02
      0.4573695180D+03  0.1403732281D-01
      0.1039486850D+03  0.6884262226D-01
      0.2921015530D+02  0.2321844432D+00
      0.9286662960D+01  0.4679413484D+00
      0.3163926960D+01  0.3623119853D+00
 SP   3 1.00       0.000000000000
      0.7868272350D+01 -0.1193324198D+00  0.6899906659D-01
      0.1881288540D+01 -0.1608541517D+00  0.3164239610D+00
      0.5442492580D+00  0.1143456438D+01  0.7443082909D+00
 SP   1 1.00       0.000000000000
      0.1687144782D+00  0.1000000000D+01  0.1000000000D+01
 D   1 1.00       0.000000000000
      0.8000000000D+00  0.1000000000D+01
 ****
      9 0
 S   6 1.00       0.000000000000
      0.3047524880D+04  0.1834737132D-02
      0.4573695180D+03  0.1403732281D-01
      0.1039486850D+03  0.6884262226D-01
      0.2921015530D+02  0.2321844432D+00
      0.9286662960D+01  0.4679413484D+00
      0.3163926960D+01  0.3623119853D+00
 SP   3 1.00       0.000000000000
      0.7868272350D+01 -0.1193324198D+00  0.6899906659D-01
      0.1881288540D+01 -0.1608541517D+00  0.3164239610D+00
      0.5442492580D+00  0.1143456438D+01  0.7443082909D+00
 SP   1 1.00       0.000000000000
      0.1687144782D+00  0.1000000000D+01  0.1000000000D+01
 D   1 1.00       0.000000000000
      0.8000000000D+00  0.1000000000D+01
 ****
     10 0
 S   6 1.00       0.000000000000
      0.3047524880D+04  0.1834737132D-02
      0.4573695180D+03  0.1403732281D-01
      0.1039486850D+03  0.6884262226D-01
      0.2921015530D+02  0.2321844432D+00
      0.9286662960D+01  0.4679413484D+00
      0.3163926960D+01  0.3623119853D+00
 SP   3 1.00       0.000000000000
      0.7868272350D+01 -0.1193324198D+00  0.6899906659D-01
      0.1881288540D+01 -0.1608541517D+00  0.3164239610D+00
      0.5442492580D+00  0.1143456438D+01  0.7443082909D+00
 SP   1 1.00       0.000000000000
      0.1687144782D+00  0.1000000000D+01  0.1000000000D+01
 D   1 1.00       0.000000000000
      0.8000000000D+00  0.1000000000D+01
 ****
     11 0
 S   6 1.00       0.000000000000
      0.3047524880D+04  0.1834737132D-02
      0.4573695180D+03  0.1403732281D-01
      0.1039486850D+03  0.6884262226D-01
      0.2921015530D+02  0.2321844432D+00
      0.9286662960D+01  0.4679413484D+00
      0.3163926960D+01  0.3623119853D+00
 SP   3 1.00       0.000000000000
      0.7868272350D+01 -0.1193324198D+00  0.6899906659D-01
      0.1881288540D+01 -0.1608541517D+00  0.3164239610D+00
      0.5442492580D+00  0.1143456438D+01  0.7443082909D+00
 SP   1 1.00       0.000000000000
      0.1687144782D+00  0.1000000000D+01  0.1000000000D+01
 D   1 1.00       0.000000000000
      0.8000000000D+00  0.1000000000D+01
 ****
     12 0
 S   6 1.00       0.000000000000
      0.3047524880D+04  0.1834737132D-02
      0.4573695180D+03  0.1403732281D-01
      0.1039486850D+03  0.6884262226D-01
      0.2921015530D+02  0.2321844432D+00
      0.9286662960D+01  0.4679413484D+00
      0.3163926960D+01  0.3623119853D+00
 SP   3 1.00       0.000000000000
      0.7868272350D+01 -0.1193324198D+00  0.6899906659D-01
      0.1881288540D+01 -0.1608541517D+00  0.3164239610D+00
      0.5442492580D+00  0.1143456438D+01  0.7443082909D+00
 SP   1 1.00       0.000000000000
      0.1687144782D+00  0.1000000000D+01  0.1000000000D+01
 D   1 1.00       0.000000000000
      0.8000000000D+00  0.1000000000D+01
 ****
     13 0
 S   6 1.00       0.000000000000
      0.3047524880D+04  0.1834737132D-02
      0.4573695180D+03  0.1403732281D-01
      0.1039486850D+03  0.6884262226D-01
      0.2921015530D+02  0.2321844432D+00
      0.9286662960D+01  0.4679413484D+00
      0.3163926960D+01  0.3623119853D+00
 SP   3 1.00       0.000000000000
      0.7868272350D+01 -0.1193324198D+00  0.6899906659D-01
      0.1881288540D+01 -0.1608541517D+00  0.3164239610D+00
      0.5442492580D+00  0.1143456438D+01  0.7443082909D+00
 SP   1 1.00       0.000000000000
      0.1687144782D+00  0.1000000000D+01  0.1000000000D+01
 D   1 1.00       0.000000000000
      0.8000000000D+00  0.1000000000D+01
 ****
     14 0
 S   6 1.00       0.000000000000
      0.3047524880D+04  0.1834737132D-02
      0.4573695180D+03  0.1403732281D-01
      0.1039486850D+03  0.6884262226D-01
      0.2921015530D+02  0.2321844432D+00
      0.9286662960D+01  0.4679413484D+00
      0.3163926960D+01  0.3623119853D+00
 SP   3 1.00       0.000000000000
      0.7868272350D+01 -0.1193324198D+00  0.6899906659D-01
      0.1881288540D+01 -0.1608541517D+00  0.3164239610D+00
      0.5442492580D+00  0.1143456438D+01  0.7443082909D+00
 SP   1 1.00       0.000000000000
      0.1687144782D+00  0.1000000000D+01  0.1000000000D+01
 D   1 1.00       0.000000000000
      0.8000000000D+00  0.1000000000D+01
 ****
     15 0
 S   6 1.00       0.000000000000
      0.3047524880D+04  0.1834737132D-02
      0.4573695180D+03  0.1403732281D-01
      0.1039486850D+03  0.6884262226D-01
      0.2921015530D+02  0.2321844432D+00
      0.9286662960D+01  0.4679413484D+00
      0.3163926960D+01  0.3623119853D+00
 SP   3 1.00       0.000000000000
      0.7868272350D+01 -0.1193324198D+00  0.6899906659D-01
      0.1881288540D+01 -0.1608541517D+00  0.3164239610D+00
      0.5442492580D+00  0.1143456438D+01  0.7443082909D+00
 SP   1 1.00       0.000000000000
      0.1687144782D+00  0.1000000000D+01  0.1000000000D+01
 D   1 1.00       0.000000000000
      0.8000000000D+00  0.1000000000D+01
 ****
     16 0
 S   6 1.00       0.000000000000
      0.3047524880D+04  0.1834737132D-02
      0.4573695180D+03  0.1403732281D-01
      0.1039486850D+03  0.6884262226D-01
      0.2921015530D+02  0.2321844432D+00
      0.9286662960D+01  0.4679413484D+00
      0.3163926960D+01  0.3623119853D+00
 SP   3 1.00       0.000000000000
      0.7868272350D+01 -0.1193324198D+00  0.6899906659D-01
      0.1881288540D+01 -0.1608541517D+00  0.3164239610D+00
      0.5442492580D+00  0.1143456438D+01  0.7443082909D+00
 SP   1 1.00       0.000000000000
      0.1687144782D+00  0.1000000000D+01  0.1000000000D+01
 D   1 1.00       0.000000000000
      0.8000000000D+00  0.1000000000D+01
 ****
     17 0
 S   6 1.00       0.000000000000
      0.4173511460D+04  0.1834772160D-02
      0.6274579110D+03  0.1399462700D-01
      0.1429020930D+03  0.6858655181D-01
      0.4023432930D+02  0.2322408730D+00
      0.1282021290D+02  0.4690699481D+00
      0.4390437010D+01  0.3604551991D+00
 SP   3 1.00       0.000000000000
      0.1162636186D+02 -0.1149611817D+00  0.6757974388D-01
      0.2716279807D+01 -0.1691174786D+00  0.3239072959D+00
      0.7722183966D+00  0.1145851947D+01  0.7408951398D+00
 SP   1 1.00       0.000000000000
      0.2120314975D+00  0.1000000000D+01  0.1000000000D+01
 D   1 1.00       0.000000000000
      0.8000000000D+00  0.1000000000D+01
 ****
     18 0
 S   6 1.00       0.000000000000
      0.3047524880D+04  0.1834737132D-02
      0.4573695180D+03  0.1403732281D-01
      0.1039486850D+03  0.6884262226D-01
      0.2921015530D+02  0.2321844432D+00
      0.9286662960D+01  0.4679413484D+00
      0.3163926960D+01  0.3623119853D+00
 SP   3 1.00       0.000000000000
      0.7868272350D+01 -0.1193324198D+00  0.6899906659D-01
      0.1881288540D+01 -0.1608541517D+00  0.3164239610D+00
      0.5442492580D+00  0.1143456438D+01  0.7443082909D+00
 SP   1 1.00       0.000000000000
      0.1687144782D+00  0.1000000000D+01  0.1000000000D+01
 D   1 1.00       0.000000000000
      0.8000000000D+00  0.1000000000D+01
 ****
     19 0
 S   6 1.00       0.000000000000
      0.3047524880D+04  0.1834737132D-02
      0.4573695180D+03  0.1403732281D-01
      0.1039486850D+03  0.6884262226D-01
      0.2921015530D+02  0.2321844432D+00
      0.9286662960D+01  0.4679413484D+00
      0.3163926960D+01  0.3623119853D+00
 SP   3 1.00       0.000000000000
      0.7868272350D+01 -0.1193324198D+00  0.6899906659D-01
      0.1881288540D+01 -0.1608541517D+00  0.3164239610D+00
      0.5442492580D+00  0.1143456438D+01  0.7443082909D+00
 SP   1 1.00       0.000000000000
      0.1687144782D+00  0.1000000000D+01  0.1000000000D+01
 D   1 1.00       0.000000000000
      0.8000000000D+00  0.1000000000D+01
 ****
     20 0
 S   6 1.00       0.000000000000
      0.3047524880D+04  0.1834737132D-02
      0.4573695180D+03  0.1403732281D-01
      0.1039486850D+03  0.6884262226D-01
      0.2921015530D+02  0.2321844432D+00
      0.9286662960D+01  0.4679413484D+00
      0.3163926960D+01  0.3623119853D+00
 SP   3 1.00       0.000000000000
      0.7868272350D+01 -0.1193324198D+00  0.6899906659D-01
      0.1881288540D+01 -0.1608541517D+00  0.3164239610D+00
      0.5442492580D+00  0.1143456438D+01  0.7443082909D+00
 SP   1 1.00       0.000000000000
      0.1687144782D+00  0.1000000000D+01  0.1000000000D+01
 D   1 1.00       0.000000000000
      0.8000000000D+00  0.1000000000D+01
 ****
     21 0
 S   6 1.00       0.000000000000
      0.3047524880D+04  0.1834737132D-02
      0.4573695180D+03  0.1403732281D-01
      0.1039486850D+03  0.6884262226D-01
      0.2921015530D+02  0.2321844432D+00
      0.9286662960D+01  0.4679413484D+00
      0.3163926960D+01  0.3623119853D+00
 SP   3 1.00       0.000000000000
      0.7868272350D+01 -0.1193324198D+00  0.6899906659D-01
      0.1881288540D+01 -0.1608541517D+00  0.3164239610D+00
      0.5442492580D+00  0.1143456438D+01  0.7443082909D+00
 SP   1 1.00       0.000000000000
      0.1687144782D+00  0.1000000000D+01  0.1000000000D+01
 D   1 1.00       0.000000000000
      0.8000000000D+00  0.1000000000D+01
 ****
     22 0
 S   6 1.00       0.000000000000
      0.3047524880D+04  0.1834737132D-02
      0.4573695180D+03  0.1403732281D-01
      0.1039486850D+03  0.6884262226D-01
      0.2921015530D+02  0.2321844432D+00
      0.9286662960D+01  0.4679413484D+00
      0.3163926960D+01  0.3623119853D+00
 SP   3 1.00       0.000000000000
      0.7868272350D+01 -0.1193324198D+00  0.6899906659D-01
      0.1881288540D+01 -0.1608541517D+00  0.3164239610D+00
      0.5442492580D+00  0.1143456438D+01  0.7443082909D+00
 SP   1 1.00       0.000000000000
      0.1687144782D+00  0.1000000000D+01  0.1000000000D+01
 D   1 1.00       0.000000000000
      0.8000000000D+00  0.1000000000D+01
 ****
     23 0
 S   6 1.00       0.000000000000
      0.3047524880D+04  0.1834737132D-02
      0.4573695180D+03  0.1403732281D-01
      0.1039486850D+03  0.6884262226D-01
      0.2921015530D+02  0.2321844432D+00
      0.9286662960D+01  0.4679413484D+00
      0.3163926960D+01  0.3623119853D+00
 SP   3 1.00       0.000000000000
      0.7868272350D+01 -0.1193324198D+00  0.6899906659D-01
      0.1881288540D+01 -0.1608541517D+00  0.3164239610D+00
      0.5442492580D+00  0.1143456438D+01  0.7443082909D+00
 SP   1 1.00       0.000000000000
      0.1687144782D+00  0.1000000000D+01  0.1000000000D+01
 D   1 1.00       0.000000000000
      0.8000000000D+00  0.1000000000D+01
 ****
     24 0
 S   6 1.00       0.000000000000
      0.3047524880D+04  0.1834737132D-02
      0.4573695180D+03  0.1403732281D-01
      0.1039486850D+03  0.6884262226D-01
      0.2921015530D+02  0.2321844432D+00
      0.9286662960D+01  0.4679413484D+00
      0.3163926960D+01  0.3623119853D+00
 SP   3 1.00       0.000000000000
      0.7868272350D+01 -0.1193324198D+00  0.6899906659D-01
      0.1881288540D+01 -0.1608541517D+00  0.3164239610D+00
      0.5442492580D+00  0.1143456438D+01  0.7443082909D+00
 SP   1 1.00       0.000000000000
      0.1687144782D+00  0.1000000000D+01  0.1000000000D+01
 D   1 1.00       0.000000000000
      0.8000000000D+00  0.1000000000D+01
 ****
     25 0
 S   6 1.00       0.000000000000
      0.3047524880D+04  0.1834737132D-02
      0.4573695180D+03  0.1403732281D-01
      0.1039486850D+03  0.6884262226D-01
      0.2921015530D+02  0.2321844432D+00
      0.9286662960D+01  0.4679413484D+00
      0.3163926960D+01  0.3623119853D+00
 SP   3 1.00       0.000000000000
      0.7868272350D+01 -0.1193324198D+00  0.6899906659D-01
      0.1881288540D+01 -0.1608541517D+00  0.3164239610D+00
      0.5442492580D+00  0.1143456438D+01  0.7443082909D+00
 SP   1 1.00       0.000000000000
      0.1687144782D+00  0.1000000000D+01  0.1000000000D+01
 D   1 1.00       0.000000000000
      0.8000000000D+00  0.1000000000D+01
 ****
     26 0
 S   6 1.00       0.000000000000
      0.3047524880D+04  0.1834737132D-02
      0.4573695180D+03  0.1403732281D-01
      0.1039486850D+03  0.6884262226D-01
      0.2921015530D+02  0.2321844432D+00
      0.9286662960D+01  0.4679413484D+00
      0.3163926960D+01  0.3623119853D+00
 SP   3 1.00       0.000000000000
      0.7868272350D+01 -0.1193324198D+00  0.6899906659D-01
      0.1881288540D+01 -0.1608541517D+00  0.3164239610D+00
      0.5442492580D+00  0.1143456438D+01  0.7443082909D+00
 SP   1 1.00       0.000000000000
      0.1687144782D+00  0.1000000000D+01  0.1000000000D+01
 D   1 1.00       0.000000000000
      0.8000000000D+00  0.1000000000D+01
 ****
     27 0
 S   6 1.00       0.000000000000
      0.3047524880D+04  0.1834737132D-02
      0.4573695180D+03  0.1403732281D-01
      0.1039486850D+03  0.6884262226D-01
      0.2921015530D+02  0.2321844432D+00
      0.9286662960D+01  0.4679413484D+00
      0.3163926960D+01  0.3623119853D+00
 SP   3 1.00       0.000000000000
      0.7868272350D+01 -0.1193324198D+00  0.6899906659D-01
      0.1881288540D+01 -0.1608541517D+00  0.3164239610D+00
      0.5442492580D+00  0.1143456438D+01  0.7443082909D+00
 SP   1 1.00       0.000000000000
      0.1687144782D+00  0.1000000000D+01  0.1000000000D+01
 D   1 1.00       0.000000000000
      0.8000000000D+00  0.1000000000D+01
 ****
     28 0
 S   6 1.00       0.000000000000
      0.3047524880D+04  0.1834737132D-02
      0.4573695180D+03  0.1403732281D-01
      0.1039486850D+03  0.6884262226D-01
      0.2921015530D+02  0.2321844432D+00
      0.9286662960D+01  0.4679413484D+00
      0.3163926960D+01  0.3623119853D+00
 SP   3 1.00       0.000000000000
      0.7868272350D+01 -0.1193324198D+00  0.6899906659D-01
      0.1881288540D+01 -0.1608541517D+00  0.3164239610D+00
      0.5442492580D+00  0.1143456438D+01  0.7443082909D+00
 SP   1 1.00       0.000000000000
      0.1687144782D+00  0.1000000000D+01  0.1000000000D+01
 D   1 1.00       0.000000000000
      0.8000000000D+00  0.1000000000D+01
 ****
     29 0
 S   6 1.00       0.000000000000
      0.3047524880D+04  0.1834737132D-02
      0.4573695180D+03  0.1403732281D-01
      0.1039486850D+03  0.6884262226D-01
      0.2921015530D+02  0.2321844432D+00
      0.9286662960D+01  0.4679413484D+00
      0.3163926960D+01  0.3623119853D+00
 SP   3 1.00       0.000000000000
      0.7868272350D+01 -0.1193324198D+00  0.6899906659D-01
      0.1881288540D+01 -0.1608541517D+00  0.3164239610D+00
      0.5442492580D+00  0.1143456438D+01  0.7443082909D+00
 SP   1 1.00       0.000000000000
      0.1687144782D+00  0.1000000000D+01  0.1000000000D+01
 D   1 1.00       0.000000000000
      0.8000000000D+00  0.1000000000D+01
 ****
     30 0
 S   6 1.00       0.000000000000
      0.3047524880D+04  0.1834737132D-02
      0.4573695180D+03  0.1403732281D-01
      0.1039486850D+03  0.6884262226D-01
      0.2921015530D+02  0.2321844432D+00
      0.9286662960D+01  0.4679413484D+00
      0.3163926960D+01  0.3623119853D+00
 SP   3 1.00       0.000000000000
      0.7868272350D+01 -0.1193324198D+00  0.6899906659D-01
      0.1881288540D+01 -0.1608541517D+00  0.3164239610D+00
      0.5442492580D+00  0.1143456438D+01  0.7443082909D+00
 SP   1 1.00       0.000000000000
      0.1687144782D+00  0.1000000000D+01  0.1000000000D+01
 D   1 1.00       0.000000000000
      0.8000000000D+00  0.1000000000D+01
 ****
     31 0
 S   6 1.00       0.000000000000
      0.3047524880D+04  0.1834737132D-02
      0.4573695180D+03  0.1403732281D-01
      0.1039486850D+03  0.6884262226D-01
      0.2921015530D+02  0.2321844432D+00
      0.9286662960D+01  0.4679413484D+00
      0.3163926960D+01  0.3623119853D+00
 SP   3 1.00       0.000000000000
      0.7868272350D+01 -0.1193324198D+00  0.6899906659D-01
      0.1881288540D+01 -0.1608541517D+00  0.3164239610D+00
      0.5442492580D+00  0.1143456438D+01  0.7443082909D+00
 SP   1 1.00       0.000000000000
      0.1687144782D+00  0.1000000000D+01  0.1000000000D+01
 D   1 1.00       0.000000000000
      0.8000000000D+00  0.1000000000D+01
 ****
     32 0
 S   6 1.00       0.000000000000
      0.3047524880D+04  0.1834737132D-02
      0.4573695180D+03  0.1403732281D-01
      0.1039486850D+03  0.6884262226D-01
      0.2921015530D+02  0.2321844432D+00
      0.9286662960D+01  0.4679413484D+00
      0.3163926960D+01  0.3623119853D+00
 SP   3 1.00       0.000000000000
      0.7868272350D+01 -0.1193324198D+00  0.6899906659D-01
      0.1881288540D+01 -0.1608541517D+00  0.3164239610D+00
      0.5442492580D+00  0.1143456438D+01  0.7443082909D+00
 SP   1 1.00       0.000000000000
      0.1687144782D+00  0.1000000000D+01  0.1000000000D+01
 D   1 1.00       0.000000000000
      0.8000000000D+00  0.1000000000D+01
 ****
     33 0
 S   6 1.00       0.000000000000
      0.3047524880D+04  0.1834737132D-02
      0.4573695180D+03  0.1403732281D-01
      0.1039486850D+03  0.6884262226D-01
      0.2921015530D+02  0.2321844432D+00
      0.9286662960D+01  0.4679413484D+00
      0.3163926960D+01  0.3623119853D+00
 SP   3 1.00       0.000000000000
      0.7868272350D+01 -0.1193324198D+00  0.6899906659D-01
      0.1881288540D+01 -0.1608541517D+00  0.3164239610D+00
      0.5442492580D+00  0.1143456438D+01  0.7443082909D+00
 SP   1 1.00       0.000000000000
      0.1687144782D+00  0.1000000000D+01  0.1000000000D+01
 D   1 1.00       0.000000000000
      0.8000000000D+00  0.1000000000D+01
 ****
     34 0
 S   6 1.00       0.000000000000
      0.3047524880D+04  0.1834737132D-02
      0.4573695180D+03  0.1403732281D-01
      0.1039486850D+03  0.6884262226D-01
      0.2921015530D+02  0.2321844432D+00
      0.9286662960D+01  0.4679413484D+00
      0.3163926960D+01  0.3623119853D+00
 SP   3 1.00       0.000000000000
      0.7868272350D+01 -0.1193324198D+00  0.6899906659D-01
      0.1881288540D+01 -0.1608541517D+00  0.3164239610D+00
      0.5442492580D+00  0.1143456438D+01  0.7443082909D+00
 SP   1 1.00       0.000000000000
      0.1687144782D+00  0.1000000000D+01  0.1000000000D+01
 D   1 1.00       0.000000000000
      0.8000000000D+00  0.1000000000D+01
 ****
     35 0
 S   6 1.00       0.000000000000
      0.3047524880D+04  0.1834737132D-02
      0.4573695180D+03  0.1403732281D-01
      0.1039486850D+03  0.6884262226D-01
      0.2921015530D+02  0.2321844432D+00
      0.9286662960D+01  0.4679413484D+00
      0.3163926960D+01  0.3623119853D+00
 SP   3 1.00       0.000000000000
      0.7868272350D+01 -0.1193324198D+00  0.6899906659D-01
      0.1881288540D+01 -0.1608541517D+00  0.3164239610D+00
      0.5442492580D+00  0.1143456438D+01  0.7443082909D+00
 SP   1 1.00       0.000000000000
      0.1687144782D+00  0.1000000000D+01  0.1000000000D+01
 D   1 1.00       0.000000000000
      0.8000000000D+00  0.1000000000D+01
 ****
     36 0
 S   6 1.00       0.000000000000
      0.3047524880D+04  0.1834737132D-02
      0.4573695180D+03  0.1403732281D-01
      0.1039486850D+03  0.6884262226D-01
      0.2921015530D+02  0.2321844432D+00
      0.9286662960D+01  0.4679413484D+00
      0.3163926960D+01  0.3623119853D+00
 SP   3 1.00       0.000000000000
      0.7868272350D+01 -0.1193324198D+00  0.6899906659D-01
      0.1881288540D+01 -0.1608541517D+00  0.3164239610D+00
      0.5442492580D+00  0.1143456438D+01  0.7443082909D+00
 SP   1 1.00       0.000000000000
      0.1687144782D+00  0.1000000000D+01  0.1000000000D+01
 D   1 1.00       0.000000000000
      0.8000000000D+00  0.1000000000D+01
 ****
     37 0
 S   6 1.00       0.000000000000
      0.3047524880D+04  0.1834737132D-02
      0.4573695180D+03  0.1403732281D-01
      0.1039486850D+03  0.6884262226D-01
      0.2921015530D+02  0.2321844432D+00
      0.9286662960D+01  0.4679413484D+00
      0.3163926960D+01  0.3623119853D+00
 SP   3 1.00       0.000000000000
      0.7868272350D+01 -0.1193324198D+00  0.6899906659D-01
      0.1881288540D+01 -0.1608541517D+00  0.3164239610D+00
      0.5442492580D+00  0.1143456438D+01  0.7443082909D+00
 SP   1 1.00       0.000000000000
      0.1687144782D+00  0.1000000000D+01  0.1000000000D+01
 D   1 1.00       0.000000000000
      0.8000000000D+00  0.1000000000D+01
 ****
     38 0
 S   6 1.00       0.000000000000
      0.3047524880D+04  0.1834737132D-02
      0.4573695180D+03  0.1403732281D-01
      0.1039486850D+03  0.6884262226D-01
      0.2921015530D+02  0.2321844432D+00
      0.9286662960D+01  0.4679413484D+00
      0.3163926960D+01  0.3623119853D+00
 SP   3 1.00       0.000000000000
      0.7868272350D+01 -0.1193324198D+00  0.6899906659D-01
      0.1881288540D+01 -0.1608541517D+00  0.3164239610D+00
      0.5442492580D+00  0.1143456438D+01  0.7443082909D+00
 SP   1 1.00       0.000000000000
      0.1687144782D+00  0.1000000000D+01  0.1000000000D+01
 D   1 1.00       0.000000000000
      0.8000000000D+00  0.1000000000D+01
 ****
     39 0
 S   6 1.00       0.000000000000
      0.3047524880D+04  0.1834737132D-02
      0.4573695180D+03  0.1403732281D-01
      0.1039486850D+03  0.6884262226D-01
      0.2921015530D+02  0.2321844432D+00
      0.9286662960D+01  0.4679413484D+00
      0.3163926960D+01  0.3623119853D+00
 SP   3 1.00       0.000000000000
      0.7868272350D+01 -0.1193324198D+00  0.6899906659D-01
      0.1881288540D+01 -0.1608541517D+00  0.3164239610D+00
      0.5442492580D+00  0.1143456438D+01  0.7443082909D+00
 SP   1 1.00       0.000000000000
      0.1687144782D+00  0.1000000000D+01  0.1000000000D+01
 D   1 1.00       0.000000000000
      0.8000000000D+00  0.1000000000D+01
 ****
     40 0
 S   6 1.00       0.000000000000
      0.3047524880D+04  0.1834737132D-02
      0.4573695180D+03  0.1403732281D-01
      0.1039486850D+03  0.6884262226D-01
      0.2921015530D+02  0.2321844432D+00
      0.9286662960D+01  0.4679413484D+00
      0.3163926960D+01  0.3623119853D+00
 SP   3 1.00       0.000000000000
      0.7868272350D+01 -0.1193324198D+00  0.6899906659D-01
      0.1881288540D+01 -0.1608541517D+00  0.3164239610D+00
      0.5442492580D+00  0.1143456438D+01  0.7443082909D+00
 SP   1 1.00       0.000000000000
      0.1687144782D+00  0.1000000000D+01  0.1000000000D+01
 D   1 1.00       0.000000000000
      0.8000000000D+00  0.1000000000D+01
 ****
     41 0
 S   6 1.00       0.000000000000
      0.3047524880D+04  0.1834737132D-02
      0.4573695180D+03  0.1403732281D-01
      0.1039486850D+03  0.6884262226D-01
      0.2921015530D+02  0.2321844432D+00
      0.9286662960D+01  0.4679413484D+00
      0.3163926960D+01  0.3623119853D+00
 SP   3 1.00       0.000000000000
      0.7868272350D+01 -0.1193324198D+00  0.6899906659D-01
      0.1881288540D+01 -0.1608541517D+00  0.3164239610D+00
      0.5442492580D+00  0.1143456438D+01  0.7443082909D+00
 SP   1 1.00       0.000000000000
      0.1687144782D+00  0.1000000000D+01  0.1000000000D+01
 D   1 1.00       0.000000000000
      0.8000000000D+00  0.1000000000D+01
 ****
     42 0
 S   6 1.00       0.000000000000
      0.3047524880D+04  0.1834737132D-02
      0.4573695180D+03  0.1403732281D-01
      0.1039486850D+03  0.6884262226D-01
      0.2921015530D+02  0.2321844432D+00
      0.9286662960D+01  0.4679413484D+00
      0.3163926960D+01  0.3623119853D+00
 SP   3 1.00       0.000000000000
      0.7868272350D+01 -0.1193324198D+00  0.6899906659D-01
      0.1881288540D+01 -0.1608541517D+00  0.3164239610D+00
      0.5442492580D+00  0.1143456438D+01  0.7443082909D+00
 SP   1 1.00       0.000000000000
      0.1687144782D+00  0.1000000000D+01  0.1000000000D+01
 D   1 1.00       0.000000000000
      0.8000000000D+00  0.1000000000D+01
 ****
     43 0
 S   6 1.00       0.000000000000
      0.3047524880D+04  0.1834737132D-02
      0.4573695180D+03  0.1403732281D-01
      0.1039486850D+03  0.6884262226D-01
      0.2921015530D+02  0.2321844432D+00
      0.9286662960D+01  0.4679413484D+00
      0.3163926960D+01  0.3623119853D+00
 SP   3 1.00       0.000000000000
      0.7868272350D+01 -0.1193324198D+00  0.6899906659D-01
      0.1881288540D+01 -0.1608541517D+00  0.3164239610D+00
      0.5442492580D+00  0.1143456438D+01  0.7443082909D+00
 SP   1 1.00       0.000000000000
      0.1687144782D+00  0.1000000000D+01  0.1000000000D+01
 D   1 1.00       0.000000000000
      0.8000000000D+00  0.1000000000D+01
 ****
     44 0
 S   6 1.00       0.000000000000
      0.3047524880D+04  0.1834737132D-02
      0.4573695180D+03  0.1403732281D-01
      0.1039486850D+03  0.6884262226D-01
      0.2921015530D+02  0.2321844432D+00
      0.9286662960D+01  0.4679413484D+00
      0.3163926960D+01  0.3623119853D+00
 SP   3 1.00       0.000000000000
      0.7868272350D+01 -0.1193324198D+00  0.6899906659D-01
      0.1881288540D+01 -0.1608541517D+00  0.3164239610D+00
      0.5442492580D+00  0.1143456438D+01  0.7443082909D+00
 SP   1 1.00       0.000000000000
      0.1687144782D+00  0.1000000000D+01  0.1000000000D+01
 D   1 1.00       0.000000000000
      0.8000000000D+00  0.1000000000D+01
 ****
     45 0
 S   6 1.00       0.000000000000
      0.3047524880D+04  0.1834737132D-02
      0.4573695180D+03  0.1403732281D-01
      0.1039486850D+03  0.6884262226D-01
      0.2921015530D+02  0.2321844432D+00
      0.9286662960D+01  0.4679413484D+00
      0.3163926960D+01  0.3623119853D+00
 SP   3 1.00       0.000000000000
      0.7868272350D+01 -0.1193324198D+00  0.6899906659D-01
      0.1881288540D+01 -0.1608541517D+00  0.3164239610D+00
      0.5442492580D+00  0.1143456438D+01  0.7443082909D+00
 SP   1 1.00       0.000000000000
      0.1687144782D+00  0.1000000000D+01  0.1000000000D+01
 D   1 1.00       0.000000000000
      0.8000000000D+00  0.1000000000D+01
 ****
     46 0
 S   6 1.00       0.000000000000
      0.3047524880D+04  0.1834737132D-02
      0.4573695180D+03  0.1403732281D-01
      0.1039486850D+03  0.6884262226D-01
      0.2921015530D+02  0.2321844432D+00
      0.9286662960D+01  0.4679413484D+00
      0.3163926960D+01  0.3623119853D+00
 SP   3 1.00       0.000000000000
      0.7868272350D+01 -0.1193324198D+00  0.6899906659D-01
      0.1881288540D+01 -0.1608541517D+00  0.3164239610D+00
      0.5442492580D+00  0.1143456438D+01  0.7443082909D+00
 SP   1 1.00       0.000000000000
      0.1687144782D+00  0.1000000000D+01  0.1000000000D+01
 D   1 1.00       0.000000000000
      0.8000000000D+00  0.1000000000D+01
 ****
     47 0
 S   6 1.00       0.000000000000
      0.3047524880D+04  0.1834737132D-02
      0.4573695180D+03  0.1403732281D-01
      0.1039486850D+03  0.6884262226D-01
      0.2921015530D+02  0.2321844432D+00
      0.9286662960D+01  0.4679413484D+00
      0.3163926960D+01  0.3623119853D+00
 SP   3 1.00       0.000000000000
      0.7868272350D+01 -0.1193324198D+00  0.6899906659D-01
      0.1881288540D+01 -0.1608541517D+00  0.3164239610D+00
      0.5442492580D+00  0.1143456438D+01  0.7443082909D+00
 SP   1 1.00       0.000000000000
      0.1687144782D+00  0.1000000000D+01  0.1000000000D+01
 D   1 1.00       0.000000000000
      0.8000000000D+00  0.1000000000D+01
 ****
     48 0
 S   6 1.00       0.000000000000
      0.3047524880D+04  0.1834737132D-02
      0.4573695180D+03  0.1403732281D-01
      0.1039486850D+03  0.6884262226D-01
      0.2921015530D+02  0.2321844432D+00
      0.9286662960D+01  0.4679413484D+00
      0.3163926960D+01  0.3623119853D+00
 SP   3 1.00       0.000000000000
      0.7868272350D+01 -0.1193324198D+00  0.6899906659D-01
      0.1881288540D+01 -0.1608541517D+00  0.3164239610D+00
      0.5442492580D+00  0.1143456438D+01  0.7443082909D+00
 SP   1 1.00       0.000000000000
      0.1687144782D+00  0.1000000000D+01  0.1000000000D+01
 D   1 1.00       0.000000000000
      0.8000000000D+00  0.1000000000D+01
 ****
     49 0
 S   6 1.00       0.000000000000
      0.3047524880D+04  0.1834737132D-02
      0.4573695180D+03  0.1403732281D-01
      0.1039486850D+03  0.6884262226D-01
      0.2921015530D+02  0.2321844432D+00
      0.9286662960D+01  0.4679413484D+00
      0.3163926960D+01  0.3623119853D+00
 SP   3 1.00       0.000000000000
      0.7868272350D+01 -0.1193324198D+00  0.6899906659D-01
      0.1881288540D+01 -0.1608541517D+00  0.3164239610D+00
      0.5442492580D+00  0.1143456438D+01  0.7443082909D+00
 SP   1 1.00       0.000000000000
      0.1687144782D+00  0.1000000000D+01  0.1000000000D+01
 D   1 1.00       0.000000000000
      0.8000000000D+00  0.1000000000D+01
 ****
     50 0
 S   6 1.00       0.000000000000
      0.3047524880D+04  0.1834737132D-02
      0.4573695180D+03  0.1403732281D-01
      0.1039486850D+03  0.6884262226D-01
      0.2921015530D+02  0.2321844432D+00
      0.9286662960D+01  0.4679413484D+00
      0.3163926960D+01  0.3623119853D+00
 SP   3 1.00       0.000000000000
      0.7868272350D+01 -0.1193324198D+00  0.6899906659D-01
      0.1881288540D+01 -0.1608541517D+00  0.3164239610D+00
      0.5442492580D+00  0.1143456438D+01  0.7443082909D+00
 SP   1 1.00       0.000000000000
      0.1687144782D+00  0.1000000000D+01  0.1000000000D+01
 D   1 1.00       0.000000000000
      0.8000000000D+00  0.1000000000D+01
 ****
     51 0
 S   6 1.00       0.000000000000
      0.3047524880D+04  0.1834737132D-02
      0.4573695180D+03  0.1403732281D-01
      0.1039486850D+03  0.6884262226D-01
      0.2921015530D+02  0.2321844432D+00
      0.9286662960D+01  0.4679413484D+00
      0.3163926960D+01  0.3623119853D+00
 SP   3 1.00       0.000000000000
      0.7868272350D+01 -0.1193324198D+00  0.6899906659D-01
      0.1881288540D+01 -0.1608541517D+00  0.3164239610D+00
      0.5442492580D+00  0.1143456438D+01  0.7443082909D+00
 SP   1 1.00       0.000000000000
      0.1687144782D+00  0.1000000000D+01  0.1000000000D+01
 D   1 1.00       0.000000000000
      0.8000000000D+00  0.1000000000D+01
 ****
     52 0
 S   6 1.00       0.000000000000
      0.3047524880D+04  0.1834737132D-02
      0.4573695180D+03  0.1403732281D-01
      0.1039486850D+03  0.6884262226D-01
      0.2921015530D+02  0.2321844432D+00
      0.9286662960D+01  0.4679413484D+00
      0.3163926960D+01  0.3623119853D+00
 SP   3 1.00       0.000000000000
      0.7868272350D+01 -0.1193324198D+00  0.6899906659D-01
      0.1881288540D+01 -0.1608541517D+00  0.3164239610D+00
      0.5442492580D+00  0.1143456438D+01  0.7443082909D+00
 SP   1 1.00       0.000000000000
      0.1687144782D+00  0.1000000000D+01  0.1000000000D+01
 D   1 1.00       0.000000000000
      0.8000000000D+00  0.1000000000D+01
 ****
     53 0
 S   6 1.00       0.000000000000
      0.3047524880D+04  0.1834737132D-02
      0.4573695180D+03  0.1403732281D-01
      0.1039486850D+03  0.6884262226D-01
      0.2921015530D+02  0.2321844432D+00
      0.9286662960D+01  0.4679413484D+00
      0.3163926960D+01  0.3623119853D+00
 SP   3 1.00       0.000000000000
      0.7868272350D+01 -0.1193324198D+00  0.6899906659D-01
      0.1881288540D+01 -0.1608541517D+00  0.3164239610D+00
      0.5442492580D+00  0.1143456438D+01  0.7443082909D+00
 SP   1 1.00       0.000000000000
      0.1687144782D+00  0.1000000000D+01  0.1000000000D+01
 D   1 1.00       0.000000000000
      0.8000000000D+00  0.1000000000D+01
 ****
     54 0
 S   6 1.00       0.000000000000
      0.3047524880D+04  0.1834737132D-02
      0.4573695180D+03  0.1403732281D-01
      0.1039486850D+03  0.6884262226D-01
      0.2921015530D+02  0.2321844432D+00
      0.9286662960D+01  0.4679413484D+00
      0.3163926960D+01  0.3623119853D+00
 SP   3 1.00       0.000000000000
      0.7868272350D+01 -0.1193324198D+00  0.6899906659D-01
      0.1881288540D+01 -0.1608541517D+00  0.3164239610D+00
      0.5442492580D+00  0.1143456438D+01  0.7443082909D+00
 SP   1 1.00       0.000000000000
      0.1687144782D+00  0.1000000000D+01  0.1000000000D+01
 D   1 1.00       0.000000000000
      0.8000000000D+00  0.1000000000D+01
 ****
     55 0
 S   6 1.00       0.000000000000
      0.3047524880D+04  0.1834737132D-02
      0.4573695180D+03  0.1403732281D-01
      0.1039486850D+03  0.6884262226D-01
      0.2921015530D+02  0.2321844432D+00
      0.9286662960D+01  0.4679413484D+00
      0.3163926960D+01  0.3623119853D+00
 SP   3 1.00       0.000000000000
      0.7868272350D+01 -0.1193324198D+00  0.6899906659D-01
      0.1881288540D+01 -0.1608541517D+00  0.3164239610D+00
      0.5442492580D+00  0.1143456438D+01  0.7443082909D+00
 SP   1 1.00       0.000000000000
      0.1687144782D+00  0.1000000000D+01  0.1000000000D+01
 D   1 1.00       0.000000000000
      0.8000000000D+00  0.1000000000D+01
 ****
     56 0
 S   6 1.00       0.000000000000
      0.3047524880D+04  0.1834737132D-02
      0.4573695180D+03  0.1403732281D-01
      0.1039486850D+03  0.6884262226D-01
      0.2921015530D+02  0.2321844432D+00
      0.9286662960D+01  0.4679413484D+00
      0.3163926960D+01  0.3623119853D+00
 SP   3 1.00       0.000000000000
      0.7868272350D+01 -0.1193324198D+00  0.6899906659D-01
      0.1881288540D+01 -0.1608541517D+00  0.3164239610D+00
      0.5442492580D+00  0.1143456438D+01  0.7443082909D+00
 SP   1 1.00       0.000000000000
      0.1687144782D+00  0.1000000000D+01  0.1000000000D+01
 D   1 1.00       0.000000000000
      0.8000000000D+00  0.1000000000D+01
 ****
     57 0
 S   6 1.00       0.000000000000
      0.3047524880D+04  0.1834737132D-02
      0.4573695180D+03  0.1403732281D-01
      0.1039486850D+03  0.6884262226D-01
      0.2921015530D+02  0.2321844432D+00
      0.9286662960D+01  0.4679413484D+00
      0.3163926960D+01  0.3623119853D+00
 SP   3 1.00       0.000000000000
      0.7868272350D+01 -0.1193324198D+00  0.6899906659D-01
      0.1881288540D+01 -0.1608541517D+00  0.3164239610D+00
      0.5442492580D+00  0.1143456438D+01  0.7443082909D+00
 SP   1 1.00       0.000000000000
      0.1687144782D+00  0.1000000000D+01  0.1000000000D+01
 D   1 1.00       0.000000000000
      0.8000000000D+00  0.1000000000D+01
 ****
     58 0
 S   6 1.00       0.000000000000
      0.3047524880D+04  0.1834737132D-02
      0.4573695180D+03  0.1403732281D-01
      0.1039486850D+03  0.6884262226D-01
      0.2921015530D+02  0.2321844432D+00
      0.9286662960D+01  0.4679413484D+00
      0.3163926960D+01  0.3623119853D+00
 SP   3 1.00       0.000000000000
      0.7868272350D+01 -0.1193324198D+00  0.6899906659D-01
      0.1881288540D+01 -0.1608541517D+00  0.3164239610D+00
      0.5442492580D+00  0.1143456438D+01  0.7443082909D+00
 SP   1 1.00       0.000000000000
      0.1687144782D+00  0.1000000000D+01  0.1000000000D+01
 D   1 1.00       0.000000000000
      0.8000000000D+00  0.1000000000D+01
 ****
     59 0
 S   6 1.00       0.000000000000
      0.3047524880D+04  0.1834737132D-02
      0.4573695180D+03  0.1403732281D-01
      0.1039486850D+03  0.6884262226D-01
      0.2921015530D+02  0.2321844432D+00
      0.9286662960D+01  0.4679413484D+00
      0.3163926960D+01  0.3623119853D+00
 SP   3 1.00       0.000000000000
      0.7868272350D+01 -0.1193324198D+00  0.6899906659D-01
      0.1881288540D+01 -0.1608541517D+00  0.3164239610D+00
      0.5442492580D+00  0.1143456438D+01  0.7443082909D+00
 SP   1 1.00       0.000000000000
      0.1687144782D+00  0.1000000000D+01  0.1000000000D+01
 D   1 1.00       0.000000000000
      0.8000000000D+00  0.1000000000D+01
 ****
     60 0
 S   6 1.00       0.000000000000
      0.3047524880D+04  0.1834737132D-02
      0.4573695180D+03  0.1403732281D-01
      0.1039486850D+03  0.6884262226D-01
      0.2921015530D+02  0.2321844432D+00
      0.9286662960D+01  0.4679413484D+00
      0.3163926960D+01  0.3623119853D+00
 SP   3 1.00       0.000000000000
      0.7868272350D+01 -0.1193324198D+00  0.6899906659D-01
      0.1881288540D+01 -0.1608541517D+00  0.3164239610D+00
      0.5442492580D+00  0.1143456438D+01  0.7443082909D+00
 SP   1 1.00       0.000000000000
      0.1687144782D+00  0.1000000000D+01  0.1000000000D+01
 D   1 1.00       0.000000000000
      0.8000000000D+00  0.1000000000D+01
 ****
     61 0
 S   6 1.00       0.000000000000
      0.3047524880D+04  0.1834737132D-02
      0.4573695180D+03  0.1403732281D-01
      0.1039486850D+03  0.6884262226D-01
      0.2921015530D+02  0.2321844432D+00
      0.9286662960D+01  0.4679413484D+00
      0.3163926960D+01  0.3623119853D+00
 SP   3 1.00       0.000000000000
      0.7868272350D+01 -0.1193324198D+00  0.6899906659D-01
      0.1881288540D+01 -0.1608541517D+00  0.3164239610D+00
      0.5442492580D+00  0.1143456438D+01  0.7443082909D+00
 SP   1 1.00       0.000000000000
      0.1687144782D+00  0.1000000000D+01  0.1000000000D+01
 D   1 1.00       0.000000000000
      0.8000000000D+00  0.1000000000D+01
 ****
     62 0
 S   6 1.00       0.000000000000
      0.3047524880D+04  0.1834737132D-02
      0.4573695180D+03  0.1403732281D-01
      0.1039486850D+03  0.6884262226D-01
      0.2921015530D+02  0.2321844432D+00
      0.9286662960D+01  0.4679413484D+00
      0.3163926960D+01  0.3623119853D+00
 SP   3 1.00       0.000000000000
      0.7868272350D+01 -0.1193324198D+00  0.6899906659D-01
      0.1881288540D+01 -0.1608541517D+00  0.3164239610D+00
      0.5442492580D+00  0.1143456438D+01  0.7443082909D+00
 SP   1 1.00       0.000000000000
      0.1687144782D+00  0.1000000000D+01  0.1000000000D+01
 D   1 1.00       0.000000000000
      0.8000000000D+00  0.1000000000D+01
 ****
     63 0
 S   6 1.00       0.000000000000
      0.3047524880D+04  0.1834737132D-02
      0.4573695180D+03  0.1403732281D-01
      0.1039486850D+03  0.6884262226D-01
      0.2921015530D+02  0.2321844432D+00
      0.9286662960D+01  0.4679413484D+00
      0.3163926960D+01  0.3623119853D+00
 SP   3 1.00       0.000000000000
      0.7868272350D+01 -0.1193324198D+00  0.6899906659D-01
      0.1881288540D+01 -0.1608541517D+00  0.3164239610D+00
      0.5442492580D+00  0.1143456438D+01  0.7443082909D+00
 SP   1 1.00       0.000000000000
      0.1687144782D+00  0.1000000000D+01  0.1000000000D+01
 D   1 1.00       0.000000000000
      0.8000000000D+00  0.1000000000D+01
 ****
     64 0
 S   6 1.00       0.000000000000
      0.3047524880D+04  0.1834737132D-02
      0.4573695180D+03  0.1403732281D-01
      0.1039486850D+03  0.6884262226D-01
      0.2921015530D+02  0.2321844432D+00
      0.9286662960D+01  0.4679413484D+00
      0.3163926960D+01  0.3623119853D+00
 SP   3 1.00       0.000000000000
      0.7868272350D+01 -0.1193324198D+00  0.6899906659D-01
      0.1881288540D+01 -0.1608541517D+00  0.3164239610D+00
      0.5442492580D+00  0.1143456438D+01  0.7443082909D+00
 SP   1 1.00       0.000000000000
      0.1687144782D+00  0.1000000000D+01  0.1000000000D+01
 D   1 1.00       0.000000000000
      0.8000000000D+00  0.1000000000D+01
 ****
     65 0
 S   6 1.00       0.000000000000
      0.5484671660D+04  0.1831074430D-02
      0.8252349460D+03  0.1395017220D-01
      0.1880469580D+03  0.6844507810D-01
      0.5296450000D+02  0.2327143360D+00
      0.1689757040D+02  0.4701928980D+00
      0.5799635340D+01  0.3585208530D+00
 SP   3 1.00       0.000000000000
      0.1553961625D+02 -0.1107775495D+00  0.7087426823D-01
      0.3599933586D+01 -0.1480262627D+00  0.3397528391D+00
      0.1013761750D+01  0.1130767015D+01  0.7271585773D+00
 SP   1 1.00       0.000000000000
      0.2700058226D+00  0.1000000000D+01  0.1000000000D+01
 D   1 1.00       0.000000000000
      0.8000000000D+00  0.1000000000D+01
 ****
     66 0
 S   6 1.00       0.000000000000
      0.4173511460D+04  0.1834772160D-02
      0.6274579110D+03  0.1399462700D-01
      0.1429020930D+03  0.6858655181D-01
      0.4023432930D+02  0.2322408730D+00
      0.1282021290D+02  0.4690699481D+00
      0.4390437010D+01  0.3604551991D+00
 SP   3 1.00       0.000000000000
      0.1162636186D+02 -0.1149611817D+00  0.6757974388D-01
      0.2716279807D+01 -0.1691174786D+00  0.3239072959D+00
      0.7722183966D+00  0.1145851947D+01  0.7408951398D+00
 SP   1 1.00       0.000000000000
      0.2120314975D+00  0.1000000000D+01  0.1000000000D+01
 D   1 1.00       0.000000000000
      0.8000000000D+00  0.1000000000D+01
 ****
     67 0
 S   6 1.00       0.000000000000
      0.3047524880D+04  0.1834737132D-02
      0.4573695180D+03  0.1403732281D-01
      0.1039486850D+03  0.6884262226D-01
      0.2921015530D+02  0.2321844432D+00
      0.9286662960D+01  0.4679413484D+00
      0.3163926960D+01  0.3623119853D+00
 SP   3 1.00       0.000000000000
      0.7868272350D+01 -0.1193324198D+00  0.6899906659D-01
      0.1881288540D+01 -0.1608541517D+00  0.3164239610D+00
      0.5442492580D+00  0.1143456438D+01  0.7443082909D+00
 SP   1 1.00       0.000000000000
      0.1687144782D+00  0.1000000000D+01  0.1000000000D+01
 D   1 1.00       0.000000000000
      0.8000000000D+00  0.1000000000D+01
 ****
     68 0
 S   3 1.00       0.000000000000
      0.1873113696D+02  0.3349460434D-01
      0.2825394365D+01  0.2347269535D+00
      0.6401216923D+00  0.8137573261D+00
 S   1 1.00       0.000000000000
      0.1612777588D+00  0.1000000000D+01
 ****
     69 0
 S   3 1.00       0.000000000000
      0.1873113696D+02  0.3349460434D-01
      0.2825394365D+01  0.2347269535D+00
      0.6401216923D+00  0.8137573261D+00
 S   1 1.00       0.000000000000
      0.1612777588D+00  0.1000000000D+01
 ****
     70 0
 S   3 1.00       0.000000000000
      0.1873113696D+02  0.3349460434D-01
      0.2825394365D+01  0.2347269535D+00
      0.6401216923D+00  0.8137573261D+00
 S   1 1.00       0.000000000000
      0.1612777588D+00  0.1000000000D+01
 ****
     71 0
 S   3 1.00       0.000000000000
      0.1873113696D+02  0.3349460434D-01
      0.2825394365D+01  0.2347269535D+00
      0.6401216923D+00  0.8137573261D+00
 S   1 1.00       0.000000000000
      0.1612777588D+00  0.1000000000D+01
 ****
     72 0
 S   3 1.00       0.000000000000
      0.1873113696D+02  0.3349460434D-01
      0.2825394365D+01  0.2347269535D+00
      0.6401216923D+00  0.8137573261D+00
 S   1 1.00       0.000000000000
      0.1612777588D+00  0.1000000000D+01
 ****
     73 0
 S   3 1.00       0.000000000000
      0.1873113696D+02  0.3349460434D-01
      0.2825394365D+01  0.2347269535D+00
      0.6401216923D+00  0.8137573261D+00
 S   1 1.00       0.000000000000
      0.1612777588D+00  0.1000000000D+01
 ****
     74 0
 S   3 1.00       0.000000000000
      0.1873113696D+02  0.3349460434D-01
      0.2825394365D+01  0.2347269535D+00
      0.6401216923D+00  0.8137573261D+00
 S   1 1.00       0.000000000000
      0.1612777588D+00  0.1000000000D+01
 ****
     75 0
 S   3 1.00       0.000000000000
      0.1873113696D+02  0.3349460434D-01
      0.2825394365D+01  0.2347269535D+00
      0.6401216923D+00  0.8137573261D+00
 S   1 1.00       0.000000000000
      0.1612777588D+00  0.1000000000D+01
 ****
     76 0
 S   3 1.00       0.000000000000
      0.1873113696D+02  0.3349460434D-01
      0.2825394365D+01  0.2347269535D+00
      0.6401216923D+00  0.8137573261D+00
 S   1 1.00       0.000000000000
      0.1612777588D+00  0.1000000000D+01
 ****
     77 0
 S   3 1.00       0.000000000000
      0.1873113696D+02  0.3349460434D-01
      0.2825394365D+01  0.2347269535D+00
      0.6401216923D+00  0.8137573261D+00
 S   1 1.00       0.000000000000
      0.1612777588D+00  0.1000000000D+01
 ****
     78 0
 S   3 1.00       0.000000000000
      0.1873113696D+02  0.3349460434D-01
      0.2825394365D+01  0.2347269535D+00
      0.6401216923D+00  0.8137573261D+00
 S   1 1.00       0.000000000000
      0.1612777588D+00  0.1000000000D+01
 ****
     79 0
 S   3 1.00       0.000000000000
      0.1873113696D+02  0.3349460434D-01
      0.2825394365D+01  0.2347269535D+00
      0.6401216923D+00  0.8137573261D+00
 S   1 1.00       0.000000000000
      0.1612777588D+00  0.1000000000D+01
 ****
     80 0
 S   3 1.00       0.000000000000
      0.1873113696D+02  0.3349460434D-01
      0.2825394365D+01  0.2347269535D+00
      0.6401216923D+00  0.8137573261D+00
 S   1 1.00       0.000000000000
      0.1612777588D+00  0.1000000000D+01
 ****
     81 0
 S   3 1.00       0.000000000000
      0.1873113696D+02  0.3349460434D-01
      0.2825394365D+01  0.2347269535D+00
      0.6401216923D+00  0.8137573261D+00
 S   1 1.00       0.000000000000
      0.1612777588D+00  0.1000000000D+01
 ****
     82 0
 S   3 1.00       0.000000000000
      0.1873113696D+02  0.3349460434D-01
[...]
 Alpha virt. eigenvalues --    0.90434   0.90687   0.90999   0.91160   0.91478
 Alpha virt. eigenvalues --    0.91937   0.92311   0.92356   0.92768   0.93122
 Alpha virt. eigenvalues --    0.93330   0.93583   0.94021   0.94123   0.94649
 Alpha virt. eigenvalues --    0.95018   0.95149   0.95494   0.96019   0.96401
 Alpha virt. eigenvalues --    0.96710   0.96904   0.97001   0.97440   0.97498
 Alpha virt. eigenvalues --    0.97911   0.98600   0.98728   0.98921   0.99917
 Alpha virt. eigenvalues --    1.00090   1.00290   1.00647   1.00848   1.00999
 Alpha virt. eigenvalues --    1.01177   1.01588   1.01862   1.02255   1.02403
 Alpha virt. eigenvalues --    1.02916   1.03268   1.03752   1.04403   1.04986
 Alpha virt. eigenvalues --    1.05154   1.05789   1.05979   1.06020   1.06569
 Alpha virt. eigenvalues --    1.07754   1.08051   1.08597   1.08920   1.09359
 Alpha virt. eigenvalues --    1.09675   1.10126   1.10759   1.11071   1.11517
 Alpha virt. eigenvalues --    1.11870   1.12187   1.12717   1.13444   1.13521
 Alpha virt. eigenvalues --    1.13657   1.13743   1.14085   1.14522   1.14598
 Alpha virt. eigenvalues --    1.15176   1.15556   1.15769   1.16146   1.16398
 Alpha virt. eigenvalues --    1.16803   1.17014   1.17284   1.17567   1.17813
 Alpha virt. eigenvalues --    1.18044   1.18552   1.18967   1.19237   1.19602
 Alpha virt. eigenvalues --    1.19844   1.20203   1.21043   1.21801   1.22384
 Alpha virt. eigenvalues --    1.22571   1.22912   1.23398   1.23655   1.24502
 Alpha virt. eigenvalues --    1.25180   1.25674   1.26221   1.26582   1.26966
 Alpha virt. eigenvalues --    1.27388   1.27679   1.28175   1.28179   1.28757
 Alpha virt. eigenvalues --    1.29357   1.29569   1.30721   1.30925   1.31386
 Alpha virt. eigenvalues --    1.32244   1.32330   1.32855   1.33184   1.35333
 Alpha virt. eigenvalues --    1.35908   1.36944   1.37219   1.38020   1.38373
 Alpha virt. eigenvalues --    1.39347   1.40216   1.40747   1.41127   1.42031
 Alpha virt. eigenvalues --    1.42201   1.42651   1.42806   1.42818   1.43226
 Alpha virt. eigenvalues --    1.43438   1.43617   1.43676   1.44207   1.44401
 Alpha virt. eigenvalues --    1.44699   1.44945   1.45202   1.45420   1.45692
 Alpha virt. eigenvalues --    1.46270   1.46504   1.46687   1.46946   1.46950
 Alpha virt. eigenvalues --    1.47212   1.47464   1.47713   1.47989   1.48238
 Alpha virt. eigenvalues --    1.48296   1.48544   1.48731   1.48856   1.48893
 Alpha virt. eigenvalues --    1.49184   1.49267   1.49424   1.49487   1.49568
 Alpha virt. eigenvalues --    1.49746   1.50040   1.50389   1.50752   1.50946
 Alpha virt. eigenvalues --    1.51087   1.51507   1.51584   1.51732   1.52118
 Alpha virt. eigenvalues --    1.53467   1.53579   1.54280   1.55399   1.55808
 Alpha virt. eigenvalues --    1.58030   1.59855   1.60308   1.60513   1.61504
 Alpha virt. eigenvalues --    1.63388   1.64541   1.64926   1.65832   1.66943
 Alpha virt. eigenvalues --    1.67721   1.69761   1.70893   1.71032   1.71280
 Alpha virt. eigenvalues --    1.71692   1.72602   1.72775   1.73638   1.74435
 Alpha virt. eigenvalues --    1.74662   1.75008   1.75420   1.75727   1.76106
 Alpha virt. eigenvalues --    1.76463   1.77301   1.77867   1.78179   1.78297
 Alpha virt. eigenvalues --    1.78484   1.78546   1.78841   1.79150   1.79433
 Alpha virt. eigenvalues --    1.79809   1.80127   1.80297   1.80987   1.81363
 Alpha virt. eigenvalues --    1.81428   1.81880   1.82529   1.83053   1.83456
 Alpha virt. eigenvalues --    1.83595   1.84156   1.84409   1.84515   1.84856
 Alpha virt. eigenvalues --    1.85238   1.85362   1.85781   1.86188   1.86505
 Alpha virt. eigenvalues --    1.86841   1.87559   1.88391   1.88676   1.88875
 Alpha virt. eigenvalues --    1.89273   1.89427   1.89764   1.89941   1.90579
 Alpha virt. eigenvalues --    1.90823   1.91441   1.91660   1.91895   1.92176
 Alpha virt. eigenvalues --    1.92672   1.92815   1.93057   1.93242   1.93459
 Alpha virt. eigenvalues --    1.94143   1.94438   1.94922   1.95241   1.96117
 Alpha virt. eigenvalues --    1.96416   1.96885   1.97206   1.97241   1.97671
 Alpha virt. eigenvalues --    1.98200   1.98775   1.99028   1.99227   1.99627
 Alpha virt. eigenvalues --    1.99962   2.00676   2.00931   2.01493   2.02750
 Alpha virt. eigenvalues --    2.04498   2.05184   2.05314   2.05456   2.05545
 Alpha virt. eigenvalues --    2.05675   2.05744   2.06223   2.07002   2.07257
 Alpha virt. eigenvalues --    2.08527   2.08779   2.09309   2.09898   2.10377
 Alpha virt. eigenvalues --    2.10610   2.11301   2.11655   2.11868   2.12092
 Alpha virt. eigenvalues --    2.12485   2.12621   2.13139   2.13886   2.14029
 Alpha virt. eigenvalues --    2.14439   2.15117   2.15134   2.15204   2.15397
 Alpha virt. eigenvalues --    2.15617   2.15895   2.15976   2.16457   2.16653
 Alpha virt. eigenvalues --    2.16915   2.17298   2.17548   2.17803   2.18145
 Alpha virt. eigenvalues --    2.18526   2.19309   2.20193   2.20729   2.21344
 Alpha virt. eigenvalues --    2.21462   2.21783   2.22241   2.22625   2.23101
 Alpha virt. eigenvalues --    2.23665   2.24355   2.24667   2.25186   2.25531
 Alpha virt. eigenvalues --    2.25891   2.26252   2.26938   2.27214   2.27541
 Alpha virt. eigenvalues --    2.27692   2.28533   2.28808   2.28882   2.28998
 Alpha virt. eigenvalues --    2.29613   2.29921   2.30226   2.30374   2.30467
 Alpha virt. eigenvalues --    2.30541   2.30706   2.30855   2.31099   2.31245
 Alpha virt. eigenvalues --    2.31435   2.31954   2.32806   2.33465   2.34149
 Alpha virt. eigenvalues --    2.34501   2.35343   2.35971   2.36470   2.37163
 Alpha virt. eigenvalues --    2.38555   2.39229   2.39838   2.40138   2.40529
 Alpha virt. eigenvalues --    2.41012   2.41749   2.42794   2.43678   2.43956
 Alpha virt. eigenvalues --    2.44359   2.45007   2.45859   2.47506   2.49230
 Alpha virt. eigenvalues --    2.50405   2.51474   2.52116   2.53563   2.53927
 Alpha virt. eigenvalues --    2.54452   2.55496   2.55791   2.56928   2.57524
 Alpha virt. eigenvalues --    2.58141   2.58230   2.58679   2.59462   2.59650
 Alpha virt. eigenvalues --    2.60252   2.60376   2.60864   2.61477   2.62260
 Alpha virt. eigenvalues --    2.62557   2.62664   2.62850   2.63359   2.64281
 Alpha virt. eigenvalues --    2.64374   2.64694   2.65042   2.65270   2.65491
 Alpha virt. eigenvalues --    2.65597   2.66349   2.66701   2.67347   2.67405
 Alpha virt. eigenvalues --    2.67761   2.68321   2.68488   2.69162   2.69609
 Alpha virt. eigenvalues --    2.70118   2.70712   2.71059   2.71390   2.71735
 Alpha virt. eigenvalues --    2.72775   2.72999   2.73199   2.73661   2.74408
 Alpha virt. eigenvalues --    2.74725   2.74926   2.74997   2.75315   2.75452
 Alpha virt. eigenvalues --    2.75723   2.76735   2.76878   2.76992   2.77752
 Alpha virt. eigenvalues --    2.78059   2.78215   2.79052   2.79514   2.80509
 Alpha virt. eigenvalues --    2.81130   2.81752   2.82631   2.83956   2.85090
 Alpha virt. eigenvalues --    2.85434   2.85970   2.86632   2.87170   2.87455
 Alpha virt. eigenvalues --    2.88021   2.89062   2.90742   2.92602   2.92765
 Alpha virt. eigenvalues --    2.95151   2.95336   2.95881   2.98025   2.98410
 Alpha virt. eigenvalues --    2.99972   3.00647   3.01336   3.01988   3.03444
 Alpha virt. eigenvalues --    3.04143   3.05156   3.05898   3.07739   3.08863
 Alpha virt. eigenvalues --    3.12316   3.13974   3.17301   3.19105   3.21741
 Alpha virt. eigenvalues --    3.24631   3.26680   3.31380   3.31704   3.35518
 Alpha virt. eigenvalues --    3.37094   3.40568   3.41738   3.42658   3.42763
 Alpha virt. eigenvalues --    3.46484   3.46747   3.51860   3.56664   4.03867
 Alpha virt. eigenvalues --    4.06721   4.07626   4.08663   4.08714   4.08964
 Alpha virt. eigenvalues --    4.08981   4.09060   4.09341   4.09725   4.09934
 Alpha virt. eigenvalues --    4.10286   4.10465   4.11335   4.11574   4.12087
 Alpha virt. eigenvalues --    4.12384   4.12830   4.13228   4.13606   4.14174
 Alpha virt. eigenvalues --    4.15491   4.15757   4.16085   4.17472   4.17587
 Alpha virt. eigenvalues --    4.17839   4.18356   4.18698   4.19893   4.21902
 Alpha virt. eigenvalues --    4.23526   4.25748   4.25876   4.28632   4.31049
 Alpha virt. eigenvalues --    4.32522   4.32861   4.33194   4.33286   4.34061
 Alpha virt. eigenvalues --    4.34841   4.36317   4.37522   4.37736   4.38667
 Alpha virt. eigenvalues --    4.39556   4.39919   4.40921   4.43845   4.45761
 Alpha virt. eigenvalues --    4.46798   4.48413   4.51671   4.59103   4.60107
 Alpha virt. eigenvalues --    4.65399   4.66718   4.70938   4.72643   4.74268
 Alpha virt. eigenvalues --    4.75767   4.77682   4.78475   4.83307   4.84915
 Alpha virt. eigenvalues --    4.91060
          Condensed to atoms (all electrons):
 Mulliken charges:
               1
     1  O   -0.452453
     2  C    0.568496
     3  C   -0.004884
     4  C   -0.170995
     5  C   -0.134008
     6  C   -0.130628
     7  C   -0.198475
     8  C    0.126616
     9  C    0.087275
    10  C   -0.282005
    11  C    0.117810
    12  C    0.078622
    13  C   -0.176124
    14  C   -0.143070
    15  C   -0.167389
    16  C    0.291286
    17  N   -0.665042
    18  C    0.275213
    19  C   -0.165595
    20  C   -0.188636
    21  C    0.095439
    22  C    0.089371
    23  C   -0.174698
    24  C   -0.133629
    25  C   -0.127147
    26  C   -0.133607
    27  C   -0.174569
    28  C   -0.188757
    29  C   -0.165925
    30  C    0.299101
    31  C   -0.182656
    32  C   -0.192933
    33  C    0.085055
    34  C    0.091889
    35  C   -0.253181
    36  C    0.086655
    37  C   -0.191875
    38  C   -0.135276
    39  C   -0.133379
    40  C   -0.180063
    41  C    0.081528
    42  C   -0.228293
    43  C    0.154007
    44  C   -0.177143
    45  C   -0.136463
    46  C   -0.126802
    47  C   -0.133266
    48  C   -0.185515
    49  C    0.158387
    50  C   -0.179122
    51  C   -0.135862
    52  C   -0.131270
    53  C   -0.140899
    54  C   -0.187781
    55  C   -0.223324
    56  C   -0.281636
    57  C    0.086702
    58  C    0.126167
    59  C   -0.193516
    60  C   -0.125580
    61  C   -0.130986
    62  C   -0.171141
    63  C   -0.004304
    64  C    0.568094
    65  O   -0.451933
    66  N   -0.731427
    67  C    0.270253
    68  H    0.173055
    69  H    0.141369
    70  H    0.150745
    71  H    0.146736
    72  H    0.147414
    73  H    0.131962
    74  H    0.135495
    75  H    0.147921
    76  H    0.144609
    77  H    0.135962
    78  H    0.131010
    79  H    0.130679
    80  H    0.130012
    81  H    0.130744
    82  H    0.131377
    83  H    0.136905
    84  H    0.148030
    85  H    0.143481
    86  H    0.134529
    87  H    0.146996
    88  H    0.133929
    89  H    0.131128
    90  H    0.130811
    91  H    0.134977
    92  H    0.136130
    93  H    0.129471
    94  H    0.128646
    95  H    0.129947
    96  H    0.143748
    97  H    0.140474
    98  H    0.130396
    99  H    0.128786
   100  H    0.139639
   101  H    0.139486
   102  H    0.147170
   103  H    0.143007
   104  H    0.142924
   105  H    0.140230
   106  H    0.142056
   107  H    0.173310
 Sum of Mulliken charges =  -0.00000
 Mulliken charges with hydrogens summed into heavy atoms:
               1
     1  O   -0.452453
     2  C    0.568496
     3  C   -0.004884
     4  C    0.002060
     5  C    0.007361
     6  C    0.020118
     7  C   -0.051739
     8  C    0.126616
     9  C    0.087275
    10  C   -0.134590
    11  C    0.117810
    12  C    0.078622
    13  C   -0.044162
    14  C   -0.007576
    15  C   -0.019468
    16  C    0.291286
    17  N   -0.665042
    18  C    0.275213
    19  C   -0.020987
    20  C   -0.052674
    21  C    0.095439
    22  C    0.089371
    23  C   -0.043688
    24  C   -0.002951
    25  C    0.002864
    26  C   -0.002863
    27  C   -0.043192
    28  C   -0.051852
    29  C   -0.017894
    30  C    0.299101
    31  C   -0.039175
    32  C   -0.058404
    33  C    0.085055
    34  C    0.091889
    35  C   -0.106185
    36  C    0.086655
    37  C   -0.057946
    38  C   -0.004148
    39  C   -0.002568
    40  C   -0.045086
    41  C    0.081528
    42  C   -0.228293
    43  C    0.154007
    44  C   -0.041013
    45  C   -0.006992
    46  C    0.001844
    47  C   -0.003319
    48  C   -0.041767
    49  C    0.158387
    50  C   -0.038648
    51  C   -0.005465
    52  C   -0.002484
    53  C   -0.001260
    54  C   -0.048294
    55  C   -0.076154
    56  C   -0.138629
    57  C    0.086702
    58  C    0.126167
    59  C   -0.050592
    60  C    0.014650
    61  C    0.011070
    62  C    0.002169
    63  C   -0.004304
    64  C    0.568094
    65  O   -0.451933
    66  N   -0.731427
    67  C    0.270253
 Electronic spatial extent (au):  <R**2>=          68316.3414
 Charge=             -0.0000 electrons
 Dipole moment (field-independent basis, Debye):
    X=             -4.2502    Y=              4.3759    Z=             -1.6515  Tot=              6.3198
 Quadrupole moment (field-independent basis, Debye-Ang):
   XX=           -387.6418   YY=           -364.1044   ZZ=           -373.4882
   XY=             46.6387   XZ=             -8.4164   YZ=              9.0436
 Traceless Quadrupole moment (field-independent basis, Debye-Ang):
   XX=            -12.5637   YY=             10.9737   ZZ=              1.5900
   XY=             46.6387   XZ=             -8.4164   YZ=              9.0436
 Octapole moment (field-independent basis, Debye-Ang**2):
  XXX=           -579.7558  YYY=            265.3143  ZZZ=            -48.2040  XYY=           -387.5517
  XXY=            496.1235  XXZ=            -82.1123  XZZ=           -205.8390  YZZ=             99.0544
  YYZ=             -7.5831  XYZ=             46.2749
 Hexadecapole moment (field-independent basis, Debye-Ang**3):
 XXXX=         -50291.3933 YYYY=         -35715.9854 ZZZZ=          -4970.8870 XXXY=           8180.2292
 XXXZ=             61.2466 YYYX=           4531.2110 YYYZ=           1366.2857 ZZZX=             99.9187
 ZZZY=           1186.0078 XXYY=         -16083.5044 XXZZ=          -9345.6814 YYZZ=          -7031.2160
 XXYZ=            599.3333 YYXZ=            -91.9740 ZZXY=           1643.2105
 N-N= 8.842253696592D+03 E-N=-2.390759270325D+04  KE= 2.659064156927D+03
 Leave Link  601 at Sat Nov  5 13:21:41 2022, MaxMem=   402653184 cpu:               2.2 elap:               0.3
 (Enter /home/wykgroup/appl/g16/l9999.exe)
 1\1\GINC-NODE101\SP\RB3LYP TD-FC\6-31G(d)\C63H40N2O2\WYKGROUP\05-Nov-2
 022\0\\#p b3lyp/6-31g(d) 6D 10F nosymm GFInput td=(50-50,nstate=2) SCF
 =XQC\\Gaussian input prepared by ASE\\0,1\O,0,6.7051652823,-4.94574364
 2,1.7287793505\C,0,6.0228980852,-4.2431040442,1.0122466577\C,0,4.64266
 0155,-4.596007176,0.6224634917\C,0,4.2099331316,-5.902307322,0.8975251
 865\C,0,2.933544424,-6.304599228,0.535152442\C,0,2.0785283052,-5.39244
 87703,-0.0988866007\C,0,2.4969829334,-4.0933323838,-0.3579617384\C,0,3
 .7890834074,-3.6644492113,0.0029311861\C,0,4.2794102839,-2.2978400417,
 -0.212265002\C,0,3.4332327605,-1.2736213268,-0.654201841\C,0,3.8908771
 772,0.0236495996,-0.8965537729\C,0,2.978480587,1.0830772177,-1.3998293
 779\C,0,3.4151176114,1.9979986931,-2.3723232417\C,0,2.55198625,2.98952
 45019,-2.8356174136\C,0,1.2485205556,3.0832192251,-2.355188349\C,0,0.7
 959354063,2.1828105599,-1.3767426679\N,0,-0.5239838961,2.2842703312,-0
 .8650747667\C,0,-1.090012533,3.5693791487,-0.6312817393\C,0,-0.3492852
 804,4.5706437349,0.0150747343\C,0,-0.9019183745,5.8283648282,0.2339447
 087\C,0,-2.2152919699,6.1331072188,-0.1627754071\C,0,-2.8039185352,7.4
 732138722,0.0826387058\C,0,-2.5170858791,8.1851446906,1.2603239139\C,0
 ,-3.0688155291,9.444381764,1.4906266215\C,0,-3.9232168997,10.021380832
 2,0.5492853022\C,0,-4.2189943305,9.3265481517,-0.6249388918\C,0,-3.664
 974819,8.0684007737,-0.8556537628\C,0,-2.9494140458,5.1183733433,-0.80
 07306247\C,0,-2.3995972451,3.8633922963,-1.040883986\C,0,-1.2946657014
 ,1.1186312034,-0.604022309\C,0,-1.2444662568,0.0167336838,-1.478830309
 9\C,0,-2.0094979557,-1.1260840316,-1.2373791598\C,0,-2.8476215437,-1.1
 748557882,-0.1283085899\C,0,-2.9099279989,-0.0700947532,0.7402951155\C
 ,0,-2.1326579199,1.0653148197,0.5213596864\C,0,-3.8743942685,-0.364292
 7134,1.8065927265\C,0,-4.2714383354,0.3950093297,2.9093162156\C,0,-5.2
 244141167,-0.1317524768,3.7827728396\C,0,-5.769354877,-1.4005215919,3.
 5571752485\C,0,-5.3686100699,-2.1624086889,2.4541939069\C,0,-4.4246240
 087,-1.6390741045,1.5771648375\C,0,-3.8138343154,-2.2871090389,0.31900
 62521\C,0,-4.8379482071,-2.5218825678,-0.8125424706\C,0,-4.5261969608,
 -3.3747023087,-1.8837980791\C,0,-5.4012558198,-3.530291831,-2.95856251
 9\C,0,-6.6108783086,-2.834477726,-2.9876028184\C,0,-6.9313304096,-1.98
 20002764,-1.9316391241\C,0,-6.0535046112,-1.8263652857,-0.8569528292\C
 ,0,-3.1005787415,-3.5861570858,0.7548907667\C,0,-3.8086739313,-4.79564
 4062,0.837197978\C,0,-3.201219318,-5.9532921473,1.324032321\C,0,-1.870
 8392112,-5.926790117,1.7446247979\C,0,-1.157045101,-4.7300920828,1.673
 2725425\C,0,-1.7661507579,-3.5735491607,1.1823102017\C,0,1.6721205918,
 1.1938037426,-0.9040336411\C,0,5.2418881877,0.2898451492,-0.6617101678
 \C,0,6.1295519947,-0.6858189628,-0.194428382\C,0,7.5401563522,-0.37998
 90888,0.0704870015\C,0,8.0688301641,0.9253714557,0.0573997049\C,0,9.42
 24911758,1.1474760752,0.2741232924\C,0,10.2942679516,0.0749498558,0.50
 64975754\C,0,9.7919130034,-1.2172315784,0.530116697\C,0,8.4220195657,-
 1.445266326,0.3286393394\C,0,7.9481118163,-2.8426205707,0.3972061147\O
 ,0,8.7013583374,-3.7938801247,0.4074760354\N,0,6.5226198624,-3.0096470
 089,0.4710744144\C,0,5.6450696295,-1.9997636048,0.0227971684\H,0,4.902
 8160206,-6.5763548506,1.3893156074\H,0,2.600574226,-7.3186118753,0.736
 4218564\H,0,1.0760880103,-5.6959278253,-0.3868125941\H,0,1.8114060101,
 -3.415215688,-0.8536280815\H,0,2.3883493739,-1.4928697761,-0.839943999
 \H,0,4.415270209,1.910990389,-2.7861688562\H,0,2.8892508167,3.68413583
 23,-3.6003474753\H,0,0.5771350222,3.8469772864,-2.7329930678\H,0,0.666
 2818895,4.3605969348,0.3358214\H,0,-0.2969375347,6.5929175414,0.713148
 0023\H,0,-1.8761700043,7.7349640587,2.0134236017\H,0,-2.8378451705,9.9
 717305289,2.4125893975\H,0,-4.3542442506,11.0025186075,0.728988358\H,0
 ,-4.8760919235,9.7689367438,-1.3692265622\H,0,-3.8807904205,7.55015263
 97,-1.7859283112\H,0,-3.9744956742,5.3103465327,-1.1048230028\H,0,-2.9
 881661938,3.0990291371,-1.5383662887\H,0,-0.611505813,0.0671471676,-2.
 358687138\H,0,-1.9635453354,-1.955850569,-1.9371010972\H,0,-2.17479071
 63,1.910095453,1.2014108932\H,0,-3.847099225,1.3796148283,3.0882389771
 \H,0,-5.5431879305,0.4467576115,4.6456573742\H,0,-6.5078964746,-1.8007
 008694,4.2465250778\H,0,-5.7890499226,-3.1508740924,2.2922057077\H,0,-
 3.596169728,-3.9351159622,-1.8708946803\H,0,-5.1365458832,-4.200283090
 1,-3.7726394686\H,0,-7.2956774059,-2.9579350897,-3.8222928646\H,0,-7.8
 697153445,-1.4333615165,-1.9384999736\H,0,-6.3198072269,-1.1565515619,
 -0.046201748\H,0,-4.8422494688,-4.8366975983,0.5075317891\H,0,-3.77190
 8782,-6.8771351106,1.3738514245\H,0,-1.3972970491,-6.8274480242,2.1262
 859484\H,0,-0.121227474,-4.6915834969,1.9992601489\H,0,-1.197680387,-2
 .6502270969,1.1394452566\H,0,1.3350783109,0.5225524225,-0.1209301862\H
 ,0,5.6053489236,1.2957620828,-0.8350223754\H,0,7.4196220975,1.77754879
 22,-0.1101901301\H,0,9.8042916636,2.1648338078,0.2640577321\H,0,11.352
 3319193,0.2549470347,0.6725251851\H,0,10.4311289404,-2.0747231881,0.71
 01236653\\Version=ES64L-G16RevB.01\HF=-2684.8420627\RMSD=8.076e-09\PG=
 C01 [X(C63H40N2O2)]\\@


 AN AIRPLANE IS A COLLECTION OF SPARE PARTS
 FLYING IN CLOSE FORMATION.
 Job cpu time:       1 days  5 hours 24 minutes 37.3 seconds.
 Elapsed time:       0 days  3 hours  9 minutes 21.7 seconds.
 File lengths (MBytes):  RWF=   6219 Int=      0 D2E=      0 Chk=    238 Scr=      1
 Normal termination of Gaussian 16 at Sat Nov  5 13:21:42 2022.
