 Entering Gaussian System, Link 0=/home/wykgroup/appl/g16/g16
 Input=./calculation/no_transfer_pubchem_sampling_8_b3lyp/121476589.com
 Output=./calculation/no_transfer_pubchem_sampling_8_b3lyp/121476589.log
 Initial command:
 /home/wykgroup/appl/g16/l1.exe "/userdata/scratch/wykgroup/khs/./calculation/no_transfer_pubchem_sampling_8_b3lyp/121476589/Gau-30096.inp" -scrdir="/userdata/scratch/wykgroup/khs/./calculation/no_transfer_pubchem_sampling_8_b3lyp/121476589/"
 Entering Link 1 = /home/wykgroup/appl/g16/l1.exe PID=     30097.
  
 Copyright (c) 1988-2017, Gaussian, Inc.  All Rights Reserved.
  
 This is part of the Gaussian(R) 16 program.  It is based on
 the Gaussian(R) 09 system (copyright 2009, Gaussian, Inc.),
 the Gaussian(R) 03 system (copyright 2003, Gaussian, Inc.),
 the Gaussian(R) 98 system (copyright 1998, Gaussian, Inc.),
 the Gaussian(R) 94 system (copyright 1995, Gaussian, Inc.),
 the Gaussian 92(TM) system (copyright 1992, Gaussian, Inc.),
 the Gaussian 90(TM) system (copyright 1990, Gaussian, Inc.),
 the Gaussian 88(TM) system (copyright 1988, Gaussian, Inc.),
 the Gaussian 86(TM) system (copyright 1986, Carnegie Mellon
 University), and the Gaussian 82(TM) system (copyright 1983,
 Carnegie Mellon University). Gaussian is a federally registered
 trademark of Gaussian, Inc.
  
 This software contains proprietary and confidential information,
 including trade secrets, belonging to Gaussian, Inc.
  
 This software is provided under written license and may be
 used, copied, transmitted, or stored only in accord with that
 written license.
  
 The following legend is applicable only to US Government
 contracts under FAR:
  
                    RESTRICTED RIGHTS LEGEND
  
 Use, reproduction and disclosure by the US Government is
 subject to restrictions as set forth in subparagraphs (a)
 and (c) of the Commercial Computer Software - Restricted
 Rights clause in FAR 52.227-19.
  
 Gaussian, Inc.
 340 Quinnipiac St., Bldg. 40, Wallingford CT 06492
  
  
 ---------------------------------------------------------------
 Warning -- This program may not be used in any manner that
 competes with the business of Gaussian, Inc. or will provide
 assistance to any competitor of Gaussian, Inc.  The licensee
 of this program is prohibited from giving any competitor of
 Gaussian, Inc. access to this program.  By using this program,
 the user acknowledges that Gaussian, Inc. is engaged in the
 business of creating and licensing software in the field of
 computational chemistry and represents and warrants to the
 licensee that it is not a competitor of Gaussian, Inc. and that
 it will not use this program in any manner prohibited above.
 ---------------------------------------------------------------
  

 Cite this work as:
 Gaussian 16, Revision B.01,
 M. J. Frisch, G. W. Trucks, H. B. Schlegel, G. E. Scuseria, 
 M. A. Robb, J. R. Cheeseman, G. Scalmani, V. Barone, 
 G. A. Petersson, H. Nakatsuji, X. Li, M. Caricato, A. V. Marenich, 
 J. Bloino, B. G. Janesko, R. Gomperts, B. Mennucci, H. P. Hratchian, 
 J. V. Ortiz, A. F. Izmaylov, J. L. Sonnenberg, D. Williams-Young, 
 F. Ding, F. Lipparini, F. Egidi, J. Goings, B. Peng, A. Petrone, 
 T. Henderson, D. Ranasinghe, V. G. Zakrzewski, J. Gao, N. Rega, 
 G. Zheng, W. Liang, M. Hada, M. Ehara, K. Toyota, R. Fukuda, 
 J. Hasegawa, M. Ishida, T. Nakajima, Y. Honda, O. Kitao, H. Nakai, 
 T. Vreven, K. Throssell, J. A. Montgomery, Jr., J. E. Peralta, 
 F. Ogliaro, M. J. Bearpark, J. J. Heyd, E. N. Brothers, K. N. Kudin, 
 V. N. Staroverov, T. A. Keith, R. Kobayashi, J. Normand, 
 K. Raghavachari, A. P. Rendell, J. C. Burant, S. S. Iyengar, 
 J. Tomasi, M. Cossi, J. M. Millam, M. Klene, C. Adamo, R. Cammi, 
 J. W. Ochterski, R. L. Martin, K. Morokuma, O. Farkas, 
 J. B. Foresman, and D. J. Fox, Gaussian, Inc., Wallingford CT, 2016.
 
 ******************************************
 Gaussian 16:  ES64L-G16RevB.01 20-Dec-2017
                 5-Nov-2022 
 ******************************************
 %chk=./calculation/no_transfer_pubchem_sampling_8_b3lyp/121476589.chk
 %nprocshared=7
 Will use up to    7 processors via shared memory.
 %mem=6GB
 -----------------------------
 #p b3lyp/6-31g(d) opt SCF=XQC
 -----------------------------
 1/18=20,19=15,26=3,38=1/1,3;
 2/9=110,12=2,17=6,18=5,40=1/2;
 3/5=1,6=6,7=1,11=2,25=1,30=1,71=1,74=-5/1,2,3;
 4//1;
 5/5=2,8=3,13=1,38=5/2,8;
 6/7=2,8=2,9=2,10=2,28=1/1;
 7//1,2,3,16;
 1/18=20,19=15,26=3/3(2);
 2/9=110/2;
 99//99;
 2/9=110/2;
 3/5=1,6=6,7=1,11=2,25=1,30=1,71=1,74=-5/1,2,3;
 4/5=5,16=3,69=1/1;
 5/5=2,8=3,13=1,38=5/2,8;
 7//1,2,3,16;
 1/18=20,19=15,26=3/3(-5);
 2/9=110/2;
 6/7=2,8=2,9=2,10=2,19=2,28=1/1;
 99/9=1/99;
 Leave Link    1 at Sat Nov  5 00:05:33 2022, MaxMem=   805306368 cpu:               0.6 elap:               0.1
 (Enter /home/wykgroup/appl/g16/l101.exe)
 ------------------------------
 Gaussian input prepared by ASE
 ------------------------------
 Symbolic Z-matrix:
 Charge =  0 Multiplicity = 1
 C                    -7.939    -2.83732  -1.08277 
 C                    -7.87136  -2.21999   0.31697 
 C                    -6.84713  -2.96211   1.18127 
 C                    -9.23314  -2.20301   0.9753 
 C                    -10.04874  -3.26439   1.30095 
 C                    -11.27173  -3.00852   1.90765 
 C                    -11.66916  -1.70932   2.18195 
 C                    -10.85561  -0.63592   1.85742 
 C                    -9.63498  -0.88754   1.25273 
 C                    -8.59068   0.01673   0.80535 
 C                    -8.49532   1.39866   0.84952 
 C                    -7.36078   2.0094    0.35032 
 C                    -6.32416   1.2561   -0.20467 
 N                    -5.17973   1.89046  -0.70151 
 C                    -5.29524   3.11097  -1.37655 
 C                    -4.32763   4.10326  -1.21905 
 C                    -4.44657   5.30375  -1.89146 
 C                    -5.53046   5.53968  -2.72138 
 C                    -6.49694   4.55957  -2.87725 
 C                    -6.38249   3.35223  -2.21625 
 C                    -3.92763   1.29636  -0.53032 
 C                    -3.63565   0.57492   0.63476 
 C                    -2.39479   0.02008   0.80722 
 C                    -1.38216   0.1425   -0.15696 
 C                    -1.68744   0.8323   -1.35327 
 C                    -2.95036   1.40672  -1.5054 
 C                    -0.70601   0.85698  -2.41838 
 C                    -1.03716   1.23213  -3.72668 
 C                    -0.12943   1.13181  -4.75444 
 C                     1.12907   0.59153  -4.51345 
 C                     1.48409   0.23112  -3.23569 
 C                     0.6083    0.41354  -2.15456 
 C                     0.98208   0.02637  -0.81386 
 C                     2.34582  -0.07198  -0.39545 
 C                     3.40165   0.62148  -1.02221 
 C                     4.69668   0.48698  -0.60474 
 C                     5.02062  -0.35242   0.47945 
 N                     6.35122  -0.52756   0.86784 
 C                     6.78336  -1.76513   1.36411 
 C                     6.30737  -2.95314   0.81299 
 C                     6.74798  -4.16855   1.29803 
 C                     7.67166  -4.2197    2.3293 
 C                     8.14669  -3.04152   2.88018 
 C                     7.70314  -1.82105   2.4093 
 C                     7.2597    0.52621   0.78115 
 C                     6.89055   1.84612   1.03755 
 C                     7.79754   2.89406   0.94366 
 C                     9.11909   2.67802   0.60692 
 C                     9.52024   1.37081   0.35581 
 C                     8.59622   0.31466   0.43438 
 O                     9.17378  -0.88564   0.13886 
 C                     10.48018  -0.62251  -0.12733 
 C                     11.45156  -1.54651  -0.46868 
 C                     12.72814  -1.0662   -0.69876 
 C                     13.02554   0.29044  -0.59241 
 C                     12.05505   1.21163  -0.25098 
 C                     10.76607   0.7523   -0.01481 
 C                     3.99708  -0.97035   1.16615 
 C                     2.66158  -0.81861   0.76835 
 C                     1.60349  -1.35614   1.53956 
 C                     0.31288  -1.04503   1.25217 
 C                    -0.03276  -0.3072    0.092 
 C                    -6.42727  -0.13786  -0.25785 
 C                    -7.54987  -0.74411   0.25178 
 H                    -6.96814  -2.77785  -1.56934 
 H                    -8.66728  -2.3066   -1.6925 
 H                    -8.23409  -3.88219  -1.02093 
 H                    -7.12101  -4.01029   1.27583 
 H                    -5.85813  -2.89863   0.73285 
 H                    -6.80717  -2.523     2.17607 
 H                    -9.7493   -4.28136   1.0917 
 H                    -11.92075  -3.83176   2.16873 
 H                    -12.62482  -1.53296   2.65427 
 H                    -11.16756   0.37556   2.07195 
 H                    -9.28725   1.99442   1.27802 
 H                    -7.26332   3.08452   0.39056 
 H                    -3.48665   3.92625  -0.56462 
 H                    -3.6908    6.06403  -1.75926 
 H                    -5.62136   6.4806   -3.24249 
 H                    -7.34324   4.7326   -3.52578 
 H                    -7.13239   2.58569  -2.34668 
 H                    -4.38601   0.48146   1.40579 
 H                    -2.19775  -0.49343   1.73439 
 H                    -3.18775   1.96459  -2.39722 
 H                    -2.03286   1.57906  -3.95309 
 H                    -0.40928   1.4292   -5.75438 
 H                     1.81881   0.43881  -5.3305 
 H                     2.43401  -0.2526   -3.06942 
 H                     3.18082   1.31517  -1.81872 
 H                     5.48577   1.02819  -1.10551 
 H                     5.59728  -2.915    -0.00011 
 H                     6.37534  -5.08309   0.86006 
 H                     8.01871  -5.17206   2.70106 
 H                     8.8631   -3.07181   3.68821 
 H                     8.06508  -0.90367   2.85136 
 H                     5.86815   2.04969   1.31868 
 H                     7.45472   3.89663   1.15093 
 H                     9.8227    3.49223   0.53942 
 H                     11.21245  -2.59488  -0.54721 
 H                     13.51196  -1.75878  -0.96638 
 H                     14.03513   0.62397  -0.78072 
 H                     12.28673   2.26246  -0.16805 
 H                     4.21706  -1.56283   2.04279 
 H                     1.84574  -1.97005   2.39507 
 H                    -0.46603  -1.40704   1.90391 
 H                    -5.6276   -0.71575  -0.69797 
 
 ITRead=  0  0  0  0  0  0  0  0  0  0  0  0  0  0  0  0  0  0  0  0
 ITRead=  0  0  0  0  0  0  0  0  0  0  0  0  0  0  0  0  0  0  0  0
 ITRead=  0  0  0  0  0  0  0  0  0  0  0  0  0  0  0  0  0  0  0  0
 ITRead=  0  0  0  0  0  0  0  0  0  0  0  0  0  0  0  0  0  0  0  0
 ITRead=  0  0  0  0  0  0  0  0  0  0  0  0  0  0  0  0  0  0  0  0
 ITRead=  0  0  0  0  0  0
 MicOpt= -1 -1 -1 -1 -1 -1 -1 -1 -1 -1 -1 -1 -1 -1 -1 -1 -1 -1 -1 -1
 MicOpt= -1 -1 -1 -1 -1 -1 -1 -1 -1 -1 -1 -1 -1 -1 -1 -1 -1 -1 -1 -1
 MicOpt= -1 -1 -1 -1 -1 -1 -1 -1 -1 -1 -1 -1 -1 -1 -1 -1 -1 -1 -1 -1
 MicOpt= -1 -1 -1 -1 -1 -1 -1 -1 -1 -1 -1 -1 -1 -1 -1 -1 -1 -1 -1 -1
 MicOpt= -1 -1 -1 -1 -1 -1 -1 -1 -1 -1 -1 -1 -1 -1 -1 -1 -1 -1 -1 -1
 MicOpt= -1 -1 -1 -1 -1 -1
 NAtoms=    106 NQM=      106 NQMF=       0 NMMI=      0 NMMIF=      0
                NMic=       0 NMicF=      0.
                    Isotopes and Nuclear Properties:
 (Nuclear quadrupole moments (NQMom) in fm**2, nuclear magnetic moments (NMagM)
  in nuclear magnetons)

  Atom         1           2           3           4           5           6           7           8           9          10
 IAtWgt=          12          12          12          12          12          12          12          12          12          12
 AtmWgt=  12.0000000  12.0000000  12.0000000  12.0000000  12.0000000  12.0000000  12.0000000  12.0000000  12.0000000  12.0000000
 NucSpn=           0           0           0           0           0           0           0           0           0           0
 AtZEff=  -0.0000000  -0.0000000  -0.0000000  -0.0000000  -0.0000000  -0.0000000  -0.0000000  -0.0000000  -0.0000000  -0.0000000
 NQMom=    0.0000000   0.0000000   0.0000000   0.0000000   0.0000000   0.0000000   0.0000000   0.0000000   0.0000000   0.0000000
 NMagM=    0.0000000   0.0000000   0.0000000   0.0000000   0.0000000   0.0000000   0.0000000   0.0000000   0.0000000   0.0000000
 AtZNuc=   6.0000000   6.0000000   6.0000000   6.0000000   6.0000000   6.0000000   6.0000000   6.0000000   6.0000000   6.0000000

  Atom        11          12          13          14          15          16          17          18          19          20
 IAtWgt=          12          12          12          14          12          12          12          12          12          12
 AtmWgt=  12.0000000  12.0000000  12.0000000  14.0030740  12.0000000  12.0000000  12.0000000  12.0000000  12.0000000  12.0000000
 NucSpn=           0           0           0           2           0           0           0           0           0           0
 AtZEff=  -0.0000000  -0.0000000  -0.0000000  -0.0000000  -0.0000000  -0.0000000  -0.0000000  -0.0000000  -0.0000000  -0.0000000
 NQMom=    0.0000000   0.0000000   0.0000000   2.0440000   0.0000000   0.0000000   0.0000000   0.0000000   0.0000000   0.0000000
 NMagM=    0.0000000   0.0000000   0.0000000   0.4037610   0.0000000   0.0000000   0.0000000   0.0000000   0.0000000   0.0000000
 AtZNuc=   6.0000000   6.0000000   6.0000000   7.0000000   6.0000000   6.0000000   6.0000000   6.0000000   6.0000000   6.0000000

  Atom        21          22          23          24          25          26          27          28          29          30
 IAtWgt=          12          12          12          12          12          12          12          12          12          12
 AtmWgt=  12.0000000  12.0000000  12.0000000  12.0000000  12.0000000  12.0000000  12.0000000  12.0000000  12.0000000  12.0000000
 NucSpn=           0           0           0           0           0           0           0           0           0           0
 AtZEff=  -0.0000000  -0.0000000  -0.0000000  -0.0000000  -0.0000000  -0.0000000  -0.0000000  -0.0000000  -0.0000000  -0.0000000
 NQMom=    0.0000000   0.0000000   0.0000000   0.0000000   0.0000000   0.0000000   0.0000000   0.0000000   0.0000000   0.0000000
 NMagM=    0.0000000   0.0000000   0.0000000   0.0000000   0.0000000   0.0000000   0.0000000   0.0000000   0.0000000   0.0000000
 AtZNuc=   6.0000000   6.0000000   6.0000000   6.0000000   6.0000000   6.0000000   6.0000000   6.0000000   6.0000000   6.0000000

  Atom        31          32          33          34          35          36          37          38          39          40
 IAtWgt=          12          12          12          12          12          12          12          14          12          12
 AtmWgt=  12.0000000  12.0000000  12.0000000  12.0000000  12.0000000  12.0000000  12.0000000  14.0030740  12.0000000  12.0000000
 NucSpn=           0           0           0           0           0           0           0           2           0           0
 AtZEff=  -0.0000000  -0.0000000  -0.0000000  -0.0000000  -0.0000000  -0.0000000  -0.0000000  -0.0000000  -0.0000000  -0.0000000
 NQMom=    0.0000000   0.0000000   0.0000000   0.0000000   0.0000000   0.0000000   0.0000000   2.0440000   0.0000000   0.0000000
 NMagM=    0.0000000   0.0000000   0.0000000   0.0000000   0.0000000   0.0000000   0.0000000   0.4037610   0.0000000   0.0000000
 AtZNuc=   6.0000000   6.0000000   6.0000000   6.0000000   6.0000000   6.0000000   6.0000000   7.0000000   6.0000000   6.0000000

  Atom        41          42          43          44          45          46          47          48          49          50
 IAtWgt=          12          12          12          12          12          12          12          12          12          12
 AtmWgt=  12.0000000  12.0000000  12.0000000  12.0000000  12.0000000  12.0000000  12.0000000  12.0000000  12.0000000  12.0000000
 NucSpn=           0           0           0           0           0           0           0           0           0           0
 AtZEff=  -0.0000000  -0.0000000  -0.0000000  -0.0000000  -0.0000000  -0.0000000  -0.0000000  -0.0000000  -0.0000000  -0.0000000
 NQMom=    0.0000000   0.0000000   0.0000000   0.0000000   0.0000000   0.0000000   0.0000000   0.0000000   0.0000000   0.0000000
 NMagM=    0.0000000   0.0000000   0.0000000   0.0000000   0.0000000   0.0000000   0.0000000   0.0000000   0.0000000   0.0000000
 AtZNuc=   6.0000000   6.0000000   6.0000000   6.0000000   6.0000000   6.0000000   6.0000000   6.0000000   6.0000000   6.0000000

  Atom        51          52          53          54          55          56          57          58          59          60
 IAtWgt=          16          12          12          12          12          12          12          12          12          12
 AtmWgt=  15.9949146  12.0000000  12.0000000  12.0000000  12.0000000  12.0000000  12.0000000  12.0000000  12.0000000  12.0000000
 NucSpn=           0           0           0           0           0           0           0           0           0           0
 AtZEff=  -0.0000000  -0.0000000  -0.0000000  -0.0000000  -0.0000000  -0.0000000  -0.0000000  -0.0000000  -0.0000000  -0.0000000
 NQMom=    0.0000000   0.0000000   0.0000000   0.0000000   0.0000000   0.0000000   0.0000000   0.0000000   0.0000000   0.0000000
 NMagM=    0.0000000   0.0000000   0.0000000   0.0000000   0.0000000   0.0000000   0.0000000   0.0000000   0.0000000   0.0000000
 AtZNuc=   8.0000000   6.0000000   6.0000000   6.0000000   6.0000000   6.0000000   6.0000000   6.0000000   6.0000000   6.0000000

  Atom        61          62          63          64          65          66          67          68          69          70
 IAtWgt=          12          12          12          12           1           1           1           1           1           1
 AtmWgt=  12.0000000  12.0000000  12.0000000  12.0000000   1.0078250   1.0078250   1.0078250   1.0078250   1.0078250   1.0078250
 NucSpn=           0           0           0           0           1           1           1           1           1           1
 AtZEff=  -0.0000000  -0.0000000  -0.0000000  -0.0000000  -0.0000000  -0.0000000  -0.0000000  -0.0000000  -0.0000000  -0.0000000
 NQMom=    0.0000000   0.0000000   0.0000000   0.0000000   0.0000000   0.0000000   0.0000000   0.0000000   0.0000000   0.0000000
 NMagM=    0.0000000   0.0000000   0.0000000   0.0000000   2.7928460   2.7928460   2.7928460   2.7928460   2.7928460   2.7928460
 AtZNuc=   6.0000000   6.0000000   6.0000000   6.0000000   1.0000000   1.0000000   1.0000000   1.0000000   1.0000000   1.0000000

  Atom        71          72          73          74          75          76          77          78          79          80
 IAtWgt=           1           1           1           1           1           1           1           1           1           1
 AtmWgt=   1.0078250   1.0078250   1.0078250   1.0078250   1.0078250   1.0078250   1.0078250   1.0078250   1.0078250   1.0078250
 NucSpn=           1           1           1           1           1           1           1           1           1           1
 AtZEff=  -0.0000000  -0.0000000  -0.0000000  -0.0000000  -0.0000000  -0.0000000  -0.0000000  -0.0000000  -0.0000000  -0.0000000
 NQMom=    0.0000000   0.0000000   0.0000000   0.0000000   0.0000000   0.0000000   0.0000000   0.0000000   0.0000000   0.0000000
 NMagM=    2.7928460   2.7928460   2.7928460   2.7928460   2.7928460   2.7928460   2.7928460   2.7928460   2.7928460   2.7928460
 AtZNuc=   1.0000000   1.0000000   1.0000000   1.0000000   1.0000000   1.0000000   1.0000000   1.0000000   1.0000000   1.0000000

  Atom        81          82          83          84          85          86          87          88          89          90
 IAtWgt=           1           1           1           1           1           1           1           1           1           1
 AtmWgt=   1.0078250   1.0078250   1.0078250   1.0078250   1.0078250   1.0078250   1.0078250   1.0078250   1.0078250   1.0078250
 NucSpn=           1           1           1           1           1           1           1           1           1           1
 AtZEff=  -0.0000000  -0.0000000  -0.0000000  -0.0000000  -0.0000000  -0.0000000  -0.0000000  -0.0000000  -0.0000000  -0.0000000
 NQMom=    0.0000000   0.0000000   0.0000000   0.0000000   0.0000000   0.0000000   0.0000000   0.0000000   0.0000000   0.0000000
 NMagM=    2.7928460   2.7928460   2.7928460   2.7928460   2.7928460   2.7928460   2.7928460   2.7928460   2.7928460   2.7928460
 AtZNuc=   1.0000000   1.0000000   1.0000000   1.0000000   1.0000000   1.0000000   1.0000000   1.0000000   1.0000000   1.0000000

  Atom        91          92          93          94          95          96          97          98          99         100
 IAtWgt=           1           1           1           1           1           1           1           1           1           1
 AtmWgt=   1.0078250   1.0078250   1.0078250   1.0078250   1.0078250   1.0078250   1.0078250   1.0078250   1.0078250   1.0078250
 NucSpn=           1           1           1           1           1           1           1           1           1           1
 AtZEff=  -0.0000000  -0.0000000  -0.0000000  -0.0000000  -0.0000000  -0.0000000  -0.0000000  -0.0000000  -0.0000000  -0.0000000
 NQMom=    0.0000000   0.0000000   0.0000000   0.0000000   0.0000000   0.0000000   0.0000000   0.0000000   0.0000000   0.0000000
 NMagM=    2.7928460   2.7928460   2.7928460   2.7928460   2.7928460   2.7928460   2.7928460   2.7928460   2.7928460   2.7928460
 AtZNuc=   1.0000000   1.0000000   1.0000000   1.0000000   1.0000000   1.0000000   1.0000000   1.0000000   1.0000000   1.0000000

  Atom       101         102         103         104         105         106
 IAtWgt=           1           1           1           1           1           1
 AtmWgt=   1.0078250   1.0078250   1.0078250   1.0078250   1.0078250   1.0078250
 NucSpn=           1           1           1           1           1           1
 AtZEff=  -0.0000000  -0.0000000  -0.0000000  -0.0000000  -0.0000000  -0.0000000
 NQMom=    0.0000000   0.0000000   0.0000000   0.0000000   0.0000000   0.0000000
 NMagM=    2.7928460   2.7928460   2.7928460   2.7928460   2.7928460   2.7928460
 AtZNuc=   1.0000000   1.0000000   1.0000000   1.0000000   1.0000000   1.0000000
 Leave Link  101 at Sat Nov  5 00:05:34 2022, MaxMem=   805306368 cpu:               1.5 elap:               0.2
 (Enter /home/wykgroup/appl/g16/l103.exe)

 GradGradGradGradGradGradGradGradGradGradGradGradGradGradGradGradGradGrad
 Berny optimization.
 Initialization pass.
                           ----------------------------
                           !    Initial Parameters    !
                           ! (Angstroms and Degrees)  !
 --------------------------                            --------------------------
 ! Name  Definition              Value          Derivative Info.                !
 --------------------------------------------------------------------------------
 ! R1    R(1,2)                  1.5313         estimate D2E/DX2                !
 ! R2    R(1,65)                 1.0876         estimate D2E/DX2                !
 ! R3    R(1,66)                 1.088          estimate D2E/DX2                !
 ! R4    R(1,67)                 1.0875         estimate D2E/DX2                !
 ! R5    R(2,3)                  1.5319         estimate D2E/DX2                !
 ! R6    R(2,4)                  1.5127         estimate D2E/DX2                !
 ! R7    R(2,64)                 1.5119         estimate D2E/DX2                !
 ! R8    R(3,68)                 1.0875         estimate D2E/DX2                !
 ! R9    R(3,69)                 1.0878         estimate D2E/DX2                !
 ! R10   R(3,70)                 1.0881         estimate D2E/DX2                !
 ! R11   R(4,5)                  1.3776         estimate D2E/DX2                !
 ! R12   R(4,9)                  1.4032         estimate D2E/DX2                !
 ! R13   R(5,6)                  1.389          estimate D2E/DX2                !
 ! R14   R(5,71)                 1.0806         estimate D2E/DX2                !
 ! R15   R(6,7)                  1.386          estimate D2E/DX2                !
 ! R16   R(6,72)                 1.0803         estimate D2E/DX2                !
 ! R17   R(7,8)                  1.3854         estimate D2E/DX2                !
 ! R18   R(7,73)                 1.0805         estimate D2E/DX2                !
 ! R19   R(8,9)                  1.3852         estimate D2E/DX2                !
 ! R20   R(8,74)                 1.08           estimate D2E/DX2                !
 ! R21   R(9,10)                 1.452          estimate D2E/DX2                !
 ! R22   R(10,11)                1.3859         estimate D2E/DX2                !
 ! R23   R(10,64)                1.4031         estimate D2E/DX2                !
 ! R24   R(11,12)                1.3818         estimate D2E/DX2                !
 ! R25   R(11,75)                1.0797         estimate D2E/DX2                !
 ! R26   R(12,13)                1.3964         estimate D2E/DX2                !
 ! R27   R(12,76)                1.0803         estimate D2E/DX2                !
 ! R28   R(13,14)                1.3996         estimate D2E/DX2                !
 ! R29   R(13,63)                1.3988         estimate D2E/DX2                !
 ! R30   R(14,15)                1.3995         estimate D2E/DX2                !
 ! R31   R(14,21)                1.3964         estimate D2E/DX2                !
 ! R32   R(15,16)                1.3949         estimate D2E/DX2                !
 ! R33   R(15,20)                1.3948         estimate D2E/DX2                !
 ! R34   R(16,17)                1.3811         estimate D2E/DX2                !
 ! R35   R(16,77)                1.0802         estimate D2E/DX2                !
 ! R36   R(17,18)                1.3854         estimate D2E/DX2                !
 ! R37   R(17,78)                1.0801         estimate D2E/DX2                !
 ! R38   R(18,19)                1.3853         estimate D2E/DX2                !
 ! R39   R(18,79)                1.0794         estimate D2E/DX2                !
 ! R40   R(19,20)                1.3812         estimate D2E/DX2                !
 ! R41   R(19,80)                1.0802         estimate D2E/DX2                !
 ! R42   R(20,81)                1.0803         estimate D2E/DX2                !
 ! R43   R(21,22)                1.4011         estimate D2E/DX2                !
 ! R44   R(21,26)                1.3849         estimate D2E/DX2                !
 ! R45   R(22,23)                1.3702         estimate D2E/DX2                !
 ! R46   R(22,82)                1.0799         estimate D2E/DX2                !
 ! R47   R(23,24)                1.4036         estimate D2E/DX2                !
 ! R48   R(23,83)                1.078          estimate D2E/DX2                !
 ! R49   R(24,25)                1.4143         estimate D2E/DX2                !
 ! R50   R(24,62)                1.444          estimate D2E/DX2                !
 ! R51   R(25,26)                1.3957         estimate D2E/DX2                !
 ! R52   R(25,27)                1.4485         estimate D2E/DX2                !
 ! R53   R(26,84)                1.0784         estimate D2E/DX2                !
 ! R54   R(27,28)                1.4007         estimate D2E/DX2                !
 ! R55   R(27,32)                1.412          estimate D2E/DX2                !
 ! R56   R(28,29)                1.3749         estimate D2E/DX2                !
 ! R57   R(28,85)                1.0784         estimate D2E/DX2                !
 ! R58   R(29,30)                1.3906         estimate D2E/DX2                !
 ! R59   R(29,86)                1.0801         estimate D2E/DX2                !
 ! R60   R(30,31)                1.3743         estimate D2E/DX2                !
 ! R61   R(30,87)                1.0801         estimate D2E/DX2                !
 ! R62   R(31,32)                1.4033         estimate D2E/DX2                !
 ! R63   R(31,88)                1.0789         estimate D2E/DX2                !
 ! R64   R(32,33)                1.4447         estimate D2E/DX2                !
 ! R65   R(33,34)                1.4299         estimate D2E/DX2                !
 ! R66   R(33,62)                1.4006         estimate D2E/DX2                !
 ! R67   R(34,35)                1.4101         estimate D2E/DX2                !
 ! R68   R(34,59)                1.4183         estimate D2E/DX2                !
 ! R69   R(35,36)                1.3673         estimate D2E/DX2                !
 ! R70   R(35,89)                1.0791         estimate D2E/DX2                !
 ! R71   R(36,37)                1.4089         estimate D2E/DX2                !
 ! R72   R(36,90)                1.08           estimate D2E/DX2                !
 ! R73   R(37,38)                1.3971         estimate D2E/DX2                !
 ! R74   R(37,58)                1.3788         estimate D2E/DX2                !
 ! R75   R(38,39)                1.4016         estimate D2E/DX2                !
 ! R76   R(38,45)                1.394          estimate D2E/DX2                !
 ! R77   R(39,40)                1.3934         estimate D2E/DX2                !
 ! R78   R(39,44)                1.3934         estimate D2E/DX2                !
 ! R79   R(40,41)                1.3808         estimate D2E/DX2                !
 ! R80   R(40,91)                1.0802         estimate D2E/DX2                !
 ! R81   R(41,42)                1.3854         estimate D2E/DX2                !
 ! R82   R(41,92)                1.0803         estimate D2E/DX2                !
 ! R83   R(42,43)                1.3846         estimate D2E/DX2                !
 ! R84   R(42,93)                1.0797         estimate D2E/DX2                !
 ! R85   R(43,44)                1.3813         estimate D2E/DX2                !
 ! R86   R(43,94)                1.0803         estimate D2E/DX2                !
 ! R87   R(44,95)                1.0807         estimate D2E/DX2                !
 ! R88   R(45,46)                1.3943         estimate D2E/DX2                !
 ! R89   R(45,50)                1.3969         estimate D2E/DX2                !
 ! R90   R(46,47)                1.3891         estimate D2E/DX2                !
 ! R91   R(46,96)                1.0797         estimate D2E/DX2                !
 ! R92   R(47,48)                1.3808         estimate D2E/DX2                !
 ! R93   R(47,97)                1.0796         estimate D2E/DX2                !
 ! R94   R(48,49)                1.3903         estimate D2E/DX2                !
 ! R95   R(48,98)                1.0782         estimate D2E/DX2                !
 ! R96   R(49,50)                1.4055         estimate D2E/DX2                !
 ! R97   R(49,57)                1.4394         estimate D2E/DX2                !
 ! R98   R(50,51)                1.3644         estimate D2E/DX2                !
 ! R99   R(51,52)                1.359          estimate D2E/DX2                !
 ! R100  R(52,53)                1.3834         estimate D2E/DX2                !
 ! R101  R(52,57)                1.4087         estimate D2E/DX2                !
 ! R102  R(53,54)                1.3832         estimate D2E/DX2                !
 ! R103  R(53,99)                1.0782         estimate D2E/DX2                !
 ! R104  R(54,55)                1.3929         estimate D2E/DX2                !
 ! R105  R(54,100)               1.0797         estimate D2E/DX2                !
 ! R106  R(55,56)                1.3809         estimate D2E/DX2                !
 ! R107  R(55,101)               1.0798         estimate D2E/DX2                !
 ! R108  R(56,57)                1.3886         estimate D2E/DX2                !
 ! R109  R(56,102)               1.0793         estimate D2E/DX2                !
 ! R110  R(58,59)                1.4017         estimate D2E/DX2                !
 ! R111  R(58,103)               1.0807         estimate D2E/DX2                !
 ! R112  R(59,60)                1.4154         estimate D2E/DX2                !
 ! R113  R(60,61)                1.3583         estimate D2E/DX2                !
 ! R114  R(60,104)               1.0805         estimate D2E/DX2                !
 ! R115  R(61,62)                1.4177         estimate D2E/DX2                !
 ! R116  R(61,105)               1.0782         estimate D2E/DX2                !
 ! R117  R(63,64)                1.3739         estimate D2E/DX2                !
 ! R118  R(63,106)               1.0803         estimate D2E/DX2                !
 ! A1    A(2,1,65)             110.332          estimate D2E/DX2                !
 ! A2    A(2,1,66)             110.1918         estimate D2E/DX2                !
 ! A3    A(2,1,67)             110.3246         estimate D2E/DX2                !
 ! A4    A(65,1,66)            108.671          estimate D2E/DX2                !
 ! A5    A(65,1,67)            108.6749         estimate D2E/DX2                !
 ! A6    A(66,1,67)            108.5968         estimate D2E/DX2                !
 ! A7    A(1,2,3)              110.4845         estimate D2E/DX2                !
 ! A8    A(1,2,4)              111.2581         estimate D2E/DX2                !
 ! A9    A(1,2,64)             111.3161         estimate D2E/DX2                !
 ! A10   A(3,2,4)              111.2106         estimate D2E/DX2                !
 ! A11   A(3,2,64)             110.797          estimate D2E/DX2                !
 ! A12   A(4,2,64)             101.4923         estimate D2E/DX2                !
 ! A13   A(2,3,68)             110.3409         estimate D2E/DX2                !
 ! A14   A(2,3,69)             110.3059         estimate D2E/DX2                !
 ! A15   A(2,3,70)             110.1734         estimate D2E/DX2                !
 ! A16   A(68,3,69)            108.7276         estimate D2E/DX2                !
 ! A17   A(68,3,70)            108.5849         estimate D2E/DX2                !
 ! A18   A(69,3,70)            108.6591         estimate D2E/DX2                !
 ! A19   A(2,4,5)              128.8458         estimate D2E/DX2                !
 ! A20   A(2,4,9)              110.7559         estimate D2E/DX2                !
 ! A21   A(5,4,9)              120.3983         estimate D2E/DX2                !
 ! A22   A(4,5,6)              118.8566         estimate D2E/DX2                !
 ! A23   A(4,5,71)             121.0145         estimate D2E/DX2                !
 ! A24   A(6,5,71)             120.1289         estimate D2E/DX2                !
 ! A25   A(5,6,7)              120.7697         estimate D2E/DX2                !
 ! A26   A(5,6,72)             119.6134         estimate D2E/DX2                !
 ! A27   A(7,6,72)             119.6169         estimate D2E/DX2                !
 ! A28   A(6,7,8)              120.7641         estimate D2E/DX2                !
 ! A29   A(6,7,73)             119.5454         estimate D2E/DX2                !
 ! A30   A(8,7,73)             119.6905         estimate D2E/DX2                !
 ! A31   A(7,8,9)              118.6177         estimate D2E/DX2                !
 ! A32   A(7,8,74)             120.629          estimate D2E/DX2                !
 ! A33   A(9,8,74)             120.7533         estimate D2E/DX2                !
 ! A34   A(4,9,8)              120.5937         estimate D2E/DX2                !
 ! A35   A(4,9,10)             108.4788         estimate D2E/DX2                !
 ! A36   A(8,9,10)             130.9276         estimate D2E/DX2                !
 ! A37   A(9,10,11)            131.3481         estimate D2E/DX2                !
 ! A38   A(9,10,64)            108.5035         estimate D2E/DX2                !
 ! A39   A(11,10,64)           120.1484         estimate D2E/DX2                !
 ! A40   A(10,11,12)           119.0579         estimate D2E/DX2                !
 ! A41   A(10,11,75)           120.8232         estimate D2E/DX2                !
 ! A42   A(12,11,75)           120.1143         estimate D2E/DX2                !
 ! A43   A(11,12,13)           120.9739         estimate D2E/DX2                !
 ! A44   A(11,12,76)           120.0325         estimate D2E/DX2                !
 ! A45   A(13,12,76)           118.9928         estimate D2E/DX2                !
 ! A46   A(12,13,14)           120.2358         estimate D2E/DX2                !
 ! A47   A(12,13,63)           119.8659         estimate D2E/DX2                !
 ! A48   A(14,13,63)           119.8975         estimate D2E/DX2                !
 ! A49   A(13,14,15)           119.9336         estimate D2E/DX2                !
 ! A50   A(13,14,21)           119.789          estimate D2E/DX2                !
 ! A51   A(15,14,21)           120.2755         estimate D2E/DX2                !
 ! A52   A(14,15,16)           120.5753         estimate D2E/DX2                !
 ! A53   A(14,15,20)           120.3689         estimate D2E/DX2                !
 ! A54   A(16,15,20)           119.0558         estimate D2E/DX2                !
 ! A55   A(15,16,17)           120.2407         estimate D2E/DX2                !
 ! A56   A(15,16,77)           119.4649         estimate D2E/DX2                !
 ! A57   A(17,16,77)           120.2942         estimate D2E/DX2                !
 ! A58   A(16,17,18)           120.4688         estimate D2E/DX2                !
 ! A59   A(16,17,78)           119.4712         estimate D2E/DX2                !
 ! A60   A(18,17,78)           120.0579         estimate D2E/DX2                !
 ! A61   A(17,18,19)           119.5226         estimate D2E/DX2                !
 ! A62   A(17,18,79)           120.2352         estimate D2E/DX2                !
 ! A63   A(19,18,79)           120.2421         estimate D2E/DX2                !
 ! A64   A(18,19,20)           120.4509         estimate D2E/DX2                !
 ! A65   A(18,19,80)           120.0565         estimate D2E/DX2                !
 ! A66   A(20,19,80)           119.4905         estimate D2E/DX2                !
 ! A67   A(15,20,19)           120.2591         estimate D2E/DX2                !
 ! A68   A(15,20,81)           119.4113         estimate D2E/DX2                !
 ! A69   A(19,20,81)           120.3294         estimate D2E/DX2                !
 ! A70   A(14,21,22)           120.5208         estimate D2E/DX2                !
 ! A71   A(14,21,26)           120.8305         estimate D2E/DX2                !
 ! A72   A(22,21,26)           118.6487         estimate D2E/DX2                !
 ! A73   A(21,22,23)           120.1256         estimate D2E/DX2                !
 ! A74   A(21,22,82)           119.5681         estimate D2E/DX2                !
 ! A75   A(23,22,82)           120.2871         estimate D2E/DX2                !
 ! A76   A(22,23,24)           122.113          estimate D2E/DX2                !
 ! A77   A(22,23,83)           117.8186         estimate D2E/DX2                !
 ! A78   A(24,23,83)           120.0326         estimate D2E/DX2                !
 ! A79   A(23,24,25)           117.8971         estimate D2E/DX2                !
 ! A80   A(23,24,62)           121.9109         estimate D2E/DX2                !
 ! A81   A(25,24,62)           119.9638         estimate D2E/DX2                !
 ! A82   A(24,25,26)           119.2253         estimate D2E/DX2                !
 ! A83   A(24,25,27)           118.9496         estimate D2E/DX2                !
 ! A84   A(26,25,27)           121.7287         estimate D2E/DX2                !
 ! A85   A(21,26,25)           121.9355         estimate D2E/DX2                !
 ! A86   A(21,26,84)           117.9142         estimate D2E/DX2                !
 ! A87   A(25,26,84)           120.1476         estimate D2E/DX2                !
 ! A88   A(25,27,28)           122.0843         estimate D2E/DX2                !
 ! A89   A(25,27,32)           119.2043         estimate D2E/DX2                !
 ! A90   A(28,27,32)           118.6001         estimate D2E/DX2                !
 ! A91   A(27,28,29)           121.5044         estimate D2E/DX2                !
 ! A92   A(27,28,85)           120.034          estimate D2E/DX2                !
 ! A93   A(29,28,85)           118.4317         estimate D2E/DX2                !
 ! A94   A(28,29,30)           119.7555         estimate D2E/DX2                !
 ! A95   A(28,29,86)           120.0583         estimate D2E/DX2                !
 ! A96   A(30,29,86)           120.1254         estimate D2E/DX2                !
 ! A97   A(29,30,31)           119.7897         estimate D2E/DX2                !
 ! A98   A(29,30,87)           120.116          estimate D2E/DX2                !
 ! A99   A(31,30,87)           120.0849         estimate D2E/DX2                !
 ! A100  A(30,31,32)           121.4005         estimate D2E/DX2                !
 ! A101  A(30,31,88)           119.2309         estimate D2E/DX2                !
 ! A102  A(32,31,88)           119.279          estimate D2E/DX2                !
 ! A103  A(27,32,31)           118.5429         estimate D2E/DX2                !
 ! A104  A(27,32,33)           119.8943         estimate D2E/DX2                !
 ! A105  A(31,32,33)           121.2437         estimate D2E/DX2                !
 ! A106  A(32,33,34)           122.4631         estimate D2E/DX2                !
 ! A107  A(32,33,62)           118.4613         estimate D2E/DX2                !
 ! A108  A(34,33,62)           119.0399         estimate D2E/DX2                !
 ! A109  A(33,34,35)           123.3832         estimate D2E/DX2                !
 ! A110  A(33,34,59)           119.2523         estimate D2E/DX2                !
 ! A111  A(35,34,59)           117.1863         estimate D2E/DX2                !
 ! A112  A(34,35,36)           121.6747         estimate D2E/DX2                !
 ! A113  A(34,35,89)           119.4051         estimate D2E/DX2                !
 ! A114  A(36,35,89)           118.8453         estimate D2E/DX2                !
 ! A115  A(35,36,37)           120.7533         estimate D2E/DX2                !
 ! A116  A(35,36,90)           120.0771         estimate D2E/DX2                !
 ! A117  A(37,36,90)           119.1695         estimate D2E/DX2                !
 ! A118  A(36,37,38)           120.5027         estimate D2E/DX2                !
 ! A119  A(36,37,58)           118.6585         estimate D2E/DX2                !
 ! A120  A(38,37,58)           120.8216         estimate D2E/DX2                !
 ! A121  A(37,38,39)           120.1806         estimate D2E/DX2                !
 ! A122  A(37,38,45)           120.5712         estimate D2E/DX2                !
 ! A123  A(39,38,45)           119.2445         estimate D2E/DX2                !
 ! A124  A(38,39,40)           120.4924         estimate D2E/DX2                !
 ! A125  A(38,39,44)           120.3            estimate D2E/DX2                !
 ! A126  A(40,39,44)           119.2058         estimate D2E/DX2                !
 ! A127  A(39,40,41)           120.1668         estimate D2E/DX2                !
 ! A128  A(39,40,91)           119.4831         estimate D2E/DX2                !
 ! A129  A(41,40,91)           120.3487         estimate D2E/DX2                !
 ! A130  A(40,41,42)           120.4464         estimate D2E/DX2                !
 ! A131  A(40,41,92)           119.5167         estimate D2E/DX2                !
 ! A132  A(42,41,92)           120.0335         estimate D2E/DX2                !
 ! A133  A(41,42,43)           119.5693         estimate D2E/DX2                !
 ! A134  A(41,42,93)           120.212          estimate D2E/DX2                !
 ! A135  A(43,42,93)           120.2187         estimate D2E/DX2                !
 ! A136  A(42,43,44)           120.3993         estimate D2E/DX2                !
 ! A137  A(42,43,94)           120.0812         estimate D2E/DX2                !
 ! A138  A(44,43,94)           119.5179         estimate D2E/DX2                !
 ! A139  A(39,44,43)           120.2073         estimate D2E/DX2                !
 ! A140  A(39,44,95)           119.592          estimate D2E/DX2                !
 ! A141  A(43,44,95)           120.2005         estimate D2E/DX2                !
 ! A142  A(38,45,46)           122.1139         estimate D2E/DX2                !
 ! A143  A(38,45,50)           121.634          estimate D2E/DX2                !
 ! A144  A(46,45,50)           116.2519         estimate D2E/DX2                !
 ! A145  A(45,46,47)           121.9268         estimate D2E/DX2                !
 ! A146  A(45,46,96)           118.4929         estimate D2E/DX2                !
 ! A147  A(47,46,96)           119.5802         estimate D2E/DX2                !
 ! A148  A(46,47,48)           121.5588         estimate D2E/DX2                !
 ! A149  A(46,47,97)           118.7011         estimate D2E/DX2                !
 ! A150  A(48,47,97)           119.7369         estimate D2E/DX2                !
 ! A151  A(47,48,49)           117.8612         estimate D2E/DX2                !
 ! A152  A(47,48,98)           121.446          estimate D2E/DX2                !
 ! A153  A(49,48,98)           120.6928         estimate D2E/DX2                !
 ! A154  A(48,49,50)           120.4485         estimate D2E/DX2                !
 ! A155  A(48,49,57)           134.4481         estimate D2E/DX2                !
 ! A156  A(50,49,57)           105.1004         estimate D2E/DX2                !
 ! A157  A(45,50,49)           121.9445         estimate D2E/DX2                !
 ! A158  A(45,50,51)           126.2992         estimate D2E/DX2                !
 ! A159  A(49,50,51)           111.7561         estimate D2E/DX2                !
 ! A160  A(50,51,52)           106.2015         estimate D2E/DX2                !
 ! A161  A(51,52,53)           126.4417         estimate D2E/DX2                !
 ! A162  A(51,52,57)           111.6179         estimate D2E/DX2                !
 ! A163  A(53,52,57)           121.9403         estimate D2E/DX2                !
 ! A164  A(52,53,54)           117.203          estimate D2E/DX2                !
 ! A165  A(52,53,99)           120.7773         estimate D2E/DX2                !
 ! A166  A(54,53,99)           122.0195         estimate D2E/DX2                !
 ! A167  A(53,54,55)           121.5028         estimate D2E/DX2                !
 ! A168  A(53,54,100)          119.2426         estimate D2E/DX2                !
 ! A169  A(55,54,100)          119.2546         estimate D2E/DX2                !
 ! A170  A(54,55,56)           121.2333         estimate D2E/DX2                !
 ! A171  A(54,55,101)          119.1525         estimate D2E/DX2                !
 ! A172  A(56,55,101)          119.6142         estimate D2E/DX2                !
 ! A173  A(55,56,57)           118.2778         estimate D2E/DX2                !
 ! A174  A(55,56,102)          121.1736         estimate D2E/DX2                !
 ! A175  A(57,56,102)          120.5486         estimate D2E/DX2                !
 ! A176  A(49,57,52)           105.3231         estimate D2E/DX2                !
 ! A177  A(49,57,56)           134.8339         estimate D2E/DX2                !
 ! A178  A(52,57,56)           119.8426         estimate D2E/DX2                !
 ! A179  A(37,58,59)           121.1596         estimate D2E/DX2                !
 ! A180  A(37,58,103)          119.9076         estimate D2E/DX2                !
 ! A181  A(59,58,103)          118.9134         estimate D2E/DX2                !
 ! A182  A(34,59,58)           120.1305         estimate D2E/DX2                !
 ! A183  A(34,59,60)           118.7243         estimate D2E/DX2                !
 ! A184  A(58,59,60)           121.0984         estimate D2E/DX2                !
 ! A185  A(59,60,61)           120.5334         estimate D2E/DX2                !
 ! A186  A(59,60,104)          118.6592         estimate D2E/DX2                !
 ! A187  A(61,60,104)          120.7089         estimate D2E/DX2                !
 ! A188  A(60,61,62)           121.6007         estimate D2E/DX2                !
 ! A189  A(60,61,105)          118.7911         estimate D2E/DX2                !
 ! A190  A(62,61,105)          119.5558         estimate D2E/DX2                !
 ! A191  A(24,62,33)           119.4341         estimate D2E/DX2                !
 ! A192  A(24,62,61)           122.074          estimate D2E/DX2                !
 ! A193  A(33,62,61)           118.4612         estimate D2E/DX2                !
 ! A194  A(13,63,64)           119.0705         estimate D2E/DX2                !
 ! A195  A(13,63,106)          119.6036         estimate D2E/DX2                !
 ! A196  A(64,63,106)          121.3258         estimate D2E/DX2                !
 ! A197  A(2,64,10)            110.7692         estimate D2E/DX2                !
 ! A198  A(2,64,63)            128.3531         estimate D2E/DX2                !
 ! A199  A(10,64,63)           120.8776         estimate D2E/DX2                !
 ! D1    D(65,1,2,3)           -59.9754         estimate D2E/DX2                !
 ! D2    D(65,1,2,4)           175.9858         estimate D2E/DX2                !
 ! D3    D(65,1,2,64)           63.5723         estimate D2E/DX2                !
 ! D4    D(66,1,2,3)          -179.9777         estimate D2E/DX2                !
 ! D5    D(66,1,2,4)            55.9835         estimate D2E/DX2                !
 ! D6    D(66,1,2,64)          -56.43           estimate D2E/DX2                !
 ! D7    D(67,1,2,3)            60.1169         estimate D2E/DX2                !
 ! D8    D(67,1,2,4)           -63.9219         estimate D2E/DX2                !
 ! D9    D(67,1,2,64)         -176.3353         estimate D2E/DX2                !
 ! D10   D(1,2,3,68)           -59.7981         estimate D2E/DX2                !
 ! D11   D(1,2,3,69)            60.3536         estimate D2E/DX2                !
 ! D12   D(1,2,3,70)          -179.6872         estimate D2E/DX2                !
 ! D13   D(4,2,3,68)            64.268          estimate D2E/DX2                !
 ! D14   D(4,2,3,69)          -175.5803         estimate D2E/DX2                !
 ! D15   D(4,2,3,70)           -55.6212         estimate D2E/DX2                !
 ! D16   D(64,2,3,68)          176.3545         estimate D2E/DX2                !
 ! D17   D(64,2,3,69)          -63.4938         estimate D2E/DX2                !
 ! D18   D(64,2,3,70)           56.4653         estimate D2E/DX2                !
 ! D19   D(1,2,4,5)             61.3436         estimate D2E/DX2                !
 ! D20   D(1,2,4,9)           -118.6271         estimate D2E/DX2                !
 ! D21   D(3,2,4,5)            -62.2826         estimate D2E/DX2                !
 ! D22   D(3,2,4,9)            117.7466         estimate D2E/DX2                !
 ! D23   D(64,2,4,5)           179.8417         estimate D2E/DX2                !
 ! D24   D(64,2,4,9)            -0.129          estimate D2E/DX2                !
 ! D25   D(1,2,64,10)          118.6459         estimate D2E/DX2                !
 ! D26   D(1,2,64,63)          -61.3164         estimate D2E/DX2                !
 ! D27   D(3,2,64,10)         -117.9845         estimate D2E/DX2                !
 ! D28   D(3,2,64,63)           62.0532         estimate D2E/DX2                !
 ! D29   D(4,2,64,10)            0.1894         estimate D2E/DX2                !
 ! D30   D(4,2,64,63)         -179.7728         estimate D2E/DX2                !
 ! D31   D(2,4,5,6)            179.9974         estimate D2E/DX2                !
 ! D32   D(2,4,5,71)             0.0221         estimate D2E/DX2                !
 ! D33   D(9,4,5,6)             -0.0343         estimate D2E/DX2                !
 ! D34   D(9,4,5,71)           179.9904         estimate D2E/DX2                !
 ! D35   D(2,4,9,8)            179.9826         estimate D2E/DX2                !
 ! D36   D(2,4,9,10)             0.0285         estimate D2E/DX2                !
 ! D37   D(5,4,9,8)              0.009          estimate D2E/DX2                !
 ! D38   D(5,4,9,10)          -179.9451         estimate D2E/DX2                !
 ! D39   D(4,5,6,7)              0.0336         estimate D2E/DX2                !
 ! D40   D(4,5,6,72)          -179.9692         estimate D2E/DX2                !
 ! D41   D(71,5,6,7)          -179.9908         estimate D2E/DX2                !
 ! D42   D(71,5,6,72)            0.0064         estimate D2E/DX2                !
 ! D43   D(5,6,7,8)             -0.0072         estimate D2E/DX2                !
 ! D44   D(5,6,7,73)           179.9858         estimate D2E/DX2                !
 ! D45   D(72,6,7,8)           179.9956         estimate D2E/DX2                !
 ! D46   D(72,6,7,73)           -0.0114         estimate D2E/DX2                !
 ! D47   D(6,7,8,9)             -0.0184         estimate D2E/DX2                !
 ! D48   D(6,7,8,74)           179.9865         estimate D2E/DX2                !
 ! D49   D(73,7,8,9)           179.9886         estimate D2E/DX2                !
 ! D50   D(73,7,8,74)           -0.0065         estimate D2E/DX2                !
 ! D51   D(7,8,9,4)              0.0176         estimate D2E/DX2                !
 ! D52   D(7,8,9,10)           179.9599         estimate D2E/DX2                !
 ! D53   D(74,8,9,4)          -179.9874         estimate D2E/DX2                !
 ! D54   D(74,8,9,10)           -0.045          estimate D2E/DX2                !
 ! D55   D(4,9,10,11)         -179.8626         estimate D2E/DX2                !
 ! D56   D(4,9,10,64)            0.0961         estimate D2E/DX2                !
 ! D57   D(8,9,10,11)            0.1898         estimate D2E/DX2                !
 ! D58   D(8,9,10,64)         -179.8516         estimate D2E/DX2                !
 ! D59   D(9,10,11,12)         179.5246         estimate D2E/DX2                !
 ! D60   D(9,10,11,75)           0.2984         estimate D2E/DX2                !
 ! D61   D(64,10,11,12)         -0.4301         estimate D2E/DX2                !
 ! D62   D(64,10,11,75)       -179.6563         estimate D2E/DX2                !
 ! D63   D(9,10,64,2)           -0.184          estimate D2E/DX2                !
 ! D64   D(9,10,64,63)         179.7815         estimate D2E/DX2                !
 ! D65   D(11,10,64,2)         179.7801         estimate D2E/DX2                !
 ! D66   D(11,10,64,63)         -0.2544         estimate D2E/DX2                !
 ! D67   D(10,11,12,13)          0.6041         estimate D2E/DX2                !
 ! D68   D(10,11,12,76)       -179.0647         estimate D2E/DX2                !
 ! D69   D(75,11,12,13)        179.8359         estimate D2E/DX2                !
 ! D70   D(75,11,12,76)          0.1671         estimate D2E/DX2                !
 ! D71   D(11,12,13,14)       -179.7728         estimate D2E/DX2                !
 ! D72   D(11,12,13,63)         -0.101          estimate D2E/DX2                !
 ! D73   D(76,12,13,14)         -0.1007         estimate D2E/DX2                !
 ! D74   D(76,12,13,63)        179.5712         estimate D2E/DX2                !
 ! D75   D(12,13,14,15)        -37.8391         estimate D2E/DX2                !
 ! D76   D(12,13,14,21)        142.6704         estimate D2E/DX2                !
 ! D77   D(63,13,14,15)        142.4892         estimate D2E/DX2                !
 ! D78   D(63,13,14,21)        -37.0013         estimate D2E/DX2                !
 ! D79   D(12,13,63,64)         -0.5803         estimate D2E/DX2                !
 ! D80   D(12,13,63,106)       179.3296         estimate D2E/DX2                !
 ! D81   D(14,13,63,64)        179.0927         estimate D2E/DX2                !
 ! D82   D(14,13,63,106)        -0.9974         estimate D2E/DX2                !
 ! D83   D(13,14,15,16)        142.9793         estimate D2E/DX2                !
 ! D84   D(13,14,15,20)        -36.9477         estimate D2E/DX2                !
 ! D85   D(21,14,15,16)        -37.5328         estimate D2E/DX2                !
 ! D86   D(21,14,15,20)        142.5403         estimate D2E/DX2                !
 ! D87   D(13,14,21,22)        -35.2595         estimate D2E/DX2                !
 ! D88   D(13,14,21,26)        144.7278         estimate D2E/DX2                !
 ! D89   D(15,14,21,22)        145.2518         estimate D2E/DX2                !
 ! D90   D(15,14,21,26)        -34.7609         estimate D2E/DX2                !
 ! D91   D(14,15,16,17)        179.8186         estimate D2E/DX2                !
 ! D92   D(14,15,16,77)         -0.3805         estimate D2E/DX2                !
 ! D93   D(20,15,16,17)         -0.2536         estimate D2E/DX2                !
 ! D94   D(20,15,16,77)        179.5474         estimate D2E/DX2                !
 ! D95   D(14,15,20,19)        179.7454         estimate D2E/DX2                !
 ! D96   D(14,15,20,81)         -0.4083         estimate D2E/DX2                !
 ! D97   D(16,15,20,19)         -0.1826         estimate D2E/DX2                !
 ! D98   D(16,15,20,81)        179.6637         estimate D2E/DX2                !
 ! D99   D(15,16,17,18)          0.4394         estimate D2E/DX2                !
 ! D100  D(15,16,17,78)        179.9116         estimate D2E/DX2                !
 ! D101  D(77,16,17,18)       -179.3599         estimate D2E/DX2                !
 ! D102  D(77,16,17,78)          0.1123         estimate D2E/DX2                !
 ! D103  D(16,17,18,19)         -0.1854         estimate D2E/DX2                !
 ! D104  D(16,17,18,79)        179.7922         estimate D2E/DX2                !
 ! D105  D(78,17,18,19)       -179.6545         estimate D2E/DX2                !
 ! D106  D(78,17,18,79)          0.3231         estimate D2E/DX2                !
 ! D107  D(17,18,19,20)         -0.2537         estimate D2E/DX2                !
 ! D108  D(17,18,19,80)       -179.7152         estimate D2E/DX2                !
 ! D109  D(79,18,19,20)        179.7687         estimate D2E/DX2                !
 ! D110  D(79,18,19,80)          0.3072         estimate D2E/DX2                !
 ! D111  D(18,19,20,15)          0.4378         estimate D2E/DX2                !
 ! D112  D(18,19,20,81)       -179.4072         estimate D2E/DX2                !
 ! D113  D(80,19,20,15)        179.9023         estimate D2E/DX2                !
 ! D114  D(80,19,20,81)          0.0574         estimate D2E/DX2                !
 ! D115  D(14,21,22,23)       -178.5702         estimate D2E/DX2                !
 ! D116  D(14,21,22,82)         -0.1583         estimate D2E/DX2                !
 ! D117  D(26,21,22,23)          1.4423         estimate D2E/DX2                !
 ! D118  D(26,21,22,82)        179.8542         estimate D2E/DX2                !
 ! D119  D(14,21,26,25)        179.4264         estimate D2E/DX2                !
 ! D120  D(14,21,26,84)          0.0142         estimate D2E/DX2                !
 ! D121  D(22,21,26,25)         -0.5861         estimate D2E/DX2                !
 ! D122  D(22,21,26,84)       -179.9983         estimate D2E/DX2                !
 ! D123  D(21,22,23,24)         -0.2177         estimate D2E/DX2                !
 ! D124  D(21,22,23,83)        177.6057         estimate D2E/DX2                !
 ! D125  D(82,22,23,24)       -178.6181         estimate D2E/DX2                !
 ! D126  D(82,22,23,83)         -0.7946         estimate D2E/DX2                !
 ! D127  D(22,23,24,25)         -1.8297         estimate D2E/DX2                !
 ! D128  D(22,23,24,62)        172.6761         estimate D2E/DX2                !
 ! D129  D(83,23,24,25)       -179.6062         estimate D2E/DX2                !
 ! D130  D(83,23,24,62)         -5.1004         estimate D2E/DX2                !
 ! D131  D(23,24,25,26)          2.6284         estimate D2E/DX2                !
 ! D132  D(23,24,25,27)       -173.8653         estimate D2E/DX2                !
 ! D133  D(62,24,25,26)       -171.9885         estimate D2E/DX2                !
 ! D134  D(62,24,25,27)         11.5177         estimate D2E/DX2                !
 ! D135  D(23,24,62,33)       -169.9834         estimate D2E/DX2                !
 ! D136  D(23,24,62,61)          7.9724         estimate D2E/DX2                !
 ! D137  D(25,24,62,33)          4.4114         estimate D2E/DX2                !
 ! D138  D(25,24,62,61)       -177.6328         estimate D2E/DX2                !
 ! D139  D(24,25,26,21)         -1.4759         estimate D2E/DX2                !
 ! D140  D(24,25,26,84)        177.9234         estimate D2E/DX2                !
 ! D141  D(27,25,26,21)        174.9168         estimate D2E/DX2                !
 ! D142  D(27,25,26,84)         -5.684          estimate D2E/DX2                !
 ! D143  D(24,25,27,28)        164.5537         estimate D2E/DX2                !
 ! D144  D(24,25,27,32)        -11.5559         estimate D2E/DX2                !
 ! D145  D(26,25,27,28)        -11.8486         estimate D2E/DX2                !
 ! D146  D(26,25,27,32)        172.0418         estimate D2E/DX2                !
 ! D147  D(25,27,28,29)       -173.801          estimate D2E/DX2                !
 ! D148  D(25,27,28,85)          4.1764         estimate D2E/DX2                !
 ! D149  D(32,27,28,29)          2.3312         estimate D2E/DX2                !
 ! D150  D(32,27,28,85)       -179.6914         estimate D2E/DX2                !
 ! D151  D(25,27,32,31)        169.5217         estimate D2E/DX2                !
 ! D152  D(25,27,32,33)         -4.0735         estimate D2E/DX2                !
 ! D153  D(28,27,32,31)         -6.7242         estimate D2E/DX2                !
 ! D154  D(28,27,32,33)        179.6806         estimate D2E/DX2                !
 ! D155  D(27,28,29,30)          2.9214         estimate D2E/DX2                !
 ! D156  D(27,28,29,86)       -179.9084         estimate D2E/DX2                !
 ! D157  D(85,28,29,30)       -175.0875         estimate D2E/DX2                !
 ! D158  D(85,28,29,86)          2.0828         estimate D2E/DX2                !
 ! D159  D(28,29,30,31)         -3.6502         estimate D2E/DX2                !
 ! D160  D(28,29,30,87)        175.2352         estimate D2E/DX2                !
 ! D161  D(86,29,30,31)        179.1815         estimate D2E/DX2                !
 ! D162  D(86,29,30,87)         -1.9331         estimate D2E/DX2                !
 ! D163  D(29,30,31,32)         -0.9289         estimate D2E/DX2                !
 ! D164  D(29,30,31,88)        175.6046         estimate D2E/DX2                !
 ! D165  D(87,30,31,32)       -179.8146         estimate D2E/DX2                !
 ! D166  D(87,30,31,88)         -3.2812         estimate D2E/DX2                !
 ! D167  D(30,31,32,27)          6.1359         estimate D2E/DX2                !
 ! D168  D(30,31,32,33)        179.641          estimate D2E/DX2                !
 ! D169  D(88,31,32,27)       -170.396          estimate D2E/DX2                !
 ! D170  D(88,31,32,33)          3.1092         estimate D2E/DX2                !
 ! D171  D(27,32,33,34)       -162.2216         estimate D2E/DX2                !
 ! D172  D(27,32,33,62)         19.9722         estimate D2E/DX2                !
 ! D173  D(31,32,33,34)         24.3598         estimate D2E/DX2                !
 ! D174  D(31,32,33,62)       -153.4464         estimate D2E/DX2                !
 ! D175  D(32,33,34,35)         23.5432         estimate D2E/DX2                !
 ! D176  D(32,33,34,59)       -161.449          estimate D2E/DX2                !
 ! D177  D(62,33,34,35)       -158.6628         estimate D2E/DX2                !
 ! D178  D(62,33,34,59)         16.345          estimate D2E/DX2                !
 ! D179  D(32,33,62,24)        -20.0095         estimate D2E/DX2                !
 ! D180  D(32,33,62,61)        161.9608         estimate D2E/DX2                !
 ! D181  D(34,33,62,24)        162.1076         estimate D2E/DX2                !
 ! D182  D(34,33,62,61)        -15.9221         estimate D2E/DX2                !
 ! D183  D(33,34,35,36)       -179.0596         estimate D2E/DX2                !
 ! D184  D(33,34,35,89)          4.1253         estimate D2E/DX2                !
 ! D185  D(59,34,35,36)          5.8366         estimate D2E/DX2                !
 ! D186  D(59,34,35,89)       -170.9784         estimate D2E/DX2                !
 ! D187  D(33,34,59,58)        177.5303         estimate D2E/DX2                !
 ! D188  D(33,34,59,60)         -4.9271         estimate D2E/DX2                !
 ! D189  D(35,34,59,58)         -7.1552         estimate D2E/DX2                !
 ! D190  D(35,34,59,60)        170.3874         estimate D2E/DX2                !
 ! D191  D(34,35,36,37)         -0.284          estimate D2E/DX2                !
 ! D192  D(34,35,36,90)        179.8159         estimate D2E/DX2                !
 ! D193  D(89,35,36,37)        176.5484         estimate D2E/DX2                !
 ! D194  D(89,35,36,90)         -3.3517         estimate D2E/DX2                !
 ! D195  D(35,36,37,38)        177.4348         estimate D2E/DX2                !
 ! D196  D(35,36,37,58)         -4.0637         estimate D2E/DX2                !
 ! D197  D(90,36,37,38)         -2.6641         estimate D2E/DX2                !
 ! D198  D(90,36,37,58)        175.8374         estimate D2E/DX2                !
 ! D199  D(36,37,38,39)       -145.5544         estimate D2E/DX2                !
 ! D200  D(36,37,38,45)         35.1532         estimate D2E/DX2                !
 ! D201  D(58,37,38,39)         35.9768         estimate D2E/DX2                !
 ! D202  D(58,37,38,45)       -143.3156         estimate D2E/DX2                !
 ! D203  D(36,37,58,59)          2.6449         estimate D2E/DX2                !
 ! D204  D(36,37,58,103)      -175.7337         estimate D2E/DX2                !
 ! D205  D(38,37,58,59)       -178.8586         estimate D2E/DX2                !
 ! D206  D(38,37,58,103)         2.7628         estimate D2E/DX2                !
 ! D207  D(37,38,39,40)         38.4337         estimate D2E/DX2                !
 ! D208  D(37,38,39,44)       -142.0537         estimate D2E/DX2                !
 ! D209  D(45,38,39,40)       -142.2646         estimate D2E/DX2                !
 ! D210  D(45,38,39,44)         37.2481         estimate D2E/DX2                !
 ! D211  D(37,38,45,46)         35.9887         estimate D2E/DX2                !
 ! D212  D(37,38,45,50)       -144.182          estimate D2E/DX2                !
 ! D213  D(39,38,45,46)       -143.3102         estimate D2E/DX2                !
 ! D214  D(39,38,45,50)         36.519          estimate D2E/DX2                !
 ! D215  D(38,39,40,41)        179.3385         estimate D2E/DX2                !
 ! D216  D(38,39,40,91)         -0.2346         estimate D2E/DX2                !
 ! D217  D(44,39,40,41)         -0.1794         estimate D2E/DX2                !
 ! D218  D(44,39,40,91)       -179.7525         estimate D2E/DX2                !
 ! D219  D(38,39,44,43)       -178.7857         estimate D2E/DX2                !
 ! D220  D(38,39,44,95)          1.4023         estimate D2E/DX2                !
 ! D221  D(40,39,44,43)          0.7332         estimate D2E/DX2                !
 ! D222  D(40,39,44,95)       -179.0788         estimate D2E/DX2                !
 ! D223  D(39,40,41,42)         -0.4018         estimate D2E/DX2                !
 ! D224  D(39,40,41,92)       -179.7299         estimate D2E/DX2                !
 ! D225  D(91,40,41,42)        179.1676         estimate D2E/DX2                !
 ! D226  D(91,40,41,92)         -0.1605         estimate D2E/DX2                !
 ! D227  D(40,41,42,43)          0.4302         estimate D2E/DX2                !
 ! D228  D(40,41,42,93)       -179.5776         estimate D2E/DX2                !
 ! D229  D(92,41,42,43)        179.7548         estimate D2E/DX2                !
 ! D230  D(92,41,42,93)         -0.253          estimate D2E/DX2                !
 ! D231  D(41,42,43,44)          0.1272         estimate D2E/DX2                !
 ! D232  D(41,42,43,94)        179.672          estimate D2E/DX2                !
 ! D233  D(93,42,43,44)       -179.8651         estimate D2E/DX2                !
 ! D234  D(93,42,43,94)         -0.3203         estimate D2E/DX2                !
 ! D235  D(42,43,44,39)         -0.7111         estimate D2E/DX2                !
 ! D236  D(42,43,44,95)        179.0998         estimate D2E/DX2                !
 ! D237  D(94,43,44,39)        179.7416         estimate D2E/DX2                !
 ! D238  D(94,43,44,95)         -0.4475         estimate D2E/DX2                !
 ! D239  D(38,45,46,47)       -179.6802         estimate D2E/DX2                !
 ! D240  D(38,45,46,96)          0.4524         estimate D2E/DX2                !
 ! D241  D(50,45,46,47)          0.4819         estimate D2E/DX2                !
 ! D242  D(50,45,46,96)       -179.3855         estimate D2E/DX2                !
 ! D243  D(38,45,50,49)       -179.4641         estimate D2E/DX2                !
 ! D244  D(38,45,50,51)          0.3865         estimate D2E/DX2                !
 ! D245  D(46,45,50,49)          0.3746         estimate D2E/DX2                !
 ! D246  D(46,45,50,51)       -179.7748         estimate D2E/DX2                !
 ! D247  D(45,46,47,48)         -0.8362         estimate D2E/DX2                !
 ! D248  D(45,46,47,97)        179.8276         estimate D2E/DX2                !
 ! D249  D(96,46,47,48)        179.0298         estimate D2E/DX2                !
 ! D250  D(96,46,47,97)         -0.3064         estimate D2E/DX2                !
 ! D251  D(46,47,48,49)          0.2917         estimate D2E/DX2                !
 ! D252  D(46,47,48,98)       -179.6874         estimate D2E/DX2                !
 ! D253  D(97,47,48,49)        179.6212         estimate D2E/DX2                !
 ! D254  D(97,47,48,98)         -0.358          estimate D2E/DX2                !
 ! D255  D(47,48,49,50)          0.5538         estimate D2E/DX2                !
 ! D256  D(47,48,49,57)        179.8151         estimate D2E/DX2                !
 ! D257  D(98,48,49,50)       -179.467          estimate D2E/DX2                !
 ! D258  D(98,48,49,57)         -0.2056         estimate D2E/DX2                !
 ! D259  D(48,49,50,45)         -0.9079         estimate D2E/DX2                !
 ! D260  D(48,49,50,51)        179.2218         estimate D2E/DX2                !
 ! D261  D(57,49,50,45)        179.6383         estimate D2E/DX2                !
 ! D262  D(57,49,50,51)         -0.232          estimate D2E/DX2                !
 ! D263  D(48,49,57,52)       -179.2994         estimate D2E/DX2                !
 ! D264  D(48,49,57,56)          0.9313         estimate D2E/DX2                !
 ! D265  D(50,49,57,52)          0.041          estimate D2E/DX2                !
 ! D266  D(50,49,57,56)       -179.7282         estimate D2E/DX2                !
 ! D267  D(45,50,51,52)       -179.5322         estimate D2E/DX2                !
 ! D268  D(49,50,51,52)          0.3313         estimate D2E/DX2                !
 ! D269  D(50,51,52,53)        179.6116         estimate D2E/DX2                !
 ! D270  D(50,51,52,57)         -0.3024         estimate D2E/DX2                !
 ! D271  D(51,52,53,54)       -179.9355         estimate D2E/DX2                !
 ! D272  D(51,52,53,99)         -0.0524         estimate D2E/DX2                !
 ! D273  D(57,52,53,54)         -0.0298         estimate D2E/DX2                !
 ! D274  D(57,52,53,99)        179.8533         estimate D2E/DX2                !
 ! D275  D(51,52,57,49)          0.1622         estimate D2E/DX2                !
 ! D276  D(51,52,57,56)        179.9735         estimate D2E/DX2                !
 ! D277  D(53,52,57,49)       -179.7563         estimate D2E/DX2                !
 ! D278  D(53,52,57,56)          0.055          estimate D2E/DX2                !
 ! D279  D(52,53,54,55)         -0.0255         estimate D2E/DX2                !
 ! D280  D(52,53,54,100)       179.9421         estimate D2E/DX2                !
 ! D281  D(99,53,54,55)       -179.907          estimate D2E/DX2                !
 ! D282  D(99,53,54,100)         0.0605         estimate D2E/DX2                !
 ! D283  D(53,54,55,56)          0.0569         estimate D2E/DX2                !
 ! D284  D(53,54,55,101)      -179.977          estimate D2E/DX2                !
 ! D285  D(100,54,55,56)      -179.9106         estimate D2E/DX2                !
 ! D286  D(100,54,55,101)        0.0555         estimate D2E/DX2                !
 ! D287  D(54,55,56,57)         -0.0307         estimate D2E/DX2                !
 ! D288  D(54,55,56,102)       179.9489         estimate D2E/DX2                !
 ! D289  D(101,55,56,57)      -179.9967         estimate D2E/DX2                !
 ! D290  D(101,55,56,102)       -0.0171         estimate D2E/DX2                !
 ! D291  D(55,56,57,49)        179.7199         estimate D2E/DX2                !
 ! D292  D(55,56,57,52)         -0.0235         estimate D2E/DX2                !
 ! D293  D(102,56,57,49)        -0.2598         estimate D2E/DX2                !
 ! D294  D(102,56,57,52)       179.9968         estimate D2E/DX2                !
 ! D295  D(37,58,59,34)          3.0438         estimate D2E/DX2                !
 ! D296  D(37,58,59,60)       -174.4395         estimate D2E/DX2                !
 ! D297  D(103,58,59,34)      -178.5617         estimate D2E/DX2                !
 ! D298  D(103,58,59,60)         3.955          estimate D2E/DX2                !
 ! D299  D(34,59,60,61)         -6.8959         estimate D2E/DX2                !
 ! D300  D(34,59,60,104)       176.6866         estimate D2E/DX2                !
 ! D301  D(58,59,60,61)        170.6221         estimate D2E/DX2                !
 ! D302  D(58,59,60,104)        -5.7954         estimate D2E/DX2                !
 ! D303  D(59,60,61,62)          7.4008         estimate D2E/DX2                !
 ! D304  D(59,60,61,105)      -175.2444         estimate D2E/DX2                !
 ! D305  D(104,60,61,62)      -176.2556         estimate D2E/DX2                !
 ! D306  D(104,60,61,105)        1.0992         estimate D2E/DX2                !
 ! D307  D(60,61,62,24)       -173.7792         estimate D2E/DX2                !
 ! D308  D(60,61,62,33)          4.1957         estimate D2E/DX2                !
 ! D309  D(105,61,62,24)         8.8858         estimate D2E/DX2                !
 ! D310  D(105,61,62,33)      -173.1393         estimate D2E/DX2                !
 ! D311  D(13,63,64,2)        -179.285          estimate D2E/DX2                !
 ! D312  D(13,63,64,10)          0.7561         estimate D2E/DX2                !
 ! D313  D(106,63,64,2)          0.8067         estimate D2E/DX2                !
 ! D314  D(106,63,64,10)      -179.1521         estimate D2E/DX2                !
 --------------------------------------------------------------------------------
 Trust Radius=3.00D-01 FncErr=1.00D-07 GrdErr=1.00D-06 EigMax=2.50D+02 EigMin=1.00D-04
 Number of steps in this run=    636 maximum allowed number of steps=    636.
 GradGradGradGradGradGradGradGradGradGradGradGradGradGradGradGradGradGrad

 Leave Link  103 at Sat Nov  5 00:05:34 2022, MaxMem=   805306368 cpu:               0.2 elap:               0.0
 (Enter /home/wykgroup/appl/g16/l202.exe)
 Stoichiometry    C61H42N2O
 Framework group  C1[X(C61H42N2O)]
 Deg. of freedom   312
 Full point group                 C1      NOp   1
 Largest Abelian subgroup         C1      NOp   1
 Largest concise Abelian subgroup C1      NOp   1
                         Standard orientation:                         
 ---------------------------------------------------------------------
 Center     Atomic      Atomic             Coordinates (Angstroms)
 Number     Number       Type             X           Y           Z
 ---------------------------------------------------------------------
      1          6           0        8.158229   -2.238408    2.357023
      2          6           0        8.081240   -2.459474    0.843695
      3          6           0        7.018648   -3.510940    0.508871
      4          6           0        9.429668   -2.844149    0.276321
      5          6           0       10.206931   -3.944113    0.565671
      6          6           0       11.424731   -4.094344   -0.085207
      7          6           0       11.854916   -3.155934   -1.010100
      8          6           0       11.080033   -2.046481   -1.306815
      9          6           0        9.864676   -1.893810   -0.659905
     10          6           0        8.856616   -0.853741   -0.762312
     11          6           0        8.801315    0.294714   -1.536111
     12          6           0        7.695407    1.117378   -1.438143
     13          6           0        6.648128    0.812812   -0.566081
     14          7           0        5.532999    1.654542   -0.482692
     15          6           0        5.697859    3.042046   -0.562112
     16          6           0        4.757100    3.831660   -1.223317
     17          6           0        4.924744    5.200712   -1.294295
     18          6           0        6.031313    5.803704   -0.718839
     19          6           0        6.971276    5.023562   -0.065502
     20          6           0        6.808141    3.654634    0.018771
     21          6           0        4.260737    1.105490   -0.309724
     22          6           0        3.924601   -0.114712   -0.910766
     23          6           0        2.664702   -0.631645   -0.759805
     24          6           0        1.675377    0.021400   -0.008267
     25          6           0        2.024487    1.231006    0.636052
     26          6           0        3.306605    1.752877    0.457440
     27          6           0        1.065441    1.854043    1.525064
     28          6           0        1.433314    2.856306    2.431809
     29          6           0        0.543484    3.351120    3.355764
     30          6           0       -0.734952    2.810633    3.440990
     31          6           0       -1.125640    1.837954    2.552253
     32          6           0       -0.266360    1.385272    1.539416
     33          6           0       -0.677829    0.357110    0.611698
     34          6           0       -2.051877    0.099581    0.311377
     35          6           0       -3.074159    1.057323    0.473109
     36          6           0       -4.380588    0.767279    0.192783
     37          6           0       -4.750562   -0.508456   -0.276913
     38          7           0       -6.093169   -0.816110   -0.510937
     39          6           0       -6.571432   -2.111576   -0.270859
     40          6           0       -6.119994   -2.839577    0.828170
     41          6           0       -6.605847   -4.110024    1.065944
     42          6           0       -7.550824   -4.669692    0.221486
     43          6           0       -8.001593   -3.949910   -0.872109
     44          6           0       -7.512924   -2.682832   -1.124565
     45          6           0       -6.968193    0.153451   -0.998349
     46          6           0       -6.565301    1.119914   -1.919111
     47          6           0       -7.438872    2.088322   -2.397320
     48          6           0       -8.759326    2.131962   -1.996003
     49          6           0       -9.193925    1.174553   -1.086449
     50          6           0       -8.303280    0.206764   -0.590918
     51          8           0       -8.910135   -0.630313    0.299399
     52          6           0      -10.202665   -0.219596    0.385626
     53          6           0      -11.194019   -0.784616    1.167831
     54          6           0      -12.451041   -0.210534    1.107740
     55          6           0      -12.710231    0.890603    0.294990
     56          6           0      -11.719855    1.453230   -0.485782
     57          6           0      -10.449936    0.893207   -0.442029
[...]
 Alpha virt. eigenvalues --    0.82369   0.82686   0.82773   0.83207   0.83335
 Alpha virt. eigenvalues --    0.83582   0.83872   0.83918   0.84213   0.84305
 Alpha virt. eigenvalues --    0.84365   0.84461   0.84626   0.84716   0.84730
 Alpha virt. eigenvalues --    0.85081   0.85209   0.85348   0.85937   0.86315
 Alpha virt. eigenvalues --    0.86489   0.86823   0.87051   0.87136   0.87356
 Alpha virt. eigenvalues --    0.87584   0.88584   0.88691   0.89094   0.89181
 Alpha virt. eigenvalues --    0.89760   0.90108   0.90184   0.90432   0.90660
 Alpha virt. eigenvalues --    0.90885   0.91143   0.91316   0.91439   0.91690
 Alpha virt. eigenvalues --    0.91753   0.92144   0.92402   0.92732   0.92986
 Alpha virt. eigenvalues --    0.93081   0.93217   0.93646   0.94310   0.94523
 Alpha virt. eigenvalues --    0.95412   0.95711   0.95833   0.96090   0.96233
 Alpha virt. eigenvalues --    0.96759   0.97024   0.97338   0.97544   0.97728
 Alpha virt. eigenvalues --    0.98425   0.98670   0.98892   0.99395   0.99727
 Alpha virt. eigenvalues --    0.99960   1.00171   1.00436   1.00724   1.01053
 Alpha virt. eigenvalues --    1.01370   1.01563   1.01986   1.02672   1.02704
 Alpha virt. eigenvalues --    1.02996   1.03430   1.04372   1.04470   1.04759
 Alpha virt. eigenvalues --    1.05181   1.06060   1.06311   1.06499   1.07316
 Alpha virt. eigenvalues --    1.07685   1.08099   1.08741   1.09352   1.09865
 Alpha virt. eigenvalues --    1.10233   1.10811   1.11130   1.11528   1.11995
 Alpha virt. eigenvalues --    1.12162   1.12537   1.13321   1.13812   1.14010
 Alpha virt. eigenvalues --    1.14385   1.15210   1.15561   1.16151   1.16502
 Alpha virt. eigenvalues --    1.16764   1.16834   1.17081   1.17429   1.17650
 Alpha virt. eigenvalues --    1.17891   1.18266   1.18893   1.18960   1.19467
 Alpha virt. eigenvalues --    1.20023   1.20720   1.21558   1.22183   1.22449
 Alpha virt. eigenvalues --    1.23076   1.23214   1.23578   1.23764   1.23966
 Alpha virt. eigenvalues --    1.24370   1.24516   1.25060   1.25829   1.26105
 Alpha virt. eigenvalues --    1.26538   1.26725   1.27216   1.27940   1.28366
 Alpha virt. eigenvalues --    1.28731   1.29898   1.30095   1.30876   1.31083
 Alpha virt. eigenvalues --    1.31501   1.32383   1.33197   1.34101   1.34124
 Alpha virt. eigenvalues --    1.34402   1.34913   1.35227   1.36138   1.36679
 Alpha virt. eigenvalues --    1.37688   1.38239   1.39031   1.39780   1.40354
 Alpha virt. eigenvalues --    1.40900   1.41785   1.41873   1.42726   1.42941
 Alpha virt. eigenvalues --    1.43185   1.43450   1.43545   1.44217   1.44301
 Alpha virt. eigenvalues --    1.44457   1.44851   1.45108   1.45477   1.45733
 Alpha virt. eigenvalues --    1.45964   1.46122   1.46577   1.46835   1.47051
 Alpha virt. eigenvalues --    1.47604   1.48044   1.48241   1.48351   1.48547
 Alpha virt. eigenvalues --    1.48710   1.48957   1.49400   1.49453   1.49500
 Alpha virt. eigenvalues --    1.50009   1.50366   1.50406   1.50810   1.51072
 Alpha virt. eigenvalues --    1.51276   1.51348   1.51810   1.52155   1.52387
 Alpha virt. eigenvalues --    1.52947   1.53692   1.54559   1.55794   1.56799
 Alpha virt. eigenvalues --    1.57112   1.57599   1.58743   1.59890   1.61695
 Alpha virt. eigenvalues --    1.61748   1.62891   1.63950   1.64292   1.64820
 Alpha virt. eigenvalues --    1.65843   1.66703   1.68391   1.69082   1.70392
 Alpha virt. eigenvalues --    1.70515   1.71451   1.72069   1.72383   1.72875
 Alpha virt. eigenvalues --    1.73649   1.74265   1.74632   1.75030   1.75507
 Alpha virt. eigenvalues --    1.76131   1.76349   1.76473   1.76909   1.77157
 Alpha virt. eigenvalues --    1.78735   1.78814   1.79058   1.79110   1.79586
 Alpha virt. eigenvalues --    1.80141   1.80314   1.80585   1.81184   1.81340
 Alpha virt. eigenvalues --    1.81736   1.82094   1.82605   1.82894   1.83275
 Alpha virt. eigenvalues --    1.83453   1.83665   1.83901   1.84229   1.85467
 Alpha virt. eigenvalues --    1.85639   1.86104   1.86367   1.86593   1.87405
 Alpha virt. eigenvalues --    1.88160   1.88388   1.89252   1.89455   1.89874
 Alpha virt. eigenvalues --    1.90263   1.90551   1.90743   1.91140   1.91337
 Alpha virt. eigenvalues --    1.91633   1.92173   1.92227   1.92313   1.93078
 Alpha virt. eigenvalues --    1.93389   1.93641   1.93855   1.94604   1.94735
 Alpha virt. eigenvalues --    1.95109   1.95359   1.95703   1.95800   1.96111
 Alpha virt. eigenvalues --    1.96506   1.97104   1.97513   1.97878   1.98131
 Alpha virt. eigenvalues --    1.98563   1.99007   1.99370   1.99974   2.01376
 Alpha virt. eigenvalues --    2.01461   2.01567   2.01967   2.03181   2.03316
 Alpha virt. eigenvalues --    2.03794   2.04377   2.04574   2.05133   2.05800
 Alpha virt. eigenvalues --    2.06420   2.06794   2.06980   2.07248   2.07442
 Alpha virt. eigenvalues --    2.08062   2.08861   2.09525   2.09719   2.10095
 Alpha virt. eigenvalues --    2.11102   2.11501   2.11941   2.12174   2.13014
 Alpha virt. eigenvalues --    2.13122   2.13677   2.14421   2.14777   2.15065
 Alpha virt. eigenvalues --    2.15354   2.15533   2.15891   2.16321   2.16704
 Alpha virt. eigenvalues --    2.16973   2.17541   2.18218   2.18869   2.19265
 Alpha virt. eigenvalues --    2.19743   2.19979   2.20084   2.20430   2.20729
 Alpha virt. eigenvalues --    2.21210   2.22212   2.23027   2.23471   2.24045
 Alpha virt. eigenvalues --    2.24129   2.24238   2.24562   2.24916   2.24938
 Alpha virt. eigenvalues --    2.25012   2.25218   2.25690   2.25874   2.26237
 Alpha virt. eigenvalues --    2.26656   2.26852   2.27222   2.27776   2.28379
 Alpha virt. eigenvalues --    2.28559   2.28821   2.29866   2.30249   2.30345
 Alpha virt. eigenvalues --    2.30647   2.31035   2.31265   2.31577   2.31786
 Alpha virt. eigenvalues --    2.31944   2.32578   2.32862   2.33460   2.33609
 Alpha virt. eigenvalues --    2.34003   2.34497   2.34847   2.35434   2.35953
 Alpha virt. eigenvalues --    2.36919   2.37155   2.38117   2.38471   2.38959
 Alpha virt. eigenvalues --    2.39452   2.41591   2.42004   2.42263   2.43734
 Alpha virt. eigenvalues --    2.43851   2.44555   2.45578   2.46429   2.46853
 Alpha virt. eigenvalues --    2.48811   2.50104   2.50599   2.52013   2.52407
 Alpha virt. eigenvalues --    2.53349   2.53742   2.53848   2.54832   2.55754
 Alpha virt. eigenvalues --    2.56698   2.57263   2.57556   2.58629   2.59385
 Alpha virt. eigenvalues --    2.59596   2.60468   2.60607   2.61225   2.61567
 Alpha virt. eigenvalues --    2.61826   2.62038   2.62944   2.63260   2.63490
 Alpha virt. eigenvalues --    2.64036   2.64519   2.64913   2.65020   2.65419
 Alpha virt. eigenvalues --    2.65807   2.66000   2.66354   2.66606   2.67879
 Alpha virt. eigenvalues --    2.68100   2.68422   2.69643   2.69893   2.70127
 Alpha virt. eigenvalues --    2.70258   2.70553   2.70913   2.71646   2.73509
 Alpha virt. eigenvalues --    2.73692   2.73800   2.73973   2.74199   2.74862
 Alpha virt. eigenvalues --    2.75136   2.75321   2.75466   2.75751   2.76756
 Alpha virt. eigenvalues --    2.77029   2.77422   2.78632   2.79395   2.80031
 Alpha virt. eigenvalues --    2.80852   2.81498   2.82597   2.82923   2.83197
 Alpha virt. eigenvalues --    2.84480   2.85544   2.86489   2.87031   2.87575
 Alpha virt. eigenvalues --    2.88239   2.88552   2.88947   2.90010   2.91123
 Alpha virt. eigenvalues --    2.91819   2.92711   2.93730   2.95461   2.96130
 Alpha virt. eigenvalues --    2.96399   2.96630   2.97690   2.99038   3.00265
 Alpha virt. eigenvalues --    3.00956   3.03153   3.07162   3.08420   3.09334
 Alpha virt. eigenvalues --    3.10477   3.10623   3.11867   3.19696   3.21356
 Alpha virt. eigenvalues --    3.22769   3.25568   3.30476   3.31414   3.34069
 Alpha virt. eigenvalues --    3.34441   3.35678   3.36594   3.40453   3.42214
 Alpha virt. eigenvalues --    3.42773   3.47451   3.51495   3.54946   3.57089
 Alpha virt. eigenvalues --    4.03421   4.07296   4.08378   4.08614   4.09337
 Alpha virt. eigenvalues --    4.09378   4.09642   4.09801   4.10082   4.10399
 Alpha virt. eigenvalues --    4.11304   4.12109   4.12263   4.12792   4.12867
 Alpha virt. eigenvalues --    4.13653   4.13999   4.14369   4.15765   4.16405
 Alpha virt. eigenvalues --    4.16842   4.17526   4.17926   4.18316   4.18786
 Alpha virt. eigenvalues --    4.19347   4.19883   4.20516   4.21747   4.23893
 Alpha virt. eigenvalues --    4.26749   4.26829   4.28980   4.29290   4.30967
 Alpha virt. eigenvalues --    4.31681   4.32856   4.33503   4.34379   4.35070
 Alpha virt. eigenvalues --    4.35751   4.37079   4.37456   4.39856   4.40885
 Alpha virt. eigenvalues --    4.41683   4.43060   4.43688   4.45162   4.47211
 Alpha virt. eigenvalues --    4.48313   4.50767   4.58727   4.59644   4.62354
 Alpha virt. eigenvalues --    4.67390   4.72091   4.72494   4.78238   4.81717
 Alpha virt. eigenvalues --    4.84861   4.86186   4.92666   4.97210
          Condensed to atoms (all electrons):
 Mulliken charges:
               1
     1  C   -0.437677
     2  C   -0.062301
     3  C   -0.438023
     4  C    0.101770
     5  C   -0.203682
     6  C   -0.132660
     7  C   -0.136367
     8  C   -0.193976
     9  C    0.079743
    10  C    0.084379
    11  C   -0.204718
    12  C   -0.177263
    13  C    0.288987
    14  N   -0.665778
    15  C    0.275999
    16  C   -0.160486
    17  C   -0.140057
    18  C   -0.128359
    19  C   -0.140349
    20  C   -0.163891
    21  C    0.310693
    22  C   -0.173121
    23  C   -0.211439
    24  C    0.062127
    25  C    0.084363
    26  C   -0.277999
    27  C    0.051845
    28  C   -0.193556
    29  C   -0.135121
    30  C   -0.134530
    31  C   -0.219451
    32  C    0.076199
    33  C   -0.018420
    34  C    0.059096
    35  C   -0.219602
    36  C   -0.172759
    37  C    0.298971
    38  N   -0.662014
    39  C    0.302889
    40  C   -0.152329
    41  C   -0.141497
    42  C   -0.128031
    43  C   -0.138350
    44  C   -0.172454
    45  C    0.196634
    46  C   -0.178174
    47  C   -0.152563
    48  C   -0.191953
    49  C    0.097451
    50  C    0.293278
    51  O   -0.548250
    52  C    0.328796
    53  C   -0.201740
    54  C   -0.137273
    55  C   -0.144512
    56  C   -0.191486
    57  C    0.071063
    58  C   -0.273126
    59  C    0.150606
    60  C   -0.199953
    61  C   -0.195270
    62  C    0.072935
    63  C   -0.254756
    64  C    0.097995
    65  H    0.146293
    66  H    0.156415
    67  H    0.144397
    68  H    0.144311
    69  H    0.147964
    70  H    0.155653
    71  H    0.123455
    72  H    0.125794
    73  H    0.126595
    74  H    0.127030
    75  H    0.131584
    76  H    0.143250
    77  H    0.145175
    78  H    0.132574
    79  H    0.127931
    80  H    0.131561
    81  H    0.144100
    82  H    0.144638
    83  H    0.135077
    84  H    0.151174
    85  H    0.136979
    86  H    0.129342
    87  H    0.129456
    88  H    0.153230
    89  H    0.154473
    90  H    0.144663
    91  H    0.143334
    92  H    0.130182
    93  H    0.126004
    94  H    0.130122
    95  H    0.141162
    96  H    0.147450
    97  H    0.133344
    98  H    0.133551
    99  H    0.150630
   100  H    0.134053
   101  H    0.130608
   102  H    0.135577
   103  H    0.144297
   104  H    0.130245
   105  H    0.134274
   106  H    0.141553
 Sum of Mulliken charges =  -0.00000
 Mulliken charges with hydrogens summed into heavy atoms:
               1
     1  C    0.009428
     2  C   -0.062301
     3  C    0.009905
     4  C    0.101770
     5  C   -0.080227
     6  C   -0.006866
     7  C   -0.009771
     8  C   -0.066946
     9  C    0.079743
    10  C    0.084379
    11  C   -0.073134
    12  C   -0.034014
    13  C    0.288987
    14  N   -0.665778
    15  C    0.275999
    16  C   -0.015311
    17  C   -0.007483
    18  C   -0.000428
    19  C   -0.008787
    20  C   -0.019791
    21  C    0.310693
    22  C   -0.028483
    23  C   -0.076362
    24  C    0.062127
    25  C    0.084363
    26  C   -0.126824
    27  C    0.051845
    28  C   -0.056577
    29  C   -0.005779
    30  C   -0.005074
    31  C   -0.066222
    32  C    0.076199
    33  C   -0.018420
    34  C    0.059096
    35  C   -0.065129
    36  C   -0.028095
    37  C    0.298971
    38  N   -0.662014
    39  C    0.302889
    40  C   -0.008995
    41  C   -0.011316
    42  C   -0.002028
    43  C   -0.008228
    44  C   -0.031292
    45  C    0.196634
    46  C   -0.030724
    47  C   -0.019220
    48  C   -0.058402
    49  C    0.097451
    50  C    0.293278
    51  O   -0.548250
    52  C    0.328796
    53  C   -0.051110
    54  C   -0.003220
    55  C   -0.013904
    56  C   -0.055909
    57  C    0.071063
    58  C   -0.128829
    59  C    0.150606
    60  C   -0.069707
    61  C   -0.060996
    62  C    0.072935
    63  C   -0.113203
    64  C    0.097995
 Electronic spatial extent (au):  <R**2>=          92007.2172
 Charge=              0.0000 electrons
 Dipole moment (field-independent basis, Debye):
    X=             -0.6889    Y=              0.4531    Z=             -0.1093  Tot=              0.8318
 Quadrupole moment (field-independent basis, Debye-Ang):
   XX=           -326.2610   YY=           -340.6223   ZZ=           -352.3298
   XY=             -4.3732   XZ=              0.9060   YZ=             -3.1663
 Traceless Quadrupole moment (field-independent basis, Debye-Ang):
   XX=             13.4767   YY=             -0.8846   ZZ=            -12.5921
   XY=             -4.3732   XZ=              0.9060   YZ=             -3.1663
 Octapole moment (field-independent basis, Debye-Ang**2):
  XXX=           -294.5199  YYY=              4.0168  ZZZ=             12.6512  XYY=              4.9149
  XXY=             43.8268  XXZ=             -4.1386  XZZ=            -35.4373  YZZ=             14.8728
  YYZ=             14.8126  XYZ=             14.9660
 Hexadecapole moment (field-independent basis, Debye-Ang**3):
 XXXX=        -103200.3397 YYYY=         -12759.4539 ZZZZ=          -4069.1289 XXXY=          -1572.0744
 XXXZ=          -1152.5939 YYYX=            471.4490 YYYZ=           -169.0199 ZZZX=            -63.8647
 ZZZY=             22.0087 XXYY=         -19357.7639 XXZZ=         -18615.1738 YYZZ=          -2776.3626
 XXYZ=           -535.4087 YYXZ=            290.0736 ZZXY=              6.0130
 N-N= 7.877537366251D+03 E-N=-2.162801926278D+04  KE= 2.510170468097D+03
 Leave Link  601 at Sat Nov  5 01:14:36 2022, MaxMem=   805306368 cpu:               1.8 elap:               0.4
 (Enter /home/wykgroup/appl/g16/l9999.exe)
 1\1\GINC-NODE15\FOpt\RB3LYP\6-31G(d)\C61H42N2O1\WYKGROUP\05-Nov-2022\0
 \\#p b3lyp/6-31g(d) opt SCF=XQC\\Gaussian input prepared by ASE\\0,1\C
 ,-8.0380757063,-2.7562248916,-1.3220029187\C,-7.9547466547,-2.24163810
 66,0.132510163\C,-6.9265739859,-3.0766948194,0.9284242514\C,-9.3263321
 54,-2.2536609199,0.8082728107\C,-10.1628577162,-3.3341175796,1.0630680
 575\C,-11.3893218257,-3.1133709991,1.7020876573\C,-11.7703516285,-1.82
 15405851,2.0791457297\C,-10.935211173,-0.731120226,1.825032158\C,-9.71
 16334766,-0.9515687555,1.1885352143\C,-8.6488359729,-0.0203510431,0.79
 65678067\C,-8.5347654283,1.3649298412,0.9351101569\C,-7.3907994118,2.0
 083298513,0.468423406\C,-6.3593326126,1.2835564786,-0.1568380227\N,-5.
 2018002804,1.9565211731,-0.6356293674\C,-5.3385593211,3.183585618,-1.3
 426649502\C,-4.4580338163,4.2497695421,-1.0967350793\C,-4.5940438979,5
 .4483920311,-1.7939509463\C,-5.616094654,5.6134386844,-2.7316545938\C,
 -6.4984895933,4.5582398942,-2.9715254456\C,-6.3593807465,3.3490518662,
 -2.2923545425\C,-3.9201079862,1.3795050883,-0.4457745322\C,-3.59427842
 31,0.751545424,0.7750136974\C,-2.3377102672,0.2144528133,0.9634674596\
 C,-1.3343408877,0.2684832243,-0.0326291919\C,-1.6680220407,0.879155388
 3,-1.2720840128\C,-2.9543854005,1.4258202995,-1.4469619908\C,-0.688600
 0419,0.8499094848,-2.3580239432\C,-1.0452427001,1.1877977502,-3.682088
 7259\C,-0.1624639655,1.0410241185,-4.7372521959\C,1.1081180069,0.50015
 13075,-4.5012015068\C,1.4896828355,0.1795574431,-3.2101491308\C,0.6378
 810213,0.3962168972,-2.0990292703\C,1.0414198431,0.0495473771,-0.73439
 6421\C,2.4251178606,-0.0918589625,-0.3249058494\C,3.527659367,0.485063
 0032,-1.0153204595\C,4.828648656,0.3181216654,-0.5947152073\C,5.128383
 4724,-0.435998231,0.5686489052\N,6.4781286343,-0.6324866869,0.95930177
 46\C,6.877922158,-1.8352269847,1.6090831383\C,6.4436368485,-3.07917898
 61,1.1241317972\C,6.8405298867,-4.2544903905,1.7559586897\C,7.68841534
 17,-4.2145374258,2.8663511158\C,8.1288402775,-2.9796364513,3.342852417
 6\C,7.7214822941,-1.7958144841,2.7280830196\C,7.3871195078,0.452145448
 8,0.8819153857\C,7.0471416696,1.747835663,1.3006921738\C,7.9463489997,
 2.8185210588,1.1971458638\C,9.2327102237,2.6398136393,0.6930301898\C,9
 .6044541838,1.356032615,0.276721449\C,8.6804684708,0.2990750863,0.3666
 776809\O,9.2046554355,-0.8794666814,-0.1075955467\C,10.4883614727,-0.5
 882396878,-0.5101281049\C,11.3790520673,-1.5025178384,-1.0549024284\C,
 12.6394822466,-1.0149425377,-1.4046868966\C,12.980288287,0.3347032625,
 -1.2117946916\C,12.0691252088,1.235386935,-0.6629811045\C,10.799289936
 8,0.7684310951,-0.3043324954\C,4.0728630953,-0.9404356103,1.3112883087
 \C,2.7315686895,-0.7610208016,0.9031278144\C,1.6597637018,-1.179315313
 3,1.7424417386\C,0.3709704733,-0.849267485,1.4385735789\C,0.0284854427
 ,-0.1890602615,0.2175361506\C,-6.4822320832,-0.1114554101,-0.302929676
 \C,-7.6142367116,-0.751594653,0.1801130062\H,-7.0621153914,-2.68361494
 97,-1.8158634507\H,-8.7607948108,-2.1758886173,-1.9044572329\H,-8.3476
 197166,-3.8075919317,-1.3428750415\H,-7.2141079303,-4.1344388324,0.940
 7006432\H,-5.9320189718,-3.0033032465,0.4733857396\H,-6.8554696402,-2.
 7304427897,1.9645275193\H,-9.875541665,-4.3424021169,0.7732635201\H,-1
 2.0495875424,-3.9520529235,1.9063132266\H,-12.7251380718,-1.6643941604
 ,2.5741200611\H,-11.2374597973,0.2708432516,2.1195422194\H,-9.31929604
 97,1.9446513169,1.4149575429\H,-7.2849550128,3.0820913831,0.5848763069
 \H,-3.6703772608,4.131301423,-0.3594705555\H,-3.9036856979,6.262917655
 ,-1.590769667\H,-5.7232613963,6.5520616985,-3.2678092227\H,-7.29479929
 52,4.6687456183,-3.7030418107\H,-7.0399693053,2.5274164531,-2.49155826
 18\H,-4.32871378,0.7140405406,1.5726622474\H,-2.1170361609,-0.21858891
 16,1.9319605572\H,-3.2148889613,1.9114870751,-2.37866436\H,-2.04930955
 24,1.5357873865,-3.8954237761\H,-0.4724882526,1.3027122633,-5.74519291
 75\H,1.7870537479,0.3091278292,-5.3278532854\H,2.448060009,-0.29889430
 08,-3.0564854543\H,3.3490757565,1.1123655879,-1.87929094\H,5.637460682
 5,0.7784640912,-1.1525828555\H,5.8000729087,-3.1161928278,0.2511761515
 \H,6.4963125126,-5.2094058691,1.3672148734\H,8.001971971,-5.134638966,
 3.3512807012\H,8.7850137497,-2.9307328764,4.2079784307\H,8.0547077872,
 -0.8374057616,3.1138134397\H,6.0554959965,1.9129405906,1.7098073637\H,
 7.6306348888,3.802517174,1.5317999399\H,9.9249118965,3.4734212099,0.62
 14435048\H,11.1008000547,-2.541418554,-1.1965152039\H,13.3702702256,-1
 .6943882191,-1.8341057854\H,13.9703827622,0.6797097476,-1.4957231051\H
 ,12.3402790022,2.2773573367,-0.5172289803\H,4.2681640766,-1.4657979486
 ,2.2411673971\H,1.8887875249,-1.7165819069,2.659396112\H,-0.4133098041
 ,-1.1323810896,2.1306192277\H,-5.6886635391,-0.6666850915,-0.794571337
 3\\Version=ES64L-G16RevB.01\State=1-A\HF=-2534.592612\RMSD=3.066e-09\R
 MSF=1.450e-06\Dipole=0.2771095,0.1647128,-0.0562949\Quadrupole=10.2339
 406,-1.2791357,-8.9548049,2.8152571,-0.9392106,-2.9521116\PG=C01 [X(C6
 1H42N2O1)]\\@


 Discoveries are often made by not following instructions,
 by going off the main road, by trying the untried.
 -- Frank Tyger
 Job cpu time:       0 days  8 hours  1 minutes 49.2 seconds.
 Elapsed time:       0 days  1 hours  8 minutes 59.5 seconds.
 File lengths (MBytes):  RWF=    674 Int=      0 D2E=      0 Chk=     86 Scr=      1
 Normal termination of Gaussian 16 at Sat Nov  5 01:14:36 2022.
