 Entering Gaussian System, Link 0=/home/wykgroup/appl/g16/g16
 Input=calculation/no_transfer_pubchem_sampling_8_b3lyp/129123935_rwf.com
 Output=calculation/no_transfer_pubchem_sampling_8_b3lyp/129123935_rwf.log
 Initial command:
 /home/wykgroup/appl/g16/l1.exe "/userdata/scratch/wykgroup/khs/calculation/no_transfer_pubchem_sampling_8_b3lyp/129123935_rwf/Gau-21495.inp" -scrdir="/userdata/scratch/wykgroup/khs/calculation/no_transfer_pubchem_sampling_8_b3lyp/129123935_rwf/"
 Entering Link 1 = /home/wykgroup/appl/g16/l1.exe PID=     21496.
  
 Copyright (c) 1988-2017, Gaussian, Inc.  All Rights Reserved.
  
 This is part of the Gaussian(R) 16 program.  It is based on
 the Gaussian(R) 09 system (copyright 2009, Gaussian, Inc.),
 the Gaussian(R) 03 system (copyright 2003, Gaussian, Inc.),
 the Gaussian(R) 98 system (copyright 1998, Gaussian, Inc.),
 the Gaussian(R) 94 system (copyright 1995, Gaussian, Inc.),
 the Gaussian 92(TM) system (copyright 1992, Gaussian, Inc.),
 the Gaussian 90(TM) system (copyright 1990, Gaussian, Inc.),
 the Gaussian 88(TM) system (copyright 1988, Gaussian, Inc.),
 the Gaussian 86(TM) system (copyright 1986, Carnegie Mellon
 University), and the Gaussian 82(TM) system (copyright 1983,
 Carnegie Mellon University). Gaussian is a federally registered
 trademark of Gaussian, Inc.
  
 This software contains proprietary and confidential information,
 including trade secrets, belonging to Gaussian, Inc.
  
 This software is provided under written license and may be
 used, copied, transmitted, or stored only in accord with that
 written license.
  
 The following legend is applicable only to US Government
 contracts under FAR:
  
                    RESTRICTED RIGHTS LEGEND
  
 Use, reproduction and disclosure by the US Government is
 subject to restrictions as set forth in subparagraphs (a)
 and (c) of the Commercial Computer Software - Restricted
 Rights clause in FAR 52.227-19.
  
 Gaussian, Inc.
 340 Quinnipiac St., Bldg. 40, Wallingford CT 06492
  
  
 ---------------------------------------------------------------
 Warning -- This program may not be used in any manner that
 competes with the business of Gaussian, Inc. or will provide
 assistance to any competitor of Gaussian, Inc.  The licensee
 of this program is prohibited from giving any competitor of
 Gaussian, Inc. access to this program.  By using this program,
 the user acknowledges that Gaussian, Inc. is engaged in the
 business of creating and licensing software in the field of
 computational chemistry and represents and warrants to the
 licensee that it is not a competitor of Gaussian, Inc. and that
 it will not use this program in any manner prohibited above.
 ---------------------------------------------------------------
  

 Cite this work as:
 Gaussian 16, Revision B.01,
 M. J. Frisch, G. W. Trucks, H. B. Schlegel, G. E. Scuseria, 
 M. A. Robb, J. R. Cheeseman, G. Scalmani, V. Barone, 
 G. A. Petersson, H. Nakatsuji, X. Li, M. Caricato, A. V. Marenich, 
 J. Bloino, B. G. Janesko, R. Gomperts, B. Mennucci, H. P. Hratchian, 
 J. V. Ortiz, A. F. Izmaylov, J. L. Sonnenberg, D. Williams-Young, 
 F. Ding, F. Lipparini, F. Egidi, J. Goings, B. Peng, A. Petrone, 
 T. Henderson, D. Ranasinghe, V. G. Zakrzewski, J. Gao, N. Rega, 
 G. Zheng, W. Liang, M. Hada, M. Ehara, K. Toyota, R. Fukuda, 
 J. Hasegawa, M. Ishida, T. Nakajima, Y. Honda, O. Kitao, H. Nakai, 
 T. Vreven, K. Throssell, J. A. Montgomery, Jr., J. E. Peralta, 
 F. Ogliaro, M. J. Bearpark, J. J. Heyd, E. N. Brothers, K. N. Kudin, 
 V. N. Staroverov, T. A. Keith, R. Kobayashi, J. Normand, 
 K. Raghavachari, A. P. Rendell, J. C. Burant, S. S. Iyengar, 
 J. Tomasi, M. Cossi, J. M. Millam, M. Klene, C. Adamo, R. Cammi, 
 J. W. Ochterski, R. L. Martin, K. Morokuma, O. Farkas, 
 J. B. Foresman, and D. J. Fox, Gaussian, Inc., Wallingford CT, 2016.
 
 ******************************************
 Gaussian 16:  ES64L-G16RevB.01 20-Dec-2017
                 5-Nov-2022 
 ******************************************
 %chk=calculation/no_transfer_pubchem_sampling_8_b3lyp/129123935_rwf.chk
 %rwf=calculation/no_transfer_pubchem_sampling_8_b3lyp/129123935_rwf.rwf
 %nprocshared=14
 Will use up to   14 processors via shared memory.
 %mem=3GB
 -------------------------------------------------------------------
 #p b3lyp/6-31g(d) 6D 10F nosymm GFInput td=(50-50,nstate=2) SCF=XQC
 -------------------------------------------------------------------
 1/38=1,172=1/1;
 2/12=2,15=1,17=6,18=5,40=1/2;
 3/5=1,6=6,7=1,8=22,11=9,24=10,25=1,30=1,74=-5/1,2,3,8;
 4//1;
 5/5=2,8=3,13=1,38=5/2,8;
 8/6=1,10=2,108=2/1;
 9/41=2,42=1,48=2,70=2/14;
 6/7=2,8=2,9=2,10=2/1;
 99/5=1,9=1/99;
 Leave Link    1 at Sat Nov  5 10:02:42 2022, MaxMem=   402653184 cpu:               2.9 elap:               0.5
 (Enter /home/wykgroup/appl/g16/l101.exe)
 ------------------------------
 Gaussian input prepared by ASE
 ------------------------------
 Symbolic Z-matrix:
 Charge =  0 Multiplicity = 1
 C                     2.23365   0.41795   3.89813 
 C                     0.92741   0.71642   3.51702 
 C                     0.50305   0.50451   2.19358 
 C                    -0.89445   0.78808   1.78106 
 C                    -1.60099   1.90961   2.32277 
 C                    -2.88803   2.18254   1.95205 
 C                    -3.58851   1.36327   1.00863 
 C                    -4.91651   1.63854   0.62035 
 C                    -5.64672   2.80441   1.21824 
 C                    -6.37305   2.63139   2.38259 
 C                    -7.0763    3.70306   2.98158 
 C                    -7.04993   4.95312   2.40967 
 C                    -6.31925   5.18523   1.21414 
 C                    -6.27748   6.46878   0.60524 
 C                    -5.56587   6.68077  -0.55306 
 C                    -4.86072   5.6119   -1.15653 
 C                    -4.87993   4.35567  -0.5931 
 C                    -5.60492   4.10015   0.6037 
 C                    -5.56278   0.80373  -0.31888 
 C                    -6.90818   1.04962  -0.74467 
 C                    -7.52825   0.23701  -1.65603 
 C                    -6.84131  -0.88126  -2.20462 
 C                    -5.55373  -1.15445  -1.82721 
 C                    -4.86354  -0.33323  -0.87718 
 C                    -3.53511  -0.60957  -0.48508 
 C                    -2.80332  -1.77821  -1.07575 
 C                    -2.02056  -1.59696  -2.2016 
 C                    -1.31003  -2.67033  -2.78895 
 C                    -1.38707  -3.93064  -2.24423 
 C                    -2.1762   -4.17124  -1.088 
 C                    -2.27003  -5.46506  -0.50773 
 C                    -3.03622  -5.68493   0.61363 
 C                    -3.74576  -4.61368   1.20734 
 C                    -3.67744  -3.3476    0.67047 
 C                    -2.8967   -3.08415  -0.48883 
 C                    -2.88803   0.22875   0.45085 
 C                    -1.54495  -0.01868   0.87337 
 C                     1.43315   0.00576   1.27089 
 C                     2.75484  -0.28035   1.63552 
 C                     3.66812  -0.86854   0.60818 
 N                     3.13593  -1.81981  -0.11726 
 C                     3.89683  -2.48253  -1.04943 
 C                     3.25125  -3.49484  -1.7962 
 C                     3.95289  -4.23963  -2.72272 
 C                     5.32473  -3.99263  -2.92279 
 C                     5.97694  -3.00228  -2.20931 
 C                     5.27964  -2.2153   -1.26121 
 C                     5.85788  -1.1248   -0.50347 
 C                     5.03739  -0.41118   0.42673 
 C                     5.53931   0.73458   1.10451 
 C                     6.83606   1.17277   0.94033 
 C                     7.68127   0.45844   0.07245 
 C                     9.06007   0.60431  -0.34645 
 C                     10.10963   1.48287  -0.04918 
 C                     11.33634   1.28967  -0.68014 
 C                     11.52534   0.23928  -1.59563 
 C                     10.49368  -0.64766  -1.90656 
 C                     9.28067  -0.4351   -1.26642 
 O                     8.14827  -1.19624  -1.4385 
 C                     7.18076  -0.64959  -0.62046 
 C                     3.14736  -0.07783   2.96785 
 H                     2.53918   0.5566    4.93186 
 H                     0.22113   1.08191   4.25715 
 H                    -1.09206   2.5692    3.01992 
 H                    -3.39734   3.04437   2.36913 
 H                    -6.40247   1.64858   2.84527 
 H                    -7.63649   3.5292    3.89634 
 H                    -7.58785   5.78195   2.86402 
 H                    -6.82197   7.28462   1.07527 
 H                    -5.54284   7.66758  -1.00759 
 H                    -4.3005    5.78588  -2.07128 
 H                    -4.3373    3.54033  -1.06037 
 H                    -7.43554   1.90071  -0.32808 
 H                    -8.54946   0.44563  -1.96358 
 H                    -7.3427   -1.51984  -2.92698 
 H                    -5.03253  -2.00638  -2.24965 
 H                    -1.95087  -0.60631  -2.64272 
 H                    -0.70463  -2.48965  -3.67291 
 H                    -0.84732  -4.76198  -2.69195 
 H                    -1.71989  -6.28224  -0.96871 
 H                    -3.09773  -6.67946   1.04723 
 H                    -4.34765  -4.79342   2.09411 
 H                    -4.22323  -2.53041   1.13078 
 H                    -1.03632  -0.88941   0.47586 
 H                     1.13668  -0.15829   0.24071 
 H                     2.19476  -3.65719  -1.6058 
 H                     3.45225  -5.01784  -3.29258 
 H                     5.88038  -4.58307  -3.64641 
 H                     7.02944  -2.82446  -2.38228 
 H                     4.87144   1.28842   1.75194 
 H                     7.19329   2.05534   1.46262 
 H                     9.97197   2.29645   0.65743 
 H                     12.16248   1.96044  -0.46275 
 H                     12.4935   0.11392  -2.07185 
 H                     10.62503  -1.46229  -2.61088 
 H                     4.15457  -0.33276   3.28304 
 
 ITRead=  0  0  0  0  0  0  0  0  0  0  0  0  0  0  0  0  0  0  0  0
 ITRead=  0  0  0  0  0  0  0  0  0  0  0  0  0  0  0  0  0  0  0  0
 ITRead=  0  0  0  0  0  0  0  0  0  0  0  0  0  0  0  0  0  0  0  0
 ITRead=  0  0  0  0  0  0  0  0  0  0  0  0  0  0  0  0  0  0  0  0
 ITRead=  0  0  0  0  0  0  0  0  0  0  0  0  0  0  0  0
 MicOpt= -1 -1 -1 -1 -1 -1 -1 -1 -1 -1 -1 -1 -1 -1 -1 -1 -1 -1 -1 -1
 MicOpt= -1 -1 -1 -1 -1 -1 -1 -1 -1 -1 -1 -1 -1 -1 -1 -1 -1 -1 -1 -1
 MicOpt= -1 -1 -1 -1 -1 -1 -1 -1 -1 -1 -1 -1 -1 -1 -1 -1 -1 -1 -1 -1
 MicOpt= -1 -1 -1 -1 -1 -1 -1 -1 -1 -1 -1 -1 -1 -1 -1 -1 -1 -1 -1 -1
 MicOpt= -1 -1 -1 -1 -1 -1 -1 -1 -1 -1 -1 -1 -1 -1 -1 -1
 NAtoms=     96 NQM=       96 NQMF=       0 NMMI=      0 NMMIF=      0
                NMic=       0 NMicF=      0.
                    Isotopes and Nuclear Properties:
 (Nuclear quadrupole moments (NQMom) in fm**2, nuclear magnetic moments (NMagM)
  in nuclear magnetons)

  Atom         1           2           3           4           5           6           7           8           9          10
 IAtWgt=          12          12          12          12          12          12          12          12          12          12
 AtmWgt=  12.0000000  12.0000000  12.0000000  12.0000000  12.0000000  12.0000000  12.0000000  12.0000000  12.0000000  12.0000000
 NucSpn=           0           0           0           0           0           0           0           0           0           0
 AtZEff=  -0.0000000  -0.0000000  -0.0000000  -0.0000000  -0.0000000  -0.0000000  -0.0000000  -0.0000000  -0.0000000  -0.0000000
 NQMom=    0.0000000   0.0000000   0.0000000   0.0000000   0.0000000   0.0000000   0.0000000   0.0000000   0.0000000   0.0000000
 NMagM=    0.0000000   0.0000000   0.0000000   0.0000000   0.0000000   0.0000000   0.0000000   0.0000000   0.0000000   0.0000000
 AtZNuc=   6.0000000   6.0000000   6.0000000   6.0000000   6.0000000   6.0000000   6.0000000   6.0000000   6.0000000   6.0000000

  Atom        11          12          13          14          15          16          17          18          19          20
 IAtWgt=          12          12          12          12          12          12          12          12          12          12
 AtmWgt=  12.0000000  12.0000000  12.0000000  12.0000000  12.0000000  12.0000000  12.0000000  12.0000000  12.0000000  12.0000000
 NucSpn=           0           0           0           0           0           0           0           0           0           0
 AtZEff=  -0.0000000  -0.0000000  -0.0000000  -0.0000000  -0.0000000  -0.0000000  -0.0000000  -0.0000000  -0.0000000  -0.0000000
 NQMom=    0.0000000   0.0000000   0.0000000   0.0000000   0.0000000   0.0000000   0.0000000   0.0000000   0.0000000   0.0000000
 NMagM=    0.0000000   0.0000000   0.0000000   0.0000000   0.0000000   0.0000000   0.0000000   0.0000000   0.0000000   0.0000000
 AtZNuc=   6.0000000   6.0000000   6.0000000   6.0000000   6.0000000   6.0000000   6.0000000   6.0000000   6.0000000   6.0000000

  Atom        21          22          23          24          25          26          27          28          29          30
 IAtWgt=          12          12          12          12          12          12          12          12          12          12
 AtmWgt=  12.0000000  12.0000000  12.0000000  12.0000000  12.0000000  12.0000000  12.0000000  12.0000000  12.0000000  12.0000000
 NucSpn=           0           0           0           0           0           0           0           0           0           0
 AtZEff=  -0.0000000  -0.0000000  -0.0000000  -0.0000000  -0.0000000  -0.0000000  -0.0000000  -0.0000000  -0.0000000  -0.0000000
 NQMom=    0.0000000   0.0000000   0.0000000   0.0000000   0.0000000   0.0000000   0.0000000   0.0000000   0.0000000   0.0000000
 NMagM=    0.0000000   0.0000000   0.0000000   0.0000000   0.0000000   0.0000000   0.0000000   0.0000000   0.0000000   0.0000000
 AtZNuc=   6.0000000   6.0000000   6.0000000   6.0000000   6.0000000   6.0000000   6.0000000   6.0000000   6.0000000   6.0000000

  Atom        31          32          33          34          35          36          37          38          39          40
 IAtWgt=          12          12          12          12          12          12          12          12          12          12
 AtmWgt=  12.0000000  12.0000000  12.0000000  12.0000000  12.0000000  12.0000000  12.0000000  12.0000000  12.0000000  12.0000000
 NucSpn=           0           0           0           0           0           0           0           0           0           0
 AtZEff=  -0.0000000  -0.0000000  -0.0000000  -0.0000000  -0.0000000  -0.0000000  -0.0000000  -0.0000000  -0.0000000  -0.0000000
 NQMom=    0.0000000   0.0000000   0.0000000   0.0000000   0.0000000   0.0000000   0.0000000   0.0000000   0.0000000   0.0000000
 NMagM=    0.0000000   0.0000000   0.0000000   0.0000000   0.0000000   0.0000000   0.0000000   0.0000000   0.0000000   0.0000000
 AtZNuc=   6.0000000   6.0000000   6.0000000   6.0000000   6.0000000   6.0000000   6.0000000   6.0000000   6.0000000   6.0000000

  Atom        41          42          43          44          45          46          47          48          49          50
 IAtWgt=          14          12          12          12          12          12          12          12          12          12
 AtmWgt=  14.0030740  12.0000000  12.0000000  12.0000000  12.0000000  12.0000000  12.0000000  12.0000000  12.0000000  12.0000000
 NucSpn=           2           0           0           0           0           0           0           0           0           0
 AtZEff=  -0.0000000  -0.0000000  -0.0000000  -0.0000000  -0.0000000  -0.0000000  -0.0000000  -0.0000000  -0.0000000  -0.0000000
 NQMom=    2.0440000   0.0000000   0.0000000   0.0000000   0.0000000   0.0000000   0.0000000   0.0000000   0.0000000   0.0000000
 NMagM=    0.4037610   0.0000000   0.0000000   0.0000000   0.0000000   0.0000000   0.0000000   0.0000000   0.0000000   0.0000000
 AtZNuc=   7.0000000   6.0000000   6.0000000   6.0000000   6.0000000   6.0000000   6.0000000   6.0000000   6.0000000   6.0000000

  Atom        51          52          53          54          55          56          57          58          59          60
 IAtWgt=          12          12          12          12          12          12          12          12          16          12
 AtmWgt=  12.0000000  12.0000000  12.0000000  12.0000000  12.0000000  12.0000000  12.0000000  12.0000000  15.9949146  12.0000000
 NucSpn=           0           0           0           0           0           0           0           0           0           0
 AtZEff=  -0.0000000  -0.0000000  -0.0000000  -0.0000000  -0.0000000  -0.0000000  -0.0000000  -0.0000000  -0.0000000  -0.0000000
 NQMom=    0.0000000   0.0000000   0.0000000   0.0000000   0.0000000   0.0000000   0.0000000   0.0000000   0.0000000   0.0000000
 NMagM=    0.0000000   0.0000000   0.0000000   0.0000000   0.0000000   0.0000000   0.0000000   0.0000000   0.0000000   0.0000000
 AtZNuc=   6.0000000   6.0000000   6.0000000   6.0000000   6.0000000   6.0000000   6.0000000   6.0000000   8.0000000   6.0000000

  Atom        61          62          63          64          65          66          67          68          69          70
 IAtWgt=          12           1           1           1           1           1           1           1           1           1
 AtmWgt=  12.0000000   1.0078250   1.0078250   1.0078250   1.0078250   1.0078250   1.0078250   1.0078250   1.0078250   1.0078250
 NucSpn=           0           1           1           1           1           1           1           1           1           1
 AtZEff=  -0.0000000  -0.0000000  -0.0000000  -0.0000000  -0.0000000  -0.0000000  -0.0000000  -0.0000000  -0.0000000  -0.0000000
 NQMom=    0.0000000   0.0000000   0.0000000   0.0000000   0.0000000   0.0000000   0.0000000   0.0000000   0.0000000   0.0000000
 NMagM=    0.0000000   2.7928460   2.7928460   2.7928460   2.7928460   2.7928460   2.7928460   2.7928460   2.7928460   2.7928460
 AtZNuc=   6.0000000   1.0000000   1.0000000   1.0000000   1.0000000   1.0000000   1.0000000   1.0000000   1.0000000   1.0000000

  Atom        71          72          73          74          75          76          77          78          79          80
 IAtWgt=           1           1           1           1           1           1           1           1           1           1
 AtmWgt=   1.0078250   1.0078250   1.0078250   1.0078250   1.0078250   1.0078250   1.0078250   1.0078250   1.0078250   1.0078250
 NucSpn=           1           1           1           1           1           1           1           1           1           1
 AtZEff=  -0.0000000  -0.0000000  -0.0000000  -0.0000000  -0.0000000  -0.0000000  -0.0000000  -0.0000000  -0.0000000  -0.0000000
 NQMom=    0.0000000   0.0000000   0.0000000   0.0000000   0.0000000   0.0000000   0.0000000   0.0000000   0.0000000   0.0000000
 NMagM=    2.7928460   2.7928460   2.7928460   2.7928460   2.7928460   2.7928460   2.7928460   2.7928460   2.7928460   2.7928460
 AtZNuc=   1.0000000   1.0000000   1.0000000   1.0000000   1.0000000   1.0000000   1.0000000   1.0000000   1.0000000   1.0000000

  Atom        81          82          83          84          85          86          87          88          89          90
 IAtWgt=           1           1           1           1           1           1           1           1           1           1
 AtmWgt=   1.0078250   1.0078250   1.0078250   1.0078250   1.0078250   1.0078250   1.0078250   1.0078250   1.0078250   1.0078250
 NucSpn=           1           1           1           1           1           1           1           1           1           1
 AtZEff=  -0.0000000  -0.0000000  -0.0000000  -0.0000000  -0.0000000  -0.0000000  -0.0000000  -0.0000000  -0.0000000  -0.0000000
 NQMom=    0.0000000   0.0000000   0.0000000   0.0000000   0.0000000   0.0000000   0.0000000   0.0000000   0.0000000   0.0000000
 NMagM=    2.7928460   2.7928460   2.7928460   2.7928460   2.7928460   2.7928460   2.7928460   2.7928460   2.7928460   2.7928460
 AtZNuc=   1.0000000   1.0000000   1.0000000   1.0000000   1.0000000   1.0000000   1.0000000   1.0000000   1.0000000   1.0000000

  Atom        91          92          93          94          95          96
 IAtWgt=           1           1           1           1           1           1
 AtmWgt=   1.0078250   1.0078250   1.0078250   1.0078250   1.0078250   1.0078250
 NucSpn=           1           1           1           1           1           1
 AtZEff=  -0.0000000  -0.0000000  -0.0000000  -0.0000000  -0.0000000  -0.0000000
 NQMom=    0.0000000   0.0000000   0.0000000   0.0000000   0.0000000   0.0000000
 NMagM=    2.7928460   2.7928460   2.7928460   2.7928460   2.7928460   2.7928460
 AtZNuc=   1.0000000   1.0000000   1.0000000   1.0000000   1.0000000   1.0000000
 Leave Link  101 at Sat Nov  5 10:02:43 2022, MaxMem=   402653184 cpu:               1.9 elap:               0.3
 (Enter /home/wykgroup/appl/g16/l202.exe)
 Symmetry turned off by external request.
 Stoichiometry    C59H35NO
 Framework group  C1[X(C59H35NO)]
 Deg. of freedom   282
 Full point group                 C1      NOp   1
                          Input orientation:                          
 ---------------------------------------------------------------------
 Center     Atomic      Atomic             Coordinates (Angstroms)
 Number     Number       Type             X           Y           Z
 ---------------------------------------------------------------------
      1          6           0        2.233650    0.417950    3.898132
      2          6           0        0.927415    0.716422    3.517019
      3          6           0        0.503051    0.504510    2.193583
      4          6           0       -0.894451    0.788076    1.781059
      5          6           0       -1.600994    1.909611    2.322767
      6          6           0       -2.888028    2.182540    1.952048
      7          6           0       -3.588511    1.363266    1.008634
      8          6           0       -4.916508    1.638537    0.620345
      9          6           0       -5.646720    2.804414    1.218241
     10          6           0       -6.373054    2.631391    2.382590
     11          6           0       -7.076302    3.703061    2.981583
     12          6           0       -7.049934    4.953116    2.409674
     13          6           0       -6.319249    5.185233    1.214143
     14          6           0       -6.277477    6.468780    0.605236
     15          6           0       -5.565874    6.680771   -0.553061
     16          6           0       -4.860724    5.611901   -1.156530
     17          6           0       -4.879933    4.355674   -0.593101
     18          6           0       -5.604917    4.100147    0.603703
     19          6           0       -5.562779    0.803727   -0.318883
     20          6           0       -6.908183    1.049622   -0.744669
     21          6           0       -7.528254    0.237005   -1.656032
     22          6           0       -6.841309   -0.881263   -2.204622
     23          6           0       -5.553730   -1.154448   -1.827210
     24          6           0       -4.863538   -0.333232   -0.877184
     25          6           0       -3.535106   -0.609572   -0.485084
     26          6           0       -2.803320   -1.778206   -1.075748
     27          6           0       -2.020562   -1.596961   -2.201605
     28          6           0       -1.310029   -2.670331   -2.788945
     29          6           0       -1.387067   -3.930642   -2.244228
     30          6           0       -2.176202   -4.171243   -1.088002
     31          6           0       -2.270030   -5.465059   -0.507728
     32          6           0       -3.036222   -5.684932    0.613629
     33          6           0       -3.745764   -4.613677    1.207344
     34          6           0       -3.677445   -3.347603    0.670471
     35          6           0       -2.896695   -3.084154   -0.488833
     36          6           0       -2.888032    0.228755    0.450850
     37          6           0       -1.544950   -0.018680    0.873373
     38          6           0        1.433148    0.005758    1.270889
     39          6           0        2.754839   -0.280352    1.635516
     40          6           0        3.668119   -0.868536    0.608181
     41          7           0        3.135930   -1.819809   -0.117257
     42          6           0        3.896835   -2.482531   -1.049427
     43          6           0        3.251252   -3.494841   -1.796198
     44          6           0        3.952887   -4.239627   -2.722722
     45          6           0        5.324729   -3.992630   -2.922792
     46          6           0        5.976942   -3.002284   -2.209313
     47          6           0        5.279639   -2.215305   -1.261206
     48          6           0        5.857876   -1.124796   -0.503467
     49          6           0        5.037394   -0.411181    0.426725
     50          6           0        5.539315    0.734579    1.104510
     51          6           0        6.836062    1.172768    0.940333
     52          6           0        7.681272    0.458437    0.072454
     53          6           0        9.060075    0.604315   -0.346455
     54          6           0       10.109627    1.482871   -0.049184
     55          6           0       11.336338    1.289673   -0.680139
     56          6           0       11.525341    0.239277   -1.595627
     57          6           0       10.493683   -0.647665   -1.906558
     58          6           0        9.280669   -0.435101   -1.266422
     59          8           0        8.148266   -1.196235   -1.438500
     60          6           0        7.180760   -0.649594   -0.620455
     61          6           0        3.147357   -0.077825    2.967851
     62          1           0        2.539183    0.556598    4.931858
     63          1           0        0.221130    1.081912    4.257146
     64          1           0       -1.092062    2.569195    3.019924
     65          1           0       -3.397336    3.044368    2.369128
     66          1           0       -6.402467    1.648582    2.845272
     67          1           0       -7.636489    3.529196    3.896335
     68          1           0       -7.587849    5.781947    2.864016
     69          1           0       -6.821972    7.284619    1.075273
     70          1           0       -5.542845    7.667584   -1.007591
     71          1           0       -4.300495    5.785881   -2.071280
     72          1           0       -4.337299    3.540334   -1.060374
     73          1           0       -7.435537    1.900713   -0.328076
     74          1           0       -8.549460    0.445629   -1.963585
     75          1           0       -7.342698   -1.519839   -2.926982
     76          1           0       -5.032525   -2.006384   -2.249651
     77          1           0       -1.950875   -0.606308   -2.642724
     78          1           0       -0.704630   -2.489646   -3.672909
     79          1           0       -0.847316   -4.761984   -2.691945
     80          1           0       -1.719894   -6.282243   -0.968706
     81          1           0       -3.097733   -6.679464    1.047230
     82          1           0       -4.347646   -4.793416    2.094109
     83          1           0       -4.223228   -2.530411    1.130776
     84          1           0       -1.036319   -0.889415    0.475857
     85          1           0        1.136680   -0.158289    0.240711
     86          1           0        2.194758   -3.657192   -1.605795
     87          1           0        3.452246   -5.017835   -3.292583
     88          1           0        5.880381   -4.583071   -3.646406
     89          1           0        7.029436   -2.824455   -2.382277
     90          1           0        4.871440    1.288415    1.751944
     91          1           0        7.193291    2.055344    1.462622
     92          1           0        9.971971    2.296448    0.657435
     93          1           0       12.162484    1.960439   -0.462754
     94          1           0       12.493500    0.113919   -2.071854
     95          1           0       10.625033   -1.462285   -2.610879
     96          1           0        4.154568   -0.332761    3.283036
 ---------------------------------------------------------------------
 Rotational constants (GHZ):           0.0663661           0.0190306           0.0163704
 Leave Link  202 at Sat Nov  5 10:02:43 2022, MaxMem=   402653184 cpu:               0.9 elap:               0.2
 (Enter /home/wykgroup/appl/g16/l301.exe)
 Standard basis: 6-31G(d) (6D, 10F)
 Ernie: Thresh=  0.10000D-02 Tol=  0.10000D-05 Strict=F.
 AO basis set in the form of general basis input (Overlap normalization):
      1 0
 S   6 1.00       0.000000000000
      0.3047524880D+04  0.1834737132D-02
      0.4573695180D+03  0.1403732281D-01
      0.1039486850D+03  0.6884262226D-01
      0.2921015530D+02  0.2321844432D+00
      0.9286662960D+01  0.4679413484D+00
      0.3163926960D+01  0.3623119853D+00
 SP   3 1.00       0.000000000000
      0.7868272350D+01 -0.1193324198D+00  0.6899906659D-01
      0.1881288540D+01 -0.1608541517D+00  0.3164239610D+00
      0.5442492580D+00  0.1143456438D+01  0.7443082909D+00
 SP   1 1.00       0.000000000000
      0.1687144782D+00  0.1000000000D+01  0.1000000000D+01
 D   1 1.00       0.000000000000
      0.8000000000D+00  0.1000000000D+01
 ****
      2 0
 S   6 1.00       0.000000000000
      0.3047524880D+04  0.1834737132D-02
      0.4573695180D+03  0.1403732281D-01
      0.1039486850D+03  0.6884262226D-01
      0.2921015530D+02  0.2321844432D+00
      0.9286662960D+01  0.4679413484D+00
      0.3163926960D+01  0.3623119853D+00
 SP   3 1.00       0.000000000000
      0.7868272350D+01 -0.1193324198D+00  0.6899906659D-01
      0.1881288540D+01 -0.1608541517D+00  0.3164239610D+00
      0.5442492580D+00  0.1143456438D+01  0.7443082909D+00
 SP   1 1.00       0.000000000000
      0.1687144782D+00  0.1000000000D+01  0.1000000000D+01
 D   1 1.00       0.000000000000
      0.8000000000D+00  0.1000000000D+01
 ****
      3 0
 S   6 1.00       0.000000000000
      0.3047524880D+04  0.1834737132D-02
      0.4573695180D+03  0.1403732281D-01
      0.1039486850D+03  0.6884262226D-01
      0.2921015530D+02  0.2321844432D+00
      0.9286662960D+01  0.4679413484D+00
      0.3163926960D+01  0.3623119853D+00
 SP   3 1.00       0.000000000000
      0.7868272350D+01 -0.1193324198D+00  0.6899906659D-01
      0.1881288540D+01 -0.1608541517D+00  0.3164239610D+00
      0.5442492580D+00  0.1143456438D+01  0.7443082909D+00
 SP   1 1.00       0.000000000000
      0.1687144782D+00  0.1000000000D+01  0.1000000000D+01
 D   1 1.00       0.000000000000
      0.8000000000D+00  0.1000000000D+01
 ****
      4 0
 S   6 1.00       0.000000000000
      0.3047524880D+04  0.1834737132D-02
      0.4573695180D+03  0.1403732281D-01
      0.1039486850D+03  0.6884262226D-01
      0.2921015530D+02  0.2321844432D+00
      0.9286662960D+01  0.4679413484D+00
      0.3163926960D+01  0.3623119853D+00
 SP   3 1.00       0.000000000000
      0.7868272350D+01 -0.1193324198D+00  0.6899906659D-01
      0.1881288540D+01 -0.1608541517D+00  0.3164239610D+00
      0.5442492580D+00  0.1143456438D+01  0.7443082909D+00
 SP   1 1.00       0.000000000000
      0.1687144782D+00  0.1000000000D+01  0.1000000000D+01
 D   1 1.00       0.000000000000
      0.8000000000D+00  0.1000000000D+01
 ****
      5 0
 S   6 1.00       0.000000000000
      0.3047524880D+04  0.1834737132D-02
      0.4573695180D+03  0.1403732281D-01
      0.1039486850D+03  0.6884262226D-01
      0.2921015530D+02  0.2321844432D+00
      0.9286662960D+01  0.4679413484D+00
      0.3163926960D+01  0.3623119853D+00
 SP   3 1.00       0.000000000000
      0.7868272350D+01 -0.1193324198D+00  0.6899906659D-01
      0.1881288540D+01 -0.1608541517D+00  0.3164239610D+00
      0.5442492580D+00  0.1143456438D+01  0.7443082909D+00
 SP   1 1.00       0.000000000000
      0.1687144782D+00  0.1000000000D+01  0.1000000000D+01
 D   1 1.00       0.000000000000
      0.8000000000D+00  0.1000000000D+01
 ****
      6 0
 S   6 1.00       0.000000000000
      0.3047524880D+04  0.1834737132D-02
      0.4573695180D+03  0.1403732281D-01
      0.1039486850D+03  0.6884262226D-01
      0.2921015530D+02  0.2321844432D+00
      0.9286662960D+01  0.4679413484D+00
      0.3163926960D+01  0.3623119853D+00
 SP   3 1.00       0.000000000000
      0.7868272350D+01 -0.1193324198D+00  0.6899906659D-01
      0.1881288540D+01 -0.1608541517D+00  0.3164239610D+00
      0.5442492580D+00  0.1143456438D+01  0.7443082909D+00
 SP   1 1.00       0.000000000000
      0.1687144782D+00  0.1000000000D+01  0.1000000000D+01
 D   1 1.00       0.000000000000
      0.8000000000D+00  0.1000000000D+01
 ****
      7 0
 S   6 1.00       0.000000000000
      0.3047524880D+04  0.1834737132D-02
      0.4573695180D+03  0.1403732281D-01
      0.1039486850D+03  0.6884262226D-01
      0.2921015530D+02  0.2321844432D+00
      0.9286662960D+01  0.4679413484D+00
      0.3163926960D+01  0.3623119853D+00
 SP   3 1.00       0.000000000000
      0.7868272350D+01 -0.1193324198D+00  0.6899906659D-01
      0.1881288540D+01 -0.1608541517D+00  0.3164239610D+00
      0.5442492580D+00  0.1143456438D+01  0.7443082909D+00
 SP   1 1.00       0.000000000000
      0.1687144782D+00  0.1000000000D+01  0.1000000000D+01
 D   1 1.00       0.000000000000
      0.8000000000D+00  0.1000000000D+01
 ****
      8 0
 S   6 1.00       0.000000000000
      0.3047524880D+04  0.1834737132D-02
      0.4573695180D+03  0.1403732281D-01
      0.1039486850D+03  0.6884262226D-01
      0.2921015530D+02  0.2321844432D+00
      0.9286662960D+01  0.4679413484D+00
      0.3163926960D+01  0.3623119853D+00
 SP   3 1.00       0.000000000000
      0.7868272350D+01 -0.1193324198D+00  0.6899906659D-01
      0.1881288540D+01 -0.1608541517D+00  0.3164239610D+00
      0.5442492580D+00  0.1143456438D+01  0.7443082909D+00
 SP   1 1.00       0.000000000000
      0.1687144782D+00  0.1000000000D+01  0.1000000000D+01
 D   1 1.00       0.000000000000
      0.8000000000D+00  0.1000000000D+01
 ****
      9 0
 S   6 1.00       0.000000000000
      0.3047524880D+04  0.1834737132D-02
      0.4573695180D+03  0.1403732281D-01
      0.1039486850D+03  0.6884262226D-01
      0.2921015530D+02  0.2321844432D+00
      0.9286662960D+01  0.4679413484D+00
      0.3163926960D+01  0.3623119853D+00
 SP   3 1.00       0.000000000000
      0.7868272350D+01 -0.1193324198D+00  0.6899906659D-01
      0.1881288540D+01 -0.1608541517D+00  0.3164239610D+00
      0.5442492580D+00  0.1143456438D+01  0.7443082909D+00
 SP   1 1.00       0.000000000000
      0.1687144782D+00  0.1000000000D+01  0.1000000000D+01
 D   1 1.00       0.000000000000
      0.8000000000D+00  0.1000000000D+01
 ****
     10 0
 S   6 1.00       0.000000000000
      0.3047524880D+04  0.1834737132D-02
      0.4573695180D+03  0.1403732281D-01
      0.1039486850D+03  0.6884262226D-01
      0.2921015530D+02  0.2321844432D+00
      0.9286662960D+01  0.4679413484D+00
      0.3163926960D+01  0.3623119853D+00
 SP   3 1.00       0.000000000000
      0.7868272350D+01 -0.1193324198D+00  0.6899906659D-01
      0.1881288540D+01 -0.1608541517D+00  0.3164239610D+00
      0.5442492580D+00  0.1143456438D+01  0.7443082909D+00
 SP   1 1.00       0.000000000000
      0.1687144782D+00  0.1000000000D+01  0.1000000000D+01
 D   1 1.00       0.000000000000
      0.8000000000D+00  0.1000000000D+01
 ****
     11 0
 S   6 1.00       0.000000000000
      0.3047524880D+04  0.1834737132D-02
      0.4573695180D+03  0.1403732281D-01
      0.1039486850D+03  0.6884262226D-01
      0.2921015530D+02  0.2321844432D+00
      0.9286662960D+01  0.4679413484D+00
      0.3163926960D+01  0.3623119853D+00
 SP   3 1.00       0.000000000000
      0.7868272350D+01 -0.1193324198D+00  0.6899906659D-01
      0.1881288540D+01 -0.1608541517D+00  0.3164239610D+00
      0.5442492580D+00  0.1143456438D+01  0.7443082909D+00
 SP   1 1.00       0.000000000000
      0.1687144782D+00  0.1000000000D+01  0.1000000000D+01
 D   1 1.00       0.000000000000
      0.8000000000D+00  0.1000000000D+01
 ****
     12 0
 S   6 1.00       0.000000000000
      0.3047524880D+04  0.1834737132D-02
      0.4573695180D+03  0.1403732281D-01
      0.1039486850D+03  0.6884262226D-01
      0.2921015530D+02  0.2321844432D+00
      0.9286662960D+01  0.4679413484D+00
      0.3163926960D+01  0.3623119853D+00
 SP   3 1.00       0.000000000000
      0.7868272350D+01 -0.1193324198D+00  0.6899906659D-01
      0.1881288540D+01 -0.1608541517D+00  0.3164239610D+00
      0.5442492580D+00  0.1143456438D+01  0.7443082909D+00
 SP   1 1.00       0.000000000000
      0.1687144782D+00  0.1000000000D+01  0.1000000000D+01
 D   1 1.00       0.000000000000
      0.8000000000D+00  0.1000000000D+01
 ****
     13 0
 S   6 1.00       0.000000000000
      0.3047524880D+04  0.1834737132D-02
      0.4573695180D+03  0.1403732281D-01
      0.1039486850D+03  0.6884262226D-01
      0.2921015530D+02  0.2321844432D+00
      0.9286662960D+01  0.4679413484D+00
      0.3163926960D+01  0.3623119853D+00
 SP   3 1.00       0.000000000000
      0.7868272350D+01 -0.1193324198D+00  0.6899906659D-01
      0.1881288540D+01 -0.1608541517D+00  0.3164239610D+00
      0.5442492580D+00  0.1143456438D+01  0.7443082909D+00
 SP   1 1.00       0.000000000000
      0.1687144782D+00  0.1000000000D+01  0.1000000000D+01
 D   1 1.00       0.000000000000
      0.8000000000D+00  0.1000000000D+01
 ****
     14 0
 S   6 1.00       0.000000000000
      0.3047524880D+04  0.1834737132D-02
      0.4573695180D+03  0.1403732281D-01
      0.1039486850D+03  0.6884262226D-01
      0.2921015530D+02  0.2321844432D+00
      0.9286662960D+01  0.4679413484D+00
      0.3163926960D+01  0.3623119853D+00
 SP   3 1.00       0.000000000000
      0.7868272350D+01 -0.1193324198D+00  0.6899906659D-01
      0.1881288540D+01 -0.1608541517D+00  0.3164239610D+00
      0.5442492580D+00  0.1143456438D+01  0.7443082909D+00
 SP   1 1.00       0.000000000000
      0.1687144782D+00  0.1000000000D+01  0.1000000000D+01
 D   1 1.00       0.000000000000
      0.8000000000D+00  0.1000000000D+01
 ****
     15 0
 S   6 1.00       0.000000000000
      0.3047524880D+04  0.1834737132D-02
      0.4573695180D+03  0.1403732281D-01
      0.1039486850D+03  0.6884262226D-01
      0.2921015530D+02  0.2321844432D+00
      0.9286662960D+01  0.4679413484D+00
      0.3163926960D+01  0.3623119853D+00
 SP   3 1.00       0.000000000000
      0.7868272350D+01 -0.1193324198D+00  0.6899906659D-01
      0.1881288540D+01 -0.1608541517D+00  0.3164239610D+00
      0.5442492580D+00  0.1143456438D+01  0.7443082909D+00
 SP   1 1.00       0.000000000000
      0.1687144782D+00  0.1000000000D+01  0.1000000000D+01
 D   1 1.00       0.000000000000
      0.8000000000D+00  0.1000000000D+01
 ****
     16 0
 S   6 1.00       0.000000000000
      0.3047524880D+04  0.1834737132D-02
      0.4573695180D+03  0.1403732281D-01
      0.1039486850D+03  0.6884262226D-01
      0.2921015530D+02  0.2321844432D+00
      0.9286662960D+01  0.4679413484D+00
      0.3163926960D+01  0.3623119853D+00
 SP   3 1.00       0.000000000000
      0.7868272350D+01 -0.1193324198D+00  0.6899906659D-01
      0.1881288540D+01 -0.1608541517D+00  0.3164239610D+00
      0.5442492580D+00  0.1143456438D+01  0.7443082909D+00
 SP   1 1.00       0.000000000000
      0.1687144782D+00  0.1000000000D+01  0.1000000000D+01
 D   1 1.00       0.000000000000
      0.8000000000D+00  0.1000000000D+01
 ****
     17 0
 S   6 1.00       0.000000000000
      0.3047524880D+04  0.1834737132D-02
      0.4573695180D+03  0.1403732281D-01
      0.1039486850D+03  0.6884262226D-01
      0.2921015530D+02  0.2321844432D+00
      0.9286662960D+01  0.4679413484D+00
      0.3163926960D+01  0.3623119853D+00
 SP   3 1.00       0.000000000000
      0.7868272350D+01 -0.1193324198D+00  0.6899906659D-01
      0.1881288540D+01 -0.1608541517D+00  0.3164239610D+00
      0.5442492580D+00  0.1143456438D+01  0.7443082909D+00
 SP   1 1.00       0.000000000000
      0.1687144782D+00  0.1000000000D+01  0.1000000000D+01
 D   1 1.00       0.000000000000
      0.8000000000D+00  0.1000000000D+01
 ****
     18 0
 S   6 1.00       0.000000000000
      0.3047524880D+04  0.1834737132D-02
      0.4573695180D+03  0.1403732281D-01
      0.1039486850D+03  0.6884262226D-01
      0.2921015530D+02  0.2321844432D+00
      0.9286662960D+01  0.4679413484D+00
      0.3163926960D+01  0.3623119853D+00
 SP   3 1.00       0.000000000000
      0.7868272350D+01 -0.1193324198D+00  0.6899906659D-01
      0.1881288540D+01 -0.1608541517D+00  0.3164239610D+00
      0.5442492580D+00  0.1143456438D+01  0.7443082909D+00
 SP   1 1.00       0.000000000000
      0.1687144782D+00  0.1000000000D+01  0.1000000000D+01
 D   1 1.00       0.000000000000
      0.8000000000D+00  0.1000000000D+01
 ****
     19 0
 S   6 1.00       0.000000000000
      0.3047524880D+04  0.1834737132D-02
      0.4573695180D+03  0.1403732281D-01
      0.1039486850D+03  0.6884262226D-01
      0.2921015530D+02  0.2321844432D+00
      0.9286662960D+01  0.4679413484D+00
      0.3163926960D+01  0.3623119853D+00
 SP   3 1.00       0.000000000000
      0.7868272350D+01 -0.1193324198D+00  0.6899906659D-01
      0.1881288540D+01 -0.1608541517D+00  0.3164239610D+00
      0.5442492580D+00  0.1143456438D+01  0.7443082909D+00
 SP   1 1.00       0.000000000000
      0.1687144782D+00  0.1000000000D+01  0.1000000000D+01
 D   1 1.00       0.000000000000
      0.8000000000D+00  0.1000000000D+01
 ****
     20 0
 S   6 1.00       0.000000000000
      0.3047524880D+04  0.1834737132D-02
      0.4573695180D+03  0.1403732281D-01
      0.1039486850D+03  0.6884262226D-01
      0.2921015530D+02  0.2321844432D+00
      0.9286662960D+01  0.4679413484D+00
      0.3163926960D+01  0.3623119853D+00
 SP   3 1.00       0.000000000000
      0.7868272350D+01 -0.1193324198D+00  0.6899906659D-01
      0.1881288540D+01 -0.1608541517D+00  0.3164239610D+00
      0.5442492580D+00  0.1143456438D+01  0.7443082909D+00
 SP   1 1.00       0.000000000000
      0.1687144782D+00  0.1000000000D+01  0.1000000000D+01
 D   1 1.00       0.000000000000
      0.8000000000D+00  0.1000000000D+01
 ****
     21 0
 S   6 1.00       0.000000000000
      0.3047524880D+04  0.1834737132D-02
      0.4573695180D+03  0.1403732281D-01
      0.1039486850D+03  0.6884262226D-01
      0.2921015530D+02  0.2321844432D+00
      0.9286662960D+01  0.4679413484D+00
      0.3163926960D+01  0.3623119853D+00
 SP   3 1.00       0.000000000000
      0.7868272350D+01 -0.1193324198D+00  0.6899906659D-01
      0.1881288540D+01 -0.1608541517D+00  0.3164239610D+00
      0.5442492580D+00  0.1143456438D+01  0.7443082909D+00
 SP   1 1.00       0.000000000000
      0.1687144782D+00  0.1000000000D+01  0.1000000000D+01
 D   1 1.00       0.000000000000
      0.8000000000D+00  0.1000000000D+01
 ****
     22 0
 S   6 1.00       0.000000000000
      0.3047524880D+04  0.1834737132D-02
      0.4573695180D+03  0.1403732281D-01
      0.1039486850D+03  0.6884262226D-01
      0.2921015530D+02  0.2321844432D+00
      0.9286662960D+01  0.4679413484D+00
      0.3163926960D+01  0.3623119853D+00
 SP   3 1.00       0.000000000000
      0.7868272350D+01 -0.1193324198D+00  0.6899906659D-01
      0.1881288540D+01 -0.1608541517D+00  0.3164239610D+00
      0.5442492580D+00  0.1143456438D+01  0.7443082909D+00
 SP   1 1.00       0.000000000000
      0.1687144782D+00  0.1000000000D+01  0.1000000000D+01
 D   1 1.00       0.000000000000
      0.8000000000D+00  0.1000000000D+01
 ****
     23 0
 S   6 1.00       0.000000000000
      0.3047524880D+04  0.1834737132D-02
      0.4573695180D+03  0.1403732281D-01
      0.1039486850D+03  0.6884262226D-01
      0.2921015530D+02  0.2321844432D+00
      0.9286662960D+01  0.4679413484D+00
      0.3163926960D+01  0.3623119853D+00
 SP   3 1.00       0.000000000000
      0.7868272350D+01 -0.1193324198D+00  0.6899906659D-01
      0.1881288540D+01 -0.1608541517D+00  0.3164239610D+00
      0.5442492580D+00  0.1143456438D+01  0.7443082909D+00
 SP   1 1.00       0.000000000000
      0.1687144782D+00  0.1000000000D+01  0.1000000000D+01
 D   1 1.00       0.000000000000
      0.8000000000D+00  0.1000000000D+01
 ****
     24 0
 S   6 1.00       0.000000000000
      0.3047524880D+04  0.1834737132D-02
      0.4573695180D+03  0.1403732281D-01
      0.1039486850D+03  0.6884262226D-01
      0.2921015530D+02  0.2321844432D+00
      0.9286662960D+01  0.4679413484D+00
      0.3163926960D+01  0.3623119853D+00
 SP   3 1.00       0.000000000000
      0.7868272350D+01 -0.1193324198D+00  0.6899906659D-01
      0.1881288540D+01 -0.1608541517D+00  0.3164239610D+00
      0.5442492580D+00  0.1143456438D+01  0.7443082909D+00
 SP   1 1.00       0.000000000000
      0.1687144782D+00  0.1000000000D+01  0.1000000000D+01
 D   1 1.00       0.000000000000
      0.8000000000D+00  0.1000000000D+01
 ****
     25 0
 S   6 1.00       0.000000000000
      0.3047524880D+04  0.1834737132D-02
      0.4573695180D+03  0.1403732281D-01
      0.1039486850D+03  0.6884262226D-01
      0.2921015530D+02  0.2321844432D+00
      0.9286662960D+01  0.4679413484D+00
      0.3163926960D+01  0.3623119853D+00
 SP   3 1.00       0.000000000000
      0.7868272350D+01 -0.1193324198D+00  0.6899906659D-01
      0.1881288540D+01 -0.1608541517D+00  0.3164239610D+00
      0.5442492580D+00  0.1143456438D+01  0.7443082909D+00
 SP   1 1.00       0.000000000000
      0.1687144782D+00  0.1000000000D+01  0.1000000000D+01
 D   1 1.00       0.000000000000
      0.8000000000D+00  0.1000000000D+01
 ****
     26 0
 S   6 1.00       0.000000000000
      0.3047524880D+04  0.1834737132D-02
      0.4573695180D+03  0.1403732281D-01
      0.1039486850D+03  0.6884262226D-01
      0.2921015530D+02  0.2321844432D+00
      0.9286662960D+01  0.4679413484D+00
      0.3163926960D+01  0.3623119853D+00
 SP   3 1.00       0.000000000000
      0.7868272350D+01 -0.1193324198D+00  0.6899906659D-01
      0.1881288540D+01 -0.1608541517D+00  0.3164239610D+00
      0.5442492580D+00  0.1143456438D+01  0.7443082909D+00
 SP   1 1.00       0.000000000000
      0.1687144782D+00  0.1000000000D+01  0.1000000000D+01
 D   1 1.00       0.000000000000
      0.8000000000D+00  0.1000000000D+01
 ****
     27 0
 S   6 1.00       0.000000000000
      0.3047524880D+04  0.1834737132D-02
      0.4573695180D+03  0.1403732281D-01
      0.1039486850D+03  0.6884262226D-01
      0.2921015530D+02  0.2321844432D+00
      0.9286662960D+01  0.4679413484D+00
      0.3163926960D+01  0.3623119853D+00
 SP   3 1.00       0.000000000000
      0.7868272350D+01 -0.1193324198D+00  0.6899906659D-01
      0.1881288540D+01 -0.1608541517D+00  0.3164239610D+00
      0.5442492580D+00  0.1143456438D+01  0.7443082909D+00
 SP   1 1.00       0.000000000000
      0.1687144782D+00  0.1000000000D+01  0.1000000000D+01
 D   1 1.00       0.000000000000
      0.8000000000D+00  0.1000000000D+01
 ****
     28 0
 S   6 1.00       0.000000000000
      0.3047524880D+04  0.1834737132D-02
      0.4573695180D+03  0.1403732281D-01
      0.1039486850D+03  0.6884262226D-01
      0.2921015530D+02  0.2321844432D+00
      0.9286662960D+01  0.4679413484D+00
      0.3163926960D+01  0.3623119853D+00
 SP   3 1.00       0.000000000000
      0.7868272350D+01 -0.1193324198D+00  0.6899906659D-01
      0.1881288540D+01 -0.1608541517D+00  0.3164239610D+00
      0.5442492580D+00  0.1143456438D+01  0.7443082909D+00
 SP   1 1.00       0.000000000000
      0.1687144782D+00  0.1000000000D+01  0.1000000000D+01
 D   1 1.00       0.000000000000
      0.8000000000D+00  0.1000000000D+01
 ****
     29 0
 S   6 1.00       0.000000000000
      0.3047524880D+04  0.1834737132D-02
      0.4573695180D+03  0.1403732281D-01
      0.1039486850D+03  0.6884262226D-01
      0.2921015530D+02  0.2321844432D+00
      0.9286662960D+01  0.4679413484D+00
      0.3163926960D+01  0.3623119853D+00
 SP   3 1.00       0.000000000000
      0.7868272350D+01 -0.1193324198D+00  0.6899906659D-01
      0.1881288540D+01 -0.1608541517D+00  0.3164239610D+00
      0.5442492580D+00  0.1143456438D+01  0.7443082909D+00
 SP   1 1.00       0.000000000000
      0.1687144782D+00  0.1000000000D+01  0.1000000000D+01
 D   1 1.00       0.000000000000
      0.8000000000D+00  0.1000000000D+01
 ****
     30 0
 S   6 1.00       0.000000000000
      0.3047524880D+04  0.1834737132D-02
      0.4573695180D+03  0.1403732281D-01
      0.1039486850D+03  0.6884262226D-01
      0.2921015530D+02  0.2321844432D+00
      0.9286662960D+01  0.4679413484D+00
      0.3163926960D+01  0.3623119853D+00
 SP   3 1.00       0.000000000000
      0.7868272350D+01 -0.1193324198D+00  0.6899906659D-01
      0.1881288540D+01 -0.1608541517D+00  0.3164239610D+00
      0.5442492580D+00  0.1143456438D+01  0.7443082909D+00
 SP   1 1.00       0.000000000000
      0.1687144782D+00  0.1000000000D+01  0.1000000000D+01
 D   1 1.00       0.000000000000
      0.8000000000D+00  0.1000000000D+01
 ****
     31 0
 S   6 1.00       0.000000000000
      0.3047524880D+04  0.1834737132D-02
      0.4573695180D+03  0.1403732281D-01
      0.1039486850D+03  0.6884262226D-01
      0.2921015530D+02  0.2321844432D+00
      0.9286662960D+01  0.4679413484D+00
      0.3163926960D+01  0.3623119853D+00
 SP   3 1.00       0.000000000000
      0.7868272350D+01 -0.1193324198D+00  0.6899906659D-01
      0.1881288540D+01 -0.1608541517D+00  0.3164239610D+00
      0.5442492580D+00  0.1143456438D+01  0.7443082909D+00
 SP   1 1.00       0.000000000000
      0.1687144782D+00  0.1000000000D+01  0.1000000000D+01
 D   1 1.00       0.000000000000
      0.8000000000D+00  0.1000000000D+01
 ****
     32 0
 S   6 1.00       0.000000000000
      0.3047524880D+04  0.1834737132D-02
      0.4573695180D+03  0.1403732281D-01
      0.1039486850D+03  0.6884262226D-01
      0.2921015530D+02  0.2321844432D+00
      0.9286662960D+01  0.4679413484D+00
      0.3163926960D+01  0.3623119853D+00
 SP   3 1.00       0.000000000000
      0.7868272350D+01 -0.1193324198D+00  0.6899906659D-01
      0.1881288540D+01 -0.1608541517D+00  0.3164239610D+00
      0.5442492580D+00  0.1143456438D+01  0.7443082909D+00
 SP   1 1.00       0.000000000000
      0.1687144782D+00  0.1000000000D+01  0.1000000000D+01
 D   1 1.00       0.000000000000
      0.8000000000D+00  0.1000000000D+01
 ****
     33 0
 S   6 1.00       0.000000000000
      0.3047524880D+04  0.1834737132D-02
      0.4573695180D+03  0.1403732281D-01
      0.1039486850D+03  0.6884262226D-01
      0.2921015530D+02  0.2321844432D+00
      0.9286662960D+01  0.4679413484D+00
      0.3163926960D+01  0.3623119853D+00
 SP   3 1.00       0.000000000000
      0.7868272350D+01 -0.1193324198D+00  0.6899906659D-01
      0.1881288540D+01 -0.1608541517D+00  0.3164239610D+00
      0.5442492580D+00  0.1143456438D+01  0.7443082909D+00
 SP   1 1.00       0.000000000000
      0.1687144782D+00  0.1000000000D+01  0.1000000000D+01
 D   1 1.00       0.000000000000
      0.8000000000D+00  0.1000000000D+01
 ****
     34 0
 S   6 1.00       0.000000000000
      0.3047524880D+04  0.1834737132D-02
      0.4573695180D+03  0.1403732281D-01
      0.1039486850D+03  0.6884262226D-01
      0.2921015530D+02  0.2321844432D+00
      0.9286662960D+01  0.4679413484D+00
      0.3163926960D+01  0.3623119853D+00
 SP   3 1.00       0.000000000000
      0.7868272350D+01 -0.1193324198D+00  0.6899906659D-01
      0.1881288540D+01 -0.1608541517D+00  0.3164239610D+00
      0.5442492580D+00  0.1143456438D+01  0.7443082909D+00
 SP   1 1.00       0.000000000000
      0.1687144782D+00  0.1000000000D+01  0.1000000000D+01
 D   1 1.00       0.000000000000
      0.8000000000D+00  0.1000000000D+01
 ****
     35 0
 S   6 1.00       0.000000000000
      0.3047524880D+04  0.1834737132D-02
      0.4573695180D+03  0.1403732281D-01
      0.1039486850D+03  0.6884262226D-01
      0.2921015530D+02  0.2321844432D+00
      0.9286662960D+01  0.4679413484D+00
      0.3163926960D+01  0.3623119853D+00
 SP   3 1.00       0.000000000000
      0.7868272350D+01 -0.1193324198D+00  0.6899906659D-01
      0.1881288540D+01 -0.1608541517D+00  0.3164239610D+00
      0.5442492580D+00  0.1143456438D+01  0.7443082909D+00
 SP   1 1.00       0.000000000000
      0.1687144782D+00  0.1000000000D+01  0.1000000000D+01
 D   1 1.00       0.000000000000
      0.8000000000D+00  0.1000000000D+01
 ****
     36 0
 S   6 1.00       0.000000000000
      0.3047524880D+04  0.1834737132D-02
      0.4573695180D+03  0.1403732281D-01
      0.1039486850D+03  0.6884262226D-01
      0.2921015530D+02  0.2321844432D+00
      0.9286662960D+01  0.4679413484D+00
      0.3163926960D+01  0.3623119853D+00
 SP   3 1.00       0.000000000000
      0.7868272350D+01 -0.1193324198D+00  0.6899906659D-01
      0.1881288540D+01 -0.1608541517D+00  0.3164239610D+00
      0.5442492580D+00  0.1143456438D+01  0.7443082909D+00
 SP   1 1.00       0.000000000000
      0.1687144782D+00  0.1000000000D+01  0.1000000000D+01
 D   1 1.00       0.000000000000
      0.8000000000D+00  0.1000000000D+01
 ****
     37 0
 S   6 1.00       0.000000000000
      0.3047524880D+04  0.1834737132D-02
      0.4573695180D+03  0.1403732281D-01
      0.1039486850D+03  0.6884262226D-01
      0.2921015530D+02  0.2321844432D+00
      0.9286662960D+01  0.4679413484D+00
      0.3163926960D+01  0.3623119853D+00
 SP   3 1.00       0.000000000000
      0.7868272350D+01 -0.1193324198D+00  0.6899906659D-01
      0.1881288540D+01 -0.1608541517D+00  0.3164239610D+00
      0.5442492580D+00  0.1143456438D+01  0.7443082909D+00
 SP   1 1.00       0.000000000000
      0.1687144782D+00  0.1000000000D+01  0.1000000000D+01
 D   1 1.00       0.000000000000
      0.8000000000D+00  0.1000000000D+01
 ****
     38 0
 S   6 1.00       0.000000000000
      0.3047524880D+04  0.1834737132D-02
      0.4573695180D+03  0.1403732281D-01
      0.1039486850D+03  0.6884262226D-01
      0.2921015530D+02  0.2321844432D+00
      0.9286662960D+01  0.4679413484D+00
      0.3163926960D+01  0.3623119853D+00
 SP   3 1.00       0.000000000000
      0.7868272350D+01 -0.1193324198D+00  0.6899906659D-01
      0.1881288540D+01 -0.1608541517D+00  0.3164239610D+00
      0.5442492580D+00  0.1143456438D+01  0.7443082909D+00
 SP   1 1.00       0.000000000000
      0.1687144782D+00  0.1000000000D+01  0.1000000000D+01
 D   1 1.00       0.000000000000
      0.8000000000D+00  0.1000000000D+01
 ****
     39 0
 S   6 1.00       0.000000000000
      0.3047524880D+04  0.1834737132D-02
      0.4573695180D+03  0.1403732281D-01
      0.1039486850D+03  0.6884262226D-01
      0.2921015530D+02  0.2321844432D+00
      0.9286662960D+01  0.4679413484D+00
      0.3163926960D+01  0.3623119853D+00
 SP   3 1.00       0.000000000000
      0.7868272350D+01 -0.1193324198D+00  0.6899906659D-01
      0.1881288540D+01 -0.1608541517D+00  0.3164239610D+00
      0.5442492580D+00  0.1143456438D+01  0.7443082909D+00
 SP   1 1.00       0.000000000000
      0.1687144782D+00  0.1000000000D+01  0.1000000000D+01
 D   1 1.00       0.000000000000
      0.8000000000D+00  0.1000000000D+01
 ****
     40 0
 S   6 1.00       0.000000000000
      0.3047524880D+04  0.1834737132D-02
      0.4573695180D+03  0.1403732281D-01
      0.1039486850D+03  0.6884262226D-01
      0.2921015530D+02  0.2321844432D+00
      0.9286662960D+01  0.4679413484D+00
      0.3163926960D+01  0.3623119853D+00
 SP   3 1.00       0.000000000000
      0.7868272350D+01 -0.1193324198D+00  0.6899906659D-01
      0.1881288540D+01 -0.1608541517D+00  0.3164239610D+00
      0.5442492580D+00  0.1143456438D+01  0.7443082909D+00
 SP   1 1.00       0.000000000000
      0.1687144782D+00  0.1000000000D+01  0.1000000000D+01
 D   1 1.00       0.000000000000
      0.8000000000D+00  0.1000000000D+01
 ****
     41 0
 S   6 1.00       0.000000000000
      0.4173511460D+04  0.1834772160D-02
      0.6274579110D+03  0.1399462700D-01
      0.1429020930D+03  0.6858655181D-01
      0.4023432930D+02  0.2322408730D+00
      0.1282021290D+02  0.4690699481D+00
      0.4390437010D+01  0.3604551991D+00
 SP   3 1.00       0.000000000000
      0.1162636186D+02 -0.1149611817D+00  0.6757974388D-01
      0.2716279807D+01 -0.1691174786D+00  0.3239072959D+00
      0.7722183966D+00  0.1145851947D+01  0.7408951398D+00
 SP   1 1.00       0.000000000000
      0.2120314975D+00  0.1000000000D+01  0.1000000000D+01
 D   1 1.00       0.000000000000
      0.8000000000D+00  0.1000000000D+01
 ****
     42 0
 S   6 1.00       0.000000000000
      0.3047524880D+04  0.1834737132D-02
      0.4573695180D+03  0.1403732281D-01
      0.1039486850D+03  0.6884262226D-01
      0.2921015530D+02  0.2321844432D+00
      0.9286662960D+01  0.4679413484D+00
      0.3163926960D+01  0.3623119853D+00
 SP   3 1.00       0.000000000000
      0.7868272350D+01 -0.1193324198D+00  0.6899906659D-01
      0.1881288540D+01 -0.1608541517D+00  0.3164239610D+00
      0.5442492580D+00  0.1143456438D+01  0.7443082909D+00
 SP   1 1.00       0.000000000000
      0.1687144782D+00  0.1000000000D+01  0.1000000000D+01
 D   1 1.00       0.000000000000
      0.8000000000D+00  0.1000000000D+01
 ****
     43 0
 S   6 1.00       0.000000000000
      0.3047524880D+04  0.1834737132D-02
      0.4573695180D+03  0.1403732281D-01
      0.1039486850D+03  0.6884262226D-01
      0.2921015530D+02  0.2321844432D+00
      0.9286662960D+01  0.4679413484D+00
      0.3163926960D+01  0.3623119853D+00
 SP   3 1.00       0.000000000000
      0.7868272350D+01 -0.1193324198D+00  0.6899906659D-01
      0.1881288540D+01 -0.1608541517D+00  0.3164239610D+00
      0.5442492580D+00  0.1143456438D+01  0.7443082909D+00
 SP   1 1.00       0.000000000000
      0.1687144782D+00  0.1000000000D+01  0.1000000000D+01
 D   1 1.00       0.000000000000
      0.8000000000D+00  0.1000000000D+01
 ****
     44 0
 S   6 1.00       0.000000000000
      0.3047524880D+04  0.1834737132D-02
      0.4573695180D+03  0.1403732281D-01
      0.1039486850D+03  0.6884262226D-01
      0.2921015530D+02  0.2321844432D+00
      0.9286662960D+01  0.4679413484D+00
      0.3163926960D+01  0.3623119853D+00
 SP   3 1.00       0.000000000000
      0.7868272350D+01 -0.1193324198D+00  0.6899906659D-01
      0.1881288540D+01 -0.1608541517D+00  0.3164239610D+00
      0.5442492580D+00  0.1143456438D+01  0.7443082909D+00
 SP   1 1.00       0.000000000000
      0.1687144782D+00  0.1000000000D+01  0.1000000000D+01
 D   1 1.00       0.000000000000
      0.8000000000D+00  0.1000000000D+01
 ****
     45 0
 S   6 1.00       0.000000000000
      0.3047524880D+04  0.1834737132D-02
      0.4573695180D+03  0.1403732281D-01
      0.1039486850D+03  0.6884262226D-01
      0.2921015530D+02  0.2321844432D+00
      0.9286662960D+01  0.4679413484D+00
      0.3163926960D+01  0.3623119853D+00
 SP   3 1.00       0.000000000000
      0.7868272350D+01 -0.1193324198D+00  0.6899906659D-01
      0.1881288540D+01 -0.1608541517D+00  0.3164239610D+00
      0.5442492580D+00  0.1143456438D+01  0.7443082909D+00
 SP   1 1.00       0.000000000000
      0.1687144782D+00  0.1000000000D+01  0.1000000000D+01
 D   1 1.00       0.000000000000
      0.8000000000D+00  0.1000000000D+01
 ****
     46 0
 S   6 1.00       0.000000000000
      0.3047524880D+04  0.1834737132D-02
      0.4573695180D+03  0.1403732281D-01
      0.1039486850D+03  0.6884262226D-01
      0.2921015530D+02  0.2321844432D+00
      0.9286662960D+01  0.4679413484D+00
      0.3163926960D+01  0.3623119853D+00
 SP   3 1.00       0.000000000000
      0.7868272350D+01 -0.1193324198D+00  0.6899906659D-01
      0.1881288540D+01 -0.1608541517D+00  0.3164239610D+00
      0.5442492580D+00  0.1143456438D+01  0.7443082909D+00
 SP   1 1.00       0.000000000000
      0.1687144782D+00  0.1000000000D+01  0.1000000000D+01
 D   1 1.00       0.000000000000
      0.8000000000D+00  0.1000000000D+01
 ****
     47 0
 S   6 1.00       0.000000000000
      0.3047524880D+04  0.1834737132D-02
      0.4573695180D+03  0.1403732281D-01
      0.1039486850D+03  0.6884262226D-01
      0.2921015530D+02  0.2321844432D+00
      0.9286662960D+01  0.4679413484D+00
      0.3163926960D+01  0.3623119853D+00
 SP   3 1.00       0.000000000000
      0.7868272350D+01 -0.1193324198D+00  0.6899906659D-01
      0.1881288540D+01 -0.1608541517D+00  0.3164239610D+00
      0.5442492580D+00  0.1143456438D+01  0.7443082909D+00
 SP   1 1.00       0.000000000000
      0.1687144782D+00  0.1000000000D+01  0.1000000000D+01
 D   1 1.00       0.000000000000
      0.8000000000D+00  0.1000000000D+01
 ****
     48 0
 S   6 1.00       0.000000000000
      0.3047524880D+04  0.1834737132D-02
      0.4573695180D+03  0.1403732281D-01
      0.1039486850D+03  0.6884262226D-01
      0.2921015530D+02  0.2321844432D+00
      0.9286662960D+01  0.4679413484D+00
      0.3163926960D+01  0.3623119853D+00
 SP   3 1.00       0.000000000000
      0.7868272350D+01 -0.1193324198D+00  0.6899906659D-01
      0.1881288540D+01 -0.1608541517D+00  0.3164239610D+00
      0.5442492580D+00  0.1143456438D+01  0.7443082909D+00
 SP   1 1.00       0.000000000000
      0.1687144782D+00  0.1000000000D+01  0.1000000000D+01
 D   1 1.00       0.000000000000
      0.8000000000D+00  0.1000000000D+01
 ****
     49 0
 S   6 1.00       0.000000000000
      0.3047524880D+04  0.1834737132D-02
      0.4573695180D+03  0.1403732281D-01
      0.1039486850D+03  0.6884262226D-01
      0.2921015530D+02  0.2321844432D+00
      0.9286662960D+01  0.4679413484D+00
      0.3163926960D+01  0.3623119853D+00
 SP   3 1.00       0.000000000000
      0.7868272350D+01 -0.1193324198D+00  0.6899906659D-01
      0.1881288540D+01 -0.1608541517D+00  0.3164239610D+00
      0.5442492580D+00  0.1143456438D+01  0.7443082909D+00
 SP   1 1.00       0.000000000000
      0.1687144782D+00  0.1000000000D+01  0.1000000000D+01
 D   1 1.00       0.000000000000
      0.8000000000D+00  0.1000000000D+01
 ****
     50 0
 S   6 1.00       0.000000000000
      0.3047524880D+04  0.1834737132D-02
      0.4573695180D+03  0.1403732281D-01
      0.1039486850D+03  0.6884262226D-01
      0.2921015530D+02  0.2321844432D+00
      0.9286662960D+01  0.4679413484D+00
      0.3163926960D+01  0.3623119853D+00
 SP   3 1.00       0.000000000000
      0.7868272350D+01 -0.1193324198D+00  0.6899906659D-01
      0.1881288540D+01 -0.1608541517D+00  0.3164239610D+00
      0.5442492580D+00  0.1143456438D+01  0.7443082909D+00
 SP   1 1.00       0.000000000000
      0.1687144782D+00  0.1000000000D+01  0.1000000000D+01
 D   1 1.00       0.000000000000
      0.8000000000D+00  0.1000000000D+01
 ****
     51 0
 S   6 1.00       0.000000000000
      0.3047524880D+04  0.1834737132D-02
      0.4573695180D+03  0.1403732281D-01
      0.1039486850D+03  0.6884262226D-01
      0.2921015530D+02  0.2321844432D+00
      0.9286662960D+01  0.4679413484D+00
      0.3163926960D+01  0.3623119853D+00
 SP   3 1.00       0.000000000000
      0.7868272350D+01 -0.1193324198D+00  0.6899906659D-01
      0.1881288540D+01 -0.1608541517D+00  0.3164239610D+00
      0.5442492580D+00  0.1143456438D+01  0.7443082909D+00
 SP   1 1.00       0.000000000000
      0.1687144782D+00  0.1000000000D+01  0.1000000000D+01
 D   1 1.00       0.000000000000
      0.8000000000D+00  0.1000000000D+01
 ****
     52 0
 S   6 1.00       0.000000000000
      0.3047524880D+04  0.1834737132D-02
      0.4573695180D+03  0.1403732281D-01
      0.1039486850D+03  0.6884262226D-01
      0.2921015530D+02  0.2321844432D+00
      0.9286662960D+01  0.4679413484D+00
      0.3163926960D+01  0.3623119853D+00
 SP   3 1.00       0.000000000000
      0.7868272350D+01 -0.1193324198D+00  0.6899906659D-01
      0.1881288540D+01 -0.1608541517D+00  0.3164239610D+00
      0.5442492580D+00  0.1143456438D+01  0.7443082909D+00
 SP   1 1.00       0.000000000000
      0.1687144782D+00  0.1000000000D+01  0.1000000000D+01
 D   1 1.00       0.000000000000
      0.8000000000D+00  0.1000000000D+01
 ****
     53 0
 S   6 1.00       0.000000000000
      0.3047524880D+04  0.1834737132D-02
      0.4573695180D+03  0.1403732281D-01
      0.1039486850D+03  0.6884262226D-01
      0.2921015530D+02  0.2321844432D+00
      0.9286662960D+01  0.4679413484D+00
      0.3163926960D+01  0.3623119853D+00
 SP   3 1.00       0.000000000000
      0.7868272350D+01 -0.1193324198D+00  0.6899906659D-01
      0.1881288540D+01 -0.1608541517D+00  0.3164239610D+00
      0.5442492580D+00  0.1143456438D+01  0.7443082909D+00
 SP   1 1.00       0.000000000000
      0.1687144782D+00  0.1000000000D+01  0.1000000000D+01
 D   1 1.00       0.000000000000
      0.8000000000D+00  0.1000000000D+01
 ****
     54 0
 S   6 1.00       0.000000000000
      0.3047524880D+04  0.1834737132D-02
      0.4573695180D+03  0.1403732281D-01
      0.1039486850D+03  0.6884262226D-01
      0.2921015530D+02  0.2321844432D+00
      0.9286662960D+01  0.4679413484D+00
      0.3163926960D+01  0.3623119853D+00
 SP   3 1.00       0.000000000000
      0.7868272350D+01 -0.1193324198D+00  0.6899906659D-01
      0.1881288540D+01 -0.1608541517D+00  0.3164239610D+00
      0.5442492580D+00  0.1143456438D+01  0.7443082909D+00
 SP   1 1.00       0.000000000000
      0.1687144782D+00  0.1000000000D+01  0.1000000000D+01
 D   1 1.00       0.000000000000
      0.8000000000D+00  0.1000000000D+01
 ****
     55 0
 S   6 1.00       0.000000000000
      0.3047524880D+04  0.1834737132D-02
      0.4573695180D+03  0.1403732281D-01
      0.1039486850D+03  0.6884262226D-01
      0.2921015530D+02  0.2321844432D+00
      0.9286662960D+01  0.4679413484D+00
      0.3163926960D+01  0.3623119853D+00
 SP   3 1.00       0.000000000000
      0.7868272350D+01 -0.1193324198D+00  0.6899906659D-01
      0.1881288540D+01 -0.1608541517D+00  0.3164239610D+00
      0.5442492580D+00  0.1143456438D+01  0.7443082909D+00
 SP   1 1.00       0.000000000000
      0.1687144782D+00  0.1000000000D+01  0.1000000000D+01
 D   1 1.00       0.000000000000
      0.8000000000D+00  0.1000000000D+01
 ****
     56 0
 S   6 1.00       0.000000000000
      0.3047524880D+04  0.1834737132D-02
      0.4573695180D+03  0.1403732281D-01
      0.1039486850D+03  0.6884262226D-01
      0.2921015530D+02  0.2321844432D+00
      0.9286662960D+01  0.4679413484D+00
      0.3163926960D+01  0.3623119853D+00
 SP   3 1.00       0.000000000000
      0.7868272350D+01 -0.1193324198D+00  0.6899906659D-01
      0.1881288540D+01 -0.1608541517D+00  0.3164239610D+00
      0.5442492580D+00  0.1143456438D+01  0.7443082909D+00
 SP   1 1.00       0.000000000000
      0.1687144782D+00  0.1000000000D+01  0.1000000000D+01
 D   1 1.00       0.000000000000
      0.8000000000D+00  0.1000000000D+01
 ****
     57 0
 S   6 1.00       0.000000000000
      0.3047524880D+04  0.1834737132D-02
      0.4573695180D+03  0.1403732281D-01
      0.1039486850D+03  0.6884262226D-01
      0.2921015530D+02  0.2321844432D+00
      0.9286662960D+01  0.4679413484D+00
      0.3163926960D+01  0.3623119853D+00
 SP   3 1.00       0.000000000000
      0.7868272350D+01 -0.1193324198D+00  0.6899906659D-01
      0.1881288540D+01 -0.1608541517D+00  0.3164239610D+00
      0.5442492580D+00  0.1143456438D+01  0.7443082909D+00
 SP   1 1.00       0.000000000000
      0.1687144782D+00  0.1000000000D+01  0.1000000000D+01
 D   1 1.00       0.000000000000
      0.8000000000D+00  0.1000000000D+01
 ****
     58 0
 S   6 1.00       0.000000000000
      0.3047524880D+04  0.1834737132D-02
      0.4573695180D+03  0.1403732281D-01
      0.1039486850D+03  0.6884262226D-01
      0.2921015530D+02  0.2321844432D+00
      0.9286662960D+01  0.4679413484D+00
      0.3163926960D+01  0.3623119853D+00
 SP   3 1.00       0.000000000000
      0.7868272350D+01 -0.1193324198D+00  0.6899906659D-01
      0.1881288540D+01 -0.1608541517D+00  0.3164239610D+00
      0.5442492580D+00  0.1143456438D+01  0.7443082909D+00
 SP   1 1.00       0.000000000000
      0.1687144782D+00  0.1000000000D+01  0.1000000000D+01
 D   1 1.00       0.000000000000
      0.8000000000D+00  0.1000000000D+01
 ****
     59 0
 S   6 1.00       0.000000000000
      0.5484671660D+04  0.1831074430D-02
      0.8252349460D+03  0.1395017220D-01
      0.1880469580D+03  0.6844507810D-01
      0.5296450000D+02  0.2327143360D+00
      0.1689757040D+02  0.4701928980D+00
      0.5799635340D+01  0.3585208530D+00
 SP   3 1.00       0.000000000000
      0.1553961625D+02 -0.1107775495D+00  0.7087426823D-01
      0.3599933586D+01 -0.1480262627D+00  0.3397528391D+00
      0.1013761750D+01  0.1130767015D+01  0.7271585773D+00
 SP   1 1.00       0.000000000000
      0.2700058226D+00  0.1000000000D+01  0.1000000000D+01
 D   1 1.00       0.000000000000
      0.8000000000D+00  0.1000000000D+01
 ****
     60 0
 S   6 1.00       0.000000000000
      0.3047524880D+04  0.1834737132D-02
      0.4573695180D+03  0.1403732281D-01
      0.1039486850D+03  0.6884262226D-01
      0.2921015530D+02  0.2321844432D+00
      0.9286662960D+01  0.4679413484D+00
      0.3163926960D+01  0.3623119853D+00
 SP   3 1.00       0.000000000000
      0.7868272350D+01 -0.1193324198D+00  0.6899906659D-01
      0.1881288540D+01 -0.1608541517D+00  0.3164239610D+00
      0.5442492580D+00  0.1143456438D+01  0.7443082909D+00
 SP   1 1.00       0.000000000000
      0.1687144782D+00  0.1000000000D+01  0.1000000000D+01
 D   1 1.00       0.000000000000
      0.8000000000D+00  0.1000000000D+01
 ****
     61 0
 S   6 1.00       0.000000000000
      0.3047524880D+04  0.1834737132D-02
      0.4573695180D+03  0.1403732281D-01
      0.1039486850D+03  0.6884262226D-01
      0.2921015530D+02  0.2321844432D+00
      0.9286662960D+01  0.4679413484D+00
      0.3163926960D+01  0.3623119853D+00
 SP   3 1.00       0.000000000000
      0.7868272350D+01 -0.1193324198D+00  0.6899906659D-01
      0.1881288540D+01 -0.1608541517D+00  0.3164239610D+00
      0.5442492580D+00  0.1143456438D+01  0.7443082909D+00
 SP   1 1.00       0.000000000000
      0.1687144782D+00  0.1000000000D+01  0.1000000000D+01
 D   1 1.00       0.000000000000
      0.8000000000D+00  0.1000000000D+01
 ****
     62 0
 S   3 1.00       0.000000000000
      0.1873113696D+02  0.3349460434D-01
      0.2825394365D+01  0.2347269535D+00
      0.6401216923D+00  0.8137573261D+00
 S   1 1.00       0.000000000000
      0.1612777588D+00  0.1000000000D+01
 ****
     63 0
 S   3 1.00       0.000000000000
      0.1873113696D+02  0.3349460434D-01
      0.2825394365D+01  0.2347269535D+00
      0.6401216923D+00  0.8137573261D+00
 S   1 1.00       0.000000000000
      0.1612777588D+00  0.1000000000D+01
 ****
     64 0
 S   3 1.00       0.000000000000
      0.1873113696D+02  0.3349460434D-01
      0.2825394365D+01  0.2347269535D+00
      0.6401216923D+00  0.8137573261D+00
 S   1 1.00       0.000000000000
      0.1612777588D+00  0.1000000000D+01
 ****
     65 0
 S   3 1.00       0.000000000000
      0.1873113696D+02  0.3349460434D-01
      0.2825394365D+01  0.2347269535D+00
      0.6401216923D+00  0.8137573261D+00
 S   1 1.00       0.000000000000
      0.1612777588D+00  0.1000000000D+01
 ****
     66 0
 S   3 1.00       0.000000000000
      0.1873113696D+02  0.3349460434D-01
      0.2825394365D+01  0.2347269535D+00
      0.6401216923D+00  0.8137573261D+00
 S   1 1.00       0.000000000000
      0.1612777588D+00  0.1000000000D+01
 ****
     67 0
 S   3 1.00       0.000000000000
      0.1873113696D+02  0.3349460434D-01
      0.2825394365D+01  0.2347269535D+00
      0.6401216923D+00  0.8137573261D+00
 S   1 1.00       0.000000000000
      0.1612777588D+00  0.1000000000D+01
 ****
     68 0
 S   3 1.00       0.000000000000
      0.1873113696D+02  0.3349460434D-01
      0.2825394365D+01  0.2347269535D+00
      0.6401216923D+00  0.8137573261D+00
 S   1 1.00       0.000000000000
      0.1612777588D+00  0.1000000000D+01
 ****
     69 0
 S   3 1.00       0.000000000000
      0.1873113696D+02  0.3349460434D-01
      0.2825394365D+01  0.2347269535D+00
      0.6401216923D+00  0.8137573261D+00
 S   1 1.00       0.000000000000
      0.1612777588D+00  0.1000000000D+01
 ****
     70 0
 S   3 1.00       0.000000000000
      0.1873113696D+02  0.3349460434D-01
      0.2825394365D+01  0.2347269535D+00
      0.6401216923D+00  0.8137573261D+00
 S   1 1.00       0.000000000000
      0.1612777588D+00  0.1000000000D+01
 ****
     71 0
 S   3 1.00       0.000000000000
      0.1873113696D+02  0.3349460434D-01
      0.2825394365D+01  0.2347269535D+00
      0.6401216923D+00  0.8137573261D+00
 S   1 1.00       0.000000000000
      0.1612777588D+00  0.1000000000D+01
 ****
     72 0
 S   3 1.00       0.000000000000
      0.1873113696D+02  0.3349460434D-01
      0.2825394365D+01  0.2347269535D+00
      0.6401216923D+00  0.8137573261D+00
 S   1 1.00       0.000000000000
      0.1612777588D+00  0.1000000000D+01
 ****
     73 0
 S   3 1.00       0.000000000000
      0.1873113696D+02  0.3349460434D-01
      0.2825394365D+01  0.2347269535D+00
      0.6401216923D+00  0.8137573261D+00
 S   1 1.00       0.000000000000
      0.1612777588D+00  0.1000000000D+01
 ****
     74 0
 S   3 1.00       0.000000000000
      0.1873113696D+02  0.3349460434D-01
      0.2825394365D+01  0.2347269535D+00
      0.6401216923D+00  0.8137573261D+00
 S   1 1.00       0.000000000000
      0.1612777588D+00  0.1000000000D+01
 ****
     75 0
 S   3 1.00       0.000000000000
      0.1873113696D+02  0.3349460434D-01
      0.2825394365D+01  0.2347269535D+00
      0.6401216923D+00  0.8137573261D+00
 S   1 1.00       0.000000000000
      0.1612777588D+00  0.1000000000D+01
 ****
     76 0
 S   3 1.00       0.000000000000
      0.1873113696D+02  0.3349460434D-01
      0.2825394365D+01  0.2347269535D+00
      0.6401216923D+00  0.8137573261D+00
 S   1 1.00       0.000000000000
      0.1612777588D+00  0.1000000000D+01
 ****
     77 0
 S   3 1.00       0.000000000000
      0.1873113696D+02  0.3349460434D-01
      0.2825394365D+01  0.2347269535D+00
      0.6401216923D+00  0.8137573261D+00
 S   1 1.00       0.000000000000
      0.1612777588D+00  0.1000000000D+01
 ****
     78 0
 S   3 1.00       0.000000000000
      0.1873113696D+02  0.3349460434D-01
      0.2825394365D+01  0.2347269535D+00
      0.6401216923D+00  0.8137573261D+00
 S   1 1.00       0.000000000000
      0.1612777588D+00  0.1000000000D+01
 ****
     79 0
 S   3 1.00       0.000000000000
      0.1873113696D+02  0.3349460434D-01
      0.2825394365D+01  0.2347269535D+00
      0.6401216923D+00  0.8137573261D+00
 S   1 1.00       0.000000000000
      0.1612777588D+00  0.1000000000D+01
 ****
     80 0
 S   3 1.00       0.000000000000
      0.1873113696D+02  0.3349460434D-01
      0.2825394365D+01  0.2347269535D+00
      0.6401216923D+00  0.8137573261D+00
 S   1 1.00       0.000000000000
      0.1612777588D+00  0.1000000000D+01
 ****
     81 0
 S   3 1.00       0.000000000000
      0.1873113696D+02  0.3349460434D-01
      0.2825394365D+01  0.2347269535D+00
      0.6401216923D+00  0.8137573261D+00
 S   1 1.00       0.000000000000
      0.1612777588D+00  0.1000000000D+01
 ****
     82 0
 S   3 1.00       0.000000000000
      0.1873113696D+02  0.3349460434D-01
      0.2825394365D+01  0.2347269535D+00
      0.6401216923D+00  0.8137573261D+00
 S   1 1.00       0.000000000000
      0.1612777588D+00  0.1000000000D+01
 ****
     83 0
 S   3 1.00       0.000000000000
      0.1873113696D+02  0.3349460434D-01
      0.2825394365D+01  0.2347269535D+00
      0.6401216923D+00  0.8137573261D+00
 S   1 1.00       0.000000000000
      0.1612777588D+00  0.1000000000D+01
 ****
     84 0
 S   3 1.00       0.000000000000
      0.1873113696D+02  0.3349460434D-01
      0.2825394365D+01  0.2347269535D+00
      0.6401216923D+00  0.8137573261D+00
 S   1 1.00       0.000000000000
      0.1612777588D+00  0.1000000000D+01
 ****
     85 0
 S   3 1.00       0.000000000000
      0.1873113696D+02  0.3349460434D-01
      0.2825394365D+01  0.2347269535D+00
      0.6401216923D+00  0.8137573261D+00
 S   1 1.00       0.000000000000
      0.1612777588D+00  0.1000000000D+01
 ****
     86 0
 S   3 1.00       0.000000000000
      0.1873113696D+02  0.3349460434D-01
      0.2825394365D+01  0.2347269535D+00
      0.6401216923D+00  0.8137573261D+00
 S   1 1.00       0.000000000000
      0.1612777588D+00  0.1000000000D+01
 ****
     87 0
 S   3 1.00       0.000000000000
      0.1873113696D+02  0.3349460434D-01
      0.2825394365D+01  0.2347269535D+00
      0.6401216923D+00  0.8137573261D+00
 S   1 1.00       0.000000000000
      0.1612777588D+00  0.1000000000D+01
 ****
     88 0
 S   3 1.00       0.000000000000
      0.1873113696D+02  0.3349460434D-01
      0.2825394365D+01  0.2347269535D+00
      0.6401216923D+00  0.8137573261D+00
 S   1 1.00       0.000000000000
      0.1612777588D+00  0.1000000000D+01
 ****
     89 0
 S   3 1.00       0.000000000000
      0.1873113696D+02  0.3349460434D-01
      0.2825394365D+01  0.2347269535D+00
      0.6401216923D+00  0.8137573261D+00
 S   1 1.00       0.000000000000
      0.1612777588D+00  0.1000000000D+01
 ****
     90 0
 S   3 1.00       0.000000000000
      0.1873113696D+02  0.3349460434D-01
      0.2825394365D+01  0.2347269535D+00
      0.6401216923D+00  0.8137573261D+00
 S   1 1.00       0.000000000000
      0.1612777588D+00  0.1000000000D+01
 ****
     91 0
 S   3 1.00       0.000000000000
      0.1873113696D+02  0.3349460434D-01
      0.2825394365D+01  0.2347269535D+00
      0.6401216923D+00  0.8137573261D+00
 S   1 1.00       0.000000000000
      0.1612777588D+00  0.1000000000D+01
 ****
     92 0
 S   3 1.00       0.000000000000
      0.1873113696D+02  0.3349460434D-01
      0.2825394365D+01  0.2347269535D+00
      0.6401216923D+00  0.8137573261D+00
 S   1 1.00       0.000000000000
      0.1612777588D+00  0.1000000000D+01
 ****
     93 0
 S   3 1.00       0.000000000000
      0.1873113696D+02  0.3349460434D-01
      0.2825394365D+01  0.2347269535D+00
      0.6401216923D+00  0.8137573261D+00
 S   1 1.00       0.000000000000
      0.1612777588D+00  0.1000000000D+01
 ****
     94 0
 S   3 1.00       0.000000000000
      0.1873113696D+02  0.3349460434D-01
      0.2825394365D+01  0.2347269535D+00
      0.6401216923D+00  0.8137573261D+00
 S   1 1.00       0.000000000000
      0.1612777588D+00  0.1000000000D+01
 ****
     95 0
 S   3 1.00       0.000000000000
      0.1873113696D+02  0.3349460434D-01
      0.2825394365D+01  0.2347269535D+00
      0.6401216923D+00  0.8137573261D+00
 S   1 1.00       0.000000000000
      0.1612777588D+00  0.1000000000D+01
 ****
     96 0
 S   3 1.00       0.000000000000
      0.1873113696D+02  0.3349460434D-01
      0.2825394365D+01  0.2347269535D+00
      0.6401216923D+00  0.8137573261D+00
 S   1 1.00       0.000000000000
      0.1612777588D+00  0.1000000000D+01
 ****

   985 basis functions,  1848 primitive gaussians,   985 cartesian basis functions
   202 alpha electrons      202 beta electrons
       nuclear repulsion energy      7445.5659199815 Hartrees.
 IExCor=  402 DFT=T Ex+Corr=B3LYP ExCW=0 ScaHFX=  0.200000
 ScaDFX=  0.800000  0.720000  1.000000  0.810000 ScalE2=  1.000000  1.000000
 IRadAn=      5 IRanWt=     -1 IRanGd=            0 ICorTp=0 IEmpDi=  4
 NAtoms=   96 NActive=   96 NUniq=   96 SFac= 1.00D+00 NAtFMM=   60 NAOKFM=T Big=T
 Integral buffers will be    131072 words long.
 Regular integral format.
 Two-electron integral symmetry is turned off.
 Leave Link  301 at Sat Nov  5 10:02:43 2022, MaxMem=   402653184 cpu:               1.3 elap:               0.3
 (Enter /home/wykgroup/appl/g16/l302.exe)
 NPDir=0 NMtPBC=     1 NCelOv=     1 NCel=       1 NClECP=     1 NCelD=      1
         NCelK=      1 NCelE2=     1 NClLst=     1 CellRange=     0.0.
 One-electron integrals computed using PRISM.
 NBasis=   985 RedAO= T EigKep=  1.39D-04  NBF=   985
 NBsUse=   985 1.00D-06 EigRej= -1.00D+00 NBFU=   985
 Precomputing XC quadrature grid using
 IXCGrd= 4 IRadAn=           5 IRanWt=          -1 IRanGd=           0 AccXCQ= 0.00D+00.
 Generated NRdTot=       0 NPtTot=           0 NUsed=           0 NTot=          32
 NSgBfM=   904   904   904   904   904 MxSgAt=    96 MxSgA2=    96.
 Leave Link  302 at Sat Nov  5 10:02:52 2022, MaxMem=   402653184 cpu:              55.6 elap:               8.2
 (Enter /home/wykgroup/appl/g16/l303.exe)
 DipDrv:  MaxL=1.
[...]
 Alpha virt. eigenvalues --    0.84591   0.84612   0.84983   0.85195   0.85406
 Alpha virt. eigenvalues --    0.85471   0.85547   0.86239   0.86314   0.86556
 Alpha virt. eigenvalues --    0.86861   0.86977   0.87296   0.87333   0.87605
 Alpha virt. eigenvalues --    0.87934   0.88056   0.88277   0.88396   0.88614
 Alpha virt. eigenvalues --    0.88872   0.89626   0.89947   0.90245   0.90599
 Alpha virt. eigenvalues --    0.90877   0.91152   0.91394   0.91746   0.91980
 Alpha virt. eigenvalues --    0.92532   0.92704   0.92966   0.93303   0.94130
 Alpha virt. eigenvalues --    0.94312   0.94530   0.95443   0.95918   0.96231
 Alpha virt. eigenvalues --    0.96342   0.97013   0.97396   0.97662   0.98089
 Alpha virt. eigenvalues --    0.98795   0.99218   0.99747   0.99928   1.00109
 Alpha virt. eigenvalues --    1.00630   1.00894   1.01230   1.01436   1.01643
 Alpha virt. eigenvalues --    1.02619   1.03250   1.03889   1.04184   1.04592
 Alpha virt. eigenvalues --    1.05344   1.05734   1.05952   1.06236   1.06650
 Alpha virt. eigenvalues --    1.06800   1.07237   1.07296   1.08541   1.08587
 Alpha virt. eigenvalues --    1.09494   1.09638   1.09987   1.10930   1.12029
 Alpha virt. eigenvalues --    1.12356   1.12791   1.12972   1.13415   1.14211
 Alpha virt. eigenvalues --    1.14611   1.14953   1.15543   1.15684   1.16328
 Alpha virt. eigenvalues --    1.16651   1.16945   1.17762   1.18592   1.18658
 Alpha virt. eigenvalues --    1.18956   1.19309   1.19930   1.20182   1.20511
 Alpha virt. eigenvalues --    1.20894   1.21072   1.22184   1.22510   1.22689
 Alpha virt. eigenvalues --    1.22794   1.23720   1.23991   1.24686   1.24968
 Alpha virt. eigenvalues --    1.25178   1.25520   1.25664   1.25971   1.26497
 Alpha virt. eigenvalues --    1.27108   1.27334   1.27664   1.28006   1.28259
 Alpha virt. eigenvalues --    1.29200   1.29908   1.30396   1.30982   1.32094
 Alpha virt. eigenvalues --    1.32792   1.34042   1.34502   1.35022   1.35485
 Alpha virt. eigenvalues --    1.36226   1.37023   1.37361   1.37580   1.37833
 Alpha virt. eigenvalues --    1.39414   1.39609   1.39984   1.40797   1.41434
 Alpha virt. eigenvalues --    1.41541   1.42052   1.42338   1.42897   1.43119
 Alpha virt. eigenvalues --    1.44155   1.44305   1.44378   1.44721   1.44961
 Alpha virt. eigenvalues --    1.45664   1.45765   1.45995   1.46331   1.46501
 Alpha virt. eigenvalues --    1.46572   1.46659   1.47256   1.47523   1.47702
 Alpha virt. eigenvalues --    1.48034   1.48327   1.48485   1.48696   1.48745
 Alpha virt. eigenvalues --    1.49037   1.49038   1.49184   1.49343   1.49541
 Alpha virt. eigenvalues --    1.49667   1.49923   1.50144   1.50415   1.50500
 Alpha virt. eigenvalues --    1.50559   1.50735   1.50906   1.51026   1.51200
 Alpha virt. eigenvalues --    1.51356   1.51767   1.52121   1.52941   1.54233
 Alpha virt. eigenvalues --    1.55544   1.56421   1.58769   1.60035   1.60937
 Alpha virt. eigenvalues --    1.61917   1.63649   1.65752   1.67203   1.68210
 Alpha virt. eigenvalues --    1.68523   1.69135   1.71561   1.72155   1.72315
 Alpha virt. eigenvalues --    1.72713   1.72851   1.73980   1.75078   1.75343
 Alpha virt. eigenvalues --    1.76041   1.76360   1.76968   1.77221   1.77366
 Alpha virt. eigenvalues --    1.77804   1.77920   1.78440   1.78724   1.79241
 Alpha virt. eigenvalues --    1.79526   1.79596   1.80292   1.80844   1.81246
 Alpha virt. eigenvalues --    1.81889   1.82589   1.83155   1.83446   1.83543
 Alpha virt. eigenvalues --    1.84576   1.85043   1.85947   1.86344   1.87615
 Alpha virt. eigenvalues --    1.87912   1.88119   1.88189   1.88418   1.88774
 Alpha virt. eigenvalues --    1.89336   1.89598   1.90144   1.90829   1.91014
 Alpha virt. eigenvalues --    1.91201   1.91480   1.91829   1.91996   1.92069
 Alpha virt. eigenvalues --    1.92651   1.92682   1.92901   1.93515   1.93578
 Alpha virt. eigenvalues --    1.93660   1.93922   1.94088   1.94220   1.94551
 Alpha virt. eigenvalues --    1.95460   1.96071   1.96468   1.96563   1.96890
 Alpha virt. eigenvalues --    1.97034   1.97282   1.97706   1.98310   1.99202
 Alpha virt. eigenvalues --    1.99542   1.99842   2.00068   2.00443   2.01451
 Alpha virt. eigenvalues --    2.01763   2.02088   2.02733   2.03172   2.03285
 Alpha virt. eigenvalues --    2.03531   2.03929   2.05373   2.05911   2.07388
 Alpha virt. eigenvalues --    2.07839   2.08109   2.08242   2.09044   2.09681
 Alpha virt. eigenvalues --    2.10397   2.10921   2.11088   2.12133   2.12328
 Alpha virt. eigenvalues --    2.13551   2.14043   2.14288   2.14601   2.15740
 Alpha virt. eigenvalues --    2.16048   2.16188   2.16368   2.16490   2.16854
 Alpha virt. eigenvalues --    2.16951   2.18020   2.18085   2.18494   2.18806
 Alpha virt. eigenvalues --    2.19570   2.19914   2.20536   2.20693   2.20971
 Alpha virt. eigenvalues --    2.22149   2.22584   2.22940   2.23518   2.23709
 Alpha virt. eigenvalues --    2.24204   2.24744   2.24880   2.25074   2.25680
 Alpha virt. eigenvalues --    2.25814   2.26249   2.26887   2.27492   2.27672
 Alpha virt. eigenvalues --    2.28207   2.28435   2.28649   2.29451   2.29874
 Alpha virt. eigenvalues --    2.30242   2.30626   2.30725   2.31254   2.31553
 Alpha virt. eigenvalues --    2.31654   2.31851   2.32032   2.32289   2.32741
 Alpha virt. eigenvalues --    2.33973   2.34478   2.34722   2.34822   2.35190
 Alpha virt. eigenvalues --    2.35884   2.36720   2.36964   2.37542   2.37885
 Alpha virt. eigenvalues --    2.38946   2.39441   2.39655   2.40386   2.41080
 Alpha virt. eigenvalues --    2.42104   2.43778   2.44424   2.45173   2.45659
 Alpha virt. eigenvalues --    2.46111   2.46727   2.47734   2.49063   2.49538
 Alpha virt. eigenvalues --    2.50762   2.54358   2.54701   2.55753   2.56207
 Alpha virt. eigenvalues --    2.56698   2.56909   2.58962   2.60186   2.60771
 Alpha virt. eigenvalues --    2.61177   2.61448   2.61600   2.61802   2.61981
 Alpha virt. eigenvalues --    2.62316   2.62880   2.63000   2.63281   2.63784
 Alpha virt. eigenvalues --    2.63922   2.64260   2.64550   2.65009   2.65196
 Alpha virt. eigenvalues --    2.65886   2.66395   2.66593   2.67058   2.67111
 Alpha virt. eigenvalues --    2.67465   2.68019   2.68721   2.69245   2.69675
 Alpha virt. eigenvalues --    2.69976   2.70216   2.71048   2.71272   2.71980
 Alpha virt. eigenvalues --    2.73126   2.73886   2.74143   2.74823   2.75199
 Alpha virt. eigenvalues --    2.75626   2.76870   2.77412   2.78130   2.78420
 Alpha virt. eigenvalues --    2.78922   2.79417   2.80266   2.80729   2.81819
 Alpha virt. eigenvalues --    2.82422   2.83384   2.83994   2.84535   2.85237
 Alpha virt. eigenvalues --    2.86568   2.87283   2.87644   2.88232   2.88487
 Alpha virt. eigenvalues --    2.89269   2.89493   2.89811   2.91062   2.91715
 Alpha virt. eigenvalues --    2.92433   2.95246   2.95709   2.96360   2.97050
 Alpha virt. eigenvalues --    2.97753   2.99292   2.99817   3.02428   3.04290
 Alpha virt. eigenvalues --    3.05928   3.10821   3.12106   3.12872   3.14324
 Alpha virt. eigenvalues --    3.17685   3.18751   3.21438   3.23811   3.27024
 Alpha virt. eigenvalues --    3.31420   3.32415   3.36405   3.36998   3.40019
 Alpha virt. eigenvalues --    3.44521   3.46373   3.46914   3.47648   3.49492
 Alpha virt. eigenvalues --    3.52940   3.57668   4.04441   4.07509   4.07957
 Alpha virt. eigenvalues --    4.08874   4.09090   4.09201   4.09342   4.10006
 Alpha virt. eigenvalues --    4.10212   4.10592   4.10934   4.11114   4.12219
 Alpha virt. eigenvalues --    4.12432   4.12483   4.12846   4.13331   4.13973
 Alpha virt. eigenvalues --    4.14211   4.14363   4.14597   4.14840   4.15766
 Alpha virt. eigenvalues --    4.17461   4.18168   4.18907   4.22413   4.23003
 Alpha virt. eigenvalues --    4.24170   4.29239   4.29641   4.30478   4.32457
 Alpha virt. eigenvalues --    4.33031   4.33472   4.33591   4.34771   4.34992
 Alpha virt. eigenvalues --    4.35157   4.35512   4.36552   4.38252   4.40294
 Alpha virt. eigenvalues --    4.42365   4.45670   4.46788   4.47674   4.49070
 Alpha virt. eigenvalues --    4.51447   4.53191   4.56408   4.58008   4.61341
 Alpha virt. eigenvalues --    4.66775   4.73519   4.76877   4.82477   4.83329
 Alpha virt. eigenvalues --    4.85539   4.93754   4.95138
          Condensed to atoms (all electrons):
 Mulliken charges:
               1
     1  C   -0.141320
     2  C   -0.169291
     3  C    0.082098
     4  C    0.102011
     5  C   -0.178710
     6  C   -0.201730
     7  C    0.112613
     8  C   -0.098988
     9  C   -0.053004
    10  C   -0.163219
    11  C   -0.138922
    12  C   -0.185821
    13  C    0.128070
    14  C   -0.194859
    15  C   -0.131807
    16  C   -0.134254
    17  C   -0.190535
    18  C    0.116233
    19  C    0.108791
    20  C   -0.195056
    21  C   -0.134598
    22  C   -0.134890
    23  C   -0.193547
    24  C    0.104791
    25  C   -0.096397
    26  C   -0.053871
    27  C   -0.162566
    28  C   -0.136475
    29  C   -0.186122
    30  C    0.130033
    31  C   -0.193554
    32  C   -0.131122
    33  C   -0.133532
    34  C   -0.189635
    35  C    0.118278
    36  C    0.117871
    37  C   -0.276542
    38  C   -0.196417
    39  C    0.101958
    40  C    0.154257
    41  N   -0.561309
    42  C    0.230263
    43  C   -0.160947
    44  C   -0.131530
    45  C   -0.137878
    46  C   -0.199059
    47  C    0.110565
    48  C    0.044965
    49  C    0.087634
    50  C   -0.229433
    51  C   -0.195327
    52  C    0.123917
    53  C    0.055056
    54  C   -0.188564
    55  C   -0.143981
    56  C   -0.136575
    57  C   -0.199837
    58  C    0.344673
    59  O   -0.564744
    60  C    0.206908
    61  C   -0.175704
    62  H    0.131233
    63  H    0.133543
    64  H    0.130737
    65  H    0.147134
    66  H    0.137562
    67  H    0.131722
    68  H    0.129362
    69  H    0.129021
    70  H    0.129912
    71  H    0.131259
    72  H    0.146453
    73  H    0.146460
    74  H    0.129267
    75  H    0.129494
    76  H    0.147284
    77  H    0.137395
    78  H    0.133762
    79  H    0.128353
    80  H    0.128712
    81  H    0.129618
    82  H    0.130193
    83  H    0.144705
    84  H    0.162181
    85  H    0.150715
    86  H    0.147487
    87  H    0.129210
    88  H    0.130011
    89  H    0.163063
    90  H    0.155591
    91  H    0.139248
    92  H    0.138782
    93  H    0.133962
    94  H    0.137092
    95  H    0.149492
    96  H    0.140669
 Sum of Mulliken charges =  -0.00000
 Mulliken charges with hydrogens summed into heavy atoms:
               1
     1  C   -0.010087
     2  C   -0.035748
     3  C    0.082098
     4  C    0.102011
     5  C   -0.047972
     6  C   -0.054596
     7  C    0.112613
     8  C   -0.098988
     9  C   -0.053004
    10  C   -0.025658
    11  C   -0.007200
    12  C   -0.056460
    13  C    0.128070
    14  C   -0.065838
    15  C   -0.001895
    16  C   -0.002995
    17  C   -0.044083
    18  C    0.116233
    19  C    0.108791
    20  C   -0.048595
    21  C   -0.005331
    22  C   -0.005396
    23  C   -0.046263
    24  C    0.104791
    25  C   -0.096397
    26  C   -0.053871
    27  C   -0.025170
    28  C   -0.002714
    29  C   -0.057769
    30  C    0.130033
    31  C   -0.064842
    32  C   -0.001504
    33  C   -0.003338
    34  C   -0.044931
    35  C    0.118278
    36  C    0.117871
    37  C   -0.114361
    38  C   -0.045702
    39  C    0.101958
    40  C    0.154257
    41  N   -0.561309
    42  C    0.230263
    43  C   -0.013459
    44  C   -0.002319
    45  C   -0.007867
    46  C   -0.035995
    47  C    0.110565
    48  C    0.044965
    49  C    0.087634
    50  C   -0.073842
    51  C   -0.056079
    52  C    0.123917
    53  C    0.055056
    54  C   -0.049783
    55  C   -0.010018
    56  C    0.000517
    57  C   -0.050345
    58  C    0.344673
    59  O   -0.564744
    60  C    0.206908
    61  C   -0.035035
 Electronic spatial extent (au):  <R**2>=          62247.2506
 Charge=             -0.0000 electrons
 Dipole moment (field-independent basis, Debye):
    X=              2.0045    Y=              1.2623    Z=              0.1407  Tot=              2.3730
 Quadrupole moment (field-independent basis, Debye-Ang):
   XX=           -294.2470   YY=           -320.3637   ZZ=           -324.6142
   XY=              1.5189   XZ=             -8.5673   YZ=             12.9493
 Traceless Quadrupole moment (field-independent basis, Debye-Ang):
   XX=             18.8280   YY=             -7.2887   ZZ=            -11.5393
   XY=              1.5189   XZ=             -8.5673   YZ=             12.9493
 Octapole moment (field-independent basis, Debye-Ang**2):
  XXX=            280.3634  YYY=             39.7259  ZZZ=             24.8428  XYY=           -102.2483
  XXY=            128.8800  XXZ=            -17.7534  XZZ=            -47.9765  YZZ=              1.1169
  YYZ=            -25.7790  XYZ=             43.5033
 Hexadecapole moment (field-independent basis, Debye-Ang**3):
 XXXX=         -56600.4457 YYYY=         -15765.6705 ZZZZ=          -5989.4684 XXXY=           5007.4801
 XXXZ=            613.8904 YYYX=           4126.8340 YYYZ=          -1962.1573 ZZZX=           1830.2810
 ZZZY=          -1883.7185 XXYY=         -12772.9249 XXZZ=         -11093.5787 YYZZ=          -3653.7750
 XXYZ=             18.8172 YYXZ=            351.6229 ZZXY=           1355.7022
 N-N= 7.445565919982D+03 E-N=-2.045165590253D+04  KE= 2.376384357342D+03
 Leave Link  601 at Sat Nov  5 11:44:05 2022, MaxMem=   402653184 cpu:               3.3 elap:               0.6
 (Enter /home/wykgroup/appl/g16/l9999.exe)
 Electronic transition elements 
                 1             2             3             4 
      1  -0.239937D+04 -0.239934D+04 -0.239933D+04 -0.239932D+04
      2   0.000000D+00  0.000000D+00 -0.339565D-01  0.514505D-01
      3   0.000000D+00  0.000000D+00  0.114681D+01 -0.330939D-01
      4   0.000000D+00  0.000000D+00  0.519566D+00  0.101475D+00
      5   0.000000D+00  0.000000D+00  0.127742D-01 -0.743851D-02
      6   0.000000D+00  0.000000D+00 -0.139614D+00  0.568445D-02
      7   0.000000D+00  0.000000D+00 -0.631438D-01 -0.119995D-01
      8   0.000000D+00  0.000000D+00 -0.114110D+00  0.340146D-01
      9   0.000000D+00  0.000000D+00 -0.861476D+00  0.169749D+00
     10   0.000000D+00  0.000000D+00  0.140282D+01 -0.199920D+00
     11   0.000000D+00  0.000000D+00 -0.845279D+00  0.128098D+00
     12   0.000000D+00  0.000000D+00 -0.220024D+00  0.788008D-01
     13   0.000000D+00  0.000000D+00 -0.879101D-01 -0.759407D-01
     14   0.000000D+00  0.000000D+00  0.130437D+01 -0.184515D+00
     15   0.000000D+00  0.000000D+00  0.448870D+00 -0.128342D+00
     16   0.000000D+00  0.000000D+00 -0.885451D-01  0.287533D-01
 1\1\GINC-NODE90\SP\RB3LYP TD-FC\6-31G(d)\C59H35N1O1\WYKGROUP\05-Nov-20
 22\0\\#p b3lyp/6-31g(d) 6D 10F nosymm GFInput td=(50-50,nstate=2) SCF=
 XQC\\Gaussian input prepared by ASE\\0,1\C,0,2.233650037,0.4179497867,
 3.8981322333\C,0,0.9274149496,0.7164218682,3.5170187069\C,0,0.50305088
 7,0.5045096979,2.1935828591\C,0,-0.8944506074,0.7880761011,1.781059410
 8\C,0,-1.6009935621,1.9096111836,2.3227665379\C,0,-2.8880279832,2.1825
 403872,1.9520482417\C,0,-3.5885111681,1.3632664625,1.0086335306\C,0,-4
 .9165078492,1.6385368508,0.6203452201\C,0,-5.646720103,2.8044135196,1.
 2182405385\C,0,-6.373053589,2.6313912604,2.3825901356\C,0,-7.076302361
 3,3.7030610644,2.9815834129\C,0,-7.0499342364,4.9531159592,2.409673749
 8\C,0,-6.3192494618,5.1852333518,1.2141428993\C,0,-6.2774768066,6.4687
 799281,0.6052359035\C,0,-5.565873727,6.6807705259,-0.5530611391\C,0,-4
 .8607237199,5.6119008535,-1.1565298156\C,0,-4.8799334272,4.3556740088,
 -0.5931008014\C,0,-5.6049173768,4.1001466899,0.6037034188\C,0,-5.56277
 89677,0.8037268448,-0.3188827483\C,0,-6.9081828516,1.0496215752,-0.744
 6689453\C,0,-7.5282538622,0.2370051106,-1.6560322761\C,0,-6.8413085163
 ,-0.8812634146,-2.2046220506\C,0,-5.5537303018,-1.154447566,-1.8272102
 701\C,0,-4.8635375096,-0.3332318785,-0.8771837519\C,0,-3.5351058592,-0
 .6095717019,-0.485084093\C,0,-2.8033201771,-1.7782063696,-1.0757478302
 \C,0,-2.0205624897,-1.5969607154,-2.2016045401\C,0,-1.3100291524,-2.67
 03309258,-2.7889451388\C,0,-1.3870665247,-3.9306416284,-2.2442275386\C
 ,0,-2.1762015692,-4.1712429146,-1.0880022573\C,0,-2.2700299161,-5.4650
 591415,-0.5077280166\C,0,-3.0362221329,-5.6849321483,0.6136287313\C,0,
 -3.745763935,-4.6136774205,1.2073435077\C,0,-3.6774449243,-3.347603383
 8,0.670471416\C,0,-2.8966953122,-3.084154103,-0.4888328377\C,0,-2.8880
 324874,0.2287549914,0.4508504645\C,0,-1.5449495615,-0.0186802321,0.873
 3728321\C,0,1.4331481605,0.0057582092,1.270889313\C,0,2.7548387501,-0.
 2803515561,1.6355163213\C,0,3.6681187226,-0.868535612,0.6081807742\N,0
 ,3.1359297653,-1.8198090359,-0.1172572078\C,0,3.8968346665,-2.48253122
 52,-1.0494267265\C,0,3.2512523014,-3.4948407365,-1.7961977502\C,0,3.95
 28866555,-4.2396271295,-2.7227223404\C,0,5.3247288431,-3.9926298102,-2
 .9227917805\C,0,5.976942421,-3.0022842219,-2.2093134059\C,0,5.27963887
 39,-2.2153045638,-1.2612061619\C,0,5.8578756163,-1.1247957121,-0.50346
 6954\C,0,5.037393686,-0.4111805748,0.4267253895\C,0,5.5393146622,0.734
 579469,1.1045098833\C,0,6.8360622011,1.1727677592,0.9403330388\C,0,7.6
 812715334,0.4584373075,0.0724543098\C,0,9.0600745338,0.6043147225,-0.3
 464549066\C,0,10.1096274367,1.4828706453,-0.0491835107\C,0,11.33633787
 07,1.2896730241,-0.6801387779\C,0,11.5253405639,0.2392773497,-1.595626
 9371\C,0,10.4936826773,-0.6476645564,-1.9065578193\C,0,9.2806689115,-0
 .4351010593,-1.2664218451\O,0,8.1482658342,-1.1962352683,-1.4385003047
 \C,0,7.1807595389,-0.6495937165,-0.6204553338\C,0,3.1473571847,-0.0778
 253938,2.967851334\H,0,2.5391827337,0.5565982086,4.931858135\H,0,0.221
 1295331,1.081911754,4.257145769\H,0,-1.0920622183,2.5691953706,3.01992
 40991\H,0,-3.3973363072,3.0443682075,2.3691276647\H,0,-6.402466716,1.6
 485822733,2.8452719142\H,0,-7.636489062,3.5291956882,3.8963354362\H,0,
 -7.587849193,5.7819473835,2.8640162867\H,0,-6.8219717414,7.2846189954,
 1.0752730357\H,0,-5.5428449096,7.6675836868,-1.0075909504\H,0,-4.30049
 50328,5.785881165,-2.0712795048\H,0,-4.3372993315,3.5403335275,-1.0603
 739772\H,0,-7.4355369553,1.9007125933,-0.3280764872\H,0,-8.5494604441,
 0.4456293284,-1.9635846065\H,0,-7.3426978687,-1.5198385001,-2.92698228
 61\H,0,-5.0325252288,-2.0063842202,-2.2496513737\H,0,-1.950874764,-0.6
 063082095,-2.6427244018\H,0,-0.7046297216,-2.4896462978,-3.6729088073\
 H,0,-0.8473158421,-4.7619842023,-2.6919452675\H,0,-1.7198944955,-6.282
 2434012,-0.9687062804\H,0,-3.0977333253,-6.6794641957,1.0472303881\H,0
 ,-4.3476457622,-4.7934162969,2.094109073\H,0,-4.2232277379,-2.53041072
 72,1.1307764933\H,0,-1.036318637,-0.8894145655,0.4758572759\H,0,1.1366
 795224,-0.1582891688,0.2407106649\H,0,2.1947582824,-3.6571921534,-1.60
 5795097\H,0,3.4522456949,-5.0178352674,-3.2925830076\H,0,5.8803808064,
 -4.5830707435,-3.6464055558\H,0,7.0294359314,-2.8244554629,-2.38227660
 3\H,0,4.8714400537,1.2884153804,1.7519444502\H,0,7.1932906449,2.055344
 2372,1.4626216373\H,0,9.9719713793,2.2964475772,0.6574345969\H,0,12.16
 2483549,1.9604394354,-0.4627538223\H,0,12.4935002105,0.1139187848,-2.0
 718536854\H,0,10.625033167,-1.4622850916,-2.6108787285\H,0,4.154567531
 2,-0.3327608852,3.2830362214\\Version=ES64L-G16RevB.01\HF=-2399.437032
 7\RMSD=3.930e-09\PG=C01 [X(C59H35N1O1)]\\@


 THEORY:  SUPPOSITION WHICH HAS SCIENTIFIC BASIS,
          BUT NOT EXPERIMENTALLY PROVEN.
 FACT:    A THEORY WHICH HAS BEEN PROVEN BY ENOUGH 
          MONEY TO PAY FOR THE EXPERIMENTS.

                          --  THE WIZARD OF ID
 Job cpu time:       0 days 11 hours 50 minutes 47.4 seconds.
 Elapsed time:       0 days  1 hours 41 minutes 22.7 seconds.
 File lengths (MBytes):  RWF=   5148 Int=      0 D2E=      0 Chk=    196 Scr=      1
 Normal termination of Gaussian 16 at Sat Nov  5 11:44:07 2022.
