 Entering Gaussian System, Link 0=/home/wykgroup/appl/g16/g16
 Input=./calculation/no_transfer_pubchem_sampling_8_b3lyp/130226310.com
 Output=./calculation/no_transfer_pubchem_sampling_8_b3lyp/130226310.log
 Initial command:
 /home/wykgroup/appl/g16/l1.exe "/userdata/scratch/wykgroup/khs/./calculation/no_transfer_pubchem_sampling_8_b3lyp/130226310/Gau-17722.inp" -scrdir="/userdata/scratch/wykgroup/khs/./calculation/no_transfer_pubchem_sampling_8_b3lyp/130226310/"
 Entering Link 1 = /home/wykgroup/appl/g16/l1.exe PID=     17723.
  
 Copyright (c) 1988-2017, Gaussian, Inc.  All Rights Reserved.
  
 This is part of the Gaussian(R) 16 program.  It is based on
 the Gaussian(R) 09 system (copyright 2009, Gaussian, Inc.),
 the Gaussian(R) 03 system (copyright 2003, Gaussian, Inc.),
 the Gaussian(R) 98 system (copyright 1998, Gaussian, Inc.),
 the Gaussian(R) 94 system (copyright 1995, Gaussian, Inc.),
 the Gaussian 92(TM) system (copyright 1992, Gaussian, Inc.),
 the Gaussian 90(TM) system (copyright 1990, Gaussian, Inc.),
 the Gaussian 88(TM) system (copyright 1988, Gaussian, Inc.),
 the Gaussian 86(TM) system (copyright 1986, Carnegie Mellon
 University), and the Gaussian 82(TM) system (copyright 1983,
 Carnegie Mellon University). Gaussian is a federally registered
 trademark of Gaussian, Inc.
  
 This software contains proprietary and confidential information,
 including trade secrets, belonging to Gaussian, Inc.
  
 This software is provided under written license and may be
 used, copied, transmitted, or stored only in accord with that
 written license.
  
 The following legend is applicable only to US Government
 contracts under FAR:
  
                    RESTRICTED RIGHTS LEGEND
  
 Use, reproduction and disclosure by the US Government is
 subject to restrictions as set forth in subparagraphs (a)
 and (c) of the Commercial Computer Software - Restricted
 Rights clause in FAR 52.227-19.
  
 Gaussian, Inc.
 340 Quinnipiac St., Bldg. 40, Wallingford CT 06492
  
  
 ---------------------------------------------------------------
 Warning -- This program may not be used in any manner that
 competes with the business of Gaussian, Inc. or will provide
 assistance to any competitor of Gaussian, Inc.  The licensee
 of this program is prohibited from giving any competitor of
 Gaussian, Inc. access to this program.  By using this program,
 the user acknowledges that Gaussian, Inc. is engaged in the
 business of creating and licensing software in the field of
 computational chemistry and represents and warrants to the
 licensee that it is not a competitor of Gaussian, Inc. and that
 it will not use this program in any manner prohibited above.
 ---------------------------------------------------------------
  

 Cite this work as:
 Gaussian 16, Revision B.01,
 M. J. Frisch, G. W. Trucks, H. B. Schlegel, G. E. Scuseria, 
 M. A. Robb, J. R. Cheeseman, G. Scalmani, V. Barone, 
 G. A. Petersson, H. Nakatsuji, X. Li, M. Caricato, A. V. Marenich, 
 J. Bloino, B. G. Janesko, R. Gomperts, B. Mennucci, H. P. Hratchian, 
 J. V. Ortiz, A. F. Izmaylov, J. L. Sonnenberg, D. Williams-Young, 
 F. Ding, F. Lipparini, F. Egidi, J. Goings, B. Peng, A. Petrone, 
 T. Henderson, D. Ranasinghe, V. G. Zakrzewski, J. Gao, N. Rega, 
 G. Zheng, W. Liang, M. Hada, M. Ehara, K. Toyota, R. Fukuda, 
 J. Hasegawa, M. Ishida, T. Nakajima, Y. Honda, O. Kitao, H. Nakai, 
 T. Vreven, K. Throssell, J. A. Montgomery, Jr., J. E. Peralta, 
 F. Ogliaro, M. J. Bearpark, J. J. Heyd, E. N. Brothers, K. N. Kudin, 
 V. N. Staroverov, T. A. Keith, R. Kobayashi, J. Normand, 
 K. Raghavachari, A. P. Rendell, J. C. Burant, S. S. Iyengar, 
 J. Tomasi, M. Cossi, J. M. Millam, M. Klene, C. Adamo, R. Cammi, 
 J. W. Ochterski, R. L. Martin, K. Morokuma, O. Farkas, 
 J. B. Foresman, and D. J. Fox, Gaussian, Inc., Wallingford CT, 2016.
 
 ******************************************
 Gaussian 16:  ES64L-G16RevB.01 20-Dec-2017
                 4-Nov-2022 
 ******************************************
 %chk=./calculation/no_transfer_pubchem_sampling_8_b3lyp/130226310.chk
 %nprocshared=7
 Will use up to    7 processors via shared memory.
 %mem=6GB
 -----------------------------
 #p b3lyp/6-31g(d) opt SCF=XQC
 -----------------------------
 1/18=20,19=15,26=3,38=1/1,3;
 2/9=110,12=2,17=6,18=5,40=1/2;
 3/5=1,6=6,7=1,11=2,25=1,30=1,71=1,74=-5/1,2,3;
 4//1;
 5/5=2,8=3,13=1,38=5/2,8;
 6/7=2,8=2,9=2,10=2,28=1/1;
 7//1,2,3,16;
 1/18=20,19=15,26=3/3(2);
 2/9=110/2;
 99//99;
 2/9=110/2;
 3/5=1,6=6,7=1,11=2,25=1,30=1,71=1,74=-5/1,2,3;
 4/5=5,16=3,69=1/1;
 5/5=2,8=3,13=1,38=5/2,8;
 7//1,2,3,16;
 1/18=20,19=15,26=3/3(-5);
 2/9=110/2;
 6/7=2,8=2,9=2,10=2,19=2,28=1/1;
 99/9=1/99;
 Leave Link    1 at Fri Nov  4 23:58:26 2022, MaxMem=   805306368 cpu:               0.8 elap:               0.1
 (Enter /home/wykgroup/appl/g16/l101.exe)
 ------------------------------
 Gaussian input prepared by ASE
 ------------------------------
 Symbolic Z-matrix:
 Charge =  0 Multiplicity = 1
 C                    -5.90303   2.65272   4.41195 
 C                    -5.85447   3.32221   3.03331 
 C                    -6.62617   4.64786   3.01968 
 C                    -6.46197   2.40612   1.99861 
 C                    -7.76049   1.96099   1.9189 
 C                    -8.1546    1.17996   0.83102 
 C                    -9.53229   0.68241   0.73044 
 C                    -9.79001  -0.61014   0.27753 
 C                    -11.08385  -1.08333   0.18861 
 C                    -12.16034  -0.27352   0.53858 
 C                    -13.54549  -0.77717   0.43733 
 C                    -13.99054  -1.77608   1.31489 
 C                    -13.15267  -2.30459   2.33214 
 C                    -13.58795  -3.28899   3.16449 
 C                    -14.89003  -3.81063   3.02883 
 C                    -15.73237  -3.31596   2.08166 
 C                    -15.3265  -2.27349   1.20725 
 C                    -16.19367  -1.74024   0.2435 
 C                    -17.57997  -2.24453   0.14192 
 C                    -18.51042  -1.95527   1.13514 
 C                    -19.80743  -2.42588   1.03805 
 C                    -20.18932  -3.19402  -0.04913 
 C                    -19.26857  -3.48844  -1.04079 
 C                    -17.97219  -3.01525  -0.94806 
 C                    -15.75319  -0.73147  -0.62456 
 C                    -16.61469  -0.15042  -1.59216 
 C                    -16.17033   0.81163  -2.44562 
 C                    -14.8323   1.25014  -2.388 
 C                    -13.98015   0.73428  -1.46116 
 C                    -14.40848  -0.25423  -0.53621 
 C                    -11.90705   1.02013   0.98491 
 C                    -10.61222   1.48863   1.08485 
 C                    -7.22791   0.90546  -0.17394 
 C                    -5.92135   1.34949  -0.09431 
 C                    -5.51655   2.06938   1.02025 
 C                    -4.24773   2.67585   1.38861 
 C                    -4.4323    3.46443   2.51999 
 C                    -3.40376   4.27827   3.05384 
 C                    -3.53149   5.08752   4.20316 
 C                    -2.506     5.88464   4.63519 
 C                    -1.28586   5.92297   3.94899 
 C                    -1.10975   5.14336   2.83982 
 C                    -2.14735   4.3118    2.38193 
 C                    -1.97914   3.45433   1.2783 
 O                    -0.80918   3.32954   0.59832 
 C                    -1.00586   2.34103  -0.30864 
 C                    -0.05534   1.86473  -1.19007 
 C                    -0.40343   0.80283  -2.01602 
 C                     0.56444   0.26064  -2.97896 
 C                     0.1477   -0.11716  -4.26821 
 C                     1.04643  -0.61741  -5.1676 
 C                     2.40474  -0.7784   -4.84281 
 C                     2.84722  -0.40092  -3.53595 
 C                     1.88998   0.11376  -2.64041 
 C                     4.21399  -0.55536  -3.1969 
 C                     5.12792  -1.06317  -4.10921 
 C                     4.68904  -1.4315   -5.38374 
 O                     5.46173  -1.94191  -6.37544 
 C                     4.62953  -2.15185  -7.42693 
 C                     4.99892  -2.66702  -8.65644 
 C                     4.00804  -2.81027  -9.60835 
 C                     2.6926   -2.44788  -9.3314 
 C                     2.32754  -1.93413  -8.10362 
 C                     3.30223  -1.77616  -7.1214 
 C                     3.35201  -1.29869  -5.76185 
 C                     6.44873  -1.11373  -3.52079 
 C                     7.66219  -1.53957  -4.03539 
 C                     8.77964  -1.47169  -3.22409 
 C                     8.70205  -0.98266  -1.91934 
 C                     9.90596  -0.91494  -1.08024 
 C                     10.83349  -1.95489  -1.07629 
 C                     11.96193  -1.8926   -0.28329 
 C                     12.20276  -0.78264   0.52107 
 C                     13.41397  -0.71274   1.3642 
 C                     13.54359  -1.56361   2.471 
 C                     12.52162  -2.48078   2.83216 
 C                     12.66714  -3.31652   3.89597 
 C                     13.84795  -3.2902    4.66473 
 C                     14.84209  -2.41064   4.3658 
 C                     14.7223  -1.50603   3.27793 
 C                     15.73013  -0.58008   2.97493 
 C                     16.94318  -0.51101   3.81799 
 C                     16.87513  -0.0032    5.11154 
 C                     18.01083   0.06299   5.89827 
 C                     19.22612  -0.38085   5.40439 
 C                     19.30181  -0.88966   4.11861 
 C                     18.16832  -0.95278   3.32845 
 C                     15.59442   0.28037   1.87669 
 C                     16.58394   1.24812   1.55978 
 C                     16.45294   2.06293   0.47801 
 C                     15.32425   1.95709  -0.35918 
 C                     14.34313   1.05713  -0.07853 
 C                     14.42846   0.20364   1.05301 
 C                     11.28135   0.2603    0.51552 
 C                     10.14718   0.19201  -0.26882 
 C                     7.47149  -0.55421  -1.41431 
 C                     6.35421  -0.62416  -2.21303 
 C                     4.92688  -0.2322   -1.89273 
 C                     4.42102  -1.08962  -0.72612 
 C                     4.87952   1.26277  -1.5551 
 C                    -1.67947   0.23479  -1.90412 
 C                    -2.62424   0.71658  -1.02516 
 C                    -2.31563   1.81805  -0.2303 
 C                    -2.96719   2.59332   0.79519 
 H                    -5.45313   3.27687   5.17795 
 H                    -5.36562   1.70706   4.38163 
 H                    -6.93577   2.45403   4.68985 
 H                    -7.66759   4.47174   3.27944 
 H                    -6.21319   5.36372   3.723 
 H                    -6.58773   5.08547   2.02411 
 H                    -8.47603   2.19961   2.69245 
 H                    -8.9648   -1.25566   0.01367 
 H                    -11.27091  -2.089    -0.16054 
 H                    -12.1547  -1.90522   2.43658 
 H                    -12.93832  -3.68086   3.93352 
 H                    -15.21359  -4.60406   3.68663 
 H                    -16.73078  -3.71477   1.97926 
 H                    -18.21034  -1.35399   1.98166 
 H                    -20.52277  -2.19229   1.81331 
 H                    -21.20182  -3.56273  -0.12311 
 H                    -19.56161  -4.08849  -1.89012 
 H                    -17.25109  -3.24544  -1.71955 
 H                    -17.63949  -0.48806  -1.63841 
 H                    -16.83821   1.24441  -3.17607 
 H                    -14.49119   2.00164  -3.08504 
 H                    -12.95485   1.07069  -1.41757 
 H                    -12.73679   1.65645   1.2587 
 H                    -10.43514   2.5008    1.41885 
 H                    -7.54807   0.35626  -1.04771 
 H                    -5.24809   1.16808  -0.91444 
 H                    -4.45201   5.08273   4.76213 
 H                    -2.6359    6.49393   5.51809 
 H                    -0.49078   6.56157   4.30391 
 H                    -0.17646   5.14186   2.29722 
 H                     0.92117   2.31997  -1.23555 
 H                    -0.88662   0.01331  -4.55004 
 H                     0.71039  -0.89326  -6.15294 
 H                     2.19381   0.38445  -1.64356 
 H                     6.02301  -2.94222  -8.85185 
 H                     4.25668  -3.20878  -10.58017 
 H                     1.941    -2.57251  -10.09681 
 H                     1.29923  -1.66484  -7.92459 
 H                     7.72911  -1.91194  -5.04604 
 H                     9.73923  -1.7819   -3.61155 
 H                     10.65521  -2.82944  -1.68504 
 H                     12.67221  -2.7073   -0.28573 
 H                     11.61646  -2.50145   2.24342 
 H                     11.88048  -4.00898   4.15804 
 H                     13.9538  -3.97246   5.49556 
 H                     15.74625  -2.38906   4.95608 
 H                     15.92569   0.34414   5.49373 
 H                     17.94743   0.46199   6.90032 
 H                     20.11211  -0.33041   6.0201 
 H                     20.24761  -1.23821   3.72966 
 H                     18.22407  -1.3511    2.32527 
 H                     17.44994   1.32766   2.20019 
 H                     17.21427   2.79457   0.24989 
 H                     15.24482   2.59958  -1.22398 
 H                     13.47851   0.97642  -0.7206 
 H                     11.4599   1.12645   1.13702 
 H                     9.44943   1.01701  -0.27208 
 H                     7.40892  -0.19427  -0.39736 
 H                     4.47594  -2.14329  -0.99183 
 H                     3.39238  -0.85478  -0.46977 
 H                     5.04241  -0.92217   0.1508 
 H                     5.51339   1.46615  -0.69489 
 H                     5.24464   1.84411  -2.39931 
 H                     3.87102   1.59077  -1.32352 
 H                    -1.91643  -0.62857  -2.50828 
 H                    -3.57222   0.21319  -0.93743 
 
 ITRead=  0  0  0  0  0  0  0  0  0  0  0  0  0  0  0  0  0  0  0  0
 ITRead=  0  0  0  0  0  0  0  0  0  0  0  0  0  0  0  0  0  0  0  0
 ITRead=  0  0  0  0  0  0  0  0  0  0  0  0  0  0  0  0  0  0  0  0
 ITRead=  0  0  0  0  0  0  0  0  0  0  0  0  0  0  0  0  0  0  0  0
 ITRead=  0  0  0  0  0  0  0  0  0  0  0  0  0  0  0  0  0  0  0  0
 ITRead=  0  0  0  0  0  0  0  0  0  0  0  0  0  0  0  0  0  0  0  0
 ITRead=  0  0  0  0  0  0  0  0  0  0  0  0  0  0  0  0  0  0  0  0
 ITRead=  0  0  0  0  0  0  0  0  0  0  0  0  0  0  0  0  0  0  0  0
 ITRead=  0  0  0  0  0  0  0  0  0  0
 MicOpt= -1 -1 -1 -1 -1 -1 -1 -1 -1 -1 -1 -1 -1 -1 -1 -1 -1 -1 -1 -1
 MicOpt= -1 -1 -1 -1 -1 -1 -1 -1 -1 -1 -1 -1 -1 -1 -1 -1 -1 -1 -1 -1
 MicOpt= -1 -1 -1 -1 -1 -1 -1 -1 -1 -1 -1 -1 -1 -1 -1 -1 -1 -1 -1 -1
 MicOpt= -1 -1 -1 -1 -1 -1 -1 -1 -1 -1 -1 -1 -1 -1 -1 -1 -1 -1 -1 -1
 MicOpt= -1 -1 -1 -1 -1 -1 -1 -1 -1 -1 -1 -1 -1 -1 -1 -1 -1 -1 -1 -1
 MicOpt= -1 -1 -1 -1 -1 -1 -1 -1 -1 -1 -1 -1 -1 -1 -1 -1 -1 -1 -1 -1
 MicOpt= -1 -1 -1 -1 -1 -1 -1 -1 -1 -1 -1 -1 -1 -1 -1 -1 -1 -1 -1 -1
 MicOpt= -1 -1 -1 -1 -1 -1 -1 -1 -1 -1 -1 -1 -1 -1 -1 -1 -1 -1 -1 -1
 MicOpt= -1 -1 -1 -1 -1 -1 -1 -1 -1 -1
 NAtoms=    170 NQM=      170 NQMF=       0 NMMI=      0 NMMIF=      0
                NMic=       0 NMicF=      0.
                    Isotopes and Nuclear Properties:
 (Nuclear quadrupole moments (NQMom) in fm**2, nuclear magnetic moments (NMagM)
  in nuclear magnetons)

  Atom         1           2           3           4           5           6           7           8           9          10
 IAtWgt=          12          12          12          12          12          12          12          12          12          12
 AtmWgt=  12.0000000  12.0000000  12.0000000  12.0000000  12.0000000  12.0000000  12.0000000  12.0000000  12.0000000  12.0000000
 NucSpn=           0           0           0           0           0           0           0           0           0           0
 AtZEff=  -0.0000000  -0.0000000  -0.0000000  -0.0000000  -0.0000000  -0.0000000  -0.0000000  -0.0000000  -0.0000000  -0.0000000
 NQMom=    0.0000000   0.0000000   0.0000000   0.0000000   0.0000000   0.0000000   0.0000000   0.0000000   0.0000000   0.0000000
 NMagM=    0.0000000   0.0000000   0.0000000   0.0000000   0.0000000   0.0000000   0.0000000   0.0000000   0.0000000   0.0000000
 AtZNuc=   6.0000000   6.0000000   6.0000000   6.0000000   6.0000000   6.0000000   6.0000000   6.0000000   6.0000000   6.0000000

  Atom        11          12          13          14          15          16          17          18          19          20
 IAtWgt=          12          12          12          12          12          12          12          12          12          12
 AtmWgt=  12.0000000  12.0000000  12.0000000  12.0000000  12.0000000  12.0000000  12.0000000  12.0000000  12.0000000  12.0000000
 NucSpn=           0           0           0           0           0           0           0           0           0           0
 AtZEff=  -0.0000000  -0.0000000  -0.0000000  -0.0000000  -0.0000000  -0.0000000  -0.0000000  -0.0000000  -0.0000000  -0.0000000
 NQMom=    0.0000000   0.0000000   0.0000000   0.0000000   0.0000000   0.0000000   0.0000000   0.0000000   0.0000000   0.0000000
 NMagM=    0.0000000   0.0000000   0.0000000   0.0000000   0.0000000   0.0000000   0.0000000   0.0000000   0.0000000   0.0000000
 AtZNuc=   6.0000000   6.0000000   6.0000000   6.0000000   6.0000000   6.0000000   6.0000000   6.0000000   6.0000000   6.0000000

  Atom        21          22          23          24          25          26          27          28          29          30
 IAtWgt=          12          12          12          12          12          12          12          12          12          12
 AtmWgt=  12.0000000  12.0000000  12.0000000  12.0000000  12.0000000  12.0000000  12.0000000  12.0000000  12.0000000  12.0000000
 NucSpn=           0           0           0           0           0           0           0           0           0           0
 AtZEff=  -0.0000000  -0.0000000  -0.0000000  -0.0000000  -0.0000000  -0.0000000  -0.0000000  -0.0000000  -0.0000000  -0.0000000
 NQMom=    0.0000000   0.0000000   0.0000000   0.0000000   0.0000000   0.0000000   0.0000000   0.0000000   0.0000000   0.0000000
 NMagM=    0.0000000   0.0000000   0.0000000   0.0000000   0.0000000   0.0000000   0.0000000   0.0000000   0.0000000   0.0000000
 AtZNuc=   6.0000000   6.0000000   6.0000000   6.0000000   6.0000000   6.0000000   6.0000000   6.0000000   6.0000000   6.0000000

  Atom        31          32          33          34          35          36          37          38          39          40
 IAtWgt=          12          12          12          12          12          12          12          12          12          12
 AtmWgt=  12.0000000  12.0000000  12.0000000  12.0000000  12.0000000  12.0000000  12.0000000  12.0000000  12.0000000  12.0000000
 NucSpn=           0           0           0           0           0           0           0           0           0           0
 AtZEff=  -0.0000000  -0.0000000  -0.0000000  -0.0000000  -0.0000000  -0.0000000  -0.0000000  -0.0000000  -0.0000000  -0.0000000
 NQMom=    0.0000000   0.0000000   0.0000000   0.0000000   0.0000000   0.0000000   0.0000000   0.0000000   0.0000000   0.0000000
 NMagM=    0.0000000   0.0000000   0.0000000   0.0000000   0.0000000   0.0000000   0.0000000   0.0000000   0.0000000   0.0000000
 AtZNuc=   6.0000000   6.0000000   6.0000000   6.0000000   6.0000000   6.0000000   6.0000000   6.0000000   6.0000000   6.0000000

  Atom        41          42          43          44          45          46          47          48          49          50
 IAtWgt=          12          12          12          12          16          12          12          12          12          12
 AtmWgt=  12.0000000  12.0000000  12.0000000  12.0000000  15.9949146  12.0000000  12.0000000  12.0000000  12.0000000  12.0000000
 NucSpn=           0           0           0           0           0           0           0           0           0           0
 AtZEff=  -0.0000000  -0.0000000  -0.0000000  -0.0000000  -0.0000000  -0.0000000  -0.0000000  -0.0000000  -0.0000000  -0.0000000
 NQMom=    0.0000000   0.0000000   0.0000000   0.0000000   0.0000000   0.0000000   0.0000000   0.0000000   0.0000000   0.0000000
 NMagM=    0.0000000   0.0000000   0.0000000   0.0000000   0.0000000   0.0000000   0.0000000   0.0000000   0.0000000   0.0000000
 AtZNuc=   6.0000000   6.0000000   6.0000000   6.0000000   8.0000000   6.0000000   6.0000000   6.0000000   6.0000000   6.0000000

  Atom        51          52          53          54          55          56          57          58          59          60
 IAtWgt=          12          12          12          12          12          12          12          16          12          12
 AtmWgt=  12.0000000  12.0000000  12.0000000  12.0000000  12.0000000  12.0000000  12.0000000  15.9949146  12.0000000  12.0000000
 NucSpn=           0           0           0           0           0           0           0           0           0           0
 AtZEff=  -0.0000000  -0.0000000  -0.0000000  -0.0000000  -0.0000000  -0.0000000  -0.0000000  -0.0000000  -0.0000000  -0.0000000
 NQMom=    0.0000000   0.0000000   0.0000000   0.0000000   0.0000000   0.0000000   0.0000000   0.0000000   0.0000000   0.0000000
 NMagM=    0.0000000   0.0000000   0.0000000   0.0000000   0.0000000   0.0000000   0.0000000   0.0000000   0.0000000   0.0000000
 AtZNuc=   6.0000000   6.0000000   6.0000000   6.0000000   6.0000000   6.0000000   6.0000000   8.0000000   6.0000000   6.0000000

  Atom        61          62          63          64          65          66          67          68          69          70
 IAtWgt=          12          12          12          12          12          12          12          12          12          12
 AtmWgt=  12.0000000  12.0000000  12.0000000  12.0000000  12.0000000  12.0000000  12.0000000  12.0000000  12.0000000  12.0000000
 NucSpn=           0           0           0           0           0           0           0           0           0           0
 AtZEff=  -0.0000000  -0.0000000  -0.0000000  -0.0000000  -0.0000000  -0.0000000  -0.0000000  -0.0000000  -0.0000000  -0.0000000
 NQMom=    0.0000000   0.0000000   0.0000000   0.0000000   0.0000000   0.0000000   0.0000000   0.0000000   0.0000000   0.0000000
 NMagM=    0.0000000   0.0000000   0.0000000   0.0000000   0.0000000   0.0000000   0.0000000   0.0000000   0.0000000   0.0000000
 AtZNuc=   6.0000000   6.0000000   6.0000000   6.0000000   6.0000000   6.0000000   6.0000000   6.0000000   6.0000000   6.0000000

  Atom        71          72          73          74          75          76          77          78          79          80
 IAtWgt=          12          12          12          12          12          12          12          12          12          12
 AtmWgt=  12.0000000  12.0000000  12.0000000  12.0000000  12.0000000  12.0000000  12.0000000  12.0000000  12.0000000  12.0000000
 NucSpn=           0           0           0           0           0           0           0           0           0           0
 AtZEff=  -0.0000000  -0.0000000  -0.0000000  -0.0000000  -0.0000000  -0.0000000  -0.0000000  -0.0000000  -0.0000000  -0.0000000
 NQMom=    0.0000000   0.0000000   0.0000000   0.0000000   0.0000000   0.0000000   0.0000000   0.0000000   0.0000000   0.0000000
 NMagM=    0.0000000   0.0000000   0.0000000   0.0000000   0.0000000   0.0000000   0.0000000   0.0000000   0.0000000   0.0000000
 AtZNuc=   6.0000000   6.0000000   6.0000000   6.0000000   6.0000000   6.0000000   6.0000000   6.0000000   6.0000000   6.0000000

  Atom        81          82          83          84          85          86          87          88          89          90
 IAtWgt=          12          12          12          12          12          12          12          12          12          12
 AtmWgt=  12.0000000  12.0000000  12.0000000  12.0000000  12.0000000  12.0000000  12.0000000  12.0000000  12.0000000  12.0000000
 NucSpn=           0           0           0           0           0           0           0           0           0           0
 AtZEff=  -0.0000000  -0.0000000  -0.0000000  -0.0000000  -0.0000000  -0.0000000  -0.0000000  -0.0000000  -0.0000000  -0.0000000
 NQMom=    0.0000000   0.0000000   0.0000000   0.0000000   0.0000000   0.0000000   0.0000000   0.0000000   0.0000000   0.0000000
 NMagM=    0.0000000   0.0000000   0.0000000   0.0000000   0.0000000   0.0000000   0.0000000   0.0000000   0.0000000   0.0000000
 AtZNuc=   6.0000000   6.0000000   6.0000000   6.0000000   6.0000000   6.0000000   6.0000000   6.0000000   6.0000000   6.0000000

  Atom        91          92          93          94          95          96          97          98          99         100
 IAtWgt=          12          12          12          12          12          12          12          12          12          12
 AtmWgt=  12.0000000  12.0000000  12.0000000  12.0000000  12.0000000  12.0000000  12.0000000  12.0000000  12.0000000  12.0000000
 NucSpn=           0           0           0           0           0           0           0           0           0           0
 AtZEff=  -0.0000000  -0.0000000  -0.0000000  -0.0000000  -0.0000000  -0.0000000  -0.0000000  -0.0000000  -0.0000000  -0.0000000
 NQMom=    0.0000000   0.0000000   0.0000000   0.0000000   0.0000000   0.0000000   0.0000000   0.0000000   0.0000000   0.0000000
 NMagM=    0.0000000   0.0000000   0.0000000   0.0000000   0.0000000   0.0000000   0.0000000   0.0000000   0.0000000   0.0000000
 AtZNuc=   6.0000000   6.0000000   6.0000000   6.0000000   6.0000000   6.0000000   6.0000000   6.0000000   6.0000000   6.0000000

  Atom       101         102         103         104         105         106         107         108         109         110
 IAtWgt=          12          12          12          12           1           1           1           1           1           1
 AtmWgt=  12.0000000  12.0000000  12.0000000  12.0000000   1.0078250   1.0078250   1.0078250   1.0078250   1.0078250   1.0078250
 NucSpn=           0           0           0           0           1           1           1           1           1           1
 AtZEff=  -0.0000000  -0.0000000  -0.0000000  -0.0000000  -0.0000000  -0.0000000  -0.0000000  -0.0000000  -0.0000000  -0.0000000
 NQMom=    0.0000000   0.0000000   0.0000000   0.0000000   0.0000000   0.0000000   0.0000000   0.0000000   0.0000000   0.0000000
 NMagM=    0.0000000   0.0000000   0.0000000   0.0000000   2.7928460   2.7928460   2.7928460   2.7928460   2.7928460   2.7928460
 AtZNuc=   6.0000000   6.0000000   6.0000000   6.0000000   1.0000000   1.0000000   1.0000000   1.0000000   1.0000000   1.0000000

  Atom       111         112         113         114         115         116         117         118         119         120
 IAtWgt=           1           1           1           1           1           1           1           1           1           1
 AtmWgt=   1.0078250   1.0078250   1.0078250   1.0078250   1.0078250   1.0078250   1.0078250   1.0078250   1.0078250   1.0078250
 NucSpn=           1           1           1           1           1           1           1           1           1           1
 AtZEff=  -0.0000000  -0.0000000  -0.0000000  -0.0000000  -0.0000000  -0.0000000  -0.0000000  -0.0000000  -0.0000000  -0.0000000
 NQMom=    0.0000000   0.0000000   0.0000000   0.0000000   0.0000000   0.0000000   0.0000000   0.0000000   0.0000000   0.0000000
 NMagM=    2.7928460   2.7928460   2.7928460   2.7928460   2.7928460   2.7928460   2.7928460   2.7928460   2.7928460   2.7928460
 AtZNuc=   1.0000000   1.0000000   1.0000000   1.0000000   1.0000000   1.0000000   1.0000000   1.0000000   1.0000000   1.0000000

  Atom       121         122         123         124         125         126         127         128         129         130
 IAtWgt=           1           1           1           1           1           1           1           1           1           1
 AtmWgt=   1.0078250   1.0078250   1.0078250   1.0078250   1.0078250   1.0078250   1.0078250   1.0078250   1.0078250   1.0078250
 NucSpn=           1           1           1           1           1           1           1           1           1           1
 AtZEff=  -0.0000000  -0.0000000  -0.0000000  -0.0000000  -0.0000000  -0.0000000  -0.0000000  -0.0000000  -0.0000000  -0.0000000
 NQMom=    0.0000000   0.0000000   0.0000000   0.0000000   0.0000000   0.0000000   0.0000000   0.0000000   0.0000000   0.0000000
 NMagM=    2.7928460   2.7928460   2.7928460   2.7928460   2.7928460   2.7928460   2.7928460   2.7928460   2.7928460   2.7928460
 AtZNuc=   1.0000000   1.0000000   1.0000000   1.0000000   1.0000000   1.0000000   1.0000000   1.0000000   1.0000000   1.0000000

  Atom       131         132         133         134         135         136         137         138         139         140
 IAtWgt=           1           1           1           1           1           1           1           1           1           1
 AtmWgt=   1.0078250   1.0078250   1.0078250   1.0078250   1.0078250   1.0078250   1.0078250   1.0078250   1.0078250   1.0078250
 NucSpn=           1           1           1           1           1           1           1           1           1           1
 AtZEff=  -0.0000000  -0.0000000  -0.0000000  -0.0000000  -0.0000000  -0.0000000  -0.0000000  -0.0000000  -0.0000000  -0.0000000
 NQMom=    0.0000000   0.0000000   0.0000000   0.0000000   0.0000000   0.0000000   0.0000000   0.0000000   0.0000000   0.0000000
 NMagM=    2.7928460   2.7928460   2.7928460   2.7928460   2.7928460   2.7928460   2.7928460   2.7928460   2.7928460   2.7928460
 AtZNuc=   1.0000000   1.0000000   1.0000000   1.0000000   1.0000000   1.0000000   1.0000000   1.0000000   1.0000000   1.0000000

  Atom       141         142         143         144         145         146         147         148         149         150
 IAtWgt=           1           1           1           1           1           1           1           1           1           1
 AtmWgt=   1.0078250   1.0078250   1.0078250   1.0078250   1.0078250   1.0078250   1.0078250   1.0078250   1.0078250   1.0078250
 NucSpn=           1           1           1           1           1           1           1           1           1           1
 AtZEff=  -0.0000000  -0.0000000  -0.0000000  -0.0000000  -0.0000000  -0.0000000  -0.0000000  -0.0000000  -0.0000000  -0.0000000
 NQMom=    0.0000000   0.0000000   0.0000000   0.0000000   0.0000000   0.0000000   0.0000000   0.0000000   0.0000000   0.0000000
 NMagM=    2.7928460   2.7928460   2.7928460   2.7928460   2.7928460   2.7928460   2.7928460   2.7928460   2.7928460   2.7928460
 AtZNuc=   1.0000000   1.0000000   1.0000000   1.0000000   1.0000000   1.0000000   1.0000000   1.0000000   1.0000000   1.0000000

  Atom       151         152         153         154         155         156         157         158         159         160
 IAtWgt=           1           1           1           1           1           1           1           1           1           1
 AtmWgt=   1.0078250   1.0078250   1.0078250   1.0078250   1.0078250   1.0078250   1.0078250   1.0078250   1.0078250   1.0078250
 NucSpn=           1           1           1           1           1           1           1           1           1           1
 AtZEff=  -0.0000000  -0.0000000  -0.0000000  -0.0000000  -0.0000000  -0.0000000  -0.0000000  -0.0000000  -0.0000000  -0.0000000
 NQMom=    0.0000000   0.0000000   0.0000000   0.0000000   0.0000000   0.0000000   0.0000000   0.0000000   0.0000000   0.0000000
 NMagM=    2.7928460   2.7928460   2.7928460   2.7928460   2.7928460   2.7928460   2.7928460   2.7928460   2.7928460   2.7928460
 AtZNuc=   1.0000000   1.0000000   1.0000000   1.0000000   1.0000000   1.0000000   1.0000000   1.0000000   1.0000000   1.0000000

  Atom       161         162         163         164         165         166         167         168         169         170
 IAtWgt=           1           1           1           1           1           1           1           1           1           1
 AtmWgt=   1.0078250   1.0078250   1.0078250   1.0078250   1.0078250   1.0078250   1.0078250   1.0078250   1.0078250   1.0078250
 NucSpn=           1           1           1           1           1           1           1           1           1           1
 AtZEff=  -0.0000000  -0.0000000  -0.0000000  -0.0000000  -0.0000000  -0.0000000  -0.0000000  -0.0000000  -0.0000000  -0.0000000
 NQMom=    0.0000000   0.0000000   0.0000000   0.0000000   0.0000000   0.0000000   0.0000000   0.0000000   0.0000000   0.0000000
 NMagM=    2.7928460   2.7928460   2.7928460   2.7928460   2.7928460   2.7928460   2.7928460   2.7928460   2.7928460   2.7928460
 AtZNuc=   1.0000000   1.0000000   1.0000000   1.0000000   1.0000000   1.0000000   1.0000000   1.0000000   1.0000000   1.0000000
 Leave Link  101 at Fri Nov  4 23:58:26 2022, MaxMem=   805306368 cpu:               1.8 elap:               0.3
 (Enter /home/wykgroup/appl/g16/l103.exe)

 GradGradGradGradGradGradGradGradGradGradGradGradGradGradGradGradGradGrad
 Berny optimization.
 Initialization pass.
                           ----------------------------
                           !    Initial Parameters    !
                           ! (Angstroms and Degrees)  !
 --------------------------                            --------------------------
 ! Name  Definition              Value          Derivative Info.                !
 --------------------------------------------------------------------------------
 ! R1    R(1,2)                  1.5334         estimate D2E/DX2                !
 ! R2    R(1,105)                1.0857         estimate D2E/DX2                !
 ! R3    R(1,106)                1.0881         estimate D2E/DX2                !
 ! R4    R(1,107)                1.0878         estimate D2E/DX2                !
 ! R5    R(2,3)                  1.534          estimate D2E/DX2                !
 ! R6    R(2,4)                  1.5096         estimate D2E/DX2                !
 ! R7    R(2,37)                 1.5186         estimate D2E/DX2                !
 ! R8    R(3,108)                1.0877         estimate D2E/DX2                !
 ! R9    R(3,109)                1.0852         estimate D2E/DX2                !
 ! R10   R(3,110)                1.0882         estimate D2E/DX2                !
 ! R11   R(4,5)                  1.375          estimate D2E/DX2                !
 ! R12   R(4,35)                 1.4016         estimate D2E/DX2                !
 ! R13   R(5,6)                  1.396          estimate D2E/DX2                !
 ! R14   R(5,111)                1.0804         estimate D2E/DX2                !
 ! R15   R(6,7)                  1.4682         estimate D2E/DX2                !
 ! R16   R(6,33)                 1.3943         estimate D2E/DX2                !
 ! R17   R(7,8)                  1.3936         estimate D2E/DX2                !
 ! R18   R(7,32)                 1.3935         estimate D2E/DX2                !
 ! R19   R(8,9)                  1.3805         estimate D2E/DX2                !
 ! R20   R(8,112)                1.0804         estimate D2E/DX2                !
 ! R21   R(9,10)                 1.3918         estimate D2E/DX2                !
 ! R22   R(9,113)                1.0809         estimate D2E/DX2                !
 ! R23   R(10,11)                1.4773         estimate D2E/DX2                !
 ! R24   R(10,31)                1.3917         estimate D2E/DX2                !
 ! R25   R(11,12)                1.4021         estimate D2E/DX2                !
 ! R26   R(11,30)                1.4021         estimate D2E/DX2                !
 ! R27   R(12,13)                1.4199         estimate D2E/DX2                !
 ! R28   R(12,17)                1.4296         estimate D2E/DX2                !
 ! R29   R(13,14)                1.3606         estimate D2E/DX2                !
 ! R30   R(13,114)               1.08           estimate D2E/DX2                !
 ! R31   R(14,15)                1.4092         estimate D2E/DX2                !
 ! R32   R(14,115)               1.0803         estimate D2E/DX2                !
 ! R33   R(15,16)                1.3607         estimate D2E/DX2                !
 ! R34   R(15,116)               1.0802         estimate D2E/DX2                !
 ! R35   R(16,17)                1.4199         estimate D2E/DX2                !
 ! R36   R(16,117)               1.08           estimate D2E/DX2                !
 ! R37   R(17,18)                1.4018         estimate D2E/DX2                !
 ! R38   R(18,19)                1.4787         estimate D2E/DX2                !
 ! R39   R(18,25)                1.4018         estimate D2E/DX2                !
 ! R40   R(19,20)                1.3914         estimate D2E/DX2                !
 ! R41   R(19,24)                1.3914         estimate D2E/DX2                !
 ! R42   R(20,21)                1.3831         estimate D2E/DX2                !
 ! R43   R(20,118)               1.0808         estimate D2E/DX2                !
 ! R44   R(21,22)                1.3849         estimate D2E/DX2                !
 ! R45   R(21,119)               1.0804         estimate D2E/DX2                !
 ! R46   R(22,23)                1.3849         estimate D2E/DX2                !
 ! R47   R(22,120)               1.0801         estimate D2E/DX2                !
 ! R48   R(23,24)                1.3832         estimate D2E/DX2                !
 ! R49   R(23,121)               1.0804         estimate D2E/DX2                !
 ! R50   R(24,122)               1.0808         estimate D2E/DX2                !
 ! R51   R(25,26)                1.4199         estimate D2E/DX2                !
 ! R52   R(25,30)                1.4296         estimate D2E/DX2                !
 ! R53   R(26,27)                1.3607         estimate D2E/DX2                !
 ! R54   R(26,123)               1.08           estimate D2E/DX2                !
 ! R55   R(27,28)                1.4092         estimate D2E/DX2                !
 ! R56   R(27,124)               1.0802         estimate D2E/DX2                !
 ! R57   R(28,29)                1.3606         estimate D2E/DX2                !
 ! R58   R(28,125)               1.0803         estimate D2E/DX2                !
 ! R59   R(29,30)                1.4199         estimate D2E/DX2                !
 ! R60   R(29,126)               1.08           estimate D2E/DX2                !
 ! R61   R(31,32)                1.3806         estimate D2E/DX2                !
 ! R62   R(31,127)               1.0809         estimate D2E/DX2                !
 ! R63   R(32,128)               1.0805         estimate D2E/DX2                !
 ! R64   R(33,34)                1.3823         estimate D2E/DX2                !
 ! R65   R(33,129)               1.0805         estimate D2E/DX2                !
 ! R66   R(34,35)                1.3872         estimate D2E/DX2                !
 ! R67   R(34,130)               1.0765         estimate D2E/DX2                !
 ! R68   R(35,36)                1.4538         estimate D2E/DX2                !
 ! R69   R(36,37)                1.3914         estimate D2E/DX2                !
 ! R70   R(36,104)               1.4138         estimate D2E/DX2                !
 ! R71   R(37,38)                1.4161         estimate D2E/DX2                !
 ! R72   R(38,39)                1.4114         estimate D2E/DX2                !
 ! R73   R(38,43)                1.4252         estimate D2E/DX2                !
 ! R74   R(39,40)                1.3688         estimate D2E/DX2                !
 ! R75   R(39,131)               1.0769         estimate D2E/DX2                !
 ! R76   R(40,41)                1.4004         estimate D2E/DX2                !
 ! R77   R(40,132)               1.0806         estimate D2E/DX2                !
 ! R78   R(41,42)                1.3671         estimate D2E/DX2                !
 ! R79   R(41,133)               1.0798         estimate D2E/DX2                !
 ! R80   R(42,43)                1.4063         estimate D2E/DX2                !
 ! R81   R(42,134)               1.0796         estimate D2E/DX2                !
 ! R82   R(43,44)                1.4077         estimate D2E/DX2                !
 ! R83   R(44,45)                1.359          estimate D2E/DX2                !
 ! R84   R(44,104)               1.3968         estimate D2E/DX2                !
 ! R85   R(45,46)                1.3559         estimate D2E/DX2                !
 ! R86   R(46,47)                1.381          estimate D2E/DX2                !
 ! R87   R(46,103)               1.4125         estimate D2E/DX2                !
 ! R88   R(47,48)                1.3896         estimate D2E/DX2                !
 ! R89   R(47,135)               1.0784         estimate D2E/DX2                !
 ! R90   R(48,49)                1.469          estimate D2E/DX2                !
 ! R91   R(48,101)               1.4012         estimate D2E/DX2                !
 ! R92   R(49,50)                1.4066         estimate D2E/DX2                !
 ! R93   R(49,54)                1.376          estimate D2E/DX2                !
 ! R94   R(50,51)                1.3663         estimate D2E/DX2                !
 ! R95   R(50,136)               1.0799         estimate D2E/DX2                !
 ! R96   R(51,52)                1.4058         estimate D2E/DX2                !
 ! R97   R(51,137)               1.077          estimate D2E/DX2                !
 ! R98   R(52,53)                1.4304         estimate D2E/DX2                !
 ! R99   R(52,65)                1.4187         estimate D2E/DX2                !
 ! R100  R(53,54)                1.4083         estimate D2E/DX2                !
 ! R101  R(53,55)                1.4166         estimate D2E/DX2                !
 ! R102  R(54,138)               1.0767         estimate D2E/DX2                !
 ! R103  R(55,56)                1.3876         estimate D2E/DX2                !
 ! R104  R(55,98)                1.521          estimate D2E/DX2                !
 ! R105  R(56,57)                1.3974         estimate D2E/DX2                !
 ! R106  R(56,66)                1.4468         estimate D2E/DX2                !
 ! R107  R(57,58)                1.3569         estimate D2E/DX2                !
 ! R108  R(57,65)                1.3958         estimate D2E/DX2                !
 ! R109  R(58,59)                1.3573         estimate D2E/DX2                !
 ! R110  R(59,60)                1.3833         estimate D2E/DX2                !
 ! R111  R(59,64)                1.4129         estimate D2E/DX2                !
 ! R112  R(60,61)                1.3815         estimate D2E/DX2                !
 ! R113  R(60,139)               1.0783         estimate D2E/DX2                !
 ! R114  R(61,62)                1.3923         estimate D2E/DX2                !
 ! R115  R(61,140)               1.0794         estimate D2E/DX2                !
 ! R116  R(62,63)                1.3801         estimate D2E/DX2                !
 ! R117  R(62,141)               1.08           estimate D2E/DX2                !
 ! R118  R(63,64)                1.3927         estimate D2E/DX2                !
 ! R119  R(63,142)               1.078          estimate D2E/DX2                !
 ! R120  R(64,65)                1.4418         estimate D2E/DX2                !
 ! R121  R(66,67)                1.3851         estimate D2E/DX2                !
 ! R122  R(66,97)                1.3996         estimate D2E/DX2                !
 ! R123  R(67,68)                1.3826         estimate D2E/DX2                !
 ! R124  R(67,143)               1.0791         estimate D2E/DX2                !
 ! R125  R(68,69)                1.3955         estimate D2E/DX2                !
 ! R126  R(68,144)               1.0804         estimate D2E/DX2                !
 ! R127  R(69,70)                1.469          estimate D2E/DX2                !
 ! R128  R(69,96)                1.3975         estimate D2E/DX2                !
 ! R129  R(70,71)                1.3935         estimate D2E/DX2                !
 ! R130  R(70,95)                1.3935         estimate D2E/DX2                !
 ! R131  R(71,72)                1.3806         estimate D2E/DX2                !
 ! R132  R(71,145)               1.0804         estimate D2E/DX2                !
 ! R133  R(72,73)                1.3918         estimate D2E/DX2                !
 ! R134  R(72,146)               1.0809         estimate D2E/DX2                !
 ! R135  R(73,74)                1.4774         estimate D2E/DX2                !
 ! R136  R(73,94)                1.3917         estimate D2E/DX2                !
 ! R137  R(74,75)                1.4021         estimate D2E/DX2                !
 ! R138  R(74,93)                1.4021         estimate D2E/DX2                !
 ! R139  R(75,76)                1.4199         estimate D2E/DX2                !
 ! R140  R(75,80)                1.4296         estimate D2E/DX2                !
 ! R141  R(76,77)                1.3606         estimate D2E/DX2                !
 ! R142  R(76,147)               1.08           estimate D2E/DX2                !
 ! R143  R(77,78)                1.4093         estimate D2E/DX2                !
 ! R144  R(77,148)               1.0803         estimate D2E/DX2                !
 ! R145  R(78,79)                1.3606         estimate D2E/DX2                !
 ! R146  R(78,149)               1.0803         estimate D2E/DX2                !
 ! R147  R(79,80)                1.4199         estimate D2E/DX2                !
 ! R148  R(79,150)               1.08           estimate D2E/DX2                !
 ! R149  R(80,81)                1.4018         estimate D2E/DX2                !
 ! R150  R(81,82)                1.4788         estimate D2E/DX2                !
 ! R151  R(81,88)                1.4018         estimate D2E/DX2                !
 ! R152  R(82,83)                1.3913         estimate D2E/DX2                !
 ! R153  R(82,87)                1.3913         estimate D2E/DX2                !
 ! R154  R(83,84)                1.3832         estimate D2E/DX2                !
 ! R155  R(83,151)               1.0808         estimate D2E/DX2                !
 ! R156  R(84,85)                1.3849         estimate D2E/DX2                !
 ! R157  R(84,152)               1.0804         estimate D2E/DX2                !
 ! R158  R(85,86)                1.3849         estimate D2E/DX2                !
 ! R159  R(85,153)               1.0801         estimate D2E/DX2                !
 ! R160  R(86,87)                1.3832         estimate D2E/DX2                !
 ! R161  R(86,154)               1.0804         estimate D2E/DX2                !
 ! R162  R(87,155)               1.0808         estimate D2E/DX2                !
 ! R163  R(88,89)                1.4199         estimate D2E/DX2                !
 ! R164  R(88,93)                1.4296         estimate D2E/DX2                !
 ! R165  R(89,90)                1.3606         estimate D2E/DX2                !
 ! R166  R(89,156)               1.08           estimate D2E/DX2                !
 ! R167  R(90,91)                1.4093         estimate D2E/DX2                !
 ! R168  R(90,157)               1.0803         estimate D2E/DX2                !
 ! R169  R(91,92)                1.3606         estimate D2E/DX2                !
 ! R170  R(91,158)               1.0803         estimate D2E/DX2                !
 ! R171  R(92,93)                1.4199         estimate D2E/DX2                !
 ! R172  R(92,159)               1.08           estimate D2E/DX2                !
 ! R173  R(94,95)                1.3806         estimate D2E/DX2                !
 ! R174  R(94,160)               1.0809         estimate D2E/DX2                !
 ! R175  R(95,161)               1.0805         estimate D2E/DX2                !
 ! R176  R(96,97)                1.3752         estimate D2E/DX2                !
 ! R177  R(96,162)               1.0806         estimate D2E/DX2                !
 ! R178  R(97,98)                1.5144         estimate D2E/DX2                !
 ! R179  R(98,99)                1.5336         estimate D2E/DX2                !
 ! R180  R(98,100)               1.5333         estimate D2E/DX2                !
 ! R181  R(99,163)               1.088          estimate D2E/DX2                !
 ! R182  R(99,164)               1.0858         estimate D2E/DX2                !
 ! R183  R(99,165)               1.0877         estimate D2E/DX2                !
 ! R184  R(100,166)              1.0877         estimate D2E/DX2                !
 ! R185  R(100,167)              1.0881         estimate D2E/DX2                !
 ! R186  R(100,168)              1.0855         estimate D2E/DX2                !
 ! R187  R(101,102)              1.3774         estimate D2E/DX2                !
 ! R188  R(101,169)              1.0801         estimate D2E/DX2                !
 ! R189  R(102,103)              1.3929         estimate D2E/DX2                !
 ! R190  R(102,170)              1.0769         estimate D2E/DX2                !
 ! R191  R(103,104)              1.4412         estimate D2E/DX2                !
 ! A1    A(2,1,105)            111.7288         estimate D2E/DX2                !
 ! A2    A(2,1,106)            109.8017         estimate D2E/DX2                !
 ! A3    A(2,1,107)            109.8473         estimate D2E/DX2                !
 ! A4    A(105,1,106)          108.3379         estimate D2E/DX2                !
 ! A5    A(105,1,107)          108.5524         estimate D2E/DX2                !
 ! A6    A(106,1,107)          108.4986         estimate D2E/DX2                !
 ! A7    A(1,2,3)              111.6775         estimate D2E/DX2                !
 ! A8    A(1,2,4)              109.7884         estimate D2E/DX2                !
 ! A9    A(1,2,37)             111.9902         estimate D2E/DX2                !
 ! A10   A(3,2,4)              108.4147         estimate D2E/DX2                !
 ! A11   A(3,2,37)             112.779          estimate D2E/DX2                !
 ! A12   A(4,2,37)             101.6547         estimate D2E/DX2                !
 ! A13   A(2,3,108)            109.854          estimate D2E/DX2                !
 ! A14   A(2,3,109)            111.8925         estimate D2E/DX2                !
 ! A15   A(2,3,110)            109.7487         estimate D2E/DX2                !
 ! A16   A(108,3,109)          108.4451         estimate D2E/DX2                !
 ! A17   A(108,3,110)          108.5077         estimate D2E/DX2                !
 ! A18   A(109,3,110)          108.314          estimate D2E/DX2                !
 ! A19   A(2,4,5)              128.0409         estimate D2E/DX2                !
 ! A20   A(2,4,35)             110.6585         estimate D2E/DX2                !
 ! A21   A(5,4,35)             121.2502         estimate D2E/DX2                !
 ! A22   A(4,5,6)              119.5313         estimate D2E/DX2                !
 ! A23   A(4,5,111)            120.8265         estimate D2E/DX2                !
 ! A24   A(6,5,111)            119.6391         estimate D2E/DX2                !
 ! A25   A(5,6,7)              120.5229         estimate D2E/DX2                !
 ! A26   A(5,6,33)             118.9602         estimate D2E/DX2                !
 ! A27   A(7,6,33)             120.5006         estimate D2E/DX2                !
 ! A28   A(6,7,8)              120.6692         estimate D2E/DX2                !
 ! A29   A(6,7,32)             120.9105         estimate D2E/DX2                !
 ! A30   A(8,7,32)             118.4203         estimate D2E/DX2                !
 ! A31   A(7,8,9)              120.8064         estimate D2E/DX2                !
 ! A32   A(7,8,112)            119.4895         estimate D2E/DX2                !
 ! A33   A(9,8,112)            119.6906         estimate D2E/DX2                !
 ! A34   A(8,9,10)             120.6149         estimate D2E/DX2                !
 ! A35   A(8,9,113)            120.1265         estimate D2E/DX2                !
 ! A36   A(10,9,113)           119.2576         estimate D2E/DX2                !
 ! A37   A(9,10,11)            120.6368         estimate D2E/DX2                !
 ! A38   A(9,10,31)            118.7318         estimate D2E/DX2                !
 ! A39   A(11,10,31)           120.6314         estimate D2E/DX2                !
 ! A40   A(10,11,12)           119.8397         estimate D2E/DX2                !
 ! A41   A(10,11,30)           119.8353         estimate D2E/DX2                !
 ! A42   A(12,11,30)           120.325          estimate D2E/DX2                !
 ! A43   A(11,12,13)           121.7535         estimate D2E/DX2                !
 ! A44   A(11,12,17)           119.8256         estimate D2E/DX2                !
 ! A45   A(13,12,17)           118.4155         estimate D2E/DX2                !
 ! A46   A(12,13,14)           121.2503         estimate D2E/DX2                !
 ! A47   A(12,13,114)          118.4841         estimate D2E/DX2                !
 ! A48   A(14,13,114)          120.2653         estimate D2E/DX2                !
 ! A49   A(13,14,15)           120.2987         estimate D2E/DX2                !
 ! A50   A(13,14,115)          120.3679         estimate D2E/DX2                !
 ! A51   A(15,14,115)          119.3331         estimate D2E/DX2                !
 ! A52   A(14,15,16)           120.294          estimate D2E/DX2                !
 ! A53   A(14,15,116)          119.3417         estimate D2E/DX2                !
 ! A54   A(16,15,116)          120.3639         estimate D2E/DX2                !
 ! A55   A(15,16,17)           121.242          estimate D2E/DX2                !
 ! A56   A(15,16,117)          120.2691         estimate D2E/DX2                !
 ! A57   A(17,16,117)          118.4888         estimate D2E/DX2                !
 ! A58   A(12,17,16)           118.4378         estimate D2E/DX2                !
 ! A59   A(12,17,18)           119.8335         estimate D2E/DX2                !
 ! A60   A(16,17,18)           121.7247         estimate D2E/DX2                !
 ! A61   A(17,18,19)           119.8315         estimate D2E/DX2                !
 ! A62   A(17,18,25)           120.3363         estimate D2E/DX2                !
 ! A63   A(19,18,25)           119.8323         estimate D2E/DX2                !
 ! A64   A(18,19,20)           120.4656         estimate D2E/DX2                !
 ! A65   A(18,19,24)           120.4652         estimate D2E/DX2                !
 ! A66   A(20,19,24)           119.0691         estimate D2E/DX2                !
 ! A67   A(19,20,21)           120.4138         estimate D2E/DX2                !
 ! A68   A(19,20,118)          119.2803         estimate D2E/DX2                !
 ! A69   A(21,20,118)          120.3051         estimate D2E/DX2                !
 ! A70   A(20,21,22)           120.1595         estimate D2E/DX2                !
 ! A71   A(20,21,119)          119.7971         estimate D2E/DX2                !
 ! A72   A(22,21,119)          120.0434         estimate D2E/DX2                !
 ! A73   A(21,22,23)           119.7838         estimate D2E/DX2                !
 ! A74   A(21,22,120)          120.1078         estimate D2E/DX2                !
 ! A75   A(23,22,120)          120.1084         estimate D2E/DX2                !
 ! A76   A(22,23,24)           120.1598         estimate D2E/DX2                !
 ! A77   A(22,23,121)          120.0436         estimate D2E/DX2                !
 ! A78   A(24,23,121)          119.7966         estimate D2E/DX2                !
 ! A79   A(19,24,23)           120.4134         estimate D2E/DX2                !
 ! A80   A(19,24,122)          119.2801         estimate D2E/DX2                !
 ! A81   A(23,24,122)          120.3055         estimate D2E/DX2                !
 ! A82   A(18,25,26)           121.7235         estimate D2E/DX2                !
 ! A83   A(18,25,30)           119.8347         estimate D2E/DX2                !
 ! A84   A(26,25,30)           118.4384         estimate D2E/DX2                !
 ! A85   A(25,26,27)           121.2412         estimate D2E/DX2                !
 ! A86   A(25,26,123)          118.4886         estimate D2E/DX2                !
 ! A87   A(27,26,123)          120.2702         estimate D2E/DX2                !
 ! A88   A(26,27,28)           120.2943         estimate D2E/DX2                !
 ! A89   A(26,27,124)          120.3637         estimate D2E/DX2                !
 ! A90   A(28,27,124)          119.3416         estimate D2E/DX2                !
 ! A91   A(27,28,29)           120.2997         estimate D2E/DX2                !
 ! A92   A(27,28,125)          119.3341         estimate D2E/DX2                !
 ! A93   A(29,28,125)          120.3659         estimate D2E/DX2                !
 ! A94   A(28,29,30)           121.2488         estimate D2E/DX2                !
 ! A95   A(28,29,126)          120.2638         estimate D2E/DX2                !
 ! A96   A(30,29,126)          118.4872         estimate D2E/DX2                !
 ! A97   A(11,30,25)           119.824          estimate D2E/DX2                !
 ! A98   A(11,30,29)           121.7539         estimate D2E/DX2                !
 ! A99   A(25,30,29)           118.4167         estimate D2E/DX2                !
 ! A100  A(10,31,32)           120.6201         estimate D2E/DX2                !
 ! A101  A(10,31,127)          119.2576         estimate D2E/DX2                !
 ! A102  A(32,31,127)          120.1216         estimate D2E/DX2                !
 ! A103  A(7,32,31)            120.8026         estimate D2E/DX2                !
 ! A104  A(7,32,128)           119.5774         estimate D2E/DX2                !
 ! A105  A(31,32,128)          119.6029         estimate D2E/DX2                !
 ! A106  A(6,33,34)            121.5652         estimate D2E/DX2                !
 ! A107  A(6,33,129)           119.0767         estimate D2E/DX2                !
 ! A108  A(34,33,129)          119.3355         estimate D2E/DX2                !
 ! A109  A(33,34,35)           119.263          estimate D2E/DX2                !
 ! A110  A(33,34,130)          119.5484         estimate D2E/DX2                !
 ! A111  A(35,34,130)          121.1363         estimate D2E/DX2                !
 ! A112  A(4,35,34)            119.255          estimate D2E/DX2                !
 ! A113  A(4,35,36)            108.1574         estimate D2E/DX2                !
 ! A114  A(34,35,36)           132.4356         estimate D2E/DX2                !
 ! A115  A(35,36,37)           109.0684         estimate D2E/DX2                !
 ! A116  A(35,36,104)          131.2872         estimate D2E/DX2                !
 ! A117  A(37,36,104)          119.6395         estimate D2E/DX2                !
 ! A118  A(2,37,36)            110.2426         estimate D2E/DX2                !
 ! A119  A(2,37,38)            127.3438         estimate D2E/DX2                !
 ! A120  A(36,37,38)           122.4063         estimate D2E/DX2                !
 ! A121  A(37,38,39)           124.8036         estimate D2E/DX2                !
 ! A122  A(37,38,43)           118.4321         estimate D2E/DX2                !
 ! A123  A(39,38,43)           116.7561         estimate D2E/DX2                !
 ! A124  A(38,39,40)           121.5399         estimate D2E/DX2                !
 ! A125  A(38,39,131)          119.8308         estimate D2E/DX2                !
 ! A126  A(40,39,131)          118.629          estimate D2E/DX2                !
 ! A127  A(39,40,41)           120.9332         estimate D2E/DX2                !
 ! A128  A(39,40,132)          119.7479         estimate D2E/DX2                !
 ! A129  A(41,40,132)          119.3189         estimate D2E/DX2                !
 ! A130  A(40,41,42)           119.615          estimate D2E/DX2                !
 ! A131  A(40,41,133)          119.781          estimate D2E/DX2                !
 ! A132  A(42,41,133)          120.6026         estimate D2E/DX2                !
 ! A133  A(41,42,43)           120.4179         estimate D2E/DX2                !
 ! A134  A(41,42,134)          121.3276         estimate D2E/DX2                !
 ! A135  A(43,42,134)          118.2532         estimate D2E/DX2                !
 ! A136  A(38,43,42)           120.72           estimate D2E/DX2                !
 ! A137  A(38,43,44)           117.428          estimate D2E/DX2                !
 ! A138  A(42,43,44)           121.8224         estimate D2E/DX2                !
 ! A139  A(43,44,45)           123.4428         estimate D2E/DX2                !
 ! A140  A(43,44,104)          124.2035         estimate D2E/DX2                !
 ! A141  A(45,44,104)          112.2924         estimate D2E/DX2                !
 ! A142  A(44,45,46)           106.0671         estimate D2E/DX2                !
 ! A143  A(45,46,47)           125.3472         estimate D2E/DX2                !
 ! A144  A(45,46,103)          111.5518         estimate D2E/DX2                !
 ! A145  A(47,46,103)          123.0867         estimate D2E/DX2                !
 ! A146  A(46,47,48)           118.0674         estimate D2E/DX2                !
 ! A147  A(46,47,135)          120.3026         estimate D2E/DX2                !
 ! A148  A(48,47,135)          121.6256         estimate D2E/DX2                !
 ! A149  A(47,48,49)           120.4391         estimate D2E/DX2                !
 ! A150  A(47,48,101)          119.3689         estimate D2E/DX2                !
 ! A151  A(49,48,101)          120.1799         estimate D2E/DX2                !
 ! A152  A(48,49,50)           120.3139         estimate D2E/DX2                !
 ! A153  A(48,49,54)           120.8527         estimate D2E/DX2                !
 ! A154  A(50,49,54)           118.8333         estimate D2E/DX2                !
 ! A155  A(49,50,51)           120.4496         estimate D2E/DX2                !
 ! A156  A(49,50,136)          119.3737         estimate D2E/DX2                !
 ! A157  A(51,50,136)          120.1612         estimate D2E/DX2                !
 ! A158  A(50,51,52)           121.6941         estimate D2E/DX2                !
 ! A159  A(50,51,137)          119.3913         estimate D2E/DX2                !
 ! A160  A(52,51,137)          118.9143         estimate D2E/DX2                !
 ! A161  A(51,52,53)           118.6673         estimate D2E/DX2                !
 ! A162  A(51,52,65)           122.5113         estimate D2E/DX2                !
 ! A163  A(53,52,65)           118.8213         estimate D2E/DX2                !
 ! A164  A(52,53,54)           117.8501         estimate D2E/DX2                !
 ! A165  A(52,53,55)           119.2313         estimate D2E/DX2                !
 ! A166  A(54,53,55)           122.9186         estimate D2E/DX2                !
 ! A167  A(49,54,53)           122.505          estimate D2E/DX2                !
 ! A168  A(49,54,138)          118.217          estimate D2E/DX2                !
 ! A169  A(53,54,138)          119.2634         estimate D2E/DX2                !
 ! A170  A(53,55,56)           121.1975         estimate D2E/DX2                !
 ! A171  A(53,55,98)           129.3637         estimate D2E/DX2                !
 ! A172  A(56,55,98)           109.4387         estimate D2E/DX2                !
 ! A173  A(55,56,57)           119.2926         estimate D2E/DX2                !
 ! A174  A(55,56,66)           110.2834         estimate D2E/DX2                !
 ! A175  A(57,56,66)           130.4239         estimate D2E/DX2                !
 ! A176  A(56,57,58)           125.9388         estimate D2E/DX2                !
 ! A177  A(56,57,65)           121.5231         estimate D2E/DX2                !
 ! A178  A(58,57,65)           112.5381         estimate D2E/DX2                !
 ! A179  A(57,58,59)           105.9758         estimate D2E/DX2                !
 ! A180  A(58,59,60)           125.6223         estimate D2E/DX2                !
 ! A181  A(58,59,64)           111.5517         estimate D2E/DX2                !
 ! A182  A(60,59,64)           122.826          estimate D2E/DX2                !
 ! A183  A(59,60,61)           117.3565         estimate D2E/DX2                !
 ! A184  A(59,60,139)          120.6458         estimate D2E/DX2                !
 ! A185  A(61,60,139)          121.9977         estimate D2E/DX2                !
 ! A186  A(60,61,62)           120.9056         estimate D2E/DX2                !
 ! A187  A(60,61,140)          119.5673         estimate D2E/DX2                !
 ! A188  A(62,61,140)          119.527          estimate D2E/DX2                !
 ! A189  A(61,62,63)           121.5865         estimate D2E/DX2                !
 ! A190  A(61,62,141)          119.1131         estimate D2E/DX2                !
 ! A191  A(63,62,141)          119.3004         estimate D2E/DX2                !
 ! A192  A(62,63,64)           118.9805         estimate D2E/DX2                !
 ! A193  A(62,63,142)          119.5438         estimate D2E/DX2                !
 ! A194  A(64,63,142)          121.4757         estimate D2E/DX2                !
 ! A195  A(59,64,63)           118.345          estimate D2E/DX2                !
 ! A196  A(59,64,65)           105.0424         estimate D2E/DX2                !
 ! A197  A(63,64,65)           136.6126         estimate D2E/DX2                !
 ! A198  A(52,65,57)           119.934          estimate D2E/DX2                !
 ! A199  A(52,65,64)           135.1741         estimate D2E/DX2                !
 ! A200  A(57,65,64)           104.8919         estimate D2E/DX2                !
 ! A201  A(56,66,67)           131.2536         estimate D2E/DX2                !
 ! A202  A(56,66,97)           107.8261         estimate D2E/DX2                !
 ! A203  A(67,66,97)           120.9203         estimate D2E/DX2                !
 ! A204  A(66,67,68)           118.3567         estimate D2E/DX2                !
 ! A205  A(66,67,143)          120.5535         estimate D2E/DX2                !
 ! A206  A(68,67,143)          121.0896         estimate D2E/DX2                !
 ! A207  A(67,68,69)           121.392          estimate D2E/DX2                !
 ! A208  A(67,68,144)          119.5606         estimate D2E/DX2                !
 ! A209  A(69,68,144)          119.033          estimate D2E/DX2                !
 ! A210  A(68,69,70)           120.3057         estimate D2E/DX2                !
 ! A211  A(68,69,96)           119.6223         estimate D2E/DX2                !
 ! A212  A(70,69,96)           120.0719         estimate D2E/DX2                !
 ! A213  A(69,70,71)           120.844          estimate D2E/DX2                !
 ! A214  A(69,70,95)           120.7348         estimate D2E/DX2                !
 ! A215  A(71,70,95)           118.4212         estimate D2E/DX2                !
 ! A216  A(70,71,72)           120.7964         estimate D2E/DX2                !
 ! A217  A(70,71,145)          119.5171         estimate D2E/DX2                !
 ! A218  A(72,71,145)          119.6726         estimate D2E/DX2                !
 ! A219  A(71,72,73)           120.6225         estimate D2E/DX2                !
 ! A220  A(71,72,146)          120.1199         estimate D2E/DX2                !
 ! A221  A(73,72,146)          119.2568         estimate D2E/DX2                !
 ! A222  A(72,73,74)           120.6246         estimate D2E/DX2                !
 ! A223  A(72,73,94)           118.7374         estimate D2E/DX2                !
 ! A224  A(74,73,94)           120.638          estimate D2E/DX2                !
 ! A225  A(73,74,75)           119.8399         estimate D2E/DX2                !
 ! A226  A(73,74,93)           119.8315         estimate D2E/DX2                !
 ! A227  A(75,74,93)           120.3286         estimate D2E/DX2                !
 ! A228  A(74,75,76)           121.7529         estimate D2E/DX2                !
 ! A229  A(74,75,80)           119.8253         estimate D2E/DX2                !
 ! A230  A(76,75,80)           118.4166         estimate D2E/DX2                !
 ! A231  A(75,76,77)           121.2424         estimate D2E/DX2                !
 ! A232  A(75,76,147)          118.4861         estimate D2E/DX2                !
 ! A233  A(77,76,147)          120.2713         estimate D2E/DX2                !
 ! A234  A(76,77,78)           120.3075         estimate D2E/DX2                !
 ! A235  A(76,77,148)          120.3658         estimate D2E/DX2                !
 ! A236  A(78,77,148)          119.3265         estimate D2E/DX2                !
 ! A237  A(77,78,79)           120.294          estimate D2E/DX2                !
 ! A238  A(77,78,149)          119.3312         estimate D2E/DX2                !
 ! A239  A(79,78,149)          120.3745         estimate D2E/DX2                !
 ! A240  A(78,79,80)           121.2331         estimate D2E/DX2                !
 ! A241  A(78,79,150)          120.3003         estimate D2E/DX2                !
 ! A242  A(80,79,150)          118.4664         estimate D2E/DX2                !
 ! A243  A(75,80,79)           118.4472         estimate D2E/DX2                !
 ! A244  A(75,80,81)           119.8277         estimate D2E/DX2                !
 ! A245  A(79,80,81)           121.7214         estimate D2E/DX2                !
 ! A246  A(80,81,82)           119.8267         estimate D2E/DX2                !
 ! A247  A(80,81,88)           120.3461         estimate D2E/DX2                !
 ! A248  A(82,81,88)           119.8273         estimate D2E/DX2                !
 ! A249  A(81,82,83)           120.4607         estimate D2E/DX2                !
 ! A250  A(81,82,87)           120.4562         estimate D2E/DX2                !
 ! A251  A(83,82,87)           119.0831         estimate D2E/DX2                !
 ! A252  A(82,83,84)           120.4066         estimate D2E/DX2                !
 ! A253  A(82,83,151)          119.2761         estimate D2E/DX2                !
 ! A254  A(84,83,151)          120.3165         estimate D2E/DX2                !
 ! A255  A(83,84,85)           120.1565         estimate D2E/DX2                !
 ! A256  A(83,84,152)          119.8033         estimate D2E/DX2                !
 ! A257  A(85,84,152)          120.0403         estimate D2E/DX2                !
 ! A258  A(84,85,86)           119.7901         estimate D2E/DX2                !
 ! A259  A(84,85,153)          120.1049         estimate D2E/DX2                !
 ! A260  A(86,85,153)          120.105          estimate D2E/DX2                !
 ! A261  A(85,86,87)           120.1573         estimate D2E/DX2                !
 ! A262  A(85,86,154)          120.0406         estimate D2E/DX2                !
 ! A263  A(87,86,154)          119.8021         estimate D2E/DX2                !
 ! A264  A(82,87,86)           120.4058         estimate D2E/DX2                !
 ! A265  A(82,87,155)          119.2765         estimate D2E/DX2                !
 ! A266  A(86,87,155)          120.3168         estimate D2E/DX2                !
 ! A267  A(81,88,89)           121.7197         estimate D2E/DX2                !
 ! A268  A(81,88,93)           119.8294         estimate D2E/DX2                !
 ! A269  A(89,88,93)           118.4474         estimate D2E/DX2                !
 ! A270  A(88,89,90)           121.2322         estimate D2E/DX2                !
 ! A271  A(88,89,156)          118.4664         estimate D2E/DX2                !
 ! A272  A(90,89,156)          120.3013         estimate D2E/DX2                !
 ! A273  A(89,90,91)           120.2945         estimate D2E/DX2                !
 ! A274  A(89,90,157)          120.3734         estimate D2E/DX2                !
 ! A275  A(91,90,157)          119.3317         estimate D2E/DX2                !
 ! A276  A(90,91,92)           120.3086         estimate D2E/DX2                !
 ! A277  A(90,91,158)          119.327          estimate D2E/DX2                !
 ! A278  A(92,91,158)          120.3641         estimate D2E/DX2                !
 ! A279  A(91,92,93)           121.2403         estimate D2E/DX2                !
 ! A280  A(91,92,159)          120.2708         estimate D2E/DX2                !
 ! A281  A(93,92,159)          118.4886         estimate D2E/DX2                !
 ! A282  A(74,93,88)           119.8231         estimate D2E/DX2                !
 ! A283  A(74,93,92)           121.7533         estimate D2E/DX2                !
 ! A284  A(88,93,92)           118.4181         estimate D2E/DX2                !
 ! A285  A(73,94,95)           120.6033         estimate D2E/DX2                !
 ! A286  A(73,94,160)          119.2652         estimate D2E/DX2                !
 ! A287  A(95,94,160)          120.1309         estimate D2E/DX2                !
 ! A288  A(70,95,94)           120.8155         estimate D2E/DX2                !
 ! A289  A(70,95,161)          119.536          estimate D2E/DX2                !
 ! A290  A(94,95,161)          119.6321         estimate D2E/DX2                !
 ! A291  A(69,96,97)           119.3354         estimate D2E/DX2                !
 ! A292  A(69,96,162)          119.5526         estimate D2E/DX2                !
 ! A293  A(97,96,162)          121.0982         estimate D2E/DX2                !
 ! A294  A(66,97,96)           120.3724         estimate D2E/DX2                !
 ! A295  A(66,97,98)           110.5982         estimate D2E/DX2                !
 ! A296  A(96,97,98)           129.0293         estimate D2E/DX2                !
 ! A297  A(55,98,97)           101.8526         estimate D2E/DX2                !
 ! A298  A(55,98,99)           112.263          estimate D2E/DX2                !
 ! A299  A(55,98,100)          112.4251         estimate D2E/DX2                !
 ! A300  A(97,98,99)           109.09           estimate D2E/DX2                !
 ! A301  A(97,98,100)          109.1484         estimate D2E/DX2                !
 ! A302  A(99,98,100)          111.5552         estimate D2E/DX2                !
 ! A303  A(98,99,163)          109.8161         estimate D2E/DX2                !
 ! A304  A(98,99,164)          111.7866         estimate D2E/DX2                !
 ! A305  A(98,99,165)          109.8014         estimate D2E/DX2                !
 ! A306  A(163,99,164)         108.3558         estimate D2E/DX2                !
 ! A307  A(163,99,165)         108.4892         estimate D2E/DX2                !
 ! A308  A(164,99,165)         108.5161         estimate D2E/DX2                !
 ! A309  A(98,100,166)         109.7822         estimate D2E/DX2                !
 ! A310  A(98,100,167)         109.8586         estimate D2E/DX2                !
 ! A311  A(98,100,168)         111.7328         estimate D2E/DX2                !
 ! A312  A(166,100,167)        108.5502         estimate D2E/DX2                !
 ! A313  A(166,100,168)        108.4331         estimate D2E/DX2                !
 ! A314  A(167,100,168)        108.4112         estimate D2E/DX2                !
 ! A315  A(48,101,102)         122.261          estimate D2E/DX2                !
 ! A316  A(48,101,169)         118.6314         estimate D2E/DX2                !
 ! A317  A(102,101,169)        119.0818         estimate D2E/DX2                !
 ! A318  A(101,102,103)        119.2594         estimate D2E/DX2                !
 ! A319  A(101,102,170)        119.4892         estimate D2E/DX2                !
 ! A320  A(103,102,170)        121.2089         estimate D2E/DX2                !
 ! A321  A(46,103,102)         117.8116         estimate D2E/DX2                !
 ! A322  A(46,103,104)         105.0404         estimate D2E/DX2                !
 ! A323  A(102,103,104)        136.9892         estimate D2E/DX2                !
 ! A324  A(36,104,44)          117.3586         estimate D2E/DX2                !
 ! A325  A(36,104,103)         137.6917         estimate D2E/DX2                !
 ! A326  A(44,104,103)         104.9453         estimate D2E/DX2                !
 ! D1    D(105,1,2,3)          -60.9756         estimate D2E/DX2                !
 ! D2    D(105,1,2,4)          178.7408         estimate D2E/DX2                !
 ! D3    D(105,1,2,37)          66.6033         estimate D2E/DX2                !
 ! D4    D(106,1,2,3)          178.7951         estimate D2E/DX2                !
 ! D5    D(106,1,2,4)           58.5115         estimate D2E/DX2                !
 ! D6    D(106,1,2,37)         -53.626          estimate D2E/DX2                !
 ! D7    D(107,1,2,3)           59.5544         estimate D2E/DX2                !
 ! D8    D(107,1,2,4)          -60.7292         estimate D2E/DX2                !
 ! D9    D(107,1,2,37)        -172.8667         estimate D2E/DX2                !
 ! D10   D(1,2,3,108)          -59.6838         estimate D2E/DX2                !
 ! D11   D(1,2,3,109)           60.8227         estimate D2E/DX2                !
 ! D12   D(1,2,3,110)         -178.9072         estimate D2E/DX2                !
 ! D13   D(4,2,3,108)           61.4016         estimate D2E/DX2                !
 ! D14   D(4,2,3,109)         -178.0919         estimate D2E/DX2                !
 ! D15   D(4,2,3,110)          -57.8218         estimate D2E/DX2                !
 ! D16   D(37,2,3,108)         173.1628         estimate D2E/DX2                !
 ! D17   D(37,2,3,109)         -66.3307         estimate D2E/DX2                !
 ! D18   D(37,2,3,110)          53.9394         estimate D2E/DX2                !
 ! D19   D(1,2,4,5)             63.7506         estimate D2E/DX2                !
 ! D20   D(1,2,4,35)          -118.8349         estimate D2E/DX2                !
 ! D21   D(3,2,4,5)            -58.4942         estimate D2E/DX2                !
 ! D22   D(3,2,4,35)           118.9203         estimate D2E/DX2                !
 ! D23   D(37,2,4,5)          -177.5288         estimate D2E/DX2                !
 ! D24   D(37,2,4,35)           -0.1144         estimate D2E/DX2                !
 ! D25   D(1,2,37,36)          114.3183         estimate D2E/DX2                !
 ! D26   D(1,2,37,38)          -66.6516         estimate D2E/DX2                !
 ! D27   D(3,2,37,36)         -118.6941         estimate D2E/DX2                !
 ! D28   D(3,2,37,38)           60.336          estimate D2E/DX2                !
 ! D29   D(4,2,37,36)           -2.8169         estimate D2E/DX2                !
 ! D30   D(4,2,37,38)          176.2132         estimate D2E/DX2                !
 ! D31   D(2,4,5,6)            175.9249         estimate D2E/DX2                !
 ! D32   D(2,4,5,111)           -4.7136         estimate D2E/DX2                !
 ! D33   D(35,4,5,6)            -1.245          estimate D2E/DX2                !
 ! D34   D(35,4,5,111)         178.1165         estimate D2E/DX2                !
 ! D35   D(2,4,35,34)         -173.2174         estimate D2E/DX2                !
 ! D36   D(2,4,35,36)            2.8462         estimate D2E/DX2                !
 ! D37   D(5,4,35,34)            4.4009         estimate D2E/DX2                !
 ! D38   D(5,4,35,36)         -179.5356         estimate D2E/DX2                !
 ! D39   D(4,5,6,7)            179.4172         estimate D2E/DX2                !
 ! D40   D(4,5,6,33)            -2.0448         estimate D2E/DX2                !
 ! D41   D(111,5,6,7)            0.0481         estimate D2E/DX2                !
 ! D42   D(111,5,6,33)         178.5861         estimate D2E/DX2                !
 ! D43   D(5,6,7,8)           -139.7243         estimate D2E/DX2                !
 ! D44   D(5,6,7,32)            40.2605         estimate D2E/DX2                !
 ! D45   D(33,6,7,8)            41.7603         estimate D2E/DX2                !
 ! D46   D(33,6,7,32)         -138.2549         estimate D2E/DX2                !
 ! D47   D(5,6,33,34)            2.2316         estimate D2E/DX2                !
 ! D48   D(5,6,33,129)        -176.0269         estimate D2E/DX2                !
 ! D49   D(7,6,33,34)         -179.23           estimate D2E/DX2                !
[...]
 Alpha virt. eigenvalues --    2.65005   2.65185   2.65276   2.66016   2.66764
 Alpha virt. eigenvalues --    2.67090   2.67350   2.67387   2.67432   2.67455
 Alpha virt. eigenvalues --    2.67596   2.67693   2.67756   2.67813   2.67973
 Alpha virt. eigenvalues --    2.68296   2.68571   2.69037   2.69054   2.69080
 Alpha virt. eigenvalues --    2.69090   2.69692   2.70028   2.70381   2.70474
 Alpha virt. eigenvalues --    2.70669   2.70726   2.71276   2.72157   2.72268
 Alpha virt. eigenvalues --    2.72584   2.73010   2.73031   2.73675   2.74110
 Alpha virt. eigenvalues --    2.74185   2.74262   2.74701   2.74904   2.75221
 Alpha virt. eigenvalues --    2.75235   2.75323   2.76051   2.76119   2.76534
 Alpha virt. eigenvalues --    2.77187   2.77508   2.77713   2.77964   2.78210
 Alpha virt. eigenvalues --    2.78355   2.78795   2.78808   2.79504   2.80262
 Alpha virt. eigenvalues --    2.80545   2.80870   2.81017   2.81926   2.82535
 Alpha virt. eigenvalues --    2.82688   2.83629   2.83898   2.84236   2.84286
 Alpha virt. eigenvalues --    2.84476   2.85013   2.85576   2.86698   2.86809
 Alpha virt. eigenvalues --    2.86907   2.87170   2.87325   2.87460   2.87830
 Alpha virt. eigenvalues --    2.88545   2.90889   2.91085   2.93022   2.94004
 Alpha virt. eigenvalues --    2.94134   2.94161   2.94723   2.96000   2.96209
 Alpha virt. eigenvalues --    2.96250   2.97119   2.97582   2.98350   2.98447
 Alpha virt. eigenvalues --    2.99839   3.00765   3.01884   3.02040   3.03342
 Alpha virt. eigenvalues --    3.04939   3.05595   3.06036   3.06130   3.06249
 Alpha virt. eigenvalues --    3.06906   3.07521   3.08592   3.10394   3.10976
 Alpha virt. eigenvalues --    3.12593   3.14722   3.16527   3.17159   3.17439
 Alpha virt. eigenvalues --    3.17885   3.17952   3.21058   3.22556   3.23611
 Alpha virt. eigenvalues --    3.26242   3.30592   3.31042   3.31139   3.32975
 Alpha virt. eigenvalues --    3.35417   3.37470   3.39460   3.40696   3.40965
 Alpha virt. eigenvalues --    3.41081   3.45932   3.46011   3.46085   3.46479
 Alpha virt. eigenvalues --    3.47039   3.49349   3.51569   3.51634   3.57864
 Alpha virt. eigenvalues --    3.58829   4.02756   4.03992   4.08256   4.08364
 Alpha virt. eigenvalues --    4.08783   4.08804   4.08854   4.08879   4.08975
 Alpha virt. eigenvalues --    4.09170   4.09809   4.09838   4.09908   4.10326
 Alpha virt. eigenvalues --    4.10531   4.11008   4.11637   4.11640   4.11731
 Alpha virt. eigenvalues --    4.12045   4.12242   4.12271   4.12312   4.12357
 Alpha virt. eigenvalues --    4.12679   4.12709   4.12756   4.13164   4.13365
 Alpha virt. eigenvalues --    4.13598   4.14122   4.14175   4.14248   4.14911
 Alpha virt. eigenvalues --    4.14962   4.15832   4.16453   4.16968   4.19091
 Alpha virt. eigenvalues --    4.19148   4.21019   4.22010   4.23259   4.23385
 Alpha virt. eigenvalues --    4.23758   4.23888   4.25309   4.25371   4.25955
 Alpha virt. eigenvalues --    4.26333   4.28450   4.28578   4.29000   4.29183
 Alpha virt. eigenvalues --    4.29679   4.30695   4.31785   4.32855   4.33098
 Alpha virt. eigenvalues --    4.33192   4.33908   4.33991   4.34282   4.34329
 Alpha virt. eigenvalues --    4.34528   4.35215   4.35829   4.35917   4.36351
 Alpha virt. eigenvalues --    4.37040   4.38494   4.40189   4.40398   4.41644
 Alpha virt. eigenvalues --    4.43096   4.43167   4.46891   4.47158   4.47923
 Alpha virt. eigenvalues --    4.49516   4.49735   4.51617   4.52586   4.54351
 Alpha virt. eigenvalues --    4.56905   4.59895   4.65738   4.66222   4.66292
 Alpha virt. eigenvalues --    4.67946   4.70430   4.71772   4.71821   4.73185
 Alpha virt. eigenvalues --    4.74923   4.76160   4.84313   4.84343   4.87800
 Alpha virt. eigenvalues --    4.88927   4.91928   4.91999   4.97540   5.00239
          Condensed to atoms (all electrons):
 Mulliken charges:
               1
     1  C   -0.445549
     2  C   -0.063493
     3  C   -0.445480
     4  C    0.102554
     5  C   -0.258516
     6  C    0.099774
     7  C    0.092326
     8  C   -0.180576
     9  C   -0.156376
    10  C    0.012749
    11  C   -0.078478
    12  C    0.105517
    13  C   -0.199224
    14  C   -0.134774
    15  C   -0.134832
    16  C   -0.198465
    17  C    0.104655
    18  C   -0.079099
    19  C    0.004237
    20  C   -0.147513
    21  C   -0.132627
    22  C   -0.126439
    23  C   -0.132635
    24  C   -0.147487
    25  C    0.104679
    26  C   -0.198472
    27  C   -0.134817
    28  C   -0.134793
    29  C   -0.199245
    30  C    0.105513
    31  C   -0.156827
    32  C   -0.178815
    33  C   -0.194650
    34  C   -0.195656
    35  C    0.093181
    36  C   -0.021976
    37  C   -0.001422
    38  C    0.108771
    39  C   -0.219114
    40  C   -0.130413
    41  C   -0.141761
    42  C   -0.173205
    43  C    0.068138
    44  C    0.203426
    45  O   -0.554369
    46  C    0.326688
    47  C   -0.268932
    48  C    0.087275
    49  C    0.104992
    50  C   -0.194460
    51  C   -0.194329
    52  C    0.085135
    53  C    0.111039
    54  C   -0.289979
    55  C   -0.006999
    56  C    0.007696
    57  C    0.222819
    58  O   -0.561329
    59  C    0.332791
    60  C   -0.209429
    61  C   -0.137050
    62  C   -0.142654
    63  C   -0.194539
    64  C    0.062799
    65  C    0.018152
    66  C    0.109924
    67  C   -0.194989
    68  C   -0.193534
    69  C    0.099322
    70  C    0.091443
    71  C   -0.180458
    72  C   -0.156532
    73  C    0.012480
    74  C   -0.078334
    75  C    0.105401
    76  C   -0.199117
    77  C   -0.134827
    78  C   -0.134831
    79  C   -0.198548
    80  C    0.104605
    81  C   -0.078959
    82  C    0.004553
    83  C   -0.147622
    84  C   -0.132650
    85  C   -0.126461
    86  C   -0.132654
    87  C   -0.147634
    88  C    0.104642
    89  C   -0.198575
    90  C   -0.134806
    91  C   -0.134848
    92  C   -0.199160
    93  C    0.105345
    94  C   -0.156661
    95  C   -0.178909
    96  C   -0.261772
    97  C    0.103202
    98  C   -0.068661
    99  C   -0.446583
   100  C   -0.445517
   101  C   -0.197962
   102  C   -0.198054
   103  C    0.082408
   104  C    0.049612
   105  H    0.149766
   106  H    0.159942
   107  H    0.146631
   108  H    0.144166
   109  H    0.149397
   110  H    0.160207
   111  H    0.129264
   112  H    0.134639
   113  H    0.139327
   114  H    0.145653
   115  H    0.128579
   116  H    0.128606
   117  H    0.146596
   118  H    0.137696
   119  H    0.131999
   120  H    0.130551
   121  H    0.132054
   122  H    0.137812
   123  H    0.146587
   124  H    0.128616
   125  H    0.128698
   126  H    0.145915
   127  H    0.138993
   128  H    0.133136
   129  H    0.131532
   130  H    0.136852
   131  H    0.134923
   132  H    0.130997
   133  H    0.133346
   134  H    0.150097
   135  H    0.150114
   136  H    0.134267
   137  H    0.140051
   138  H    0.137410
   139  H    0.147113
   140  H    0.134351
   141  H    0.130980
   142  H    0.145782
   143  H    0.148805
   144  H    0.132628
   145  H    0.135255
   146  H    0.139164
   147  H    0.145843
   148  H    0.128550
   149  H    0.128442
   150  H    0.146444
   151  H    0.137706
   152  H    0.131866
   153  H    0.130403
   154  H    0.131945
   155  H    0.137861
   156  H    0.146422
   157  H    0.128441
   158  H    0.128683
   159  H    0.146187
   160  H    0.138702
   161  H    0.132965
   162  H    0.129400
   163  H    0.160855
   164  H    0.155141
   165  H    0.148249
   166  H    0.146732
   167  H    0.160780
   168  H    0.149090
   169  H    0.133651
   170  H    0.144757
 Sum of Mulliken charges =  -0.00000
 Mulliken charges with hydrogens summed into heavy atoms:
               1
     1  C    0.010789
     2  C   -0.063493
     3  C    0.008290
     4  C    0.102554
     5  C   -0.129252
     6  C    0.099774
     7  C    0.092326
     8  C   -0.045938
     9  C   -0.017049
    10  C    0.012749
    11  C   -0.078478
    12  C    0.105517
    13  C   -0.053571
    14  C   -0.006195
    15  C   -0.006227
    16  C   -0.051868
    17  C    0.104655
    18  C   -0.079099
    19  C    0.004237
    20  C   -0.009816
    21  C   -0.000628
    22  C    0.004112
    23  C   -0.000581
    24  C   -0.009675
    25  C    0.104679
    26  C   -0.051885
    27  C   -0.006202
    28  C   -0.006095
    29  C   -0.053330
    30  C    0.105513
    31  C   -0.017834
    32  C   -0.045679
    33  C   -0.063118
    34  C   -0.058804
    35  C    0.093181
    36  C   -0.021976
    37  C   -0.001422
    38  C    0.108771
    39  C   -0.084191
    40  C    0.000584
    41  C   -0.008415
    42  C   -0.023108
    43  C    0.068138
    44  C    0.203426
    45  O   -0.554369
    46  C    0.326688
    47  C   -0.118819
    48  C    0.087275
    49  C    0.104992
    50  C   -0.060193
    51  C   -0.054278
    52  C    0.085135
    53  C    0.111039
    54  C   -0.152569
    55  C   -0.006999
    56  C    0.007696
    57  C    0.222819
    58  O   -0.561329
    59  C    0.332791
    60  C   -0.062316
    61  C   -0.002699
    62  C   -0.011674
    63  C   -0.048757
    64  C    0.062799
    65  C    0.018152
    66  C    0.109924
    67  C   -0.046184
    68  C   -0.060906
    69  C    0.099322
    70  C    0.091443
    71  C   -0.045203
    72  C   -0.017368
    73  C    0.012480
    74  C   -0.078334
    75  C    0.105401
    76  C   -0.053273
    77  C   -0.006276
    78  C   -0.006389
    79  C   -0.052104
    80  C    0.104605
    81  C   -0.078959
    82  C    0.004553
    83  C   -0.009915
    84  C   -0.000784
    85  C    0.003942
    86  C   -0.000709
    87  C   -0.009773
    88  C    0.104642
    89  C   -0.052152
    90  C   -0.006365
    91  C   -0.006165
    92  C   -0.052973
    93  C    0.105345
    94  C   -0.017959
    95  C   -0.045944
    96  C   -0.132371
    97  C    0.103202
    98  C   -0.068661
    99  C    0.017662
   100  C    0.011084
   101  C   -0.064310
   102  C   -0.053297
   103  C    0.082408
   104  C    0.049612
 Electronic spatial extent (au):  <R**2>=         356979.0794
 Charge=             -0.0000 electrons
 Dipole moment (field-independent basis, Debye):
    X=              1.0762    Y=             -0.7679    Z=              0.0048  Tot=              1.3221
 Quadrupole moment (field-independent basis, Debye-Ang):
   XX=           -529.3079   YY=           -540.5518   ZZ=           -582.8857
   XY=              8.3856   XZ=              3.2862   YZ=              6.8070
 Traceless Quadrupole moment (field-independent basis, Debye-Ang):
   XX=             21.6072   YY=             10.3633   ZZ=            -31.9706
   XY=              8.3856   XZ=              3.2862   YZ=              6.8070
 Octapole moment (field-independent basis, Debye-Ang**2):
  XXX=            213.4788  YYY=            124.0392  ZZZ=             45.8612  XYY=            -68.0157
  XXY=           -207.9902  XXZ=            236.4226  XZZ=             26.0664  YZZ=            -75.3272
  YYZ=            -48.6151  XYZ=             44.7051
 Hexadecapole moment (field-independent basis, Debye-Ang**3):
 XXXX=        -398529.1798 YYYY=         -39970.2725 ZZZZ=         -15058.3440 XXXY=           6470.8886
 XXXZ=           2797.0358 YYYX=           -431.2042 YYYZ=            464.8957 ZZZX=            348.6142
 ZZZY=            -25.5280 XXYY=         -77016.6701 XXZZ=         -74399.7254 YYZZ=          -9737.4481
 XXYZ=           -374.6369 YYXZ=           -497.9161 ZZXY=            195.5650
 N-N= 1.498676099543D+04 E-N=-3.941872849836D+04  KE= 4.037990223050D+03
 Leave Link  601 at Sat Nov  5 03:05:16 2022, MaxMem=   805306368 cpu:               3.4 elap:               0.6
 (Enter /home/wykgroup/appl/g16/l9999.exe)
 1\1\GINC-NODE50\FOpt\RB3LYP\6-31G(d)\C102H66O2\WYKGROUP\05-Nov-2022\0\
 \#p b3lyp/6-31g(d) opt SCF=XQC\\Gaussian input prepared by ASE\\0,1\C,
 -5.9764814962,2.6513274248,4.4479578244\C,-5.9084113201,3.3076179461,3
 .0470205022\C,-6.6684802164,4.6571038724,3.0303151691\C,-6.5221642351,
 2.3799942743,2.0078475002\C,-7.8316159788,1.9295129195,1.9361268852\C,
 -8.244959634,1.1150938707,0.8644069634\C,-9.6410661881,0.62153477,0.77
 39741819\C,-9.9269957715,-0.661938521,0.2780776341\C,-11.2375217677,-1
 .1260813703,0.19092888\C,-12.3165721493,-0.3269167704,0.5972362206\C,-
 13.7249465583,-0.8254324823,0.5022643793\C,-14.2292999971,-1.708854864
 9,1.4823382225\C,-13.4326456733,-2.1391979574,2.5932213853\C,-13.92632
 29433,-3.00148696,3.5355186106\C,-15.2565261424,-3.4939621345,3.430791
 7969\C,-16.057931032,-3.1018204643,2.392089607\C,-15.5883100446,-2.195
 6804174,1.3860313293\C,-16.4139158582,-1.7778611213,0.319598997\C,-17.
 8233479367,-2.2773695542,0.2236342349\C,-18.8586195046,-1.6411055917,0
 .9250830466\C,-20.1717833053,-2.1058386538,0.8356239746\C,-20.47064174
 61,-3.2155264581,0.0430310169\C,-19.4490838245,-3.8573283428,-0.659433
 2307\C,-18.1363246268,-3.391495492,-0.5697209251\C,-15.9121187835,-0.8
 898113438,-0.6566312154\C,-16.7206870154,-0.4365682664,-1.7496076947\C
 ,-16.2246977945,0.4149784334,-2.7002817383\C,-14.8793930294,0.87010597
 3,-2.6233249295\C,-14.0721224801,0.468741274,-1.5925953234\C,-14.54921
 83959,-0.4125249228,-0.5680548902\C,-12.0347162878,0.9544290513,1.0940
 020878\C,-10.7243832641,1.4193288969,1.1800185291\C,-7.3012999411,0.79
 87444625,-0.1292866068\C,-5.9826413633,1.2434102071,-0.0563376769\C,-5
 .5727405439,2.0194621031,1.0328404079\C,-4.2875266567,2.636680918,1.39
 02027625\C,-4.4673744411,3.4275931089,2.5301400448\C,-3.4129183248,4.2
 233020657,3.0795652521\C,-3.5365735527,5.0409321193,4.2381969442\C,-2.
 4835401584,5.802187346,4.7009320904\C,-1.2374964617,5.7940449508,4.035
 6974189\C,-1.0658525481,5.0128455435,2.9144110616\C,-2.1332729118,4.22
 19922276,2.4241930468\C,-1.9995668092,3.3776987843,1.3013382028\O,-0.8
 114124959,3.2530475348,0.6261326521\C,-1.0234257762,2.2994805273,-0.33
 59823811\C,-0.0526898872,1.8685726402,-1.2243755362\C,-0.3970368019,0.
 8554383509,-2.1311778315\C,0.5944653508,0.3399312562,-3.1075411729\C,0
 .1943464959,-0.0189958625,-4.4208951247\C,1.1074938859,-0.4977863199,-
 5.3325154556\C,2.4750677078,-0.6547168663,-5.0030173433\C,2.9088679765
 ,-0.2974431376,-3.6716676705\C,1.9308448946,0.1921215751,-2.7656044499
 \C,4.287929509,-0.4561673217,-3.3194765708\C,5.2155367146,-0.941828618
 1,-4.2389364115\C,4.7679558858,-1.2780209731,-5.5257672356\O,5.5764670
 231,-1.7663808828,-6.5218639072\C,4.7543223876,-1.9631064981,-7.606586
 7131\C,5.175230991,-2.4516649618,-8.8344672102\C,4.200672209,-2.586907
 4224,-9.8231773449\C,2.8635015465,-2.2404898834,-9.5700867121\C,2.4634
 619637,-1.7514105788,-8.3281423711\C,3.4217674641,-1.6040296057,-7.312
 8904794\C,3.443646819,-1.150846701,-5.9296236806\C,6.5443699431,-1.005
 7006172,-3.6393169212\C,7.7754276507,-1.4224301456,-4.150931713\C,8.89
 56593889,-1.3708274438,-3.3233027294\C,8.8131468152,-0.9124959743,-1.9
 943042535\C,10.0202456234,-0.8664838179,-1.1319784228\C,11.0025593879,
 -1.8691500382,-1.2002657907\C,12.1353092148,-1.8253918131,-0.390612260
 9\C,12.3323690122,-0.7782605819,0.5219592382\C,13.5494716332,-0.731421
 3808,1.392372855\C,13.6166216464,-1.5291920269,2.5561674416\C,12.53610
 23517,-2.3849791149,2.9486134418\C,12.6115402038,-3.1613577161,4.07409
 59439\C,13.7779546617,-3.1343824533,4.8875264232\C,14.8310854151,-2.32
 38858552,4.5574362213\C,14.7954326313,-1.4879233576,3.393944921\C,15.8
 729542361,-0.6407075516,3.0551041119\C,17.0906801949,-0.5929494021,3.9
 268492136\C,17.1271027131,0.2298554311,5.0627978061\C,18.2612836009,0.
 2748808084,5.8751866358\C,19.3779368653,-0.5032640706,5.5645279194\C,1
 9.3537769922,-1.3261118578,4.4370189239\C,18.2192867294,-1.3700301615,
 3.6250046004\C,15.8034771887,0.1616219932,1.8953323206\C,16.871852754,
 1.0408777551,1.5221021407\C,16.8038669213,1.8073394104,0.3894657981\C,
 15.6587829561,1.7436174057,-0.4517499963\C,14.6103525826,0.9234070955,
 -0.1304779499\C,14.6304607405,0.1109683003,1.049964617\C,11.3534028588
 ,0.223960898,0.5934186648\C,10.2211953369,0.1811005217,-0.2170874793\C
 ,7.5602919032,-0.4972849879,-1.4989838019\C,6.4401222958,-0.5443592709
 ,-2.3154398419\C,4.9976962811,-0.1579370535,-1.9852712636\C,4.47538855
 99,-1.0434506831,-0.8275194196\C,4.9368008873,1.341155359,-1.604347812
 6\C,-1.7052593324,0.3218859311,-2.0852130322\C,-2.6657564024,0.7771051
 684,-1.1886217919\C,-2.3468908341,1.8120407052,-0.2943347329\C,-2.9973
 342138,2.5577762286,0.7778347606\H,-5.5130259523,3.2774084091,5.216022
 491\H,-5.4648543401,1.6835917168,4.446949688\H,-7.020182856,2.48381484
 76,4.7374261256\H,-7.7188867971,4.5029445574,3.3019021897\H,-6.2443616
 74,5.3767692401,3.7358421965\H,-6.6384244282,5.1052413468,2.0320156341
 \H,-8.5445087081,2.1890339404,2.7146238646\H,-9.110524461,-1.313651641
 5,-0.0203586395\H,-11.4303160749,-2.1253627871,-0.1902915094\H,-12.418
 4331068,-1.7654648345,2.6791959277\H,-13.3010264666,-3.311853367,4.368
 4408053\H,-15.6367961777,-4.1823266523,4.1808628507\H,-17.0724437257,-
 3.4773229547,2.3174662125\H,-18.6281458031,-0.7768427895,1.5423662939\
 H,-20.9611632837,-1.5997268925,1.3853410202\H,-21.4928880191,-3.577770
 1448,-0.0267402264\H,-19.6727886889,-4.7224799,-1.2782410042\H,-17.342
 4490038,-3.8927414768,-1.1170923278\H,-17.7459814101,-0.7836649724,-1.
 8136032398\H,-16.8587210285,0.7438843496,-3.5193619582\H,-14.492347989
 2,1.5387271038,-3.3876661692\H,-13.0466904676,0.8171870642,-1.54032027
 25\H,-12.8547683775,1.5949224842,1.4076224706\H,-10.5407083507,2.42656
 2853,1.5435676337\H,-7.6153672211,0.2197693402,-0.9930515084\H,-5.3081
 403571,1.0208145919,-0.8719724865\H,-4.4757330805,5.0700558834,4.77513
 37893\H,-2.6152367543,6.4148946767,5.5886923362\H,-0.4174416066,6.3996
 322866,4.4110179342\H,-0.1144397693,4.9860203513,2.3927670594\H,0.9329
 757885,2.3213190064,-1.2224021522\H,-0.8419020769,0.1132449911,-4.7176
 728332\H,0.7719373205,-0.7516175107,-6.3314489202\H,2.2306632605,0.436
 2665515,-1.7548619212\H,6.2143070781,-2.7125480864,-9.0059721756\H,4.4
 819883877,-2.9655457927,-10.801546352\H,2.125268718,-2.3560488501,-10.
 3585586931\H,1.4230513563,-1.4931219685,-8.1644702369\H,7.8607088508,-
 1.7708334498,-5.1750969701\H,9.8623580399,-1.6664173923,-3.7207717743\
 H,10.8654639392,-2.7065448568,-1.8787395062\H,12.8762950416,-2.6174727
 044,-0.4586413521\H,11.6438429338,-2.4083288252,2.3329799736\H,11.7775
 259783,-3.8014820328,4.3493099961\H,13.8301936683,-3.7589238576,5.7753
 833382\H,15.717439273,-2.3043086916,5.1817585436\H,16.2590562688,0.836
 7986291,5.3061541301\H,18.2718396326,0.9190215789,6.7506521554\H,20.26
 11110616,-0.4686589666,6.1968967101\H,20.218456943,-1.9359438775,4.188
 2288978\H,18.20236193,-2.0116619555,2.7480071603\H,17.7478246702,1.090
 4936918,2.1592830837\H,17.6279241061,2.4661488043,0.1287476103\H,15.61
 82536733,2.3490968636,-1.3533173291\H,13.7406451972,0.8774070609,-0.77
 63535214\H,11.4878035574,1.049571956,1.2872524997\H,9.4937994367,0.986
 0021293,-0.1575801653\H,7.4791195671,-0.1671480761,-0.4664339295\H,4.5
 382394053,-2.1038044743,-1.0918231577\H,3.434680424,-0.8181817085,-0.5
 771512072\H,5.0789087962,-0.8815164585,0.0726877711\H,5.5432518443,1.5
 282316676,-0.7109697607\H,5.3257466256,1.9643747403,-2.4158725663\H,3.
 9149350099,1.6659568913,-1.3877658767\H,-1.9598352561,-0.4973569723,-2
 .7507439545\H,-3.6331170161,0.2931945746,-1.1673185105\\Version=ES64L-
 G16RevB.01\State=1-A\HF=-4077.22552\RMSD=7.457e-09\RMSF=1.758e-06\Dipo
 le=-0.4266143,0.0832463,0.2856996\Quadrupole=15.9537629,-18.6299666,2.
 6762037,3.8670705,5.4882425,12.7358536\PG=C01 [X(C102H66O2)]\\@



 WE LOSE BECAUSE WE WIN

 GAMBLERS,

 RECOLLECTING WHICH,

 TOSS THEIR DICE AGAIN....


                          EMILY DICKINSON  BOLTS OF MELODY NO. 533
 Job cpu time:       0 days 21 hours 41 minutes 52.9 seconds.
 Elapsed time:       0 days  3 hours  6 minutes 42.1 seconds.
 File lengths (MBytes):  RWF=   1758 Int=      0 D2E=      0 Chk=    221 Scr=      1
 Normal termination of Gaussian 16 at Sat Nov  5 03:05:16 2022.
