 Entering Gaussian System, Link 0=/home/wykgroup/appl/g16/g16
 Input=calculation/no_transfer_pubchem_sampling_8_b3lyp/134516211_rwf.com
 Output=calculation/no_transfer_pubchem_sampling_8_b3lyp/134516211_rwf.log
 Initial command:
 /home/wykgroup/appl/g16/l1.exe "/userdata/scratch/wykgroup/khs/calculation/no_transfer_pubchem_sampling_8_b3lyp/134516211_rwf/Gau-23446.inp" -scrdir="/userdata/scratch/wykgroup/khs/calculation/no_transfer_pubchem_sampling_8_b3lyp/134516211_rwf/"
 Entering Link 1 = /home/wykgroup/appl/g16/l1.exe PID=     23451.
  
 Copyright (c) 1988-2017, Gaussian, Inc.  All Rights Reserved.
  
 This is part of the Gaussian(R) 16 program.  It is based on
 the Gaussian(R) 09 system (copyright 2009, Gaussian, Inc.),
 the Gaussian(R) 03 system (copyright 2003, Gaussian, Inc.),
 the Gaussian(R) 98 system (copyright 1998, Gaussian, Inc.),
 the Gaussian(R) 94 system (copyright 1995, Gaussian, Inc.),
 the Gaussian 92(TM) system (copyright 1992, Gaussian, Inc.),
 the Gaussian 90(TM) system (copyright 1990, Gaussian, Inc.),
 the Gaussian 88(TM) system (copyright 1988, Gaussian, Inc.),
 the Gaussian 86(TM) system (copyright 1986, Carnegie Mellon
 University), and the Gaussian 82(TM) system (copyright 1983,
 Carnegie Mellon University). Gaussian is a federally registered
 trademark of Gaussian, Inc.
  
 This software contains proprietary and confidential information,
 including trade secrets, belonging to Gaussian, Inc.
  
 This software is provided under written license and may be
 used, copied, transmitted, or stored only in accord with that
 written license.
  
 The following legend is applicable only to US Government
 contracts under FAR:
  
                    RESTRICTED RIGHTS LEGEND
  
 Use, reproduction and disclosure by the US Government is
 subject to restrictions as set forth in subparagraphs (a)
 and (c) of the Commercial Computer Software - Restricted
 Rights clause in FAR 52.227-19.
  
 Gaussian, Inc.
 340 Quinnipiac St., Bldg. 40, Wallingford CT 06492
  
  
 ---------------------------------------------------------------
 Warning -- This program may not be used in any manner that
 competes with the business of Gaussian, Inc. or will provide
 assistance to any competitor of Gaussian, Inc.  The licensee
 of this program is prohibited from giving any competitor of
 Gaussian, Inc. access to this program.  By using this program,
 the user acknowledges that Gaussian, Inc. is engaged in the
 business of creating and licensing software in the field of
 computational chemistry and represents and warrants to the
 licensee that it is not a competitor of Gaussian, Inc. and that
 it will not use this program in any manner prohibited above.
 ---------------------------------------------------------------
  

 Cite this work as:
 Gaussian 16, Revision B.01,
 M. J. Frisch, G. W. Trucks, H. B. Schlegel, G. E. Scuseria, 
 M. A. Robb, J. R. Cheeseman, G. Scalmani, V. Barone, 
 G. A. Petersson, H. Nakatsuji, X. Li, M. Caricato, A. V. Marenich, 
 J. Bloino, B. G. Janesko, R. Gomperts, B. Mennucci, H. P. Hratchian, 
 J. V. Ortiz, A. F. Izmaylov, J. L. Sonnenberg, D. Williams-Young, 
 F. Ding, F. Lipparini, F. Egidi, J. Goings, B. Peng, A. Petrone, 
 T. Henderson, D. Ranasinghe, V. G. Zakrzewski, J. Gao, N. Rega, 
 G. Zheng, W. Liang, M. Hada, M. Ehara, K. Toyota, R. Fukuda, 
 J. Hasegawa, M. Ishida, T. Nakajima, Y. Honda, O. Kitao, H. Nakai, 
 T. Vreven, K. Throssell, J. A. Montgomery, Jr., J. E. Peralta, 
 F. Ogliaro, M. J. Bearpark, J. J. Heyd, E. N. Brothers, K. N. Kudin, 
 V. N. Staroverov, T. A. Keith, R. Kobayashi, J. Normand, 
 K. Raghavachari, A. P. Rendell, J. C. Burant, S. S. Iyengar, 
 J. Tomasi, M. Cossi, J. M. Millam, M. Klene, C. Adamo, R. Cammi, 
 J. W. Ochterski, R. L. Martin, K. Morokuma, O. Farkas, 
 J. B. Foresman, and D. J. Fox, Gaussian, Inc., Wallingford CT, 2016.
 
 ******************************************
 Gaussian 16:  ES64L-G16RevB.01 20-Dec-2017
                 5-Nov-2022 
 ******************************************
 %chk=calculation/no_transfer_pubchem_sampling_8_b3lyp/134516211_rwf.chk
 %rwf=calculation/no_transfer_pubchem_sampling_8_b3lyp/134516211_rwf.rwf
 %nprocshared=14
 Will use up to   14 processors via shared memory.
 %mem=3GB
 -------------------------------------------------------------------
 #p b3lyp/6-31g(d) 6D 10F nosymm GFInput td=(50-50,nstate=2) SCF=XQC
 -------------------------------------------------------------------
 1/38=1,172=1/1;
 2/12=2,15=1,17=6,18=5,40=1/2;
 3/5=1,6=6,7=1,8=22,11=9,24=10,25=1,30=1,74=-5/1,2,3,8;
 4//1;
 5/5=2,8=3,13=1,38=5/2,8;
 8/6=1,10=2,108=2/1;
 9/41=2,42=1,48=2,70=2/14;
 6/7=2,8=2,9=2,10=2/1;
 99/5=1,9=1/99;
 Leave Link    1 at Sat Nov  5 09:59:28 2022, MaxMem=   402653184 cpu:               6.7 elap:               0.8
 (Enter /home/wykgroup/appl/g16/l101.exe)
 ------------------------------
 Gaussian input prepared by ASE
 ------------------------------
 Symbolic Z-matrix:
 Charge =  0 Multiplicity = 1
 C                    -5.69033   1.45413  -5.20027 
 C                    -6.69381   0.51089  -4.49944 
 C                    -8.01992   1.25811  -4.23281 
 C                    -6.92585  -0.76044  -5.31588 
 C                    -7.44677  -0.88749  -6.59853 
 C                    -7.57357  -2.16306  -7.162 
 C                    -7.18092  -3.29684  -6.44337 
 C                    -6.65705  -3.17565  -5.15425 
 C                    -6.53074  -1.90322  -4.59222 
 C                    -6.02442  -1.47869  -3.2815 
 C                    -5.53103  -2.22645  -2.21632 
 C                    -5.11191  -1.54412  -1.06806 
 C                    -4.57827  -1.97899   0.20632 
 C                    -4.26779  -3.23268   0.74146 
 C                    -3.72286  -3.32873   2.02667 
 C                    -3.442    -4.6581    2.63289 
 C                    -4.4562   -5.62557   2.6913 
 C                    -4.26601  -6.87419   3.29886 
 C                    -3.04671  -7.21349   3.88412 
 C                    -2.04229  -6.25968   3.81019 
 O                    -0.7717   -6.4398    4.30584 
 C                    -0.07612  -5.29852   3.98445 
 C                     1.26012  -5.07282   4.27968 
 C                     1.80988  -3.87039   3.84154 
 C                     1.05746  -2.92043   3.11282 
 C                     1.69147  -1.66163   2.63914 
 C                     3.04099  -1.65163   2.2141 
 C                     3.67425  -0.49829   1.76337 
 C                     2.93179   0.68409   1.72343 
 C                     1.57944   0.71053   2.14512 
 C                     0.97061  -0.46104   2.60167 
 C                     1.12499   2.0795    2.0089 
 C                    -0.09886   2.71726   2.24016 
 C                    -0.21422   4.07963   1.97871 
 C                     0.88039   4.80627   1.47999 
 C                     2.10902   4.19497   1.23718 
 C                     2.22235   2.83001   1.51468 
 N                     3.31855   1.97428   1.34281 
 C                     4.60046   2.35104   0.86485 
 C                     5.30807   3.39155   1.47937 
 C                     6.56075   3.7651    0.99879 
 C                     7.15256   3.09912  -0.08653 
 C                     8.47143   3.53649  -0.61534 
 C                     8.67228   4.88891  -0.92927 
 C                     9.8764    5.36147  -1.46784 
 C                     10.94128   4.49705  -1.71604 
 C                     10.74243   3.16339  -1.39048 
 O                     11.69815   2.18783  -1.53958 
 C                     11.13534   1.02819  -1.06188 
 C                     11.78549  -0.19692  -1.01309 
 C                     11.07213  -1.265    -0.46911 
 C                     9.76216  -1.09229   0.00643 
 C                     9.12659   0.14634  -0.0569 
 C                     9.81719   1.23555  -0.60889 
 C                     9.54842   2.6511   -0.84153 
 C                     6.43411   2.05348  -0.68916 
 C                     5.17173   1.68732  -0.22897 
 C                    -0.29427  -3.18285   2.84198 
 C                    -0.87869  -4.37258   3.29187 
 C                    -2.19194  -5.00114   3.19246 
 C                    -3.49949  -2.14555   2.76804 
 C                    -3.80722  -0.88602   2.26269 
 C                    -4.35473  -0.81182   0.9791 
 N                    -4.72937   0.30828   0.23215 
 C                    -4.6594    1.65952   0.66975 
 C                    -3.9179    2.59678  -0.06 
 C                    -3.86327   3.92389   0.36635 
 C                    -4.52853   4.31894   1.5291 
 C                    -5.25708   3.38008   2.26282 
 C                    -5.33281   2.05566   1.83251 
 C                    -5.19101  -0.12617  -1.01591 
 C                    -5.69877   0.63081  -2.07973 
 C                    -6.10941  -0.06386  -3.20805 
 H                    -5.48365   2.33263  -4.57761 
 H                    -6.09408   1.8077   -6.1562 
 H                    -4.74228   0.94377  -5.39782 
 H                    -8.74551   0.60659  -3.73558 
 H                    -8.46239   1.60852  -5.17264 
 H                    -7.85113   2.13299  -3.59396 
 H                    -7.75456  -0.01105  -7.16458 
 H                    -7.97946  -2.27246  -8.16417 
 H                    -7.284    -4.28151  -6.89191 
 H                    -6.3533   -4.06127  -4.60155 
 H                    -5.47419  -3.31086  -2.26726 
 H                    -4.4297   -4.13492   0.15778 
 H                    -5.42962  -5.37944   2.27693 
 H                    -5.08839  -7.58354   3.3266 
 H                    -2.87854  -8.1698    4.36761 
 H                     1.84381  -5.80214   4.83164 
 H                     2.84495  -3.64976   4.08379 
 H                     3.59935  -2.58301   2.21625 
 H                     4.71196  -0.52543   1.44804 
 H                    -0.05774  -0.43644   2.95095 
 H                    -0.95146   2.15405   2.61003 
 H                    -1.16113   4.58172   2.15367 
 H                     0.76958   5.86761   1.2739 
 H                     2.94505   4.76074   0.83971 
 H                     4.88013   3.89247   2.34204 
 H                     7.10451   4.56663   1.49072 
 H                     7.85197   5.58396  -0.77533 
 H                     9.97639   6.41685  -1.70442 
 H                     11.88236   4.83729  -2.13448 
 H                     12.80165  -0.30486  -1.37748 
 H                     11.54068  -2.24322  -0.40942 
 H                     9.23414  -1.94043   0.43289 
 H                     8.11676   0.26266   0.31959 
 H                     6.85681   1.54222  -1.54911 
 H                     4.61366   0.90113  -0.72783 
 H                    -0.87484  -2.477     2.25969 
 H                    -3.09066  -2.22637   3.77099 
 H                    -3.63416   0.0067    2.85492 
 H                    -3.38078   2.2779   -0.9477 
 H                    -3.28655   4.64559  -0.20517 
 H                    -4.48113   5.35242   1.86077 
 H                    -5.78129   3.68079   3.16577 
 H                    -5.91916   1.32676   2.38341 
 H                    -5.7691    1.71237  -2.01603 
 
 ITRead=  0  0  0  0  0  0  0  0  0  0  0  0  0  0  0  0  0  0  0  0
 ITRead=  0  0  0  0  0  0  0  0  0  0  0  0  0  0  0  0  0  0  0  0
 ITRead=  0  0  0  0  0  0  0  0  0  0  0  0  0  0  0  0  0  0  0  0
 ITRead=  0  0  0  0  0  0  0  0  0  0  0  0  0  0  0  0  0  0  0  0
 ITRead=  0  0  0  0  0  0  0  0  0  0  0  0  0  0  0  0  0  0  0  0
 ITRead=  0  0  0  0  0  0  0  0  0  0  0  0  0  0  0  0  0
 MicOpt= -1 -1 -1 -1 -1 -1 -1 -1 -1 -1 -1 -1 -1 -1 -1 -1 -1 -1 -1 -1
 MicOpt= -1 -1 -1 -1 -1 -1 -1 -1 -1 -1 -1 -1 -1 -1 -1 -1 -1 -1 -1 -1
 MicOpt= -1 -1 -1 -1 -1 -1 -1 -1 -1 -1 -1 -1 -1 -1 -1 -1 -1 -1 -1 -1
 MicOpt= -1 -1 -1 -1 -1 -1 -1 -1 -1 -1 -1 -1 -1 -1 -1 -1 -1 -1 -1 -1
 MicOpt= -1 -1 -1 -1 -1 -1 -1 -1 -1 -1 -1 -1 -1 -1 -1 -1 -1 -1 -1 -1
 MicOpt= -1 -1 -1 -1 -1 -1 -1 -1 -1 -1 -1 -1 -1 -1 -1 -1 -1
 NAtoms=    117 NQM=      117 NQMF=       0 NMMI=      0 NMMIF=      0
                NMic=       0 NMicF=      0.
                    Isotopes and Nuclear Properties:
 (Nuclear quadrupole moments (NQMom) in fm**2, nuclear magnetic moments (NMagM)
  in nuclear magnetons)

  Atom         1           2           3           4           5           6           7           8           9          10
 IAtWgt=          12          12          12          12          12          12          12          12          12          12
 AtmWgt=  12.0000000  12.0000000  12.0000000  12.0000000  12.0000000  12.0000000  12.0000000  12.0000000  12.0000000  12.0000000
 NucSpn=           0           0           0           0           0           0           0           0           0           0
 AtZEff=  -0.0000000  -0.0000000  -0.0000000  -0.0000000  -0.0000000  -0.0000000  -0.0000000  -0.0000000  -0.0000000  -0.0000000
 NQMom=    0.0000000   0.0000000   0.0000000   0.0000000   0.0000000   0.0000000   0.0000000   0.0000000   0.0000000   0.0000000
 NMagM=    0.0000000   0.0000000   0.0000000   0.0000000   0.0000000   0.0000000   0.0000000   0.0000000   0.0000000   0.0000000
 AtZNuc=   6.0000000   6.0000000   6.0000000   6.0000000   6.0000000   6.0000000   6.0000000   6.0000000   6.0000000   6.0000000

  Atom        11          12          13          14          15          16          17          18          19          20
 IAtWgt=          12          12          12          12          12          12          12          12          12          12
 AtmWgt=  12.0000000  12.0000000  12.0000000  12.0000000  12.0000000  12.0000000  12.0000000  12.0000000  12.0000000  12.0000000
 NucSpn=           0           0           0           0           0           0           0           0           0           0
 AtZEff=  -0.0000000  -0.0000000  -0.0000000  -0.0000000  -0.0000000  -0.0000000  -0.0000000  -0.0000000  -0.0000000  -0.0000000
 NQMom=    0.0000000   0.0000000   0.0000000   0.0000000   0.0000000   0.0000000   0.0000000   0.0000000   0.0000000   0.0000000
 NMagM=    0.0000000   0.0000000   0.0000000   0.0000000   0.0000000   0.0000000   0.0000000   0.0000000   0.0000000   0.0000000
 AtZNuc=   6.0000000   6.0000000   6.0000000   6.0000000   6.0000000   6.0000000   6.0000000   6.0000000   6.0000000   6.0000000

  Atom        21          22          23          24          25          26          27          28          29          30
 IAtWgt=          16          12          12          12          12          12          12          12          12          12
 AtmWgt=  15.9949146  12.0000000  12.0000000  12.0000000  12.0000000  12.0000000  12.0000000  12.0000000  12.0000000  12.0000000
 NucSpn=           0           0           0           0           0           0           0           0           0           0
 AtZEff=  -0.0000000  -0.0000000  -0.0000000  -0.0000000  -0.0000000  -0.0000000  -0.0000000  -0.0000000  -0.0000000  -0.0000000
 NQMom=    0.0000000   0.0000000   0.0000000   0.0000000   0.0000000   0.0000000   0.0000000   0.0000000   0.0000000   0.0000000
 NMagM=    0.0000000   0.0000000   0.0000000   0.0000000   0.0000000   0.0000000   0.0000000   0.0000000   0.0000000   0.0000000
 AtZNuc=   8.0000000   6.0000000   6.0000000   6.0000000   6.0000000   6.0000000   6.0000000   6.0000000   6.0000000   6.0000000

  Atom        31          32          33          34          35          36          37          38          39          40
 IAtWgt=          12          12          12          12          12          12          12          14          12          12
 AtmWgt=  12.0000000  12.0000000  12.0000000  12.0000000  12.0000000  12.0000000  12.0000000  14.0030740  12.0000000  12.0000000
 NucSpn=           0           0           0           0           0           0           0           2           0           0
 AtZEff=  -0.0000000  -0.0000000  -0.0000000  -0.0000000  -0.0000000  -0.0000000  -0.0000000  -0.0000000  -0.0000000  -0.0000000
 NQMom=    0.0000000   0.0000000   0.0000000   0.0000000   0.0000000   0.0000000   0.0000000   2.0440000   0.0000000   0.0000000
 NMagM=    0.0000000   0.0000000   0.0000000   0.0000000   0.0000000   0.0000000   0.0000000   0.4037610   0.0000000   0.0000000
 AtZNuc=   6.0000000   6.0000000   6.0000000   6.0000000   6.0000000   6.0000000   6.0000000   7.0000000   6.0000000   6.0000000

  Atom        41          42          43          44          45          46          47          48          49          50
 IAtWgt=          12          12          12          12          12          12          12          16          12          12
 AtmWgt=  12.0000000  12.0000000  12.0000000  12.0000000  12.0000000  12.0000000  12.0000000  15.9949146  12.0000000  12.0000000
 NucSpn=           0           0           0           0           0           0           0           0           0           0
 AtZEff=  -0.0000000  -0.0000000  -0.0000000  -0.0000000  -0.0000000  -0.0000000  -0.0000000  -0.0000000  -0.0000000  -0.0000000
 NQMom=    0.0000000   0.0000000   0.0000000   0.0000000   0.0000000   0.0000000   0.0000000   0.0000000   0.0000000   0.0000000
 NMagM=    0.0000000   0.0000000   0.0000000   0.0000000   0.0000000   0.0000000   0.0000000   0.0000000   0.0000000   0.0000000
 AtZNuc=   6.0000000   6.0000000   6.0000000   6.0000000   6.0000000   6.0000000   6.0000000   8.0000000   6.0000000   6.0000000

  Atom        51          52          53          54          55          56          57          58          59          60
 IAtWgt=          12          12          12          12          12          12          12          12          12          12
 AtmWgt=  12.0000000  12.0000000  12.0000000  12.0000000  12.0000000  12.0000000  12.0000000  12.0000000  12.0000000  12.0000000
 NucSpn=           0           0           0           0           0           0           0           0           0           0
 AtZEff=  -0.0000000  -0.0000000  -0.0000000  -0.0000000  -0.0000000  -0.0000000  -0.0000000  -0.0000000  -0.0000000  -0.0000000
 NQMom=    0.0000000   0.0000000   0.0000000   0.0000000   0.0000000   0.0000000   0.0000000   0.0000000   0.0000000   0.0000000
 NMagM=    0.0000000   0.0000000   0.0000000   0.0000000   0.0000000   0.0000000   0.0000000   0.0000000   0.0000000   0.0000000
 AtZNuc=   6.0000000   6.0000000   6.0000000   6.0000000   6.0000000   6.0000000   6.0000000   6.0000000   6.0000000   6.0000000

  Atom        61          62          63          64          65          66          67          68          69          70
 IAtWgt=          12          12          12          14          12          12          12          12          12          12
 AtmWgt=  12.0000000  12.0000000  12.0000000  14.0030740  12.0000000  12.0000000  12.0000000  12.0000000  12.0000000  12.0000000
 NucSpn=           0           0           0           2           0           0           0           0           0           0
 AtZEff=  -0.0000000  -0.0000000  -0.0000000  -0.0000000  -0.0000000  -0.0000000  -0.0000000  -0.0000000  -0.0000000  -0.0000000
 NQMom=    0.0000000   0.0000000   0.0000000   2.0440000   0.0000000   0.0000000   0.0000000   0.0000000   0.0000000   0.0000000
 NMagM=    0.0000000   0.0000000   0.0000000   0.4037610   0.0000000   0.0000000   0.0000000   0.0000000   0.0000000   0.0000000
 AtZNuc=   6.0000000   6.0000000   6.0000000   7.0000000   6.0000000   6.0000000   6.0000000   6.0000000   6.0000000   6.0000000

  Atom        71          72          73          74          75          76          77          78          79          80
 IAtWgt=          12          12          12           1           1           1           1           1           1           1
 AtmWgt=  12.0000000  12.0000000  12.0000000   1.0078250   1.0078250   1.0078250   1.0078250   1.0078250   1.0078250   1.0078250
 NucSpn=           0           0           0           1           1           1           1           1           1           1
 AtZEff=  -0.0000000  -0.0000000  -0.0000000  -0.0000000  -0.0000000  -0.0000000  -0.0000000  -0.0000000  -0.0000000  -0.0000000
 NQMom=    0.0000000   0.0000000   0.0000000   0.0000000   0.0000000   0.0000000   0.0000000   0.0000000   0.0000000   0.0000000
 NMagM=    0.0000000   0.0000000   0.0000000   2.7928460   2.7928460   2.7928460   2.7928460   2.7928460   2.7928460   2.7928460
 AtZNuc=   6.0000000   6.0000000   6.0000000   1.0000000   1.0000000   1.0000000   1.0000000   1.0000000   1.0000000   1.0000000

  Atom        81          82          83          84          85          86          87          88          89          90
 IAtWgt=           1           1           1           1           1           1           1           1           1           1
 AtmWgt=   1.0078250   1.0078250   1.0078250   1.0078250   1.0078250   1.0078250   1.0078250   1.0078250   1.0078250   1.0078250
 NucSpn=           1           1           1           1           1           1           1           1           1           1
 AtZEff=  -0.0000000  -0.0000000  -0.0000000  -0.0000000  -0.0000000  -0.0000000  -0.0000000  -0.0000000  -0.0000000  -0.0000000
 NQMom=    0.0000000   0.0000000   0.0000000   0.0000000   0.0000000   0.0000000   0.0000000   0.0000000   0.0000000   0.0000000
 NMagM=    2.7928460   2.7928460   2.7928460   2.7928460   2.7928460   2.7928460   2.7928460   2.7928460   2.7928460   2.7928460
 AtZNuc=   1.0000000   1.0000000   1.0000000   1.0000000   1.0000000   1.0000000   1.0000000   1.0000000   1.0000000   1.0000000

  Atom        91          92          93          94          95          96          97          98          99         100
 IAtWgt=           1           1           1           1           1           1           1           1           1           1
 AtmWgt=   1.0078250   1.0078250   1.0078250   1.0078250   1.0078250   1.0078250   1.0078250   1.0078250   1.0078250   1.0078250
 NucSpn=           1           1           1           1           1           1           1           1           1           1
 AtZEff=  -0.0000000  -0.0000000  -0.0000000  -0.0000000  -0.0000000  -0.0000000  -0.0000000  -0.0000000  -0.0000000  -0.0000000
 NQMom=    0.0000000   0.0000000   0.0000000   0.0000000   0.0000000   0.0000000   0.0000000   0.0000000   0.0000000   0.0000000
 NMagM=    2.7928460   2.7928460   2.7928460   2.7928460   2.7928460   2.7928460   2.7928460   2.7928460   2.7928460   2.7928460
 AtZNuc=   1.0000000   1.0000000   1.0000000   1.0000000   1.0000000   1.0000000   1.0000000   1.0000000   1.0000000   1.0000000

  Atom       101         102         103         104         105         106         107         108         109         110
 IAtWgt=           1           1           1           1           1           1           1           1           1           1
 AtmWgt=   1.0078250   1.0078250   1.0078250   1.0078250   1.0078250   1.0078250   1.0078250   1.0078250   1.0078250   1.0078250
 NucSpn=           1           1           1           1           1           1           1           1           1           1
 AtZEff=  -0.0000000  -0.0000000  -0.0000000  -0.0000000  -0.0000000  -0.0000000  -0.0000000  -0.0000000  -0.0000000  -0.0000000
 NQMom=    0.0000000   0.0000000   0.0000000   0.0000000   0.0000000   0.0000000   0.0000000   0.0000000   0.0000000   0.0000000
 NMagM=    2.7928460   2.7928460   2.7928460   2.7928460   2.7928460   2.7928460   2.7928460   2.7928460   2.7928460   2.7928460
 AtZNuc=   1.0000000   1.0000000   1.0000000   1.0000000   1.0000000   1.0000000   1.0000000   1.0000000   1.0000000   1.0000000

  Atom       111         112         113         114         115         116         117
 IAtWgt=           1           1           1           1           1           1           1
 AtmWgt=   1.0078250   1.0078250   1.0078250   1.0078250   1.0078250   1.0078250   1.0078250
 NucSpn=           1           1           1           1           1           1           1
 AtZEff=  -0.0000000  -0.0000000  -0.0000000  -0.0000000  -0.0000000  -0.0000000  -0.0000000
 NQMom=    0.0000000   0.0000000   0.0000000   0.0000000   0.0000000   0.0000000   0.0000000
 NMagM=    2.7928460   2.7928460   2.7928460   2.7928460   2.7928460   2.7928460   2.7928460
 AtZNuc=   1.0000000   1.0000000   1.0000000   1.0000000   1.0000000   1.0000000   1.0000000
 Leave Link  101 at Sat Nov  5 09:59:28 2022, MaxMem=   402653184 cpu:               2.1 elap:               0.3
 (Enter /home/wykgroup/appl/g16/l202.exe)
 Symmetry turned off by external request.
 Stoichiometry    C69H44N2O2
 Framework group  C1[X(C69H44N2O2)]
 Deg. of freedom   345
 Full point group                 C1      NOp   1
                          Input orientation:                          
 ---------------------------------------------------------------------
 Center     Atomic      Atomic             Coordinates (Angstroms)
 Number     Number       Type             X           Y           Z
 ---------------------------------------------------------------------
      1          6           0       -5.690331    1.454128   -5.200271
      2          6           0       -6.693805    0.510890   -4.499437
      3          6           0       -8.019921    1.258108   -4.232811
      4          6           0       -6.925853   -0.760442   -5.315882
      5          6           0       -7.446771   -0.887492   -6.598530
      6          6           0       -7.573570   -2.163060   -7.161997
      7          6           0       -7.180923   -3.296838   -6.443373
      8          6           0       -6.657051   -3.175653   -5.154252
      9          6           0       -6.530744   -1.903215   -4.592222
     10          6           0       -6.024425   -1.478688   -3.281497
     11          6           0       -5.531026   -2.226446   -2.216317
     12          6           0       -5.111910   -1.544120   -1.068057
     13          6           0       -4.578268   -1.978987    0.206318
     14          6           0       -4.267788   -3.232677    0.741456
     15          6           0       -3.722857   -3.328734    2.026675
     16          6           0       -3.442000   -4.658100    2.632889
     17          6           0       -4.456204   -5.625572    2.691304
     18          6           0       -4.266010   -6.874192    3.298859
     19          6           0       -3.046710   -7.213487    3.884124
     20          6           0       -2.042292   -6.259675    3.810192
     21          8           0       -0.771697   -6.439804    4.305836
     22          6           0       -0.076118   -5.298522    3.984453
     23          6           0        1.260117   -5.072820    4.279678
     24          6           0        1.809880   -3.870389    3.841543
     25          6           0        1.057457   -2.920433    3.112823
     26          6           0        1.691467   -1.661628    2.639135
     27          6           0        3.040987   -1.651630    2.214102
     28          6           0        3.674252   -0.498286    1.763374
     29          6           0        2.931788    0.684091    1.723434
     30          6           0        1.579439    0.710532    2.145123
     31          6           0        0.970609   -0.461040    2.601673
     32          6           0        1.124989    2.079496    2.008897
     33          6           0       -0.098856    2.717260    2.240159
     34          6           0       -0.214217    4.079635    1.978708
     35          6           0        0.880392    4.806271    1.479987
     36          6           0        2.109020    4.194974    1.237179
     37          6           0        2.222352    2.830011    1.514676
     38          7           0        3.318547    1.974284    1.342814
     39          6           0        4.600459    2.351044    0.864853
     40          6           0        5.308074    3.391553    1.479372
     41          6           0        6.560747    3.765102    0.998787
     42          6           0        7.152555    3.099122   -0.086528
     43          6           0        8.471428    3.536490   -0.615340
     44          6           0        8.672277    4.888905   -0.929268
     45          6           0        9.876397    5.361466   -1.467836
     46          6           0       10.941282    4.497055   -1.716040
     47          6           0       10.742426    3.163390   -1.390477
     48          8           0       11.698150    2.187833   -1.539584
     49          6           0       11.135343    1.028189   -1.061881
     50          6           0       11.785489   -0.196922   -1.013090
     51          6           0       11.072134   -1.265004   -0.469112
     52          6           0        9.762162   -1.092293    0.006430
     53          6           0        9.126589    0.146341   -0.056903
     54          6           0        9.817187    1.235550   -0.608892
     55          6           0        9.548425    2.651096   -0.841529
     56          6           0        6.434109    2.053477   -0.689157
     57          6           0        5.171728    1.687320   -0.228965
     58          6           0       -0.294274   -3.182845    2.841979
     59          6           0       -0.878693   -4.372579    3.291873
     60          6           0       -2.191944   -5.001137    3.192459
     61          6           0       -3.499490   -2.145546    2.768042
     62          6           0       -3.807218   -0.886022    2.262693
     63          6           0       -4.354730   -0.811825    0.979100
     64          7           0       -4.729368    0.308280    0.232155
     65          6           0       -4.659396    1.659521    0.669747
     66          6           0       -3.917904    2.596785   -0.060000
     67          6           0       -3.863267    3.923888    0.366350
     68          6           0       -4.528528    4.318941    1.529099
     69          6           0       -5.257084    3.380080    2.262822
     70          6           0       -5.332810    2.055658    1.832509
     71          6           0       -5.191012   -0.126175   -1.015910
     72          6           0       -5.698769    0.630814   -2.079726
     73          6           0       -6.109408   -0.063863   -3.208048
     74          1           0       -5.483647    2.332625   -4.577612
     75          1           0       -6.094075    1.807699   -6.156196
     76          1           0       -4.742280    0.943770   -5.397823
     77          1           0       -8.745511    0.606588   -3.735578
     78          1           0       -8.462394    1.608519   -5.172641
     79          1           0       -7.851131    2.132986   -3.593963
     80          1           0       -7.754563   -0.011046   -7.164578
     81          1           0       -7.979462   -2.272457   -8.164169
     82          1           0       -7.283995   -4.281506   -6.891912
     83          1           0       -6.353299   -4.061268   -4.601548
     84          1           0       -5.474192   -3.310863   -2.267262
     85          1           0       -4.429696   -4.134916    0.157777
     86          1           0       -5.429617   -5.379436    2.276926
     87          1           0       -5.088386   -7.583537    3.326600
     88          1           0       -2.878544   -8.169802    4.367612
     89          1           0        1.843807   -5.802142    4.831635
     90          1           0        2.844955   -3.649758    4.083792
     91          1           0        3.599350   -2.583012    2.216246
     92          1           0        4.711964   -0.525434    1.448038
     93          1           0       -0.057741   -0.436440    2.950951
     94          1           0       -0.951463    2.154053    2.610031
     95          1           0       -1.161130    4.581716    2.153666
     96          1           0        0.769579    5.867607    1.273905
     97          1           0        2.945053    4.760742    0.839706
     98          1           0        4.880130    3.892471    2.342045
     99          1           0        7.104513    4.566633    1.490716
    100          1           0        7.851973    5.583960   -0.775330
    101          1           0        9.976395    6.416852   -1.704416
    102          1           0       11.882365    4.837288   -2.134478
    103          1           0       12.801647   -0.304864   -1.377479
    104          1           0       11.540676   -2.243216   -0.409417
    105          1           0        9.234142   -1.940429    0.432891
    106          1           0        8.116760    0.262662    0.319586
    107          1           0        6.856805    1.542222   -1.549106
    108          1           0        4.613662    0.901134   -0.727835
    109          1           0       -0.874842   -2.477004    2.259692
    110          1           0       -3.090656   -2.226372    3.770988
    111          1           0       -3.634156    0.006700    2.854918
    112          1           0       -3.380777    2.277905   -0.947701
    113          1           0       -3.286552    4.645590   -0.205171
    114          1           0       -4.481132    5.352422    1.860765
    115          1           0       -5.781288    3.680786    3.165767
    116          1           0       -5.919158    1.326761    2.383408
    117          1           0       -5.769101    1.712373   -2.016032
 ---------------------------------------------------------------------
 Rotational constants (GHZ):           0.0334362           0.0125531           0.0110213
 Leave Link  202 at Sat Nov  5 09:59:28 2022, MaxMem=   402653184 cpu:               0.9 elap:               0.2
 (Enter /home/wykgroup/appl/g16/l301.exe)
 Standard basis: 6-31G(d) (6D, 10F)
 Ernie: Thresh=  0.10000D-02 Tol=  0.10000D-05 Strict=F.
 AO basis set in the form of general basis input (Overlap normalization):
      1 0
 S   6 1.00       0.000000000000
      0.3047524880D+04  0.1834737132D-02
      0.4573695180D+03  0.1403732281D-01
      0.1039486850D+03  0.6884262226D-01
      0.2921015530D+02  0.2321844432D+00
      0.9286662960D+01  0.4679413484D+00
      0.3163926960D+01  0.3623119853D+00
 SP   3 1.00       0.000000000000
      0.7868272350D+01 -0.1193324198D+00  0.6899906659D-01
      0.1881288540D+01 -0.1608541517D+00  0.3164239610D+00
      0.5442492580D+00  0.1143456438D+01  0.7443082909D+00
 SP   1 1.00       0.000000000000
      0.1687144782D+00  0.1000000000D+01  0.1000000000D+01
 D   1 1.00       0.000000000000
      0.8000000000D+00  0.1000000000D+01
 ****
      2 0
 S   6 1.00       0.000000000000
      0.3047524880D+04  0.1834737132D-02
      0.4573695180D+03  0.1403732281D-01
      0.1039486850D+03  0.6884262226D-01
      0.2921015530D+02  0.2321844432D+00
      0.9286662960D+01  0.4679413484D+00
      0.3163926960D+01  0.3623119853D+00
 SP   3 1.00       0.000000000000
      0.7868272350D+01 -0.1193324198D+00  0.6899906659D-01
      0.1881288540D+01 -0.1608541517D+00  0.3164239610D+00
      0.5442492580D+00  0.1143456438D+01  0.7443082909D+00
 SP   1 1.00       0.000000000000
      0.1687144782D+00  0.1000000000D+01  0.1000000000D+01
 D   1 1.00       0.000000000000
      0.8000000000D+00  0.1000000000D+01
 ****
      3 0
 S   6 1.00       0.000000000000
      0.3047524880D+04  0.1834737132D-02
      0.4573695180D+03  0.1403732281D-01
      0.1039486850D+03  0.6884262226D-01
      0.2921015530D+02  0.2321844432D+00
      0.9286662960D+01  0.4679413484D+00
      0.3163926960D+01  0.3623119853D+00
 SP   3 1.00       0.000000000000
      0.7868272350D+01 -0.1193324198D+00  0.6899906659D-01
      0.1881288540D+01 -0.1608541517D+00  0.3164239610D+00
      0.5442492580D+00  0.1143456438D+01  0.7443082909D+00
 SP   1 1.00       0.000000000000
      0.1687144782D+00  0.1000000000D+01  0.1000000000D+01
 D   1 1.00       0.000000000000
      0.8000000000D+00  0.1000000000D+01
 ****
      4 0
 S   6 1.00       0.000000000000
      0.3047524880D+04  0.1834737132D-02
      0.4573695180D+03  0.1403732281D-01
      0.1039486850D+03  0.6884262226D-01
      0.2921015530D+02  0.2321844432D+00
      0.9286662960D+01  0.4679413484D+00
      0.3163926960D+01  0.3623119853D+00
 SP   3 1.00       0.000000000000
      0.7868272350D+01 -0.1193324198D+00  0.6899906659D-01
      0.1881288540D+01 -0.1608541517D+00  0.3164239610D+00
      0.5442492580D+00  0.1143456438D+01  0.7443082909D+00
 SP   1 1.00       0.000000000000
      0.1687144782D+00  0.1000000000D+01  0.1000000000D+01
 D   1 1.00       0.000000000000
      0.8000000000D+00  0.1000000000D+01
 ****
      5 0
 S   6 1.00       0.000000000000
      0.3047524880D+04  0.1834737132D-02
      0.4573695180D+03  0.1403732281D-01
      0.1039486850D+03  0.6884262226D-01
      0.2921015530D+02  0.2321844432D+00
      0.9286662960D+01  0.4679413484D+00
      0.3163926960D+01  0.3623119853D+00
 SP   3 1.00       0.000000000000
      0.7868272350D+01 -0.1193324198D+00  0.6899906659D-01
      0.1881288540D+01 -0.1608541517D+00  0.3164239610D+00
      0.5442492580D+00  0.1143456438D+01  0.7443082909D+00
 SP   1 1.00       0.000000000000
      0.1687144782D+00  0.1000000000D+01  0.1000000000D+01
 D   1 1.00       0.000000000000
      0.8000000000D+00  0.1000000000D+01
 ****
      6 0
 S   6 1.00       0.000000000000
      0.3047524880D+04  0.1834737132D-02
      0.4573695180D+03  0.1403732281D-01
      0.1039486850D+03  0.6884262226D-01
      0.2921015530D+02  0.2321844432D+00
      0.9286662960D+01  0.4679413484D+00
      0.3163926960D+01  0.3623119853D+00
 SP   3 1.00       0.000000000000
      0.7868272350D+01 -0.1193324198D+00  0.6899906659D-01
      0.1881288540D+01 -0.1608541517D+00  0.3164239610D+00
      0.5442492580D+00  0.1143456438D+01  0.7443082909D+00
 SP   1 1.00       0.000000000000
      0.1687144782D+00  0.1000000000D+01  0.1000000000D+01
 D   1 1.00       0.000000000000
      0.8000000000D+00  0.1000000000D+01
 ****
      7 0
 S   6 1.00       0.000000000000
      0.3047524880D+04  0.1834737132D-02
      0.4573695180D+03  0.1403732281D-01
      0.1039486850D+03  0.6884262226D-01
      0.2921015530D+02  0.2321844432D+00
      0.9286662960D+01  0.4679413484D+00
      0.3163926960D+01  0.3623119853D+00
 SP   3 1.00       0.000000000000
      0.7868272350D+01 -0.1193324198D+00  0.6899906659D-01
      0.1881288540D+01 -0.1608541517D+00  0.3164239610D+00
      0.5442492580D+00  0.1143456438D+01  0.7443082909D+00
 SP   1 1.00       0.000000000000
      0.1687144782D+00  0.1000000000D+01  0.1000000000D+01
 D   1 1.00       0.000000000000
      0.8000000000D+00  0.1000000000D+01
 ****
      8 0
 S   6 1.00       0.000000000000
      0.3047524880D+04  0.1834737132D-02
      0.4573695180D+03  0.1403732281D-01
      0.1039486850D+03  0.6884262226D-01
      0.2921015530D+02  0.2321844432D+00
      0.9286662960D+01  0.4679413484D+00
      0.3163926960D+01  0.3623119853D+00
 SP   3 1.00       0.000000000000
      0.7868272350D+01 -0.1193324198D+00  0.6899906659D-01
      0.1881288540D+01 -0.1608541517D+00  0.3164239610D+00
      0.5442492580D+00  0.1143456438D+01  0.7443082909D+00
 SP   1 1.00       0.000000000000
      0.1687144782D+00  0.1000000000D+01  0.1000000000D+01
 D   1 1.00       0.000000000000
      0.8000000000D+00  0.1000000000D+01
 ****
      9 0
 S   6 1.00       0.000000000000
      0.3047524880D+04  0.1834737132D-02
      0.4573695180D+03  0.1403732281D-01
      0.1039486850D+03  0.6884262226D-01
      0.2921015530D+02  0.2321844432D+00
      0.9286662960D+01  0.4679413484D+00
      0.3163926960D+01  0.3623119853D+00
 SP   3 1.00       0.000000000000
      0.7868272350D+01 -0.1193324198D+00  0.6899906659D-01
      0.1881288540D+01 -0.1608541517D+00  0.3164239610D+00
      0.5442492580D+00  0.1143456438D+01  0.7443082909D+00
 SP   1 1.00       0.000000000000
      0.1687144782D+00  0.1000000000D+01  0.1000000000D+01
 D   1 1.00       0.000000000000
      0.8000000000D+00  0.1000000000D+01
 ****
     10 0
 S   6 1.00       0.000000000000
      0.3047524880D+04  0.1834737132D-02
      0.4573695180D+03  0.1403732281D-01
      0.1039486850D+03  0.6884262226D-01
      0.2921015530D+02  0.2321844432D+00
      0.9286662960D+01  0.4679413484D+00
      0.3163926960D+01  0.3623119853D+00
 SP   3 1.00       0.000000000000
      0.7868272350D+01 -0.1193324198D+00  0.6899906659D-01
      0.1881288540D+01 -0.1608541517D+00  0.3164239610D+00
      0.5442492580D+00  0.1143456438D+01  0.7443082909D+00
 SP   1 1.00       0.000000000000
      0.1687144782D+00  0.1000000000D+01  0.1000000000D+01
 D   1 1.00       0.000000000000
      0.8000000000D+00  0.1000000000D+01
 ****
     11 0
 S   6 1.00       0.000000000000
      0.3047524880D+04  0.1834737132D-02
      0.4573695180D+03  0.1403732281D-01
      0.1039486850D+03  0.6884262226D-01
      0.2921015530D+02  0.2321844432D+00
      0.9286662960D+01  0.4679413484D+00
      0.3163926960D+01  0.3623119853D+00
 SP   3 1.00       0.000000000000
      0.7868272350D+01 -0.1193324198D+00  0.6899906659D-01
      0.1881288540D+01 -0.1608541517D+00  0.3164239610D+00
      0.5442492580D+00  0.1143456438D+01  0.7443082909D+00
 SP   1 1.00       0.000000000000
      0.1687144782D+00  0.1000000000D+01  0.1000000000D+01
 D   1 1.00       0.000000000000
      0.8000000000D+00  0.1000000000D+01
 ****
     12 0
 S   6 1.00       0.000000000000
      0.3047524880D+04  0.1834737132D-02
      0.4573695180D+03  0.1403732281D-01
      0.1039486850D+03  0.6884262226D-01
      0.2921015530D+02  0.2321844432D+00
      0.9286662960D+01  0.4679413484D+00
      0.3163926960D+01  0.3623119853D+00
 SP   3 1.00       0.000000000000
      0.7868272350D+01 -0.1193324198D+00  0.6899906659D-01
      0.1881288540D+01 -0.1608541517D+00  0.3164239610D+00
      0.5442492580D+00  0.1143456438D+01  0.7443082909D+00
 SP   1 1.00       0.000000000000
      0.1687144782D+00  0.1000000000D+01  0.1000000000D+01
 D   1 1.00       0.000000000000
      0.8000000000D+00  0.1000000000D+01
 ****
     13 0
 S   6 1.00       0.000000000000
      0.3047524880D+04  0.1834737132D-02
      0.4573695180D+03  0.1403732281D-01
      0.1039486850D+03  0.6884262226D-01
      0.2921015530D+02  0.2321844432D+00
      0.9286662960D+01  0.4679413484D+00
      0.3163926960D+01  0.3623119853D+00
 SP   3 1.00       0.000000000000
      0.7868272350D+01 -0.1193324198D+00  0.6899906659D-01
      0.1881288540D+01 -0.1608541517D+00  0.3164239610D+00
      0.5442492580D+00  0.1143456438D+01  0.7443082909D+00
 SP   1 1.00       0.000000000000
      0.1687144782D+00  0.1000000000D+01  0.1000000000D+01
 D   1 1.00       0.000000000000
      0.8000000000D+00  0.1000000000D+01
 ****
     14 0
 S   6 1.00       0.000000000000
      0.3047524880D+04  0.1834737132D-02
      0.4573695180D+03  0.1403732281D-01
      0.1039486850D+03  0.6884262226D-01
      0.2921015530D+02  0.2321844432D+00
      0.9286662960D+01  0.4679413484D+00
      0.3163926960D+01  0.3623119853D+00
 SP   3 1.00       0.000000000000
      0.7868272350D+01 -0.1193324198D+00  0.6899906659D-01
      0.1881288540D+01 -0.1608541517D+00  0.3164239610D+00
      0.5442492580D+00  0.1143456438D+01  0.7443082909D+00
 SP   1 1.00       0.000000000000
      0.1687144782D+00  0.1000000000D+01  0.1000000000D+01
 D   1 1.00       0.000000000000
      0.8000000000D+00  0.1000000000D+01
 ****
     15 0
 S   6 1.00       0.000000000000
      0.3047524880D+04  0.1834737132D-02
      0.4573695180D+03  0.1403732281D-01
      0.1039486850D+03  0.6884262226D-01
      0.2921015530D+02  0.2321844432D+00
      0.9286662960D+01  0.4679413484D+00
      0.3163926960D+01  0.3623119853D+00
 SP   3 1.00       0.000000000000
      0.7868272350D+01 -0.1193324198D+00  0.6899906659D-01
      0.1881288540D+01 -0.1608541517D+00  0.3164239610D+00
      0.5442492580D+00  0.1143456438D+01  0.7443082909D+00
 SP   1 1.00       0.000000000000
      0.1687144782D+00  0.1000000000D+01  0.1000000000D+01
 D   1 1.00       0.000000000000
      0.8000000000D+00  0.1000000000D+01
 ****
     16 0
 S   6 1.00       0.000000000000
      0.3047524880D+04  0.1834737132D-02
      0.4573695180D+03  0.1403732281D-01
      0.1039486850D+03  0.6884262226D-01
      0.2921015530D+02  0.2321844432D+00
      0.9286662960D+01  0.4679413484D+00
      0.3163926960D+01  0.3623119853D+00
 SP   3 1.00       0.000000000000
      0.7868272350D+01 -0.1193324198D+00  0.6899906659D-01
      0.1881288540D+01 -0.1608541517D+00  0.3164239610D+00
      0.5442492580D+00  0.1143456438D+01  0.7443082909D+00
 SP   1 1.00       0.000000000000
      0.1687144782D+00  0.1000000000D+01  0.1000000000D+01
 D   1 1.00       0.000000000000
      0.8000000000D+00  0.1000000000D+01
 ****
     17 0
 S   6 1.00       0.000000000000
      0.3047524880D+04  0.1834737132D-02
      0.4573695180D+03  0.1403732281D-01
      0.1039486850D+03  0.6884262226D-01
      0.2921015530D+02  0.2321844432D+00
      0.9286662960D+01  0.4679413484D+00
      0.3163926960D+01  0.3623119853D+00
 SP   3 1.00       0.000000000000
      0.7868272350D+01 -0.1193324198D+00  0.6899906659D-01
      0.1881288540D+01 -0.1608541517D+00  0.3164239610D+00
      0.5442492580D+00  0.1143456438D+01  0.7443082909D+00
 SP   1 1.00       0.000000000000
      0.1687144782D+00  0.1000000000D+01  0.1000000000D+01
 D   1 1.00       0.000000000000
      0.8000000000D+00  0.1000000000D+01
 ****
     18 0
 S   6 1.00       0.000000000000
      0.3047524880D+04  0.1834737132D-02
      0.4573695180D+03  0.1403732281D-01
      0.1039486850D+03  0.6884262226D-01
      0.2921015530D+02  0.2321844432D+00
      0.9286662960D+01  0.4679413484D+00
      0.3163926960D+01  0.3623119853D+00
 SP   3 1.00       0.000000000000
      0.7868272350D+01 -0.1193324198D+00  0.6899906659D-01
      0.1881288540D+01 -0.1608541517D+00  0.3164239610D+00
      0.5442492580D+00  0.1143456438D+01  0.7443082909D+00
 SP   1 1.00       0.000000000000
      0.1687144782D+00  0.1000000000D+01  0.1000000000D+01
 D   1 1.00       0.000000000000
      0.8000000000D+00  0.1000000000D+01
 ****
     19 0
 S   6 1.00       0.000000000000
      0.3047524880D+04  0.1834737132D-02
      0.4573695180D+03  0.1403732281D-01
      0.1039486850D+03  0.6884262226D-01
      0.2921015530D+02  0.2321844432D+00
      0.9286662960D+01  0.4679413484D+00
      0.3163926960D+01  0.3623119853D+00
 SP   3 1.00       0.000000000000
      0.7868272350D+01 -0.1193324198D+00  0.6899906659D-01
      0.1881288540D+01 -0.1608541517D+00  0.3164239610D+00
      0.5442492580D+00  0.1143456438D+01  0.7443082909D+00
 SP   1 1.00       0.000000000000
      0.1687144782D+00  0.1000000000D+01  0.1000000000D+01
 D   1 1.00       0.000000000000
      0.8000000000D+00  0.1000000000D+01
 ****
     20 0
 S   6 1.00       0.000000000000
      0.3047524880D+04  0.1834737132D-02
      0.4573695180D+03  0.1403732281D-01
      0.1039486850D+03  0.6884262226D-01
      0.2921015530D+02  0.2321844432D+00
      0.9286662960D+01  0.4679413484D+00
      0.3163926960D+01  0.3623119853D+00
 SP   3 1.00       0.000000000000
      0.7868272350D+01 -0.1193324198D+00  0.6899906659D-01
      0.1881288540D+01 -0.1608541517D+00  0.3164239610D+00
      0.5442492580D+00  0.1143456438D+01  0.7443082909D+00
 SP   1 1.00       0.000000000000
      0.1687144782D+00  0.1000000000D+01  0.1000000000D+01
 D   1 1.00       0.000000000000
      0.8000000000D+00  0.1000000000D+01
 ****
     21 0
 S   6 1.00       0.000000000000
      0.5484671660D+04  0.1831074430D-02
      0.8252349460D+03  0.1395017220D-01
      0.1880469580D+03  0.6844507810D-01
      0.5296450000D+02  0.2327143360D+00
      0.1689757040D+02  0.4701928980D+00
      0.5799635340D+01  0.3585208530D+00
 SP   3 1.00       0.000000000000
      0.1553961625D+02 -0.1107775495D+00  0.7087426823D-01
      0.3599933586D+01 -0.1480262627D+00  0.3397528391D+00
      0.1013761750D+01  0.1130767015D+01  0.7271585773D+00
 SP   1 1.00       0.000000000000
      0.2700058226D+00  0.1000000000D+01  0.1000000000D+01
 D   1 1.00       0.000000000000
      0.8000000000D+00  0.1000000000D+01
 ****
     22 0
 S   6 1.00       0.000000000000
      0.3047524880D+04  0.1834737132D-02
      0.4573695180D+03  0.1403732281D-01
      0.1039486850D+03  0.6884262226D-01
      0.2921015530D+02  0.2321844432D+00
      0.9286662960D+01  0.4679413484D+00
      0.3163926960D+01  0.3623119853D+00
 SP   3 1.00       0.000000000000
      0.7868272350D+01 -0.1193324198D+00  0.6899906659D-01
      0.1881288540D+01 -0.1608541517D+00  0.3164239610D+00
      0.5442492580D+00  0.1143456438D+01  0.7443082909D+00
 SP   1 1.00       0.000000000000
      0.1687144782D+00  0.1000000000D+01  0.1000000000D+01
 D   1 1.00       0.000000000000
      0.8000000000D+00  0.1000000000D+01
 ****
     23 0
 S   6 1.00       0.000000000000
      0.3047524880D+04  0.1834737132D-02
      0.4573695180D+03  0.1403732281D-01
      0.1039486850D+03  0.6884262226D-01
      0.2921015530D+02  0.2321844432D+00
      0.9286662960D+01  0.4679413484D+00
      0.3163926960D+01  0.3623119853D+00
 SP   3 1.00       0.000000000000
      0.7868272350D+01 -0.1193324198D+00  0.6899906659D-01
      0.1881288540D+01 -0.1608541517D+00  0.3164239610D+00
      0.5442492580D+00  0.1143456438D+01  0.7443082909D+00
 SP   1 1.00       0.000000000000
      0.1687144782D+00  0.1000000000D+01  0.1000000000D+01
 D   1 1.00       0.000000000000
      0.8000000000D+00  0.1000000000D+01
 ****
     24 0
 S   6 1.00       0.000000000000
      0.3047524880D+04  0.1834737132D-02
      0.4573695180D+03  0.1403732281D-01
      0.1039486850D+03  0.6884262226D-01
      0.2921015530D+02  0.2321844432D+00
      0.9286662960D+01  0.4679413484D+00
      0.3163926960D+01  0.3623119853D+00
 SP   3 1.00       0.000000000000
      0.7868272350D+01 -0.1193324198D+00  0.6899906659D-01
      0.1881288540D+01 -0.1608541517D+00  0.3164239610D+00
      0.5442492580D+00  0.1143456438D+01  0.7443082909D+00
 SP   1 1.00       0.000000000000
      0.1687144782D+00  0.1000000000D+01  0.1000000000D+01
 D   1 1.00       0.000000000000
      0.8000000000D+00  0.1000000000D+01
 ****
     25 0
 S   6 1.00       0.000000000000
      0.3047524880D+04  0.1834737132D-02
      0.4573695180D+03  0.1403732281D-01
      0.1039486850D+03  0.6884262226D-01
      0.2921015530D+02  0.2321844432D+00
      0.9286662960D+01  0.4679413484D+00
      0.3163926960D+01  0.3623119853D+00
 SP   3 1.00       0.000000000000
      0.7868272350D+01 -0.1193324198D+00  0.6899906659D-01
      0.1881288540D+01 -0.1608541517D+00  0.3164239610D+00
      0.5442492580D+00  0.1143456438D+01  0.7443082909D+00
 SP   1 1.00       0.000000000000
      0.1687144782D+00  0.1000000000D+01  0.1000000000D+01
 D   1 1.00       0.000000000000
      0.8000000000D+00  0.1000000000D+01
 ****
     26 0
 S   6 1.00       0.000000000000
      0.3047524880D+04  0.1834737132D-02
      0.4573695180D+03  0.1403732281D-01
      0.1039486850D+03  0.6884262226D-01
      0.2921015530D+02  0.2321844432D+00
      0.9286662960D+01  0.4679413484D+00
      0.3163926960D+01  0.3623119853D+00
 SP   3 1.00       0.000000000000
      0.7868272350D+01 -0.1193324198D+00  0.6899906659D-01
      0.1881288540D+01 -0.1608541517D+00  0.3164239610D+00
      0.5442492580D+00  0.1143456438D+01  0.7443082909D+00
 SP   1 1.00       0.000000000000
      0.1687144782D+00  0.1000000000D+01  0.1000000000D+01
 D   1 1.00       0.000000000000
      0.8000000000D+00  0.1000000000D+01
 ****
     27 0
 S   6 1.00       0.000000000000
      0.3047524880D+04  0.1834737132D-02
      0.4573695180D+03  0.1403732281D-01
      0.1039486850D+03  0.6884262226D-01
      0.2921015530D+02  0.2321844432D+00
      0.9286662960D+01  0.4679413484D+00
      0.3163926960D+01  0.3623119853D+00
 SP   3 1.00       0.000000000000
      0.7868272350D+01 -0.1193324198D+00  0.6899906659D-01
      0.1881288540D+01 -0.1608541517D+00  0.3164239610D+00
      0.5442492580D+00  0.1143456438D+01  0.7443082909D+00
 SP   1 1.00       0.000000000000
      0.1687144782D+00  0.1000000000D+01  0.1000000000D+01
 D   1 1.00       0.000000000000
      0.8000000000D+00  0.1000000000D+01
 ****
     28 0
 S   6 1.00       0.000000000000
      0.3047524880D+04  0.1834737132D-02
      0.4573695180D+03  0.1403732281D-01
      0.1039486850D+03  0.6884262226D-01
      0.2921015530D+02  0.2321844432D+00
      0.9286662960D+01  0.4679413484D+00
      0.3163926960D+01  0.3623119853D+00
 SP   3 1.00       0.000000000000
      0.7868272350D+01 -0.1193324198D+00  0.6899906659D-01
      0.1881288540D+01 -0.1608541517D+00  0.3164239610D+00
      0.5442492580D+00  0.1143456438D+01  0.7443082909D+00
 SP   1 1.00       0.000000000000
      0.1687144782D+00  0.1000000000D+01  0.1000000000D+01
 D   1 1.00       0.000000000000
      0.8000000000D+00  0.1000000000D+01
 ****
     29 0
 S   6 1.00       0.000000000000
      0.3047524880D+04  0.1834737132D-02
      0.4573695180D+03  0.1403732281D-01
      0.1039486850D+03  0.6884262226D-01
      0.2921015530D+02  0.2321844432D+00
      0.9286662960D+01  0.4679413484D+00
      0.3163926960D+01  0.3623119853D+00
 SP   3 1.00       0.000000000000
      0.7868272350D+01 -0.1193324198D+00  0.6899906659D-01
      0.1881288540D+01 -0.1608541517D+00  0.3164239610D+00
      0.5442492580D+00  0.1143456438D+01  0.7443082909D+00
 SP   1 1.00       0.000000000000
      0.1687144782D+00  0.1000000000D+01  0.1000000000D+01
 D   1 1.00       0.000000000000
      0.8000000000D+00  0.1000000000D+01
 ****
     30 0
 S   6 1.00       0.000000000000
      0.3047524880D+04  0.1834737132D-02
      0.4573695180D+03  0.1403732281D-01
      0.1039486850D+03  0.6884262226D-01
      0.2921015530D+02  0.2321844432D+00
      0.9286662960D+01  0.4679413484D+00
      0.3163926960D+01  0.3623119853D+00
 SP   3 1.00       0.000000000000
      0.7868272350D+01 -0.1193324198D+00  0.6899906659D-01
      0.1881288540D+01 -0.1608541517D+00  0.3164239610D+00
      0.5442492580D+00  0.1143456438D+01  0.7443082909D+00
 SP   1 1.00       0.000000000000
      0.1687144782D+00  0.1000000000D+01  0.1000000000D+01
 D   1 1.00       0.000000000000
      0.8000000000D+00  0.1000000000D+01
 ****
     31 0
 S   6 1.00       0.000000000000
      0.3047524880D+04  0.1834737132D-02
      0.4573695180D+03  0.1403732281D-01
      0.1039486850D+03  0.6884262226D-01
      0.2921015530D+02  0.2321844432D+00
      0.9286662960D+01  0.4679413484D+00
      0.3163926960D+01  0.3623119853D+00
 SP   3 1.00       0.000000000000
      0.7868272350D+01 -0.1193324198D+00  0.6899906659D-01
      0.1881288540D+01 -0.1608541517D+00  0.3164239610D+00
      0.5442492580D+00  0.1143456438D+01  0.7443082909D+00
 SP   1 1.00       0.000000000000
      0.1687144782D+00  0.1000000000D+01  0.1000000000D+01
 D   1 1.00       0.000000000000
      0.8000000000D+00  0.1000000000D+01
 ****
     32 0
 S   6 1.00       0.000000000000
      0.3047524880D+04  0.1834737132D-02
      0.4573695180D+03  0.1403732281D-01
      0.1039486850D+03  0.6884262226D-01
      0.2921015530D+02  0.2321844432D+00
      0.9286662960D+01  0.4679413484D+00
      0.3163926960D+01  0.3623119853D+00
 SP   3 1.00       0.000000000000
      0.7868272350D+01 -0.1193324198D+00  0.6899906659D-01
      0.1881288540D+01 -0.1608541517D+00  0.3164239610D+00
      0.5442492580D+00  0.1143456438D+01  0.7443082909D+00
 SP   1 1.00       0.000000000000
      0.1687144782D+00  0.1000000000D+01  0.1000000000D+01
 D   1 1.00       0.000000000000
      0.8000000000D+00  0.1000000000D+01
 ****
     33 0
 S   6 1.00       0.000000000000
      0.3047524880D+04  0.1834737132D-02
      0.4573695180D+03  0.1403732281D-01
      0.1039486850D+03  0.6884262226D-01
      0.2921015530D+02  0.2321844432D+00
      0.9286662960D+01  0.4679413484D+00
      0.3163926960D+01  0.3623119853D+00
 SP   3 1.00       0.000000000000
      0.7868272350D+01 -0.1193324198D+00  0.6899906659D-01
      0.1881288540D+01 -0.1608541517D+00  0.3164239610D+00
      0.5442492580D+00  0.1143456438D+01  0.7443082909D+00
 SP   1 1.00       0.000000000000
      0.1687144782D+00  0.1000000000D+01  0.1000000000D+01
 D   1 1.00       0.000000000000
      0.8000000000D+00  0.1000000000D+01
 ****
     34 0
 S   6 1.00       0.000000000000
      0.3047524880D+04  0.1834737132D-02
      0.4573695180D+03  0.1403732281D-01
      0.1039486850D+03  0.6884262226D-01
      0.2921015530D+02  0.2321844432D+00
      0.9286662960D+01  0.4679413484D+00
      0.3163926960D+01  0.3623119853D+00
 SP   3 1.00       0.000000000000
      0.7868272350D+01 -0.1193324198D+00  0.6899906659D-01
      0.1881288540D+01 -0.1608541517D+00  0.3164239610D+00
      0.5442492580D+00  0.1143456438D+01  0.7443082909D+00
 SP   1 1.00       0.000000000000
      0.1687144782D+00  0.1000000000D+01  0.1000000000D+01
 D   1 1.00       0.000000000000
      0.8000000000D+00  0.1000000000D+01
 ****
     35 0
 S   6 1.00       0.000000000000
      0.3047524880D+04  0.1834737132D-02
      0.4573695180D+03  0.1403732281D-01
      0.1039486850D+03  0.6884262226D-01
      0.2921015530D+02  0.2321844432D+00
      0.9286662960D+01  0.4679413484D+00
      0.3163926960D+01  0.3623119853D+00
 SP   3 1.00       0.000000000000
      0.7868272350D+01 -0.1193324198D+00  0.6899906659D-01
      0.1881288540D+01 -0.1608541517D+00  0.3164239610D+00
      0.5442492580D+00  0.1143456438D+01  0.7443082909D+00
 SP   1 1.00       0.000000000000
      0.1687144782D+00  0.1000000000D+01  0.1000000000D+01
 D   1 1.00       0.000000000000
      0.8000000000D+00  0.1000000000D+01
 ****
     36 0
 S   6 1.00       0.000000000000
      0.3047524880D+04  0.1834737132D-02
      0.4573695180D+03  0.1403732281D-01
      0.1039486850D+03  0.6884262226D-01
      0.2921015530D+02  0.2321844432D+00
      0.9286662960D+01  0.4679413484D+00
      0.3163926960D+01  0.3623119853D+00
 SP   3 1.00       0.000000000000
      0.7868272350D+01 -0.1193324198D+00  0.6899906659D-01
      0.1881288540D+01 -0.1608541517D+00  0.3164239610D+00
      0.5442492580D+00  0.1143456438D+01  0.7443082909D+00
 SP   1 1.00       0.000000000000
      0.1687144782D+00  0.1000000000D+01  0.1000000000D+01
 D   1 1.00       0.000000000000
      0.8000000000D+00  0.1000000000D+01
 ****
     37 0
 S   6 1.00       0.000000000000
      0.3047524880D+04  0.1834737132D-02
      0.4573695180D+03  0.1403732281D-01
      0.1039486850D+03  0.6884262226D-01
      0.2921015530D+02  0.2321844432D+00
      0.9286662960D+01  0.4679413484D+00
      0.3163926960D+01  0.3623119853D+00
 SP   3 1.00       0.000000000000
      0.7868272350D+01 -0.1193324198D+00  0.6899906659D-01
      0.1881288540D+01 -0.1608541517D+00  0.3164239610D+00
      0.5442492580D+00  0.1143456438D+01  0.7443082909D+00
 SP   1 1.00       0.000000000000
      0.1687144782D+00  0.1000000000D+01  0.1000000000D+01
 D   1 1.00       0.000000000000
      0.8000000000D+00  0.1000000000D+01
 ****
     38 0
 S   6 1.00       0.000000000000
      0.4173511460D+04  0.1834772160D-02
      0.6274579110D+03  0.1399462700D-01
      0.1429020930D+03  0.6858655181D-01
      0.4023432930D+02  0.2322408730D+00
      0.1282021290D+02  0.4690699481D+00
      0.4390437010D+01  0.3604551991D+00
 SP   3 1.00       0.000000000000
      0.1162636186D+02 -0.1149611817D+00  0.6757974388D-01
      0.2716279807D+01 -0.1691174786D+00  0.3239072959D+00
      0.7722183966D+00  0.1145851947D+01  0.7408951398D+00
 SP   1 1.00       0.000000000000
      0.2120314975D+00  0.1000000000D+01  0.1000000000D+01
 D   1 1.00       0.000000000000
      0.8000000000D+00  0.1000000000D+01
 ****
     39 0
 S   6 1.00       0.000000000000
      0.3047524880D+04  0.1834737132D-02
      0.4573695180D+03  0.1403732281D-01
      0.1039486850D+03  0.6884262226D-01
      0.2921015530D+02  0.2321844432D+00
      0.9286662960D+01  0.4679413484D+00
      0.3163926960D+01  0.3623119853D+00
 SP   3 1.00       0.000000000000
      0.7868272350D+01 -0.1193324198D+00  0.6899906659D-01
      0.1881288540D+01 -0.1608541517D+00  0.3164239610D+00
      0.5442492580D+00  0.1143456438D+01  0.7443082909D+00
 SP   1 1.00       0.000000000000
      0.1687144782D+00  0.1000000000D+01  0.1000000000D+01
 D   1 1.00       0.000000000000
      0.8000000000D+00  0.1000000000D+01
 ****
     40 0
 S   6 1.00       0.000000000000
      0.3047524880D+04  0.1834737132D-02
      0.4573695180D+03  0.1403732281D-01
      0.1039486850D+03  0.6884262226D-01
      0.2921015530D+02  0.2321844432D+00
      0.9286662960D+01  0.4679413484D+00
      0.3163926960D+01  0.3623119853D+00
 SP   3 1.00       0.000000000000
      0.7868272350D+01 -0.1193324198D+00  0.6899906659D-01
      0.1881288540D+01 -0.1608541517D+00  0.3164239610D+00
      0.5442492580D+00  0.1143456438D+01  0.7443082909D+00
 SP   1 1.00       0.000000000000
      0.1687144782D+00  0.1000000000D+01  0.1000000000D+01
 D   1 1.00       0.000000000000
      0.8000000000D+00  0.1000000000D+01
 ****
     41 0
 S   6 1.00       0.000000000000
      0.3047524880D+04  0.1834737132D-02
      0.4573695180D+03  0.1403732281D-01
      0.1039486850D+03  0.6884262226D-01
      0.2921015530D+02  0.2321844432D+00
      0.9286662960D+01  0.4679413484D+00
      0.3163926960D+01  0.3623119853D+00
 SP   3 1.00       0.000000000000
      0.7868272350D+01 -0.1193324198D+00  0.6899906659D-01
      0.1881288540D+01 -0.1608541517D+00  0.3164239610D+00
      0.5442492580D+00  0.1143456438D+01  0.7443082909D+00
 SP   1 1.00       0.000000000000
      0.1687144782D+00  0.1000000000D+01  0.1000000000D+01
 D   1 1.00       0.000000000000
      0.8000000000D+00  0.1000000000D+01
 ****
     42 0
 S   6 1.00       0.000000000000
      0.3047524880D+04  0.1834737132D-02
      0.4573695180D+03  0.1403732281D-01
      0.1039486850D+03  0.6884262226D-01
      0.2921015530D+02  0.2321844432D+00
      0.9286662960D+01  0.4679413484D+00
      0.3163926960D+01  0.3623119853D+00
 SP   3 1.00       0.000000000000
      0.7868272350D+01 -0.1193324198D+00  0.6899906659D-01
      0.1881288540D+01 -0.1608541517D+00  0.3164239610D+00
      0.5442492580D+00  0.1143456438D+01  0.7443082909D+00
 SP   1 1.00       0.000000000000
      0.1687144782D+00  0.1000000000D+01  0.1000000000D+01
 D   1 1.00       0.000000000000
      0.8000000000D+00  0.1000000000D+01
 ****
     43 0
 S   6 1.00       0.000000000000
      0.3047524880D+04  0.1834737132D-02
      0.4573695180D+03  0.1403732281D-01
      0.1039486850D+03  0.6884262226D-01
      0.2921015530D+02  0.2321844432D+00
      0.9286662960D+01  0.4679413484D+00
      0.3163926960D+01  0.3623119853D+00
 SP   3 1.00       0.000000000000
      0.7868272350D+01 -0.1193324198D+00  0.6899906659D-01
      0.1881288540D+01 -0.1608541517D+00  0.3164239610D+00
      0.5442492580D+00  0.1143456438D+01  0.7443082909D+00
 SP   1 1.00       0.000000000000
      0.1687144782D+00  0.1000000000D+01  0.1000000000D+01
 D   1 1.00       0.000000000000
      0.8000000000D+00  0.1000000000D+01
 ****
     44 0
 S   6 1.00       0.000000000000
      0.3047524880D+04  0.1834737132D-02
      0.4573695180D+03  0.1403732281D-01
      0.1039486850D+03  0.6884262226D-01
      0.2921015530D+02  0.2321844432D+00
      0.9286662960D+01  0.4679413484D+00
      0.3163926960D+01  0.3623119853D+00
 SP   3 1.00       0.000000000000
      0.7868272350D+01 -0.1193324198D+00  0.6899906659D-01
      0.1881288540D+01 -0.1608541517D+00  0.3164239610D+00
      0.5442492580D+00  0.1143456438D+01  0.7443082909D+00
 SP   1 1.00       0.000000000000
      0.1687144782D+00  0.1000000000D+01  0.1000000000D+01
 D   1 1.00       0.000000000000
      0.8000000000D+00  0.1000000000D+01
 ****
     45 0
 S   6 1.00       0.000000000000
      0.3047524880D+04  0.1834737132D-02
      0.4573695180D+03  0.1403732281D-01
      0.1039486850D+03  0.6884262226D-01
      0.2921015530D+02  0.2321844432D+00
      0.9286662960D+01  0.4679413484D+00
      0.3163926960D+01  0.3623119853D+00
 SP   3 1.00       0.000000000000
      0.7868272350D+01 -0.1193324198D+00  0.6899906659D-01
      0.1881288540D+01 -0.1608541517D+00  0.3164239610D+00
      0.5442492580D+00  0.1143456438D+01  0.7443082909D+00
 SP   1 1.00       0.000000000000
      0.1687144782D+00  0.1000000000D+01  0.1000000000D+01
 D   1 1.00       0.000000000000
      0.8000000000D+00  0.1000000000D+01
 ****
     46 0
 S   6 1.00       0.000000000000
      0.3047524880D+04  0.1834737132D-02
      0.4573695180D+03  0.1403732281D-01
      0.1039486850D+03  0.6884262226D-01
      0.2921015530D+02  0.2321844432D+00
      0.9286662960D+01  0.4679413484D+00
      0.3163926960D+01  0.3623119853D+00
 SP   3 1.00       0.000000000000
      0.7868272350D+01 -0.1193324198D+00  0.6899906659D-01
      0.1881288540D+01 -0.1608541517D+00  0.3164239610D+00
      0.5442492580D+00  0.1143456438D+01  0.7443082909D+00
 SP   1 1.00       0.000000000000
      0.1687144782D+00  0.1000000000D+01  0.1000000000D+01
 D   1 1.00       0.000000000000
      0.8000000000D+00  0.1000000000D+01
 ****
     47 0
 S   6 1.00       0.000000000000
      0.3047524880D+04  0.1834737132D-02
      0.4573695180D+03  0.1403732281D-01
      0.1039486850D+03  0.6884262226D-01
      0.2921015530D+02  0.2321844432D+00
      0.9286662960D+01  0.4679413484D+00
      0.3163926960D+01  0.3623119853D+00
 SP   3 1.00       0.000000000000
      0.7868272350D+01 -0.1193324198D+00  0.6899906659D-01
      0.1881288540D+01 -0.1608541517D+00  0.3164239610D+00
      0.5442492580D+00  0.1143456438D+01  0.7443082909D+00
 SP   1 1.00       0.000000000000
      0.1687144782D+00  0.1000000000D+01  0.1000000000D+01
 D   1 1.00       0.000000000000
      0.8000000000D+00  0.1000000000D+01
 ****
     48 0
 S   6 1.00       0.000000000000
      0.5484671660D+04  0.1831074430D-02
      0.8252349460D+03  0.1395017220D-01
      0.1880469580D+03  0.6844507810D-01
      0.5296450000D+02  0.2327143360D+00
      0.1689757040D+02  0.4701928980D+00
      0.5799635340D+01  0.3585208530D+00
 SP   3 1.00       0.000000000000
      0.1553961625D+02 -0.1107775495D+00  0.7087426823D-01
      0.3599933586D+01 -0.1480262627D+00  0.3397528391D+00
      0.1013761750D+01  0.1130767015D+01  0.7271585773D+00
 SP   1 1.00       0.000000000000
      0.2700058226D+00  0.1000000000D+01  0.1000000000D+01
 D   1 1.00       0.000000000000
      0.8000000000D+00  0.1000000000D+01
 ****
     49 0
 S   6 1.00       0.000000000000
      0.3047524880D+04  0.1834737132D-02
      0.4573695180D+03  0.1403732281D-01
      0.1039486850D+03  0.6884262226D-01
      0.2921015530D+02  0.2321844432D+00
      0.9286662960D+01  0.4679413484D+00
      0.3163926960D+01  0.3623119853D+00
 SP   3 1.00       0.000000000000
      0.7868272350D+01 -0.1193324198D+00  0.6899906659D-01
      0.1881288540D+01 -0.1608541517D+00  0.3164239610D+00
      0.5442492580D+00  0.1143456438D+01  0.7443082909D+00
 SP   1 1.00       0.000000000000
      0.1687144782D+00  0.1000000000D+01  0.1000000000D+01
 D   1 1.00       0.000000000000
      0.8000000000D+00  0.1000000000D+01
 ****
     50 0
 S   6 1.00       0.000000000000
      0.3047524880D+04  0.1834737132D-02
      0.4573695180D+03  0.1403732281D-01
      0.1039486850D+03  0.6884262226D-01
      0.2921015530D+02  0.2321844432D+00
      0.9286662960D+01  0.4679413484D+00
      0.3163926960D+01  0.3623119853D+00
 SP   3 1.00       0.000000000000
      0.7868272350D+01 -0.1193324198D+00  0.6899906659D-01
      0.1881288540D+01 -0.1608541517D+00  0.3164239610D+00
      0.5442492580D+00  0.1143456438D+01  0.7443082909D+00
 SP   1 1.00       0.000000000000
      0.1687144782D+00  0.1000000000D+01  0.1000000000D+01
 D   1 1.00       0.000000000000
      0.8000000000D+00  0.1000000000D+01
 ****
     51 0
 S   6 1.00       0.000000000000
      0.3047524880D+04  0.1834737132D-02
      0.4573695180D+03  0.1403732281D-01
      0.1039486850D+03  0.6884262226D-01
      0.2921015530D+02  0.2321844432D+00
      0.9286662960D+01  0.4679413484D+00
      0.3163926960D+01  0.3623119853D+00
 SP   3 1.00       0.000000000000
      0.7868272350D+01 -0.1193324198D+00  0.6899906659D-01
      0.1881288540D+01 -0.1608541517D+00  0.3164239610D+00
      0.5442492580D+00  0.1143456438D+01  0.7443082909D+00
 SP   1 1.00       0.000000000000
      0.1687144782D+00  0.1000000000D+01  0.1000000000D+01
 D   1 1.00       0.000000000000
      0.8000000000D+00  0.1000000000D+01
 ****
     52 0
 S   6 1.00       0.000000000000
      0.3047524880D+04  0.1834737132D-02
      0.4573695180D+03  0.1403732281D-01
      0.1039486850D+03  0.6884262226D-01
      0.2921015530D+02  0.2321844432D+00
      0.9286662960D+01  0.4679413484D+00
      0.3163926960D+01  0.3623119853D+00
 SP   3 1.00       0.000000000000
      0.7868272350D+01 -0.1193324198D+00  0.6899906659D-01
      0.1881288540D+01 -0.1608541517D+00  0.3164239610D+00
      0.5442492580D+00  0.1143456438D+01  0.7443082909D+00
 SP   1 1.00       0.000000000000
      0.1687144782D+00  0.1000000000D+01  0.1000000000D+01
 D   1 1.00       0.000000000000
      0.8000000000D+00  0.1000000000D+01
 ****
     53 0
 S   6 1.00       0.000000000000
      0.3047524880D+04  0.1834737132D-02
      0.4573695180D+03  0.1403732281D-01
      0.1039486850D+03  0.6884262226D-01
      0.2921015530D+02  0.2321844432D+00
      0.9286662960D+01  0.4679413484D+00
      0.3163926960D+01  0.3623119853D+00
 SP   3 1.00       0.000000000000
      0.7868272350D+01 -0.1193324198D+00  0.6899906659D-01
      0.1881288540D+01 -0.1608541517D+00  0.3164239610D+00
      0.5442492580D+00  0.1143456438D+01  0.7443082909D+00
 SP   1 1.00       0.000000000000
      0.1687144782D+00  0.1000000000D+01  0.1000000000D+01
 D   1 1.00       0.000000000000
      0.8000000000D+00  0.1000000000D+01
 ****
     54 0
 S   6 1.00       0.000000000000
      0.3047524880D+04  0.1834737132D-02
      0.4573695180D+03  0.1403732281D-01
      0.1039486850D+03  0.6884262226D-01
      0.2921015530D+02  0.2321844432D+00
      0.9286662960D+01  0.4679413484D+00
      0.3163926960D+01  0.3623119853D+00
 SP   3 1.00       0.000000000000
      0.7868272350D+01 -0.1193324198D+00  0.6899906659D-01
      0.1881288540D+01 -0.1608541517D+00  0.3164239610D+00
      0.5442492580D+00  0.1143456438D+01  0.7443082909D+00
 SP   1 1.00       0.000000000000
      0.1687144782D+00  0.1000000000D+01  0.1000000000D+01
 D   1 1.00       0.000000000000
      0.8000000000D+00  0.1000000000D+01
 ****
     55 0
 S   6 1.00       0.000000000000
      0.3047524880D+04  0.1834737132D-02
      0.4573695180D+03  0.1403732281D-01
      0.1039486850D+03  0.6884262226D-01
      0.2921015530D+02  0.2321844432D+00
      0.9286662960D+01  0.4679413484D+00
      0.3163926960D+01  0.3623119853D+00
 SP   3 1.00       0.000000000000
      0.7868272350D+01 -0.1193324198D+00  0.6899906659D-01
      0.1881288540D+01 -0.1608541517D+00  0.3164239610D+00
      0.5442492580D+00  0.1143456438D+01  0.7443082909D+00
 SP   1 1.00       0.000000000000
      0.1687144782D+00  0.1000000000D+01  0.1000000000D+01
 D   1 1.00       0.000000000000
      0.8000000000D+00  0.1000000000D+01
 ****
     56 0
 S   6 1.00       0.000000000000
      0.3047524880D+04  0.1834737132D-02
      0.4573695180D+03  0.1403732281D-01
      0.1039486850D+03  0.6884262226D-01
      0.2921015530D+02  0.2321844432D+00
      0.9286662960D+01  0.4679413484D+00
      0.3163926960D+01  0.3623119853D+00
 SP   3 1.00       0.000000000000
      0.7868272350D+01 -0.1193324198D+00  0.6899906659D-01
      0.1881288540D+01 -0.1608541517D+00  0.3164239610D+00
      0.5442492580D+00  0.1143456438D+01  0.7443082909D+00
 SP   1 1.00       0.000000000000
      0.1687144782D+00  0.1000000000D+01  0.1000000000D+01
 D   1 1.00       0.000000000000
      0.8000000000D+00  0.1000000000D+01
 ****
     57 0
 S   6 1.00       0.000000000000
      0.3047524880D+04  0.1834737132D-02
      0.4573695180D+03  0.1403732281D-01
      0.1039486850D+03  0.6884262226D-01
      0.2921015530D+02  0.2321844432D+00
      0.9286662960D+01  0.4679413484D+00
      0.3163926960D+01  0.3623119853D+00
 SP   3 1.00       0.000000000000
      0.7868272350D+01 -0.1193324198D+00  0.6899906659D-01
      0.1881288540D+01 -0.1608541517D+00  0.3164239610D+00
      0.5442492580D+00  0.1143456438D+01  0.7443082909D+00
 SP   1 1.00       0.000000000000
      0.1687144782D+00  0.1000000000D+01  0.1000000000D+01
 D   1 1.00       0.000000000000
      0.8000000000D+00  0.1000000000D+01
 ****
     58 0
 S   6 1.00       0.000000000000
      0.3047524880D+04  0.1834737132D-02
      0.4573695180D+03  0.1403732281D-01
      0.1039486850D+03  0.6884262226D-01
      0.2921015530D+02  0.2321844432D+00
      0.9286662960D+01  0.4679413484D+00
      0.3163926960D+01  0.3623119853D+00
 SP   3 1.00       0.000000000000
      0.7868272350D+01 -0.1193324198D+00  0.6899906659D-01
      0.1881288540D+01 -0.1608541517D+00  0.3164239610D+00
      0.5442492580D+00  0.1143456438D+01  0.7443082909D+00
 SP   1 1.00       0.000000000000
      0.1687144782D+00  0.1000000000D+01  0.1000000000D+01
 D   1 1.00       0.000000000000
      0.8000000000D+00  0.1000000000D+01
 ****
     59 0
 S   6 1.00       0.000000000000
      0.3047524880D+04  0.1834737132D-02
      0.4573695180D+03  0.1403732281D-01
      0.1039486850D+03  0.6884262226D-01
      0.2921015530D+02  0.2321844432D+00
      0.9286662960D+01  0.4679413484D+00
      0.3163926960D+01  0.3623119853D+00
 SP   3 1.00       0.000000000000
      0.7868272350D+01 -0.1193324198D+00  0.6899906659D-01
      0.1881288540D+01 -0.1608541517D+00  0.3164239610D+00
      0.5442492580D+00  0.1143456438D+01  0.7443082909D+00
 SP   1 1.00       0.000000000000
      0.1687144782D+00  0.1000000000D+01  0.1000000000D+01
 D   1 1.00       0.000000000000
      0.8000000000D+00  0.1000000000D+01
 ****
     60 0
 S   6 1.00       0.000000000000
      0.3047524880D+04  0.1834737132D-02
      0.4573695180D+03  0.1403732281D-01
      0.1039486850D+03  0.6884262226D-01
      0.2921015530D+02  0.2321844432D+00
      0.9286662960D+01  0.4679413484D+00
      0.3163926960D+01  0.3623119853D+00
 SP   3 1.00       0.000000000000
      0.7868272350D+01 -0.1193324198D+00  0.6899906659D-01
      0.1881288540D+01 -0.1608541517D+00  0.3164239610D+00
      0.5442492580D+00  0.1143456438D+01  0.7443082909D+00
 SP   1 1.00       0.000000000000
      0.1687144782D+00  0.1000000000D+01  0.1000000000D+01
 D   1 1.00       0.000000000000
      0.8000000000D+00  0.1000000000D+01
 ****
     61 0
 S   6 1.00       0.000000000000
      0.3047524880D+04  0.1834737132D-02
      0.4573695180D+03  0.1403732281D-01
      0.1039486850D+03  0.6884262226D-01
      0.2921015530D+02  0.2321844432D+00
      0.9286662960D+01  0.4679413484D+00
      0.3163926960D+01  0.3623119853D+00
 SP   3 1.00       0.000000000000
      0.7868272350D+01 -0.1193324198D+00  0.6899906659D-01
      0.1881288540D+01 -0.1608541517D+00  0.3164239610D+00
      0.5442492580D+00  0.1143456438D+01  0.7443082909D+00
 SP   1 1.00       0.000000000000
      0.1687144782D+00  0.1000000000D+01  0.1000000000D+01
 D   1 1.00       0.000000000000
      0.8000000000D+00  0.1000000000D+01
 ****
     62 0
 S   6 1.00       0.000000000000
      0.3047524880D+04  0.1834737132D-02
      0.4573695180D+03  0.1403732281D-01
      0.1039486850D+03  0.6884262226D-01
      0.2921015530D+02  0.2321844432D+00
      0.9286662960D+01  0.4679413484D+00
      0.3163926960D+01  0.3623119853D+00
 SP   3 1.00       0.000000000000
      0.7868272350D+01 -0.1193324198D+00  0.6899906659D-01
      0.1881288540D+01 -0.1608541517D+00  0.3164239610D+00
      0.5442492580D+00  0.1143456438D+01  0.7443082909D+00
 SP   1 1.00       0.000000000000
      0.1687144782D+00  0.1000000000D+01  0.1000000000D+01
 D   1 1.00       0.000000000000
      0.8000000000D+00  0.1000000000D+01
 ****
     63 0
 S   6 1.00       0.000000000000
      0.3047524880D+04  0.1834737132D-02
      0.4573695180D+03  0.1403732281D-01
      0.1039486850D+03  0.6884262226D-01
      0.2921015530D+02  0.2321844432D+00
      0.9286662960D+01  0.4679413484D+00
      0.3163926960D+01  0.3623119853D+00
 SP   3 1.00       0.000000000000
      0.7868272350D+01 -0.1193324198D+00  0.6899906659D-01
      0.1881288540D+01 -0.1608541517D+00  0.3164239610D+00
      0.5442492580D+00  0.1143456438D+01  0.7443082909D+00
 SP   1 1.00       0.000000000000
      0.1687144782D+00  0.1000000000D+01  0.1000000000D+01
 D   1 1.00       0.000000000000
      0.8000000000D+00  0.1000000000D+01
 ****
     64 0
 S   6 1.00       0.000000000000
      0.4173511460D+04  0.1834772160D-02
      0.6274579110D+03  0.1399462700D-01
      0.1429020930D+03  0.6858655181D-01
      0.4023432930D+02  0.2322408730D+00
      0.1282021290D+02  0.4690699481D+00
      0.4390437010D+01  0.3604551991D+00
 SP   3 1.00       0.000000000000
      0.1162636186D+02 -0.1149611817D+00  0.6757974388D-01
      0.2716279807D+01 -0.1691174786D+00  0.3239072959D+00
      0.7722183966D+00  0.1145851947D+01  0.7408951398D+00
 SP   1 1.00       0.000000000000
      0.2120314975D+00  0.1000000000D+01  0.1000000000D+01
 D   1 1.00       0.000000000000
      0.8000000000D+00  0.1000000000D+01
 ****
     65 0
 S   6 1.00       0.000000000000
      0.3047524880D+04  0.1834737132D-02
      0.4573695180D+03  0.1403732281D-01
      0.1039486850D+03  0.6884262226D-01
      0.2921015530D+02  0.2321844432D+00
      0.9286662960D+01  0.4679413484D+00
      0.3163926960D+01  0.3623119853D+00
 SP   3 1.00       0.000000000000
      0.7868272350D+01 -0.1193324198D+00  0.6899906659D-01
      0.1881288540D+01 -0.1608541517D+00  0.3164239610D+00
      0.5442492580D+00  0.1143456438D+01  0.7443082909D+00
 SP   1 1.00       0.000000000000
      0.1687144782D+00  0.1000000000D+01  0.1000000000D+01
 D   1 1.00       0.000000000000
      0.8000000000D+00  0.1000000000D+01
 ****
     66 0
 S   6 1.00       0.000000000000
      0.3047524880D+04  0.1834737132D-02
      0.4573695180D+03  0.1403732281D-01
      0.1039486850D+03  0.6884262226D-01
      0.2921015530D+02  0.2321844432D+00
      0.9286662960D+01  0.4679413484D+00
      0.3163926960D+01  0.3623119853D+00
 SP   3 1.00       0.000000000000
      0.7868272350D+01 -0.1193324198D+00  0.6899906659D-01
      0.1881288540D+01 -0.1608541517D+00  0.3164239610D+00
      0.5442492580D+00  0.1143456438D+01  0.7443082909D+00
 SP   1 1.00       0.000000000000
      0.1687144782D+00  0.1000000000D+01  0.1000000000D+01
 D   1 1.00       0.000000000000
      0.8000000000D+00  0.1000000000D+01
 ****
     67 0
 S   6 1.00       0.000000000000
      0.3047524880D+04  0.1834737132D-02
      0.4573695180D+03  0.1403732281D-01
      0.1039486850D+03  0.6884262226D-01
      0.2921015530D+02  0.2321844432D+00
      0.9286662960D+01  0.4679413484D+00
      0.3163926960D+01  0.3623119853D+00
 SP   3 1.00       0.000000000000
      0.7868272350D+01 -0.1193324198D+00  0.6899906659D-01
      0.1881288540D+01 -0.1608541517D+00  0.3164239610D+00
      0.5442492580D+00  0.1143456438D+01  0.7443082909D+00
 SP   1 1.00       0.000000000000
      0.1687144782D+00  0.1000000000D+01  0.1000000000D+01
 D   1 1.00       0.000000000000
      0.8000000000D+00  0.1000000000D+01
 ****
     68 0
 S   6 1.00       0.000000000000
      0.3047524880D+04  0.1834737132D-02
      0.4573695180D+03  0.1403732281D-01
      0.1039486850D+03  0.6884262226D-01
      0.2921015530D+02  0.2321844432D+00
      0.9286662960D+01  0.4679413484D+00
      0.3163926960D+01  0.3623119853D+00
 SP   3 1.00       0.000000000000
      0.7868272350D+01 -0.1193324198D+00  0.6899906659D-01
      0.1881288540D+01 -0.1608541517D+00  0.3164239610D+00
      0.5442492580D+00  0.1143456438D+01  0.7443082909D+00
 SP   1 1.00       0.000000000000
      0.1687144782D+00  0.1000000000D+01  0.1000000000D+01
 D   1 1.00       0.000000000000
      0.8000000000D+00  0.1000000000D+01
 ****
     69 0
 S   6 1.00       0.000000000000
      0.3047524880D+04  0.1834737132D-02
      0.4573695180D+03  0.1403732281D-01
      0.1039486850D+03  0.6884262226D-01
      0.2921015530D+02  0.2321844432D+00
      0.9286662960D+01  0.4679413484D+00
      0.3163926960D+01  0.3623119853D+00
 SP   3 1.00       0.000000000000
      0.7868272350D+01 -0.1193324198D+00  0.6899906659D-01
      0.1881288540D+01 -0.1608541517D+00  0.3164239610D+00
      0.5442492580D+00  0.1143456438D+01  0.7443082909D+00
 SP   1 1.00       0.000000000000
[...]
 Alpha virt. eigenvalues --    1.29702   1.30780   1.32093   1.32284   1.32462
 Alpha virt. eigenvalues --    1.33179   1.33388   1.33820   1.34164   1.34356
 Alpha virt. eigenvalues --    1.34462   1.34775   1.34839   1.35627   1.35744
 Alpha virt. eigenvalues --    1.35825   1.36151   1.36627   1.37157   1.37847
 Alpha virt. eigenvalues --    1.38518   1.39608   1.40177   1.40234   1.40496
 Alpha virt. eigenvalues --    1.41107   1.41198   1.41536   1.41643   1.42157
 Alpha virt. eigenvalues --    1.42570   1.42731   1.42978   1.43330   1.43513
 Alpha virt. eigenvalues --    1.44044   1.44516   1.44568   1.45053   1.45285
 Alpha virt. eigenvalues --    1.45483   1.45668   1.45993   1.46071   1.46385
 Alpha virt. eigenvalues --    1.46471   1.46707   1.47009   1.47311   1.47406
 Alpha virt. eigenvalues --    1.47564   1.48021   1.48108   1.48398   1.48487
 Alpha virt. eigenvalues --    1.48797   1.49081   1.49178   1.49276   1.49413
 Alpha virt. eigenvalues --    1.49452   1.49822   1.50045   1.50255   1.50521
 Alpha virt. eigenvalues --    1.50567   1.50584   1.50719   1.50842   1.52853
 Alpha virt. eigenvalues --    1.53028   1.53628   1.54596   1.56869   1.58376
 Alpha virt. eigenvalues --    1.59396   1.59514   1.60198   1.60780   1.61945
 Alpha virt. eigenvalues --    1.63068   1.63739   1.64169   1.65113   1.65252
 Alpha virt. eigenvalues --    1.66063   1.66650   1.67189   1.68752   1.69153
 Alpha virt. eigenvalues --    1.70446   1.70772   1.70901   1.71169   1.71864
 Alpha virt. eigenvalues --    1.72263   1.72667   1.72955   1.74318   1.74802
 Alpha virt. eigenvalues --    1.74881   1.75268   1.75713   1.76256   1.76671
 Alpha virt. eigenvalues --    1.76879   1.77113   1.77203   1.78245   1.78251
 Alpha virt. eigenvalues --    1.78650   1.78880   1.79879   1.80196   1.80601
 Alpha virt. eigenvalues --    1.80656   1.80786   1.80985   1.81455   1.81621
 Alpha virt. eigenvalues --    1.81807   1.81965   1.82178   1.82458   1.82581
 Alpha virt. eigenvalues --    1.82922   1.83161   1.83856   1.84200   1.84471
 Alpha virt. eigenvalues --    1.84812   1.84822   1.85628   1.85803   1.86003
 Alpha virt. eigenvalues --    1.86256   1.86669   1.88250   1.88684   1.89013
 Alpha virt. eigenvalues --    1.89270   1.89486   1.90133   1.90762   1.90843
 Alpha virt. eigenvalues --    1.91048   1.91342   1.91619   1.91744   1.92029
 Alpha virt. eigenvalues --    1.92209   1.92660   1.92950   1.93117   1.93305
 Alpha virt. eigenvalues --    1.93452   1.93713   1.94105   1.94220   1.94532
 Alpha virt. eigenvalues --    1.94642   1.95012   1.95636   1.95961   1.96183
 Alpha virt. eigenvalues --    1.96854   1.97103   1.97803   1.98026   1.98164
 Alpha virt. eigenvalues --    1.98696   1.98766   1.99048   1.99486   2.00112
 Alpha virt. eigenvalues --    2.01022   2.01123   2.01685   2.01873   2.02687
 Alpha virt. eigenvalues --    2.03129   2.03575   2.03881   2.04071   2.04838
 Alpha virt. eigenvalues --    2.05043   2.05385   2.06018   2.06200   2.06529
 Alpha virt. eigenvalues --    2.06961   2.07448   2.07680   2.08471   2.08998
 Alpha virt. eigenvalues --    2.09137   2.09488   2.09836   2.10127   2.10760
 Alpha virt. eigenvalues --    2.11206   2.11354   2.11878   2.12080   2.12241
 Alpha virt. eigenvalues --    2.12281   2.12631   2.13201   2.13417   2.13587
 Alpha virt. eigenvalues --    2.13930   2.14581   2.14855   2.14885   2.15587
 Alpha virt. eigenvalues --    2.15896   2.17253   2.17543   2.17932   2.18191
 Alpha virt. eigenvalues --    2.18367   2.18577   2.19793   2.20143   2.20298
 Alpha virt. eigenvalues --    2.20485   2.20596   2.20887   2.21314   2.21887
 Alpha virt. eigenvalues --    2.22122   2.22882   2.23154   2.23286   2.23490
 Alpha virt. eigenvalues --    2.24086   2.24395   2.24899   2.25035   2.25183
 Alpha virt. eigenvalues --    2.25477   2.25606   2.25663   2.26076   2.26380
 Alpha virt. eigenvalues --    2.26610   2.26776   2.27011   2.27297   2.27391
 Alpha virt. eigenvalues --    2.27638   2.28271   2.28651   2.28901   2.29072
 Alpha virt. eigenvalues --    2.29107   2.29571   2.29678   2.30340   2.30582
 Alpha virt. eigenvalues --    2.30852   2.31390   2.31603   2.32014   2.32142
 Alpha virt. eigenvalues --    2.33512   2.34931   2.35120   2.35480   2.35811
 Alpha virt. eigenvalues --    2.36782   2.37034   2.37553   2.37725   2.38256
 Alpha virt. eigenvalues --    2.38743   2.38984   2.39340   2.40163   2.40374
 Alpha virt. eigenvalues --    2.41304   2.41467   2.42514   2.42673   2.43865
 Alpha virt. eigenvalues --    2.44556   2.44887   2.45534   2.45581   2.46329
 Alpha virt. eigenvalues --    2.46667   2.47920   2.48439   2.49245   2.50141
 Alpha virt. eigenvalues --    2.51600   2.52601   2.53716   2.53997   2.54934
 Alpha virt. eigenvalues --    2.55113   2.56173   2.56321   2.56582   2.57597
 Alpha virt. eigenvalues --    2.58046   2.58309   2.58569   2.59520   2.59778
 Alpha virt. eigenvalues --    2.60348   2.60481   2.61053   2.61500   2.61680
 Alpha virt. eigenvalues --    2.62117   2.62154   2.63128   2.63794   2.63925
 Alpha virt. eigenvalues --    2.64542   2.64665   2.65070   2.65258   2.65614
 Alpha virt. eigenvalues --    2.65842   2.66237   2.66990   2.67317   2.67402
 Alpha virt. eigenvalues --    2.67623   2.67917   2.68416   2.68642   2.69179
 Alpha virt. eigenvalues --    2.69402   2.69840   2.70010   2.70768   2.70856
 Alpha virt. eigenvalues --    2.71658   2.71938   2.72452   2.73480   2.73553
 Alpha virt. eigenvalues --    2.73871   2.74045   2.74591   2.74980   2.75505
 Alpha virt. eigenvalues --    2.75581   2.75675   2.76406   2.77061   2.77302
 Alpha virt. eigenvalues --    2.78057   2.78373   2.78614   2.79007   2.79374
 Alpha virt. eigenvalues --    2.80627   2.81357   2.82335   2.82714   2.83402
 Alpha virt. eigenvalues --    2.83937   2.84625   2.85382   2.85930   2.86395
 Alpha virt. eigenvalues --    2.87757   2.88139   2.88512   2.90105   2.90286
 Alpha virt. eigenvalues --    2.90821   2.92032   2.92913   2.94341   2.94408
 Alpha virt. eigenvalues --    2.95504   2.97335   2.97777   2.98607   2.99648
 Alpha virt. eigenvalues --    3.00156   3.01760   3.01853   3.04471   3.04951
 Alpha virt. eigenvalues --    3.08461   3.08735   3.09443   3.11028   3.15286
 Alpha virt. eigenvalues --    3.16018   3.20040   3.21255   3.22503   3.23946
 Alpha virt. eigenvalues --    3.27461   3.31975   3.32031   3.33170   3.33499
 Alpha virt. eigenvalues --    3.34743   3.35857   3.37019   3.38049   3.42226
 Alpha virt. eigenvalues --    3.44088   3.45743   3.51963   3.54318   3.55162
 Alpha virt. eigenvalues --    3.57240   4.02972   4.04134   4.07877   4.08510
 Alpha virt. eigenvalues --    4.08736   4.08884   4.09067   4.09699   4.09871
 Alpha virt. eigenvalues --    4.09998   4.10292   4.10590   4.10718   4.11189
 Alpha virt. eigenvalues --    4.11388   4.11523   4.12641   4.13378   4.13756
 Alpha virt. eigenvalues --    4.14778   4.15151   4.15262   4.15691   4.16015
 Alpha virt. eigenvalues --    4.17140   4.17973   4.18316   4.18767   4.19197
 Alpha virt. eigenvalues --    4.19786   4.20450   4.22754   4.23174   4.24730
 Alpha virt. eigenvalues --    4.29334   4.29367   4.29963   4.31031   4.31154
 Alpha virt. eigenvalues --    4.31336   4.32500   4.33633   4.34426   4.35868
 Alpha virt. eigenvalues --    4.37077   4.37779   4.38169   4.38933   4.40096
 Alpha virt. eigenvalues --    4.41407   4.43409   4.43715   4.43946   4.44978
 Alpha virt. eigenvalues --    4.46972   4.48668   4.49057   4.52771   4.54280
 Alpha virt. eigenvalues --    4.58580   4.62522   4.65185   4.72930   4.73209
 Alpha virt. eigenvalues --    4.77582   4.80131   4.82445   4.82686   4.84257
 Alpha virt. eigenvalues --    4.86682   4.89404   4.89819   4.92421
          Condensed to atoms (all electrons):
 Mulliken charges:
               1
     1  C   -0.436770
     2  C   -0.064342
     3  C   -0.436655
     4  C    0.101123
     5  C   -0.203951
     6  C   -0.133326
     7  C   -0.136347
     8  C   -0.193214
     9  C    0.078282
    10  C    0.075165
    11  C   -0.272639
    12  C    0.063967
    13  C    0.060503
    14  C   -0.250056
    15  C    0.069359
    16  C    0.022488
    17  C   -0.186815
    18  C   -0.139369
    19  C   -0.201897
    20  C    0.317039
    21  O   -0.551501
    22  C    0.317442
    23  C   -0.207180
    24  C   -0.189084
    25  C    0.080400
    26  C    0.088302
    27  C   -0.195840
    28  C   -0.177930
    29  C    0.317630
    30  C    0.065544
    31  C   -0.258216
    32  C    0.057658
    33  C   -0.198510
    34  C   -0.148303
    35  C   -0.143024
    36  C   -0.176132
    37  C    0.311401
    38  N   -0.741005
    39  C    0.276152
    40  C   -0.157274
    41  C   -0.182346
    42  C    0.088346
    43  C    0.017719
    44  C   -0.185072
    45  C   -0.139670
    46  C   -0.198762
    47  C    0.319585
    48  O   -0.547547
    49  C    0.315392
    50  C   -0.201814
    51  C   -0.135164
    52  C   -0.146457
    53  C   -0.197365
    54  C    0.079093
    55  C    0.027896
    56  C   -0.188374
    57  C   -0.159306
    58  C   -0.259408
    59  C    0.084945
    60  C    0.023281
    61  C   -0.190492
    62  C   -0.182453
    63  C    0.321729
    64  N   -0.744814
    65  C    0.258454
    66  C   -0.145983
    67  C   -0.141179
    68  C   -0.124689
    69  C   -0.143137
    70  C   -0.148441
    71  C    0.323366
    72  C   -0.260885
    73  C    0.093905
    74  H    0.140968
    75  H    0.143758
    76  H    0.157711
    77  H    0.157789
    78  H    0.143375
    79  H    0.142885
    80  H    0.121909
    81  H    0.124662
    82  H    0.125931
    83  H    0.126484
    84  H    0.133317
    85  H    0.136612
    86  H    0.131007
    87  H    0.132731
    88  H    0.144587
    89  H    0.144558
    90  H    0.132998
    91  H    0.129641
    92  H    0.138180
    93  H    0.135861
    94  H    0.134560
    95  H    0.124505
    96  H    0.124391
    97  H    0.138483
    98  H    0.154676
    99  H    0.144010
   100  H    0.132484
   101  H    0.136489
   102  H    0.148770
   103  H    0.147594
   104  H    0.134951
   105  H    0.131005
   106  H    0.150020
   107  H    0.152717
   108  H    0.156423
   109  H    0.159328
   110  H    0.141840
   111  H    0.141887
   112  H    0.156370
   113  H    0.142891
   114  H    0.136460
   115  H    0.140462
   116  H    0.153323
   117  H    0.137974
 Sum of Mulliken charges =  -0.00000
 Mulliken charges with hydrogens summed into heavy atoms:
               1
     1  C    0.005666
     2  C   -0.064342
     3  C    0.007394
     4  C    0.101123
     5  C   -0.082042
     6  C   -0.008664
     7  C   -0.010416
     8  C   -0.066730
     9  C    0.078282
    10  C    0.075165
    11  C   -0.139323
    12  C    0.063967
    13  C    0.060503
    14  C   -0.113444
    15  C    0.069359
    16  C    0.022488
    17  C   -0.055808
    18  C   -0.006638
    19  C   -0.057310
    20  C    0.317039
    21  O   -0.551501
    22  C    0.317442
    23  C   -0.062622
    24  C   -0.056086
    25  C    0.080400
    26  C    0.088302
    27  C   -0.066199
    28  C   -0.039749
    29  C    0.317630
    30  C    0.065544
    31  C   -0.122355
    32  C    0.057658
    33  C   -0.063950
    34  C   -0.023797
    35  C   -0.018634
    36  C   -0.037650
    37  C    0.311401
    38  N   -0.741005
    39  C    0.276152
    40  C   -0.002598
    41  C   -0.038336
    42  C    0.088346
    43  C    0.017719
    44  C   -0.052589
    45  C   -0.003181
    46  C   -0.049992
    47  C    0.319585
    48  O   -0.547547
    49  C    0.315392
    50  C   -0.054221
    51  C   -0.000213
    52  C   -0.015452
    53  C   -0.047345
    54  C    0.079093
    55  C    0.027896
    56  C   -0.035658
    57  C   -0.002883
    58  C   -0.100080
    59  C    0.084945
    60  C    0.023281
    61  C   -0.048653
    62  C   -0.040566
    63  C    0.321729
    64  N   -0.744814
    65  C    0.258454
    66  C    0.010387
    67  C    0.001712
    68  C    0.011771
    69  C   -0.002675
    70  C    0.004881
    71  C    0.323366
    72  C   -0.122911
    73  C    0.093905
 Electronic spatial extent (au):  <R**2>=          96564.8517
 Charge=             -0.0000 electrons
 Dipole moment (field-independent basis, Debye):
    X=              0.1482    Y=              3.5841    Z=             -0.5740  Tot=              3.6328
 Quadrupole moment (field-independent basis, Debye-Ang):
   XX=           -390.3049   YY=           -379.0423   ZZ=           -411.6337
   XY=             -6.1486   XZ=             -3.1758   YZ=              1.1156
 Traceless Quadrupole moment (field-independent basis, Debye-Ang):
   XX=              3.3554   YY=             14.6180   ZZ=            -17.9734
   XY=             -6.1486   XZ=             -3.1758   YZ=              1.1156
 Octapole moment (field-independent basis, Debye-Ang**2):
  XXX=           -143.9486  YYY=            261.6462  ZZZ=           -274.7390  XYY=            -64.3755
  XXY=             75.6350  XXZ=            -91.5430  XZZ=           -191.0903  YZZ=             71.6654
  YYZ=            -69.8472  XYZ=            -34.4508
 Hexadecapole moment (field-independent basis, Debye-Ang**3):
 XXXX=         -87468.1540 YYYY=         -24481.9952 ZZZZ=         -19959.0261 XXXY=          -9348.3438
 XXXZ=          -4859.6194 YYYX=          -7666.0696 YYYZ=           2555.3415 ZZZX=          -3490.0124
 ZZZY=           2829.2080 XXYY=         -17115.7697 XXZZ=         -17641.9489 YYZZ=          -7515.7577
 XXYZ=            575.9798 YYXZ=          -1528.1911 ZZXY=          -3074.4354
 N-N= 9.720362296735D+03 E-N=-2.619908140922D+04  KE= 2.888018898196D+03
 Leave Link  601 at Sat Nov  5 12:23:41 2022, MaxMem=   402653184 cpu:               4.1 elap:               0.4
 (Enter /home/wykgroup/appl/g16/l9999.exe)
 1\1\GINC-NODE80\SP\RB3LYP TD-FC\6-31G(d)\C69H44N2O2\WYKGROUP\05-Nov-20
 22\0\\#p b3lyp/6-31g(d) 6D 10F nosymm GFInput td=(50-50,nstate=2) SCF=
 XQC\\Gaussian input prepared by ASE\\0,1\C,0,-5.6903311477,1.454127985
 3,-5.2002711745\C,0,-6.6938054891,0.5108901131,-4.4994368261\C,0,-8.01
 99212965,1.2581082761,-4.2328107273\C,0,-6.9258533446,-0.7604420516,-5
 .3158823717\C,0,-7.446770609,-0.8874918719,-6.5985299015\C,0,-7.573570
 1275,-2.1630600132,-7.1619969426\C,0,-7.1809231962,-3.2968375395,-6.44
 33732902\C,0,-6.657050974,-3.1756529602,-5.154251527\C,0,-6.5307440598
 ,-1.9032153852,-4.5922218715\C,0,-6.0244245903,-1.4786877206,-3.281497
 1382\C,0,-5.5310263024,-2.2264459858,-2.2163172449\C,0,-5.1119097116,-
 1.5441195827,-1.0680571984\C,0,-4.5782682528,-1.9789870161,0.206317527
 7\C,0,-4.2677875224,-3.2326767274,0.741456031\C,0,-3.7228565225,-3.328
 7336257,2.0266748233\C,0,-3.4419998248,-4.6581003241,2.632889404\C,0,-
 4.4562040455,-5.625572115,2.6913038329\C,0,-4.2660097406,-6.8741924108
 ,3.2988586636\C,0,-3.0467095989,-7.2134868424,3.8841237938\C,0,-2.0422
 923155,-6.2596752979,3.8101922481\O,0,-0.771697315,-6.4398039648,4.305
 8357129\C,0,-0.0761179005,-5.2985219175,3.9844532312\C,0,1.2601173914,
 -5.0728202621,4.2796783386\C,0,1.8098801589,-3.8703889939,3.8415431943
 \C,0,1.0574572789,-2.9204332648,3.1128233675\C,0,1.6914670655,-1.66162
 81746,2.6391354156\C,0,3.0409867945,-1.6516298983,2.2141021443\C,0,3.6
 742515421,-0.498286059,1.7633736613\C,0,2.9317883699,0.6840908086,1.72
 34344723\C,0,1.579439301,0.7105318171,2.1451225843\C,0,0.9706088306,-0
 .4610403762,2.6016727993\C,0,1.1249892365,2.0794955384,2.0088970016\C,
 0,-0.0988560988,2.7172604045,2.2401591105\C,0,-0.2142167412,4.07963460
 97,1.978707873\C,0,0.8803921104,4.8062714478,1.4799873854\C,0,2.109019
 8107,4.1949741541,1.2371791931\C,0,2.2223522258,2.8300114863,1.5146763
 984\N,0,3.3185471098,1.97428382,1.342814124\C,0,4.6004591913,2.3510440
 438,0.8648525547\C,0,5.3080738436,3.391552799,1.4793717184\C,0,6.56074
 6519,3.7651024017,0.9987867303\C,0,7.1525552656,3.0991215619,-0.086528
 4953\C,0,8.4714275795,3.5364895227,-0.6153400666\C,0,8.6722773159,4.88
 89053956,-0.9292683692\C,0,9.876397076,5.3614656808,-1.4678358416\C,0,
 10.9412822526,4.4970547969,-1.7160401868\C,0,10.7424258737,3.163390291
 2,-1.3904768371\O,0,11.6981503469,2.1878326502,-1.5395838924\C,0,11.13
 53426742,1.0281888555,-1.0618806995\C,0,11.7854890466,-0.1969218918,-1
 .0130898795\C,0,11.0721339678,-1.2650036596,-0.4691124549\C,0,9.762161
 6688,-1.0922933877,0.0064300465\C,0,9.1265892491,0.1463414024,-0.05690
 27323\C,0,9.8171868035,1.2355502868,-0.6088923639\C,0,9.5484245689,2.6
 510956622,-0.841529255\C,0,6.4341089895,2.0534771,-0.6891571891\C,0,5.
 1717281587,1.6873199524,-0.228965302\C,0,-0.2942742751,-3.1828451732,2
 .8419791539\C,0,-0.8786928965,-4.3725786172,3.2918725675\C,0,-2.191943
 7022,-5.0011374607,3.192458748\C,0,-3.4994904153,-2.1455460003,2.76804
 24896\C,0,-3.8072184021,-0.8860218657,2.2626927563\C,0,-4.3547299207,-
 0.8118248828,0.9791004355\N,0,-4.7293678462,0.3082803193,0.2321545853\
 C,0,-4.6593964067,1.6595211204,0.6697465314\C,0,-3.9179037878,2.596784
 9284,-0.0599998414\C,0,-3.8632672569,3.9238881403,0.3663502113\C,0,-4.
 5285282575,4.3189409569,1.5290988906\C,0,-5.2570841398,3.38008027,2.26
 28215437\C,0,-5.3328097619,2.0556580231,1.8325086617\C,0,-5.1910119656
 ,-0.1261747894,-1.0159096743\C,0,-5.6987692884,0.630813702,-2.07972583
 75\C,0,-6.1094082189,-0.06386274,-3.2080479379\H,0,-5.4836474931,2.332
 6254685,-4.577611564\H,0,-6.0940753241,1.8076993614,-6.1561956087\H,0,
 -4.7422803212,0.9437697332,-5.3978230172\H,0,-8.74551067,0.6065882001,
 -3.7355776549\H,0,-8.4623942603,1.6085187257,-5.1726412054\H,0,-7.8511
 312975,2.1329857164,-3.5939631233\H,0,-7.7545628411,-0.011046126,-7.16
 45775345\H,0,-7.979462429,-2.2724574923,-8.1641691961\H,0,-7.283995331
 6,-4.2815060128,-6.8919118846\H,0,-6.3532985049,-4.0612682715,-4.60154
 82475\H,0,-5.4741921793,-3.3108630943,-2.2672622167\H,0,-4.4296955503,
 -4.1349164955,0.1577768732\H,0,-5.4296172213,-5.3794362076,2.276925855
 4\H,0,-5.0883860865,-7.5835365122,3.3265997501\H,0,-2.8785436729,-8.16
 98019033,4.3676124792\H,0,1.8438068582,-5.8021417771,4.831635239\H,0,2
 .8449548173,-3.6497583749,4.0837921339\H,0,3.5993499414,-2.5830117862,
 2.2162456175\H,0,4.7119640688,-0.5254339527,1.4480384568\H,0,-0.057740
 7112,-0.4364402498,2.9509512649\H,0,-0.9514628973,2.1540526695,2.61003
 05708\H,0,-1.1611302119,4.5817162961,2.1536661712\H,0,0.769578895,5.86
 76070986,1.2739046597\H,0,2.945053257,4.7607417638,0.8397061982\H,0,4.
 8801303975,3.8924708744,2.3420448277\H,0,7.104512512,4.566633474,1.490
 7161387\H,0,7.8519730981,5.5839598527,-0.7753300975\H,0,9.9763949502,6
 .4168519736,-1.7044155827\H,0,11.8823648576,4.8372882942,-2.1344779724
 \H,0,12.8016467197,-0.3048642173,-1.3774793255\H,0,11.5406758218,-2.24
 32159222,-0.4094170816\H,0,9.2341424549,-1.9404291642,0.4328912553\H,0
 ,8.1167598441,0.2626620009,0.319586244\H,0,6.8568054178,1.5422218563,-
 1.5491055222\H,0,4.6136623785,0.9011343446,-0.7278345745\H,0,-0.874842
 3712,-2.477004084,2.2596923662\H,0,-3.0906564848,-2.2263723318,3.77098
 76256\H,0,-3.6341560697,0.006700312,2.854918313\H,0,-3.3807772927,2.27
 79046571,-0.9477007289\H,0,-3.2865520346,4.6455904645,-0.2051709119\H,
 0,-4.4811321703,5.3524220822,1.8607654129\H,0,-5.7812875306,3.68078639
 41,3.1657669206\H,0,-5.9191578117,1.3267607378,2.3834079125\H,0,-5.769
 1008694,1.7123731491,-2.0160321218\\Version=ES64L-G16RevB.01\HF=-2915.
 9234722\RMSD=9.484e-09\PG=C01 [X(C69H44N2O2)]\\@


 SCIENCE IS A VERY HUMAN FORM OF KNOWLEDGE.
 WE ARE ALWAYS AT THE BRINK OF THE KNOWN,
 WE ALWAYS FEEL FORWARD FOR WHAT IS HOPED.
 EVERY JUDGEMENT IN SCIENCE STANDS ON THE EDGE OF ERROR, AND IS PERSONAL.
 SCIENCE IS A TRIBUTE TO WHAT WE CAN KNOW ALTHOUGH WE ARE FALLIBLE.

                     -- J. BRONOWSKI
 Job cpu time:       0 days 18 hours 18 minutes 24.7 seconds.
 Elapsed time:       0 days  2 hours 24 minutes 13.0 seconds.
 File lengths (MBytes):  RWF=   7457 Int=      0 D2E=      0 Chk=    283 Scr=      1
 Normal termination of Gaussian 16 at Sat Nov  5 12:23:42 2022.
