 Entering Gaussian System, Link 0=/home/wykgroup/appl/g16/g16
 Input=calculation/no_transfer_pubchem_sampling_8_b3lyp/155029463_rwf.com
 Output=calculation/no_transfer_pubchem_sampling_8_b3lyp/155029463_rwf.log
 Initial command:
 /home/wykgroup/appl/g16/l1.exe "/userdata/scratch/wykgroup/khs/calculation/no_transfer_pubchem_sampling_8_b3lyp/155029463_rwf/Gau-10430.inp" -scrdir="/userdata/scratch/wykgroup/khs/calculation/no_transfer_pubchem_sampling_8_b3lyp/155029463_rwf/"
 Entering Link 1 = /home/wykgroup/appl/g16/l1.exe PID=     10431.
  
 Copyright (c) 1988-2017, Gaussian, Inc.  All Rights Reserved.
  
 This is part of the Gaussian(R) 16 program.  It is based on
 the Gaussian(R) 09 system (copyright 2009, Gaussian, Inc.),
 the Gaussian(R) 03 system (copyright 2003, Gaussian, Inc.),
 the Gaussian(R) 98 system (copyright 1998, Gaussian, Inc.),
 the Gaussian(R) 94 system (copyright 1995, Gaussian, Inc.),
 the Gaussian 92(TM) system (copyright 1992, Gaussian, Inc.),
 the Gaussian 90(TM) system (copyright 1990, Gaussian, Inc.),
 the Gaussian 88(TM) system (copyright 1988, Gaussian, Inc.),
 the Gaussian 86(TM) system (copyright 1986, Carnegie Mellon
 University), and the Gaussian 82(TM) system (copyright 1983,
 Carnegie Mellon University). Gaussian is a federally registered
 trademark of Gaussian, Inc.
  
 This software contains proprietary and confidential information,
 including trade secrets, belonging to Gaussian, Inc.
  
 This software is provided under written license and may be
 used, copied, transmitted, or stored only in accord with that
 written license.
  
 The following legend is applicable only to US Government
 contracts under FAR:
  
                    RESTRICTED RIGHTS LEGEND
  
 Use, reproduction and disclosure by the US Government is
 subject to restrictions as set forth in subparagraphs (a)
 and (c) of the Commercial Computer Software - Restricted
 Rights clause in FAR 52.227-19.
  
 Gaussian, Inc.
 340 Quinnipiac St., Bldg. 40, Wallingford CT 06492
  
  
 ---------------------------------------------------------------
 Warning -- This program may not be used in any manner that
 competes with the business of Gaussian, Inc. or will provide
 assistance to any competitor of Gaussian, Inc.  The licensee
 of this program is prohibited from giving any competitor of
 Gaussian, Inc. access to this program.  By using this program,
 the user acknowledges that Gaussian, Inc. is engaged in the
 business of creating and licensing software in the field of
 computational chemistry and represents and warrants to the
 licensee that it is not a competitor of Gaussian, Inc. and that
 it will not use this program in any manner prohibited above.
 ---------------------------------------------------------------
  

 Cite this work as:
 Gaussian 16, Revision B.01,
 M. J. Frisch, G. W. Trucks, H. B. Schlegel, G. E. Scuseria, 
 M. A. Robb, J. R. Cheeseman, G. Scalmani, V. Barone, 
 G. A. Petersson, H. Nakatsuji, X. Li, M. Caricato, A. V. Marenich, 
 J. Bloino, B. G. Janesko, R. Gomperts, B. Mennucci, H. P. Hratchian, 
 J. V. Ortiz, A. F. Izmaylov, J. L. Sonnenberg, D. Williams-Young, 
 F. Ding, F. Lipparini, F. Egidi, J. Goings, B. Peng, A. Petrone, 
 T. Henderson, D. Ranasinghe, V. G. Zakrzewski, J. Gao, N. Rega, 
 G. Zheng, W. Liang, M. Hada, M. Ehara, K. Toyota, R. Fukuda, 
 J. Hasegawa, M. Ishida, T. Nakajima, Y. Honda, O. Kitao, H. Nakai, 
 T. Vreven, K. Throssell, J. A. Montgomery, Jr., J. E. Peralta, 
 F. Ogliaro, M. J. Bearpark, J. J. Heyd, E. N. Brothers, K. N. Kudin, 
 V. N. Staroverov, T. A. Keith, R. Kobayashi, J. Normand, 
 K. Raghavachari, A. P. Rendell, J. C. Burant, S. S. Iyengar, 
 J. Tomasi, M. Cossi, J. M. Millam, M. Klene, C. Adamo, R. Cammi, 
 J. W. Ochterski, R. L. Martin, K. Morokuma, O. Farkas, 
 J. B. Foresman, and D. J. Fox, Gaussian, Inc., Wallingford CT, 2016.
 
 ******************************************
 Gaussian 16:  ES64L-G16RevB.01 20-Dec-2017
                 5-Nov-2022 
 ******************************************
 %chk=calculation/no_transfer_pubchem_sampling_8_b3lyp/155029463_rwf.chk
 %rwf=calculation/no_transfer_pubchem_sampling_8_b3lyp/155029463_rwf.rwf
 %nprocshared=14
 Will use up to   14 processors via shared memory.
 %mem=3GB
 -------------------------------------------------------------------
 #p b3lyp/6-31g(d) 6D 10F nosymm GFInput td=(50-50,nstate=2) SCF=XQC
 -------------------------------------------------------------------
 1/38=1,172=1/1;
 2/12=2,15=1,17=6,18=5,40=1/2;
 3/5=1,6=6,7=1,8=22,11=9,24=10,25=1,30=1,74=-5/1,2,3,8;
 4//1;
 5/5=2,8=3,13=1,38=5/2,8;
 8/6=1,10=2,108=2/1;
 9/41=2,42=1,48=2,70=2/14;
 6/7=2,8=2,9=2,10=2/1;
 99/5=1,9=1/99;
 Leave Link    1 at Sat Nov  5 10:10:58 2022, MaxMem=   402653184 cpu:               2.1 elap:               0.2
 (Enter /home/wykgroup/appl/g16/l101.exe)
 ------------------------------
 Gaussian input prepared by ASE
 ------------------------------
 Symbolic Z-matrix:
 Charge =  0 Multiplicity = 1
 C                    -5.49395   3.61309   5.37091 
 C                    -6.65335   2.88726   5.09177 
 C                    -6.77829   2.20024   3.88518 
 C                    -5.74795   2.22436   2.93033 
 C                    -5.88157   1.49123   1.64434 
 C                    -7.10531   1.45766   0.96052 
 C                    -7.25386   0.76419  -0.25023 
 C                    -8.55927   0.74563  -0.96113 
 C                    -8.61804   0.81169  -2.36333 
 C                    -9.84202   0.79388  -3.03034 
 C                    -11.03477   0.71033  -2.30966 
 C                    -10.99214   0.64376  -0.91591 
 C                    -9.76772   0.66089  -0.24958 
 C                    -6.14096   0.09819  -0.77922 
 C                    -4.90154   0.12577  -0.12692 
 C                    -3.74457  -0.5961   -0.72085 
 C                    -2.4204   -0.27258  -0.40296 
 C                    -1.39967  -1.01268  -1.01164 
 C                     0.03755  -0.7554   -0.7392 
 C                     0.4654   -0.08947   0.4197 
 C                     1.81765   0.14568   0.65184 
 C                     2.79096  -0.27797  -0.26389 
 C                     4.24228  -0.01399  -0.01813 
 C                     4.88999  -0.64345   1.01422 
 C                     4.26865  -1.64667   1.92325 
 C                     3.7355   -2.83383   1.40428 
 C                     3.12767  -3.76532   2.24628 
 C                     3.04348  -3.51975   3.61671 
 C                     3.5776   -2.34103   4.14316 
 C                     4.19193  -1.41378   3.30492 
 N                     6.23316  -0.33992   1.23613 
 N                     6.96235  -0.93797   2.21138 
 C                     8.17084  -0.39784   2.08943 
 C                     8.26256   0.55553   1.05225 
 C                     9.4779    1.33648   0.74042 
 C                     9.47599   2.74252   0.74936 
 C                     10.64721   3.46086   0.51189 
 C                     11.84877   2.78961   0.27396 
 C                     11.8685   1.39412   0.27515 
 C                     10.695    0.67539   0.50458 
 C                     6.97556   0.56762   0.48998 
 C                     6.33267   1.208    -0.63111 
 C                     7.02404   2.08087  -1.49751 
 C                     6.37331   2.70078  -2.55018 
 C                     5.00525   2.47039  -2.76216 
 C                     4.3125    1.60127  -1.93716 
 C                     4.95417   0.93094  -0.86997 
 C                     2.36172  -0.94522  -1.42304 
 C                     1.01153  -1.18648  -1.65393 
 N                    -1.6896   -1.98282  -1.89442 
 C                    -2.98376  -2.21777  -2.16027 
 C                    -3.29705  -3.29069  -3.14161 
 C                    -4.62932  -3.60189  -3.45575 
 C                    -4.92127  -4.60513  -4.37707 
 C                    -3.88877  -5.31267  -4.9971 
 C                    -2.56044  -5.01127  -4.68739 
 C                    -2.26533  -4.00884  -3.76625 
 N                    -4.019    -1.56855  -1.6053 
 C                    -4.78556   0.8195    1.08502 
 C                    -4.58794   2.96027   3.225 
 C                    -4.46144   3.64645   4.43196 
 H                    -5.39616   4.1483    6.31147 
 H                    -7.46009   2.84775   5.81899 
 H                    -7.67353   1.61666   3.68907 
 H                    -7.94636   2.01897   1.35634 
 H                    -7.69704   0.90142  -2.93247 
 H                    -9.86356   0.85376  -4.11532 
 H                    -11.98888   0.69667  -2.82952 
 H                    -11.91402   0.56922  -0.34505 
 H                    -9.74514   0.58154   0.83384 
 H                    -6.22697  -0.46995  -1.69811 
 H                    -2.19261   0.55456   0.25657 
 H                    -0.25673   0.22904   1.16537 
 H                     2.12691   0.65312   1.56058 
 H                     3.79827  -3.02732   0.33816 
 H                     2.72057  -4.68209   1.82867 
 H                     2.56757  -4.24363   4.27287 
 H                     3.52025  -2.14544   5.21057 
 H                     4.62148  -0.50769   3.71965 
 H                     8.95631  -0.6916    2.77454 
 H                     8.54942   3.27074   0.95717 
 H                     10.62329   4.54751   0.52475 
 H                     12.76186   3.35009   0.09237 
 H                     12.79811   0.8617    0.09137 
 H                     10.71196  -0.41109   0.49174 
 H                     8.07877   2.26402  -1.3345 
 H                     6.92405   3.36865  -3.20668 
 H                     4.4867    2.96988  -3.57589 
 H                     3.25724   1.42647  -2.11117 
 H                     3.09879  -1.28226  -2.14718 
 H                     0.69073  -1.71124  -2.54682 
 H                    -5.42447  -3.05147  -2.96605 
 H                    -5.95718  -4.83661  -4.61063 
 H                    -4.11784  -6.09553  -5.71551 
 H                    -1.75215  -5.5598   -5.16393 
 H                    -1.23761  -3.77157  -3.51619 
 H                    -3.84994   0.79947   1.63443 
 H                    -3.79046   3.01619   2.48903 
 H                    -3.55834   4.21618   4.63471 
 
 ITRead=  0  0  0  0  0  0  0  0  0  0  0  0  0  0  0  0  0  0  0  0
 ITRead=  0  0  0  0  0  0  0  0  0  0  0  0  0  0  0  0  0  0  0  0
 ITRead=  0  0  0  0  0  0  0  0  0  0  0  0  0  0  0  0  0  0  0  0
 ITRead=  0  0  0  0  0  0  0  0  0  0  0  0  0  0  0  0  0  0  0  0
 ITRead=  0  0  0  0  0  0  0  0  0  0  0  0  0  0  0  0  0  0  0
 MicOpt= -1 -1 -1 -1 -1 -1 -1 -1 -1 -1 -1 -1 -1 -1 -1 -1 -1 -1 -1 -1
 MicOpt= -1 -1 -1 -1 -1 -1 -1 -1 -1 -1 -1 -1 -1 -1 -1 -1 -1 -1 -1 -1
 MicOpt= -1 -1 -1 -1 -1 -1 -1 -1 -1 -1 -1 -1 -1 -1 -1 -1 -1 -1 -1 -1
 MicOpt= -1 -1 -1 -1 -1 -1 -1 -1 -1 -1 -1 -1 -1 -1 -1 -1 -1 -1 -1 -1
 MicOpt= -1 -1 -1 -1 -1 -1 -1 -1 -1 -1 -1 -1 -1 -1 -1 -1 -1 -1 -1
 NAtoms=     99 NQM=       99 NQMF=       0 NMMI=      0 NMMIF=      0
                NMic=       0 NMicF=      0.
                    Isotopes and Nuclear Properties:
 (Nuclear quadrupole moments (NQMom) in fm**2, nuclear magnetic moments (NMagM)
  in nuclear magnetons)

  Atom         1           2           3           4           5           6           7           8           9          10
 IAtWgt=          12          12          12          12          12          12          12          12          12          12
 AtmWgt=  12.0000000  12.0000000  12.0000000  12.0000000  12.0000000  12.0000000  12.0000000  12.0000000  12.0000000  12.0000000
 NucSpn=           0           0           0           0           0           0           0           0           0           0
 AtZEff=  -0.0000000  -0.0000000  -0.0000000  -0.0000000  -0.0000000  -0.0000000  -0.0000000  -0.0000000  -0.0000000  -0.0000000
 NQMom=    0.0000000   0.0000000   0.0000000   0.0000000   0.0000000   0.0000000   0.0000000   0.0000000   0.0000000   0.0000000
 NMagM=    0.0000000   0.0000000   0.0000000   0.0000000   0.0000000   0.0000000   0.0000000   0.0000000   0.0000000   0.0000000
 AtZNuc=   6.0000000   6.0000000   6.0000000   6.0000000   6.0000000   6.0000000   6.0000000   6.0000000   6.0000000   6.0000000

  Atom        11          12          13          14          15          16          17          18          19          20
 IAtWgt=          12          12          12          12          12          12          12          12          12          12
 AtmWgt=  12.0000000  12.0000000  12.0000000  12.0000000  12.0000000  12.0000000  12.0000000  12.0000000  12.0000000  12.0000000
 NucSpn=           0           0           0           0           0           0           0           0           0           0
 AtZEff=  -0.0000000  -0.0000000  -0.0000000  -0.0000000  -0.0000000  -0.0000000  -0.0000000  -0.0000000  -0.0000000  -0.0000000
 NQMom=    0.0000000   0.0000000   0.0000000   0.0000000   0.0000000   0.0000000   0.0000000   0.0000000   0.0000000   0.0000000
 NMagM=    0.0000000   0.0000000   0.0000000   0.0000000   0.0000000   0.0000000   0.0000000   0.0000000   0.0000000   0.0000000
 AtZNuc=   6.0000000   6.0000000   6.0000000   6.0000000   6.0000000   6.0000000   6.0000000   6.0000000   6.0000000   6.0000000

  Atom        21          22          23          24          25          26          27          28          29          30
 IAtWgt=          12          12          12          12          12          12          12          12          12          12
 AtmWgt=  12.0000000  12.0000000  12.0000000  12.0000000  12.0000000  12.0000000  12.0000000  12.0000000  12.0000000  12.0000000
 NucSpn=           0           0           0           0           0           0           0           0           0           0
 AtZEff=  -0.0000000  -0.0000000  -0.0000000  -0.0000000  -0.0000000  -0.0000000  -0.0000000  -0.0000000  -0.0000000  -0.0000000
 NQMom=    0.0000000   0.0000000   0.0000000   0.0000000   0.0000000   0.0000000   0.0000000   0.0000000   0.0000000   0.0000000
 NMagM=    0.0000000   0.0000000   0.0000000   0.0000000   0.0000000   0.0000000   0.0000000   0.0000000   0.0000000   0.0000000
 AtZNuc=   6.0000000   6.0000000   6.0000000   6.0000000   6.0000000   6.0000000   6.0000000   6.0000000   6.0000000   6.0000000

  Atom        31          32          33          34          35          36          37          38          39          40
 IAtWgt=          14          14          12          12          12          12          12          12          12          12
 AtmWgt=  14.0030740  14.0030740  12.0000000  12.0000000  12.0000000  12.0000000  12.0000000  12.0000000  12.0000000  12.0000000
 NucSpn=           2           2           0           0           0           0           0           0           0           0
 AtZEff=  -0.0000000  -0.0000000  -0.0000000  -0.0000000  -0.0000000  -0.0000000  -0.0000000  -0.0000000  -0.0000000  -0.0000000
 NQMom=    2.0440000   2.0440000   0.0000000   0.0000000   0.0000000   0.0000000   0.0000000   0.0000000   0.0000000   0.0000000
 NMagM=    0.4037610   0.4037610   0.0000000   0.0000000   0.0000000   0.0000000   0.0000000   0.0000000   0.0000000   0.0000000
 AtZNuc=   7.0000000   7.0000000   6.0000000   6.0000000   6.0000000   6.0000000   6.0000000   6.0000000   6.0000000   6.0000000

  Atom        41          42          43          44          45          46          47          48          49          50
 IAtWgt=          12          12          12          12          12          12          12          12          12          14
 AtmWgt=  12.0000000  12.0000000  12.0000000  12.0000000  12.0000000  12.0000000  12.0000000  12.0000000  12.0000000  14.0030740
 NucSpn=           0           0           0           0           0           0           0           0           0           2
 AtZEff=  -0.0000000  -0.0000000  -0.0000000  -0.0000000  -0.0000000  -0.0000000  -0.0000000  -0.0000000  -0.0000000  -0.0000000
 NQMom=    0.0000000   0.0000000   0.0000000   0.0000000   0.0000000   0.0000000   0.0000000   0.0000000   0.0000000   2.0440000
 NMagM=    0.0000000   0.0000000   0.0000000   0.0000000   0.0000000   0.0000000   0.0000000   0.0000000   0.0000000   0.4037610
 AtZNuc=   6.0000000   6.0000000   6.0000000   6.0000000   6.0000000   6.0000000   6.0000000   6.0000000   6.0000000   7.0000000

  Atom        51          52          53          54          55          56          57          58          59          60
 IAtWgt=          12          12          12          12          12          12          12          14          12          12
 AtmWgt=  12.0000000  12.0000000  12.0000000  12.0000000  12.0000000  12.0000000  12.0000000  14.0030740  12.0000000  12.0000000
 NucSpn=           0           0           0           0           0           0           0           2           0           0
 AtZEff=  -0.0000000  -0.0000000  -0.0000000  -0.0000000  -0.0000000  -0.0000000  -0.0000000  -0.0000000  -0.0000000  -0.0000000
 NQMom=    0.0000000   0.0000000   0.0000000   0.0000000   0.0000000   0.0000000   0.0000000   2.0440000   0.0000000   0.0000000
 NMagM=    0.0000000   0.0000000   0.0000000   0.0000000   0.0000000   0.0000000   0.0000000   0.4037610   0.0000000   0.0000000
 AtZNuc=   6.0000000   6.0000000   6.0000000   6.0000000   6.0000000   6.0000000   6.0000000   7.0000000   6.0000000   6.0000000

  Atom        61          62          63          64          65          66          67          68          69          70
 IAtWgt=          12           1           1           1           1           1           1           1           1           1
 AtmWgt=  12.0000000   1.0078250   1.0078250   1.0078250   1.0078250   1.0078250   1.0078250   1.0078250   1.0078250   1.0078250
 NucSpn=           0           1           1           1           1           1           1           1           1           1
 AtZEff=  -0.0000000  -0.0000000  -0.0000000  -0.0000000  -0.0000000  -0.0000000  -0.0000000  -0.0000000  -0.0000000  -0.0000000
 NQMom=    0.0000000   0.0000000   0.0000000   0.0000000   0.0000000   0.0000000   0.0000000   0.0000000   0.0000000   0.0000000
 NMagM=    0.0000000   2.7928460   2.7928460   2.7928460   2.7928460   2.7928460   2.7928460   2.7928460   2.7928460   2.7928460
 AtZNuc=   6.0000000   1.0000000   1.0000000   1.0000000   1.0000000   1.0000000   1.0000000   1.0000000   1.0000000   1.0000000

  Atom        71          72          73          74          75          76          77          78          79          80
 IAtWgt=           1           1           1           1           1           1           1           1           1           1
 AtmWgt=   1.0078250   1.0078250   1.0078250   1.0078250   1.0078250   1.0078250   1.0078250   1.0078250   1.0078250   1.0078250
 NucSpn=           1           1           1           1           1           1           1           1           1           1
 AtZEff=  -0.0000000  -0.0000000  -0.0000000  -0.0000000  -0.0000000  -0.0000000  -0.0000000  -0.0000000  -0.0000000  -0.0000000
 NQMom=    0.0000000   0.0000000   0.0000000   0.0000000   0.0000000   0.0000000   0.0000000   0.0000000   0.0000000   0.0000000
 NMagM=    2.7928460   2.7928460   2.7928460   2.7928460   2.7928460   2.7928460   2.7928460   2.7928460   2.7928460   2.7928460
 AtZNuc=   1.0000000   1.0000000   1.0000000   1.0000000   1.0000000   1.0000000   1.0000000   1.0000000   1.0000000   1.0000000

  Atom        81          82          83          84          85          86          87          88          89          90
 IAtWgt=           1           1           1           1           1           1           1           1           1           1
 AtmWgt=   1.0078250   1.0078250   1.0078250   1.0078250   1.0078250   1.0078250   1.0078250   1.0078250   1.0078250   1.0078250
 NucSpn=           1           1           1           1           1           1           1           1           1           1
 AtZEff=  -0.0000000  -0.0000000  -0.0000000  -0.0000000  -0.0000000  -0.0000000  -0.0000000  -0.0000000  -0.0000000  -0.0000000
 NQMom=    0.0000000   0.0000000   0.0000000   0.0000000   0.0000000   0.0000000   0.0000000   0.0000000   0.0000000   0.0000000
 NMagM=    2.7928460   2.7928460   2.7928460   2.7928460   2.7928460   2.7928460   2.7928460   2.7928460   2.7928460   2.7928460
 AtZNuc=   1.0000000   1.0000000   1.0000000   1.0000000   1.0000000   1.0000000   1.0000000   1.0000000   1.0000000   1.0000000

  Atom        91          92          93          94          95          96          97          98          99
 IAtWgt=           1           1           1           1           1           1           1           1           1
 AtmWgt=   1.0078250   1.0078250   1.0078250   1.0078250   1.0078250   1.0078250   1.0078250   1.0078250   1.0078250
 NucSpn=           1           1           1           1           1           1           1           1           1
 AtZEff=  -0.0000000  -0.0000000  -0.0000000  -0.0000000  -0.0000000  -0.0000000  -0.0000000  -0.0000000  -0.0000000
 NQMom=    0.0000000   0.0000000   0.0000000   0.0000000   0.0000000   0.0000000   0.0000000   0.0000000   0.0000000
 NMagM=    2.7928460   2.7928460   2.7928460   2.7928460   2.7928460   2.7928460   2.7928460   2.7928460   2.7928460
 AtZNuc=   1.0000000   1.0000000   1.0000000   1.0000000   1.0000000   1.0000000   1.0000000   1.0000000   1.0000000
 Leave Link  101 at Sat Nov  5 10:10:58 2022, MaxMem=   402653184 cpu:               2.3 elap:               0.3
 (Enter /home/wykgroup/appl/g16/l202.exe)
 Symmetry turned off by external request.
 Stoichiometry    C57H38N4
 Framework group  C1[X(C57H38N4)]
 Deg. of freedom   291
 Full point group                 C1      NOp   1
                          Input orientation:                          
 ---------------------------------------------------------------------
 Center     Atomic      Atomic             Coordinates (Angstroms)
 Number     Number       Type             X           Y           Z
 ---------------------------------------------------------------------
      1          6           0       -5.493946    3.613086    5.370912
      2          6           0       -6.653348    2.887264    5.091770
      3          6           0       -6.778290    2.200245    3.885184
      4          6           0       -5.747952    2.224358    2.930329
      5          6           0       -5.881569    1.491227    1.644338
      6          6           0       -7.105309    1.457663    0.960522
      7          6           0       -7.253858    0.764192   -0.250233
      8          6           0       -8.559266    0.745630   -0.961133
      9          6           0       -8.618038    0.811692   -2.363328
     10          6           0       -9.842017    0.793879   -3.030335
     11          6           0      -11.034768    0.710332   -2.309659
     12          6           0      -10.992135    0.643761   -0.915909
     13          6           0       -9.767722    0.660889   -0.249580
     14          6           0       -6.140957    0.098191   -0.779222
     15          6           0       -4.901540    0.125771   -0.126921
     16          6           0       -3.744573   -0.596097   -0.720850
     17          6           0       -2.420403   -0.272576   -0.402958
     18          6           0       -1.399674   -1.012679   -1.011636
     19          6           0        0.037551   -0.755402   -0.739201
     20          6           0        0.465401   -0.089467    0.419697
     21          6           0        1.817648    0.145680    0.651841
     22          6           0        2.790963   -0.277967   -0.263892
     23          6           0        4.242283   -0.013994   -0.018134
     24          6           0        4.889990   -0.643450    1.014218
     25          6           0        4.268646   -1.646675    1.923247
     26          6           0        3.735501   -2.833832    1.404281
     27          6           0        3.127671   -3.765319    2.246276
     28          6           0        3.043480   -3.519750    3.616712
     29          6           0        3.577596   -2.341034    4.143159
     30          6           0        4.191934   -1.413777    3.304916
     31          7           0        6.233159   -0.339919    1.236132
     32          7           0        6.962348   -0.937974    2.211383
     33          6           0        8.170838   -0.397840    2.089426
     34          6           0        8.262562    0.555533    1.052254
     35          6           0        9.477897    1.336483    0.740415
     36          6           0        9.475987    2.742516    0.749355
     37          6           0       10.647212    3.460862    0.511894
     38          6           0       11.848767    2.789609    0.273960
     39          6           0       11.868495    1.394121    0.275151
     40          6           0       10.695000    0.675394    0.504580
     41          6           0        6.975556    0.567617    0.489981
     42          6           0        6.332669    1.207998   -0.631109
     43          6           0        7.024041    2.080875   -1.497514
     44          6           0        6.373312    2.700779   -2.550177
     45          6           0        5.005254    2.470387   -2.762157
     46          6           0        4.312497    1.601274   -1.937155
     47          6           0        4.954168    0.930944   -0.869969
     48          6           0        2.361723   -0.945224   -1.423038
     49          6           0        1.011528   -1.186481   -1.653928
     50          7           0       -1.689597   -1.982815   -1.894416
     51          6           0       -2.983760   -2.217767   -2.160272
     52          6           0       -3.297053   -3.290687   -3.141606
     53          6           0       -4.629321   -3.601889   -3.455753
     54          6           0       -4.921271   -4.605131   -4.377067
     55          6           0       -3.888766   -5.312667   -4.997101
     56          6           0       -2.560443   -5.011270   -4.687386
     57          6           0       -2.265330   -4.008841   -3.766255
     58          7           0       -4.019005   -1.568548   -1.605300
     59          6           0       -4.785564    0.819495    1.085016
     60          6           0       -4.587945    2.960272    3.225002
     61          6           0       -4.461440    3.646446    4.431959
     62          1           0       -5.396160    4.148302    6.311472
     63          1           0       -7.460087    2.847751    5.818986
     64          1           0       -7.673533    1.616658    3.689073
     65          1           0       -7.946364    2.018974    1.356338
     66          1           0       -7.697045    0.901418   -2.932474
     67          1           0       -9.863557    0.853760   -4.115322
     68          1           0      -11.988879    0.696666   -2.829516
     69          1           0      -11.914023    0.569223   -0.345051
     70          1           0       -9.745135    0.581545    0.833837
     71          1           0       -6.226974   -0.469954   -1.698114
     72          1           0       -2.192614    0.554556    0.256574
     73          1           0       -0.256728    0.229037    1.165370
     74          1           0        2.126915    0.653122    1.560582
     75          1           0        3.798272   -3.027322    0.338164
     76          1           0        2.720572   -4.682090    1.828670
     77          1           0        2.567569   -4.243634    4.272868
     78          1           0        3.520255   -2.145442    5.210575
     79          1           0        4.621479   -0.507693    3.719649
     80          1           0        8.956309   -0.691598    2.774542
     81          1           0        8.549420    3.270739    0.957170
     82          1           0       10.623286    4.547508    0.524751
     83          1           0       12.761859    3.350089    0.092373
     84          1           0       12.798107    0.861701    0.091366
     85          1           0       10.711960   -0.411092    0.491741
     86          1           0        8.078767    2.264018   -1.334501
     87          1           0        6.924051    3.368653   -3.206682
     88          1           0        4.486697    2.969883   -3.575886
     89          1           0        3.257236    1.426467   -2.111171
     90          1           0        3.098794   -1.282259   -2.147176
     91          1           0        0.690728   -1.711241   -2.546821
     92          1           0       -5.424469   -3.051471   -2.966049
     93          1           0       -5.957178   -4.836612   -4.610633
     94          1           0       -4.117835   -6.095534   -5.715511
     95          1           0       -1.752150   -5.559799   -5.163925
     96          1           0       -1.237608   -3.771566   -3.516190
     97          1           0       -3.849940    0.799471    1.634427
     98          1           0       -3.790463    3.016191    2.489027
     99          1           0       -3.558343    4.216181    4.634714
 ---------------------------------------------------------------------
 Rotational constants (GHZ):           0.0614986           0.0149563           0.0135757
 Leave Link  202 at Sat Nov  5 10:10:58 2022, MaxMem=   402653184 cpu:               0.2 elap:               0.0
 (Enter /home/wykgroup/appl/g16/l301.exe)
 Standard basis: 6-31G(d) (6D, 10F)
 Ernie: Thresh=  0.10000D-02 Tol=  0.10000D-05 Strict=F.
 AO basis set in the form of general basis input (Overlap normalization):
      1 0
 S   6 1.00       0.000000000000
      0.3047524880D+04  0.1834737132D-02
      0.4573695180D+03  0.1403732281D-01
      0.1039486850D+03  0.6884262226D-01
      0.2921015530D+02  0.2321844432D+00
      0.9286662960D+01  0.4679413484D+00
      0.3163926960D+01  0.3623119853D+00
 SP   3 1.00       0.000000000000
      0.7868272350D+01 -0.1193324198D+00  0.6899906659D-01
      0.1881288540D+01 -0.1608541517D+00  0.3164239610D+00
      0.5442492580D+00  0.1143456438D+01  0.7443082909D+00
 SP   1 1.00       0.000000000000
      0.1687144782D+00  0.1000000000D+01  0.1000000000D+01
 D   1 1.00       0.000000000000
      0.8000000000D+00  0.1000000000D+01
 ****
      2 0
 S   6 1.00       0.000000000000
      0.3047524880D+04  0.1834737132D-02
      0.4573695180D+03  0.1403732281D-01
      0.1039486850D+03  0.6884262226D-01
      0.2921015530D+02  0.2321844432D+00
      0.9286662960D+01  0.4679413484D+00
      0.3163926960D+01  0.3623119853D+00
 SP   3 1.00       0.000000000000
      0.7868272350D+01 -0.1193324198D+00  0.6899906659D-01
      0.1881288540D+01 -0.1608541517D+00  0.3164239610D+00
      0.5442492580D+00  0.1143456438D+01  0.7443082909D+00
 SP   1 1.00       0.000000000000
      0.1687144782D+00  0.1000000000D+01  0.1000000000D+01
 D   1 1.00       0.000000000000
      0.8000000000D+00  0.1000000000D+01
 ****
      3 0
 S   6 1.00       0.000000000000
      0.3047524880D+04  0.1834737132D-02
      0.4573695180D+03  0.1403732281D-01
      0.1039486850D+03  0.6884262226D-01
      0.2921015530D+02  0.2321844432D+00
      0.9286662960D+01  0.4679413484D+00
      0.3163926960D+01  0.3623119853D+00
 SP   3 1.00       0.000000000000
      0.7868272350D+01 -0.1193324198D+00  0.6899906659D-01
      0.1881288540D+01 -0.1608541517D+00  0.3164239610D+00
      0.5442492580D+00  0.1143456438D+01  0.7443082909D+00
 SP   1 1.00       0.000000000000
      0.1687144782D+00  0.1000000000D+01  0.1000000000D+01
 D   1 1.00       0.000000000000
      0.8000000000D+00  0.1000000000D+01
 ****
      4 0
 S   6 1.00       0.000000000000
      0.3047524880D+04  0.1834737132D-02
      0.4573695180D+03  0.1403732281D-01
      0.1039486850D+03  0.6884262226D-01
      0.2921015530D+02  0.2321844432D+00
      0.9286662960D+01  0.4679413484D+00
      0.3163926960D+01  0.3623119853D+00
 SP   3 1.00       0.000000000000
      0.7868272350D+01 -0.1193324198D+00  0.6899906659D-01
      0.1881288540D+01 -0.1608541517D+00  0.3164239610D+00
      0.5442492580D+00  0.1143456438D+01  0.7443082909D+00
 SP   1 1.00       0.000000000000
      0.1687144782D+00  0.1000000000D+01  0.1000000000D+01
 D   1 1.00       0.000000000000
      0.8000000000D+00  0.1000000000D+01
 ****
      5 0
 S   6 1.00       0.000000000000
      0.3047524880D+04  0.1834737132D-02
      0.4573695180D+03  0.1403732281D-01
      0.1039486850D+03  0.6884262226D-01
      0.2921015530D+02  0.2321844432D+00
      0.9286662960D+01  0.4679413484D+00
      0.3163926960D+01  0.3623119853D+00
 SP   3 1.00       0.000000000000
      0.7868272350D+01 -0.1193324198D+00  0.6899906659D-01
      0.1881288540D+01 -0.1608541517D+00  0.3164239610D+00
      0.5442492580D+00  0.1143456438D+01  0.7443082909D+00
 SP   1 1.00       0.000000000000
      0.1687144782D+00  0.1000000000D+01  0.1000000000D+01
 D   1 1.00       0.000000000000
      0.8000000000D+00  0.1000000000D+01
 ****
      6 0
 S   6 1.00       0.000000000000
      0.3047524880D+04  0.1834737132D-02
      0.4573695180D+03  0.1403732281D-01
      0.1039486850D+03  0.6884262226D-01
      0.2921015530D+02  0.2321844432D+00
      0.9286662960D+01  0.4679413484D+00
      0.3163926960D+01  0.3623119853D+00
 SP   3 1.00       0.000000000000
      0.7868272350D+01 -0.1193324198D+00  0.6899906659D-01
      0.1881288540D+01 -0.1608541517D+00  0.3164239610D+00
      0.5442492580D+00  0.1143456438D+01  0.7443082909D+00
 SP   1 1.00       0.000000000000
      0.1687144782D+00  0.1000000000D+01  0.1000000000D+01
 D   1 1.00       0.000000000000
      0.8000000000D+00  0.1000000000D+01
 ****
      7 0
 S   6 1.00       0.000000000000
      0.3047524880D+04  0.1834737132D-02
      0.4573695180D+03  0.1403732281D-01
      0.1039486850D+03  0.6884262226D-01
      0.2921015530D+02  0.2321844432D+00
      0.9286662960D+01  0.4679413484D+00
      0.3163926960D+01  0.3623119853D+00
 SP   3 1.00       0.000000000000
      0.7868272350D+01 -0.1193324198D+00  0.6899906659D-01
      0.1881288540D+01 -0.1608541517D+00  0.3164239610D+00
      0.5442492580D+00  0.1143456438D+01  0.7443082909D+00
 SP   1 1.00       0.000000000000
      0.1687144782D+00  0.1000000000D+01  0.1000000000D+01
 D   1 1.00       0.000000000000
      0.8000000000D+00  0.1000000000D+01
 ****
      8 0
 S   6 1.00       0.000000000000
      0.3047524880D+04  0.1834737132D-02
      0.4573695180D+03  0.1403732281D-01
      0.1039486850D+03  0.6884262226D-01
      0.2921015530D+02  0.2321844432D+00
      0.9286662960D+01  0.4679413484D+00
      0.3163926960D+01  0.3623119853D+00
 SP   3 1.00       0.000000000000
      0.7868272350D+01 -0.1193324198D+00  0.6899906659D-01
      0.1881288540D+01 -0.1608541517D+00  0.3164239610D+00
      0.5442492580D+00  0.1143456438D+01  0.7443082909D+00
 SP   1 1.00       0.000000000000
      0.1687144782D+00  0.1000000000D+01  0.1000000000D+01
 D   1 1.00       0.000000000000
      0.8000000000D+00  0.1000000000D+01
 ****
      9 0
 S   6 1.00       0.000000000000
      0.3047524880D+04  0.1834737132D-02
      0.4573695180D+03  0.1403732281D-01
      0.1039486850D+03  0.6884262226D-01
      0.2921015530D+02  0.2321844432D+00
      0.9286662960D+01  0.4679413484D+00
      0.3163926960D+01  0.3623119853D+00
 SP   3 1.00       0.000000000000
      0.7868272350D+01 -0.1193324198D+00  0.6899906659D-01
      0.1881288540D+01 -0.1608541517D+00  0.3164239610D+00
      0.5442492580D+00  0.1143456438D+01  0.7443082909D+00
 SP   1 1.00       0.000000000000
      0.1687144782D+00  0.1000000000D+01  0.1000000000D+01
 D   1 1.00       0.000000000000
      0.8000000000D+00  0.1000000000D+01
 ****
     10 0
 S   6 1.00       0.000000000000
      0.3047524880D+04  0.1834737132D-02
      0.4573695180D+03  0.1403732281D-01
      0.1039486850D+03  0.6884262226D-01
      0.2921015530D+02  0.2321844432D+00
      0.9286662960D+01  0.4679413484D+00
      0.3163926960D+01  0.3623119853D+00
 SP   3 1.00       0.000000000000
      0.7868272350D+01 -0.1193324198D+00  0.6899906659D-01
      0.1881288540D+01 -0.1608541517D+00  0.3164239610D+00
      0.5442492580D+00  0.1143456438D+01  0.7443082909D+00
 SP   1 1.00       0.000000000000
      0.1687144782D+00  0.1000000000D+01  0.1000000000D+01
 D   1 1.00       0.000000000000
      0.8000000000D+00  0.1000000000D+01
 ****
     11 0
 S   6 1.00       0.000000000000
      0.3047524880D+04  0.1834737132D-02
      0.4573695180D+03  0.1403732281D-01
      0.1039486850D+03  0.6884262226D-01
      0.2921015530D+02  0.2321844432D+00
      0.9286662960D+01  0.4679413484D+00
      0.3163926960D+01  0.3623119853D+00
 SP   3 1.00       0.000000000000
      0.7868272350D+01 -0.1193324198D+00  0.6899906659D-01
      0.1881288540D+01 -0.1608541517D+00  0.3164239610D+00
      0.5442492580D+00  0.1143456438D+01  0.7443082909D+00
 SP   1 1.00       0.000000000000
      0.1687144782D+00  0.1000000000D+01  0.1000000000D+01
 D   1 1.00       0.000000000000
      0.8000000000D+00  0.1000000000D+01
 ****
     12 0
 S   6 1.00       0.000000000000
      0.3047524880D+04  0.1834737132D-02
      0.4573695180D+03  0.1403732281D-01
      0.1039486850D+03  0.6884262226D-01
      0.2921015530D+02  0.2321844432D+00
      0.9286662960D+01  0.4679413484D+00
      0.3163926960D+01  0.3623119853D+00
 SP   3 1.00       0.000000000000
      0.7868272350D+01 -0.1193324198D+00  0.6899906659D-01
      0.1881288540D+01 -0.1608541517D+00  0.3164239610D+00
      0.5442492580D+00  0.1143456438D+01  0.7443082909D+00
 SP   1 1.00       0.000000000000
      0.1687144782D+00  0.1000000000D+01  0.1000000000D+01
 D   1 1.00       0.000000000000
      0.8000000000D+00  0.1000000000D+01
 ****
     13 0
 S   6 1.00       0.000000000000
      0.3047524880D+04  0.1834737132D-02
      0.4573695180D+03  0.1403732281D-01
      0.1039486850D+03  0.6884262226D-01
      0.2921015530D+02  0.2321844432D+00
      0.9286662960D+01  0.4679413484D+00
      0.3163926960D+01  0.3623119853D+00
 SP   3 1.00       0.000000000000
      0.7868272350D+01 -0.1193324198D+00  0.6899906659D-01
      0.1881288540D+01 -0.1608541517D+00  0.3164239610D+00
      0.5442492580D+00  0.1143456438D+01  0.7443082909D+00
 SP   1 1.00       0.000000000000
      0.1687144782D+00  0.1000000000D+01  0.1000000000D+01
 D   1 1.00       0.000000000000
      0.8000000000D+00  0.1000000000D+01
 ****
     14 0
 S   6 1.00       0.000000000000
      0.3047524880D+04  0.1834737132D-02
      0.4573695180D+03  0.1403732281D-01
      0.1039486850D+03  0.6884262226D-01
      0.2921015530D+02  0.2321844432D+00
      0.9286662960D+01  0.4679413484D+00
      0.3163926960D+01  0.3623119853D+00
 SP   3 1.00       0.000000000000
      0.7868272350D+01 -0.1193324198D+00  0.6899906659D-01
      0.1881288540D+01 -0.1608541517D+00  0.3164239610D+00
      0.5442492580D+00  0.1143456438D+01  0.7443082909D+00
 SP   1 1.00       0.000000000000
      0.1687144782D+00  0.1000000000D+01  0.1000000000D+01
 D   1 1.00       0.000000000000
      0.8000000000D+00  0.1000000000D+01
 ****
     15 0
 S   6 1.00       0.000000000000
      0.3047524880D+04  0.1834737132D-02
      0.4573695180D+03  0.1403732281D-01
      0.1039486850D+03  0.6884262226D-01
      0.2921015530D+02  0.2321844432D+00
      0.9286662960D+01  0.4679413484D+00
      0.3163926960D+01  0.3623119853D+00
 SP   3 1.00       0.000000000000
      0.7868272350D+01 -0.1193324198D+00  0.6899906659D-01
      0.1881288540D+01 -0.1608541517D+00  0.3164239610D+00
      0.5442492580D+00  0.1143456438D+01  0.7443082909D+00
 SP   1 1.00       0.000000000000
      0.1687144782D+00  0.1000000000D+01  0.1000000000D+01
 D   1 1.00       0.000000000000
      0.8000000000D+00  0.1000000000D+01
 ****
     16 0
 S   6 1.00       0.000000000000
      0.3047524880D+04  0.1834737132D-02
      0.4573695180D+03  0.1403732281D-01
      0.1039486850D+03  0.6884262226D-01
      0.2921015530D+02  0.2321844432D+00
      0.9286662960D+01  0.4679413484D+00
      0.3163926960D+01  0.3623119853D+00
 SP   3 1.00       0.000000000000
      0.7868272350D+01 -0.1193324198D+00  0.6899906659D-01
      0.1881288540D+01 -0.1608541517D+00  0.3164239610D+00
      0.5442492580D+00  0.1143456438D+01  0.7443082909D+00
 SP   1 1.00       0.000000000000
      0.1687144782D+00  0.1000000000D+01  0.1000000000D+01
 D   1 1.00       0.000000000000
      0.8000000000D+00  0.1000000000D+01
 ****
     17 0
 S   6 1.00       0.000000000000
      0.3047524880D+04  0.1834737132D-02
      0.4573695180D+03  0.1403732281D-01
      0.1039486850D+03  0.6884262226D-01
      0.2921015530D+02  0.2321844432D+00
      0.9286662960D+01  0.4679413484D+00
      0.3163926960D+01  0.3623119853D+00
 SP   3 1.00       0.000000000000
      0.7868272350D+01 -0.1193324198D+00  0.6899906659D-01
      0.1881288540D+01 -0.1608541517D+00  0.3164239610D+00
      0.5442492580D+00  0.1143456438D+01  0.7443082909D+00
 SP   1 1.00       0.000000000000
      0.1687144782D+00  0.1000000000D+01  0.1000000000D+01
 D   1 1.00       0.000000000000
      0.8000000000D+00  0.1000000000D+01
 ****
     18 0
 S   6 1.00       0.000000000000
      0.3047524880D+04  0.1834737132D-02
      0.4573695180D+03  0.1403732281D-01
      0.1039486850D+03  0.6884262226D-01
      0.2921015530D+02  0.2321844432D+00
      0.9286662960D+01  0.4679413484D+00
      0.3163926960D+01  0.3623119853D+00
 SP   3 1.00       0.000000000000
      0.7868272350D+01 -0.1193324198D+00  0.6899906659D-01
      0.1881288540D+01 -0.1608541517D+00  0.3164239610D+00
      0.5442492580D+00  0.1143456438D+01  0.7443082909D+00
 SP   1 1.00       0.000000000000
      0.1687144782D+00  0.1000000000D+01  0.1000000000D+01
 D   1 1.00       0.000000000000
      0.8000000000D+00  0.1000000000D+01
 ****
     19 0
 S   6 1.00       0.000000000000
      0.3047524880D+04  0.1834737132D-02
      0.4573695180D+03  0.1403732281D-01
      0.1039486850D+03  0.6884262226D-01
      0.2921015530D+02  0.2321844432D+00
      0.9286662960D+01  0.4679413484D+00
      0.3163926960D+01  0.3623119853D+00
 SP   3 1.00       0.000000000000
      0.7868272350D+01 -0.1193324198D+00  0.6899906659D-01
      0.1881288540D+01 -0.1608541517D+00  0.3164239610D+00
      0.5442492580D+00  0.1143456438D+01  0.7443082909D+00
 SP   1 1.00       0.000000000000
      0.1687144782D+00  0.1000000000D+01  0.1000000000D+01
 D   1 1.00       0.000000000000
      0.8000000000D+00  0.1000000000D+01
 ****
     20 0
 S   6 1.00       0.000000000000
      0.3047524880D+04  0.1834737132D-02
      0.4573695180D+03  0.1403732281D-01
      0.1039486850D+03  0.6884262226D-01
      0.2921015530D+02  0.2321844432D+00
      0.9286662960D+01  0.4679413484D+00
      0.3163926960D+01  0.3623119853D+00
 SP   3 1.00       0.000000000000
      0.7868272350D+01 -0.1193324198D+00  0.6899906659D-01
      0.1881288540D+01 -0.1608541517D+00  0.3164239610D+00
      0.5442492580D+00  0.1143456438D+01  0.7443082909D+00
 SP   1 1.00       0.000000000000
      0.1687144782D+00  0.1000000000D+01  0.1000000000D+01
 D   1 1.00       0.000000000000
      0.8000000000D+00  0.1000000000D+01
 ****
     21 0
 S   6 1.00       0.000000000000
      0.3047524880D+04  0.1834737132D-02
      0.4573695180D+03  0.1403732281D-01
      0.1039486850D+03  0.6884262226D-01
      0.2921015530D+02  0.2321844432D+00
      0.9286662960D+01  0.4679413484D+00
      0.3163926960D+01  0.3623119853D+00
 SP   3 1.00       0.000000000000
      0.7868272350D+01 -0.1193324198D+00  0.6899906659D-01
      0.1881288540D+01 -0.1608541517D+00  0.3164239610D+00
      0.5442492580D+00  0.1143456438D+01  0.7443082909D+00
 SP   1 1.00       0.000000000000
      0.1687144782D+00  0.1000000000D+01  0.1000000000D+01
 D   1 1.00       0.000000000000
      0.8000000000D+00  0.1000000000D+01
 ****
     22 0
 S   6 1.00       0.000000000000
      0.3047524880D+04  0.1834737132D-02
      0.4573695180D+03  0.1403732281D-01
      0.1039486850D+03  0.6884262226D-01
      0.2921015530D+02  0.2321844432D+00
      0.9286662960D+01  0.4679413484D+00
      0.3163926960D+01  0.3623119853D+00
 SP   3 1.00       0.000000000000
      0.7868272350D+01 -0.1193324198D+00  0.6899906659D-01
      0.1881288540D+01 -0.1608541517D+00  0.3164239610D+00
      0.5442492580D+00  0.1143456438D+01  0.7443082909D+00
 SP   1 1.00       0.000000000000
      0.1687144782D+00  0.1000000000D+01  0.1000000000D+01
 D   1 1.00       0.000000000000
      0.8000000000D+00  0.1000000000D+01
 ****
     23 0
 S   6 1.00       0.000000000000
      0.3047524880D+04  0.1834737132D-02
      0.4573695180D+03  0.1403732281D-01
      0.1039486850D+03  0.6884262226D-01
      0.2921015530D+02  0.2321844432D+00
      0.9286662960D+01  0.4679413484D+00
      0.3163926960D+01  0.3623119853D+00
 SP   3 1.00       0.000000000000
      0.7868272350D+01 -0.1193324198D+00  0.6899906659D-01
      0.1881288540D+01 -0.1608541517D+00  0.3164239610D+00
      0.5442492580D+00  0.1143456438D+01  0.7443082909D+00
 SP   1 1.00       0.000000000000
      0.1687144782D+00  0.1000000000D+01  0.1000000000D+01
 D   1 1.00       0.000000000000
      0.8000000000D+00  0.1000000000D+01
 ****
     24 0
 S   6 1.00       0.000000000000
      0.3047524880D+04  0.1834737132D-02
      0.4573695180D+03  0.1403732281D-01
      0.1039486850D+03  0.6884262226D-01
      0.2921015530D+02  0.2321844432D+00
      0.9286662960D+01  0.4679413484D+00
      0.3163926960D+01  0.3623119853D+00
 SP   3 1.00       0.000000000000
      0.7868272350D+01 -0.1193324198D+00  0.6899906659D-01
      0.1881288540D+01 -0.1608541517D+00  0.3164239610D+00
      0.5442492580D+00  0.1143456438D+01  0.7443082909D+00
 SP   1 1.00       0.000000000000
      0.1687144782D+00  0.1000000000D+01  0.1000000000D+01
 D   1 1.00       0.000000000000
      0.8000000000D+00  0.1000000000D+01
 ****
     25 0
 S   6 1.00       0.000000000000
      0.3047524880D+04  0.1834737132D-02
      0.4573695180D+03  0.1403732281D-01
      0.1039486850D+03  0.6884262226D-01
      0.2921015530D+02  0.2321844432D+00
      0.9286662960D+01  0.4679413484D+00
      0.3163926960D+01  0.3623119853D+00
 SP   3 1.00       0.000000000000
      0.7868272350D+01 -0.1193324198D+00  0.6899906659D-01
      0.1881288540D+01 -0.1608541517D+00  0.3164239610D+00
      0.5442492580D+00  0.1143456438D+01  0.7443082909D+00
 SP   1 1.00       0.000000000000
      0.1687144782D+00  0.1000000000D+01  0.1000000000D+01
 D   1 1.00       0.000000000000
      0.8000000000D+00  0.1000000000D+01
 ****
     26 0
 S   6 1.00       0.000000000000
      0.3047524880D+04  0.1834737132D-02
      0.4573695180D+03  0.1403732281D-01
      0.1039486850D+03  0.6884262226D-01
      0.2921015530D+02  0.2321844432D+00
      0.9286662960D+01  0.4679413484D+00
      0.3163926960D+01  0.3623119853D+00
 SP   3 1.00       0.000000000000
      0.7868272350D+01 -0.1193324198D+00  0.6899906659D-01
      0.1881288540D+01 -0.1608541517D+00  0.3164239610D+00
      0.5442492580D+00  0.1143456438D+01  0.7443082909D+00
 SP   1 1.00       0.000000000000
      0.1687144782D+00  0.1000000000D+01  0.1000000000D+01
 D   1 1.00       0.000000000000
      0.8000000000D+00  0.1000000000D+01
 ****
     27 0
 S   6 1.00       0.000000000000
      0.3047524880D+04  0.1834737132D-02
      0.4573695180D+03  0.1403732281D-01
      0.1039486850D+03  0.6884262226D-01
      0.2921015530D+02  0.2321844432D+00
      0.9286662960D+01  0.4679413484D+00
      0.3163926960D+01  0.3623119853D+00
 SP   3 1.00       0.000000000000
      0.7868272350D+01 -0.1193324198D+00  0.6899906659D-01
      0.1881288540D+01 -0.1608541517D+00  0.3164239610D+00
      0.5442492580D+00  0.1143456438D+01  0.7443082909D+00
 SP   1 1.00       0.000000000000
      0.1687144782D+00  0.1000000000D+01  0.1000000000D+01
 D   1 1.00       0.000000000000
      0.8000000000D+00  0.1000000000D+01
 ****
     28 0
 S   6 1.00       0.000000000000
      0.3047524880D+04  0.1834737132D-02
      0.4573695180D+03  0.1403732281D-01
      0.1039486850D+03  0.6884262226D-01
      0.2921015530D+02  0.2321844432D+00
      0.9286662960D+01  0.4679413484D+00
      0.3163926960D+01  0.3623119853D+00
 SP   3 1.00       0.000000000000
      0.7868272350D+01 -0.1193324198D+00  0.6899906659D-01
      0.1881288540D+01 -0.1608541517D+00  0.3164239610D+00
      0.5442492580D+00  0.1143456438D+01  0.7443082909D+00
 SP   1 1.00       0.000000000000
      0.1687144782D+00  0.1000000000D+01  0.1000000000D+01
 D   1 1.00       0.000000000000
      0.8000000000D+00  0.1000000000D+01
 ****
     29 0
 S   6 1.00       0.000000000000
      0.3047524880D+04  0.1834737132D-02
      0.4573695180D+03  0.1403732281D-01
      0.1039486850D+03  0.6884262226D-01
      0.2921015530D+02  0.2321844432D+00
      0.9286662960D+01  0.4679413484D+00
      0.3163926960D+01  0.3623119853D+00
 SP   3 1.00       0.000000000000
      0.7868272350D+01 -0.1193324198D+00  0.6899906659D-01
      0.1881288540D+01 -0.1608541517D+00  0.3164239610D+00
      0.5442492580D+00  0.1143456438D+01  0.7443082909D+00
 SP   1 1.00       0.000000000000
      0.1687144782D+00  0.1000000000D+01  0.1000000000D+01
 D   1 1.00       0.000000000000
      0.8000000000D+00  0.1000000000D+01
 ****
     30 0
 S   6 1.00       0.000000000000
      0.3047524880D+04  0.1834737132D-02
      0.4573695180D+03  0.1403732281D-01
      0.1039486850D+03  0.6884262226D-01
      0.2921015530D+02  0.2321844432D+00
      0.9286662960D+01  0.4679413484D+00
      0.3163926960D+01  0.3623119853D+00
 SP   3 1.00       0.000000000000
      0.7868272350D+01 -0.1193324198D+00  0.6899906659D-01
      0.1881288540D+01 -0.1608541517D+00  0.3164239610D+00
      0.5442492580D+00  0.1143456438D+01  0.7443082909D+00
 SP   1 1.00       0.000000000000
      0.1687144782D+00  0.1000000000D+01  0.1000000000D+01
 D   1 1.00       0.000000000000
      0.8000000000D+00  0.1000000000D+01
 ****
     31 0
 S   6 1.00       0.000000000000
      0.4173511460D+04  0.1834772160D-02
      0.6274579110D+03  0.1399462700D-01
      0.1429020930D+03  0.6858655181D-01
      0.4023432930D+02  0.2322408730D+00
      0.1282021290D+02  0.4690699481D+00
      0.4390437010D+01  0.3604551991D+00
 SP   3 1.00       0.000000000000
      0.1162636186D+02 -0.1149611817D+00  0.6757974388D-01
      0.2716279807D+01 -0.1691174786D+00  0.3239072959D+00
      0.7722183966D+00  0.1145851947D+01  0.7408951398D+00
 SP   1 1.00       0.000000000000
      0.2120314975D+00  0.1000000000D+01  0.1000000000D+01
 D   1 1.00       0.000000000000
      0.8000000000D+00  0.1000000000D+01
 ****
     32 0
 S   6 1.00       0.000000000000
      0.4173511460D+04  0.1834772160D-02
      0.6274579110D+03  0.1399462700D-01
      0.1429020930D+03  0.6858655181D-01
      0.4023432930D+02  0.2322408730D+00
      0.1282021290D+02  0.4690699481D+00
      0.4390437010D+01  0.3604551991D+00
 SP   3 1.00       0.000000000000
      0.1162636186D+02 -0.1149611817D+00  0.6757974388D-01
      0.2716279807D+01 -0.1691174786D+00  0.3239072959D+00
      0.7722183966D+00  0.1145851947D+01  0.7408951398D+00
 SP   1 1.00       0.000000000000
      0.2120314975D+00  0.1000000000D+01  0.1000000000D+01
 D   1 1.00       0.000000000000
      0.8000000000D+00  0.1000000000D+01
 ****
     33 0
 S   6 1.00       0.000000000000
      0.3047524880D+04  0.1834737132D-02
      0.4573695180D+03  0.1403732281D-01
      0.1039486850D+03  0.6884262226D-01
      0.2921015530D+02  0.2321844432D+00
      0.9286662960D+01  0.4679413484D+00
      0.3163926960D+01  0.3623119853D+00
 SP   3 1.00       0.000000000000
      0.7868272350D+01 -0.1193324198D+00  0.6899906659D-01
      0.1881288540D+01 -0.1608541517D+00  0.3164239610D+00
      0.5442492580D+00  0.1143456438D+01  0.7443082909D+00
 SP   1 1.00       0.000000000000
      0.1687144782D+00  0.1000000000D+01  0.1000000000D+01
 D   1 1.00       0.000000000000
      0.8000000000D+00  0.1000000000D+01
 ****
     34 0
 S   6 1.00       0.000000000000
      0.3047524880D+04  0.1834737132D-02
      0.4573695180D+03  0.1403732281D-01
      0.1039486850D+03  0.6884262226D-01
      0.2921015530D+02  0.2321844432D+00
      0.9286662960D+01  0.4679413484D+00
      0.3163926960D+01  0.3623119853D+00
 SP   3 1.00       0.000000000000
      0.7868272350D+01 -0.1193324198D+00  0.6899906659D-01
      0.1881288540D+01 -0.1608541517D+00  0.3164239610D+00
      0.5442492580D+00  0.1143456438D+01  0.7443082909D+00
 SP   1 1.00       0.000000000000
      0.1687144782D+00  0.1000000000D+01  0.1000000000D+01
 D   1 1.00       0.000000000000
      0.8000000000D+00  0.1000000000D+01
 ****
     35 0
 S   6 1.00       0.000000000000
      0.3047524880D+04  0.1834737132D-02
      0.4573695180D+03  0.1403732281D-01
      0.1039486850D+03  0.6884262226D-01
      0.2921015530D+02  0.2321844432D+00
      0.9286662960D+01  0.4679413484D+00
      0.3163926960D+01  0.3623119853D+00
 SP   3 1.00       0.000000000000
      0.7868272350D+01 -0.1193324198D+00  0.6899906659D-01
      0.1881288540D+01 -0.1608541517D+00  0.3164239610D+00
      0.5442492580D+00  0.1143456438D+01  0.7443082909D+00
 SP   1 1.00       0.000000000000
      0.1687144782D+00  0.1000000000D+01  0.1000000000D+01
 D   1 1.00       0.000000000000
      0.8000000000D+00  0.1000000000D+01
 ****
     36 0
 S   6 1.00       0.000000000000
      0.3047524880D+04  0.1834737132D-02
      0.4573695180D+03  0.1403732281D-01
      0.1039486850D+03  0.6884262226D-01
      0.2921015530D+02  0.2321844432D+00
      0.9286662960D+01  0.4679413484D+00
      0.3163926960D+01  0.3623119853D+00
 SP   3 1.00       0.000000000000
      0.7868272350D+01 -0.1193324198D+00  0.6899906659D-01
      0.1881288540D+01 -0.1608541517D+00  0.3164239610D+00
      0.5442492580D+00  0.1143456438D+01  0.7443082909D+00
 SP   1 1.00       0.000000000000
      0.1687144782D+00  0.1000000000D+01  0.1000000000D+01
 D   1 1.00       0.000000000000
      0.8000000000D+00  0.1000000000D+01
 ****
     37 0
 S   6 1.00       0.000000000000
      0.3047524880D+04  0.1834737132D-02
      0.4573695180D+03  0.1403732281D-01
      0.1039486850D+03  0.6884262226D-01
      0.2921015530D+02  0.2321844432D+00
      0.9286662960D+01  0.4679413484D+00
      0.3163926960D+01  0.3623119853D+00
 SP   3 1.00       0.000000000000
      0.7868272350D+01 -0.1193324198D+00  0.6899906659D-01
      0.1881288540D+01 -0.1608541517D+00  0.3164239610D+00
      0.5442492580D+00  0.1143456438D+01  0.7443082909D+00
 SP   1 1.00       0.000000000000
      0.1687144782D+00  0.1000000000D+01  0.1000000000D+01
 D   1 1.00       0.000000000000
      0.8000000000D+00  0.1000000000D+01
 ****
     38 0
 S   6 1.00       0.000000000000
      0.3047524880D+04  0.1834737132D-02
      0.4573695180D+03  0.1403732281D-01
      0.1039486850D+03  0.6884262226D-01
      0.2921015530D+02  0.2321844432D+00
      0.9286662960D+01  0.4679413484D+00
      0.3163926960D+01  0.3623119853D+00
 SP   3 1.00       0.000000000000
      0.7868272350D+01 -0.1193324198D+00  0.6899906659D-01
      0.1881288540D+01 -0.1608541517D+00  0.3164239610D+00
      0.5442492580D+00  0.1143456438D+01  0.7443082909D+00
 SP   1 1.00       0.000000000000
      0.1687144782D+00  0.1000000000D+01  0.1000000000D+01
 D   1 1.00       0.000000000000
      0.8000000000D+00  0.1000000000D+01
 ****
     39 0
 S   6 1.00       0.000000000000
      0.3047524880D+04  0.1834737132D-02
      0.4573695180D+03  0.1403732281D-01
      0.1039486850D+03  0.6884262226D-01
      0.2921015530D+02  0.2321844432D+00
      0.9286662960D+01  0.4679413484D+00
      0.3163926960D+01  0.3623119853D+00
 SP   3 1.00       0.000000000000
      0.7868272350D+01 -0.1193324198D+00  0.6899906659D-01
      0.1881288540D+01 -0.1608541517D+00  0.3164239610D+00
      0.5442492580D+00  0.1143456438D+01  0.7443082909D+00
 SP   1 1.00       0.000000000000
      0.1687144782D+00  0.1000000000D+01  0.1000000000D+01
 D   1 1.00       0.000000000000
      0.8000000000D+00  0.1000000000D+01
 ****
     40 0
 S   6 1.00       0.000000000000
      0.3047524880D+04  0.1834737132D-02
      0.4573695180D+03  0.1403732281D-01
      0.1039486850D+03  0.6884262226D-01
      0.2921015530D+02  0.2321844432D+00
      0.9286662960D+01  0.4679413484D+00
      0.3163926960D+01  0.3623119853D+00
 SP   3 1.00       0.000000000000
      0.7868272350D+01 -0.1193324198D+00  0.6899906659D-01
      0.1881288540D+01 -0.1608541517D+00  0.3164239610D+00
      0.5442492580D+00  0.1143456438D+01  0.7443082909D+00
 SP   1 1.00       0.000000000000
      0.1687144782D+00  0.1000000000D+01  0.1000000000D+01
 D   1 1.00       0.000000000000
      0.8000000000D+00  0.1000000000D+01
 ****
     41 0
 S   6 1.00       0.000000000000
      0.3047524880D+04  0.1834737132D-02
      0.4573695180D+03  0.1403732281D-01
      0.1039486850D+03  0.6884262226D-01
      0.2921015530D+02  0.2321844432D+00
      0.9286662960D+01  0.4679413484D+00
      0.3163926960D+01  0.3623119853D+00
 SP   3 1.00       0.000000000000
      0.7868272350D+01 -0.1193324198D+00  0.6899906659D-01
      0.1881288540D+01 -0.1608541517D+00  0.3164239610D+00
      0.5442492580D+00  0.1143456438D+01  0.7443082909D+00
 SP   1 1.00       0.000000000000
      0.1687144782D+00  0.1000000000D+01  0.1000000000D+01
 D   1 1.00       0.000000000000
      0.8000000000D+00  0.1000000000D+01
 ****
     42 0
 S   6 1.00       0.000000000000
      0.3047524880D+04  0.1834737132D-02
      0.4573695180D+03  0.1403732281D-01
      0.1039486850D+03  0.6884262226D-01
      0.2921015530D+02  0.2321844432D+00
      0.9286662960D+01  0.4679413484D+00
      0.3163926960D+01  0.3623119853D+00
 SP   3 1.00       0.000000000000
      0.7868272350D+01 -0.1193324198D+00  0.6899906659D-01
      0.1881288540D+01 -0.1608541517D+00  0.3164239610D+00
      0.5442492580D+00  0.1143456438D+01  0.7443082909D+00
 SP   1 1.00       0.000000000000
      0.1687144782D+00  0.1000000000D+01  0.1000000000D+01
 D   1 1.00       0.000000000000
      0.8000000000D+00  0.1000000000D+01
 ****
     43 0
 S   6 1.00       0.000000000000
      0.3047524880D+04  0.1834737132D-02
      0.4573695180D+03  0.1403732281D-01
      0.1039486850D+03  0.6884262226D-01
      0.2921015530D+02  0.2321844432D+00
      0.9286662960D+01  0.4679413484D+00
      0.3163926960D+01  0.3623119853D+00
 SP   3 1.00       0.000000000000
      0.7868272350D+01 -0.1193324198D+00  0.6899906659D-01
      0.1881288540D+01 -0.1608541517D+00  0.3164239610D+00
      0.5442492580D+00  0.1143456438D+01  0.7443082909D+00
 SP   1 1.00       0.000000000000
      0.1687144782D+00  0.1000000000D+01  0.1000000000D+01
 D   1 1.00       0.000000000000
      0.8000000000D+00  0.1000000000D+01
 ****
     44 0
 S   6 1.00       0.000000000000
      0.3047524880D+04  0.1834737132D-02
      0.4573695180D+03  0.1403732281D-01
      0.1039486850D+03  0.6884262226D-01
      0.2921015530D+02  0.2321844432D+00
      0.9286662960D+01  0.4679413484D+00
      0.3163926960D+01  0.3623119853D+00
 SP   3 1.00       0.000000000000
      0.7868272350D+01 -0.1193324198D+00  0.6899906659D-01
      0.1881288540D+01 -0.1608541517D+00  0.3164239610D+00
      0.5442492580D+00  0.1143456438D+01  0.7443082909D+00
 SP   1 1.00       0.000000000000
      0.1687144782D+00  0.1000000000D+01  0.1000000000D+01
 D   1 1.00       0.000000000000
      0.8000000000D+00  0.1000000000D+01
 ****
     45 0
 S   6 1.00       0.000000000000
      0.3047524880D+04  0.1834737132D-02
      0.4573695180D+03  0.1403732281D-01
      0.1039486850D+03  0.6884262226D-01
      0.2921015530D+02  0.2321844432D+00
      0.9286662960D+01  0.4679413484D+00
      0.3163926960D+01  0.3623119853D+00
 SP   3 1.00       0.000000000000
      0.7868272350D+01 -0.1193324198D+00  0.6899906659D-01
      0.1881288540D+01 -0.1608541517D+00  0.3164239610D+00
      0.5442492580D+00  0.1143456438D+01  0.7443082909D+00
 SP   1 1.00       0.000000000000
      0.1687144782D+00  0.1000000000D+01  0.1000000000D+01
 D   1 1.00       0.000000000000
      0.8000000000D+00  0.1000000000D+01
 ****
     46 0
 S   6 1.00       0.000000000000
      0.3047524880D+04  0.1834737132D-02
      0.4573695180D+03  0.1403732281D-01
      0.1039486850D+03  0.6884262226D-01
      0.2921015530D+02  0.2321844432D+00
      0.9286662960D+01  0.4679413484D+00
      0.3163926960D+01  0.3623119853D+00
 SP   3 1.00       0.000000000000
      0.7868272350D+01 -0.1193324198D+00  0.6899906659D-01
      0.1881288540D+01 -0.1608541517D+00  0.3164239610D+00
      0.5442492580D+00  0.1143456438D+01  0.7443082909D+00
 SP   1 1.00       0.000000000000
      0.1687144782D+00  0.1000000000D+01  0.1000000000D+01
 D   1 1.00       0.000000000000
      0.8000000000D+00  0.1000000000D+01
 ****
     47 0
 S   6 1.00       0.000000000000
      0.3047524880D+04  0.1834737132D-02
      0.4573695180D+03  0.1403732281D-01
      0.1039486850D+03  0.6884262226D-01
      0.2921015530D+02  0.2321844432D+00
      0.9286662960D+01  0.4679413484D+00
      0.3163926960D+01  0.3623119853D+00
 SP   3 1.00       0.000000000000
      0.7868272350D+01 -0.1193324198D+00  0.6899906659D-01
      0.1881288540D+01 -0.1608541517D+00  0.3164239610D+00
      0.5442492580D+00  0.1143456438D+01  0.7443082909D+00
 SP   1 1.00       0.000000000000
      0.1687144782D+00  0.1000000000D+01  0.1000000000D+01
 D   1 1.00       0.000000000000
      0.8000000000D+00  0.1000000000D+01
 ****
     48 0
 S   6 1.00       0.000000000000
      0.3047524880D+04  0.1834737132D-02
      0.4573695180D+03  0.1403732281D-01
      0.1039486850D+03  0.6884262226D-01
      0.2921015530D+02  0.2321844432D+00
      0.9286662960D+01  0.4679413484D+00
      0.3163926960D+01  0.3623119853D+00
 SP   3 1.00       0.000000000000
      0.7868272350D+01 -0.1193324198D+00  0.6899906659D-01
      0.1881288540D+01 -0.1608541517D+00  0.3164239610D+00
      0.5442492580D+00  0.1143456438D+01  0.7443082909D+00
 SP   1 1.00       0.000000000000
      0.1687144782D+00  0.1000000000D+01  0.1000000000D+01
 D   1 1.00       0.000000000000
      0.8000000000D+00  0.1000000000D+01
 ****
     49 0
 S   6 1.00       0.000000000000
      0.3047524880D+04  0.1834737132D-02
      0.4573695180D+03  0.1403732281D-01
      0.1039486850D+03  0.6884262226D-01
      0.2921015530D+02  0.2321844432D+00
      0.9286662960D+01  0.4679413484D+00
      0.3163926960D+01  0.3623119853D+00
 SP   3 1.00       0.000000000000
      0.7868272350D+01 -0.1193324198D+00  0.6899906659D-01
      0.1881288540D+01 -0.1608541517D+00  0.3164239610D+00
      0.5442492580D+00  0.1143456438D+01  0.7443082909D+00
 SP   1 1.00       0.000000000000
      0.1687144782D+00  0.1000000000D+01  0.1000000000D+01
 D   1 1.00       0.000000000000
      0.8000000000D+00  0.1000000000D+01
 ****
     50 0
 S   6 1.00       0.000000000000
      0.4173511460D+04  0.1834772160D-02
      0.6274579110D+03  0.1399462700D-01
      0.1429020930D+03  0.6858655181D-01
      0.4023432930D+02  0.2322408730D+00
      0.1282021290D+02  0.4690699481D+00
      0.4390437010D+01  0.3604551991D+00
 SP   3 1.00       0.000000000000
      0.1162636186D+02 -0.1149611817D+00  0.6757974388D-01
      0.2716279807D+01 -0.1691174786D+00  0.3239072959D+00
      0.7722183966D+00  0.1145851947D+01  0.7408951398D+00
 SP   1 1.00       0.000000000000
      0.2120314975D+00  0.1000000000D+01  0.1000000000D+01
 D   1 1.00       0.000000000000
      0.8000000000D+00  0.1000000000D+01
 ****
     51 0
 S   6 1.00       0.000000000000
      0.3047524880D+04  0.1834737132D-02
      0.4573695180D+03  0.1403732281D-01
      0.1039486850D+03  0.6884262226D-01
      0.2921015530D+02  0.2321844432D+00
      0.9286662960D+01  0.4679413484D+00
      0.3163926960D+01  0.3623119853D+00
 SP   3 1.00       0.000000000000
      0.7868272350D+01 -0.1193324198D+00  0.6899906659D-01
      0.1881288540D+01 -0.1608541517D+00  0.3164239610D+00
      0.5442492580D+00  0.1143456438D+01  0.7443082909D+00
 SP   1 1.00       0.000000000000
      0.1687144782D+00  0.1000000000D+01  0.1000000000D+01
 D   1 1.00       0.000000000000
      0.8000000000D+00  0.1000000000D+01
 ****
     52 0
 S   6 1.00       0.000000000000
      0.3047524880D+04  0.1834737132D-02
      0.4573695180D+03  0.1403732281D-01
      0.1039486850D+03  0.6884262226D-01
      0.2921015530D+02  0.2321844432D+00
      0.9286662960D+01  0.4679413484D+00
      0.3163926960D+01  0.3623119853D+00
 SP   3 1.00       0.000000000000
      0.7868272350D+01 -0.1193324198D+00  0.6899906659D-01
      0.1881288540D+01 -0.1608541517D+00  0.3164239610D+00
      0.5442492580D+00  0.1143456438D+01  0.7443082909D+00
 SP   1 1.00       0.000000000000
      0.1687144782D+00  0.1000000000D+01  0.1000000000D+01
 D   1 1.00       0.000000000000
      0.8000000000D+00  0.1000000000D+01
 ****
     53 0
 S   6 1.00       0.000000000000
      0.3047524880D+04  0.1834737132D-02
      0.4573695180D+03  0.1403732281D-01
      0.1039486850D+03  0.6884262226D-01
      0.2921015530D+02  0.2321844432D+00
      0.9286662960D+01  0.4679413484D+00
      0.3163926960D+01  0.3623119853D+00
 SP   3 1.00       0.000000000000
      0.7868272350D+01 -0.1193324198D+00  0.6899906659D-01
      0.1881288540D+01 -0.1608541517D+00  0.3164239610D+00
      0.5442492580D+00  0.1143456438D+01  0.7443082909D+00
 SP   1 1.00       0.000000000000
      0.1687144782D+00  0.1000000000D+01  0.1000000000D+01
 D   1 1.00       0.000000000000
      0.8000000000D+00  0.1000000000D+01
 ****
     54 0
 S   6 1.00       0.000000000000
      0.3047524880D+04  0.1834737132D-02
      0.4573695180D+03  0.1403732281D-01
      0.1039486850D+03  0.6884262226D-01
      0.2921015530D+02  0.2321844432D+00
      0.9286662960D+01  0.4679413484D+00
      0.3163926960D+01  0.3623119853D+00
 SP   3 1.00       0.000000000000
      0.7868272350D+01 -0.1193324198D+00  0.6899906659D-01
      0.1881288540D+01 -0.1608541517D+00  0.3164239610D+00
      0.5442492580D+00  0.1143456438D+01  0.7443082909D+00
 SP   1 1.00       0.000000000000
      0.1687144782D+00  0.1000000000D+01  0.1000000000D+01
 D   1 1.00       0.000000000000
      0.8000000000D+00  0.1000000000D+01
 ****
     55 0
 S   6 1.00       0.000000000000
      0.3047524880D+04  0.1834737132D-02
      0.4573695180D+03  0.1403732281D-01
      0.1039486850D+03  0.6884262226D-01
      0.2921015530D+02  0.2321844432D+00
      0.9286662960D+01  0.4679413484D+00
      0.3163926960D+01  0.3623119853D+00
 SP   3 1.00       0.000000000000
      0.7868272350D+01 -0.1193324198D+00  0.6899906659D-01
      0.1881288540D+01 -0.1608541517D+00  0.3164239610D+00
      0.5442492580D+00  0.1143456438D+01  0.7443082909D+00
 SP   1 1.00       0.000000000000
      0.1687144782D+00  0.1000000000D+01  0.1000000000D+01
 D   1 1.00       0.000000000000
      0.8000000000D+00  0.1000000000D+01
 ****
     56 0
 S   6 1.00       0.000000000000
      0.3047524880D+04  0.1834737132D-02
      0.4573695180D+03  0.1403732281D-01
      0.1039486850D+03  0.6884262226D-01
      0.2921015530D+02  0.2321844432D+00
      0.9286662960D+01  0.4679413484D+00
      0.3163926960D+01  0.3623119853D+00
 SP   3 1.00       0.000000000000
      0.7868272350D+01 -0.1193324198D+00  0.6899906659D-01
      0.1881288540D+01 -0.1608541517D+00  0.3164239610D+00
      0.5442492580D+00  0.1143456438D+01  0.7443082909D+00
 SP   1 1.00       0.000000000000
      0.1687144782D+00  0.1000000000D+01  0.1000000000D+01
 D   1 1.00       0.000000000000
      0.8000000000D+00  0.1000000000D+01
 ****
     57 0
 S   6 1.00       0.000000000000
      0.3047524880D+04  0.1834737132D-02
      0.4573695180D+03  0.1403732281D-01
      0.1039486850D+03  0.6884262226D-01
      0.2921015530D+02  0.2321844432D+00
      0.9286662960D+01  0.4679413484D+00
      0.3163926960D+01  0.3623119853D+00
 SP   3 1.00       0.000000000000
      0.7868272350D+01 -0.1193324198D+00  0.6899906659D-01
      0.1881288540D+01 -0.1608541517D+00  0.3164239610D+00
      0.5442492580D+00  0.1143456438D+01  0.7443082909D+00
 SP   1 1.00       0.000000000000
      0.1687144782D+00  0.1000000000D+01  0.1000000000D+01
 D   1 1.00       0.000000000000
      0.8000000000D+00  0.1000000000D+01
 ****
     58 0
 S   6 1.00       0.000000000000
      0.4173511460D+04  0.1834772160D-02
      0.6274579110D+03  0.1399462700D-01
      0.1429020930D+03  0.6858655181D-01
      0.4023432930D+02  0.2322408730D+00
      0.1282021290D+02  0.4690699481D+00
      0.4390437010D+01  0.3604551991D+00
 SP   3 1.00       0.000000000000
      0.1162636186D+02 -0.1149611817D+00  0.6757974388D-01
      0.2716279807D+01 -0.1691174786D+00  0.3239072959D+00
      0.7722183966D+00  0.1145851947D+01  0.7408951398D+00
 SP   1 1.00       0.000000000000
      0.2120314975D+00  0.1000000000D+01  0.1000000000D+01
 D   1 1.00       0.000000000000
      0.8000000000D+00  0.1000000000D+01
 ****
     59 0
 S   6 1.00       0.000000000000
      0.3047524880D+04  0.1834737132D-02
      0.4573695180D+03  0.1403732281D-01
      0.1039486850D+03  0.6884262226D-01
      0.2921015530D+02  0.2321844432D+00
      0.9286662960D+01  0.4679413484D+00
      0.3163926960D+01  0.3623119853D+00
 SP   3 1.00       0.000000000000
      0.7868272350D+01 -0.1193324198D+00  0.6899906659D-01
      0.1881288540D+01 -0.1608541517D+00  0.3164239610D+00
      0.5442492580D+00  0.1143456438D+01  0.7443082909D+00
 SP   1 1.00       0.000000000000
      0.1687144782D+00  0.1000000000D+01  0.1000000000D+01
 D   1 1.00       0.000000000000
      0.8000000000D+00  0.1000000000D+01
 ****
     60 0
 S   6 1.00       0.000000000000
      0.3047524880D+04  0.1834737132D-02
      0.4573695180D+03  0.1403732281D-01
      0.1039486850D+03  0.6884262226D-01
      0.2921015530D+02  0.2321844432D+00
      0.9286662960D+01  0.4679413484D+00
      0.3163926960D+01  0.3623119853D+00
 SP   3 1.00       0.000000000000
      0.7868272350D+01 -0.1193324198D+00  0.6899906659D-01
      0.1881288540D+01 -0.1608541517D+00  0.3164239610D+00
      0.5442492580D+00  0.1143456438D+01  0.7443082909D+00
 SP   1 1.00       0.000000000000
      0.1687144782D+00  0.1000000000D+01  0.1000000000D+01
 D   1 1.00       0.000000000000
      0.8000000000D+00  0.1000000000D+01
 ****
     61 0
 S   6 1.00       0.000000000000
      0.3047524880D+04  0.1834737132D-02
      0.4573695180D+03  0.1403732281D-01
      0.1039486850D+03  0.6884262226D-01
      0.2921015530D+02  0.2321844432D+00
      0.9286662960D+01  0.4679413484D+00
      0.3163926960D+01  0.3623119853D+00
 SP   3 1.00       0.000000000000
      0.7868272350D+01 -0.1193324198D+00  0.6899906659D-01
      0.1881288540D+01 -0.1608541517D+00  0.3164239610D+00
      0.5442492580D+00  0.1143456438D+01  0.7443082909D+00
 SP   1 1.00       0.000000000000
      0.1687144782D+00  0.1000000000D+01  0.1000000000D+01
 D   1 1.00       0.000000000000
      0.8000000000D+00  0.1000000000D+01
 ****
     62 0
 S   3 1.00       0.000000000000
      0.1873113696D+02  0.3349460434D-01
      0.2825394365D+01  0.2347269535D+00
      0.6401216923D+00  0.8137573261D+00
 S   1 1.00       0.000000000000
      0.1612777588D+00  0.1000000000D+01
 ****
     63 0
 S   3 1.00       0.000000000000
      0.1873113696D+02  0.3349460434D-01
      0.2825394365D+01  0.2347269535D+00
      0.6401216923D+00  0.8137573261D+00
 S   1 1.00       0.000000000000
      0.1612777588D+00  0.1000000000D+01
 ****
     64 0
 S   3 1.00       0.000000000000
      0.1873113696D+02  0.3349460434D-01
      0.2825394365D+01  0.2347269535D+00
      0.6401216923D+00  0.8137573261D+00
 S   1 1.00       0.000000000000
      0.1612777588D+00  0.1000000000D+01
 ****
     65 0
 S   3 1.00       0.000000000000
      0.1873113696D+02  0.3349460434D-01
      0.2825394365D+01  0.2347269535D+00
      0.6401216923D+00  0.8137573261D+00
 S   1 1.00       0.000000000000
      0.1612777588D+00  0.1000000000D+01
 ****
     66 0
 S   3 1.00       0.000000000000
      0.1873113696D+02  0.3349460434D-01
      0.2825394365D+01  0.2347269535D+00
      0.6401216923D+00  0.8137573261D+00
 S   1 1.00       0.000000000000
      0.1612777588D+00  0.1000000000D+01
 ****
     67 0
 S   3 1.00       0.000000000000
      0.1873113696D+02  0.3349460434D-01
      0.2825394365D+01  0.2347269535D+00
      0.6401216923D+00  0.8137573261D+00
 S   1 1.00       0.000000000000
      0.1612777588D+00  0.1000000000D+01
 ****
     68 0
 S   3 1.00       0.000000000000
      0.1873113696D+02  0.3349460434D-01
      0.2825394365D+01  0.2347269535D+00
      0.6401216923D+00  0.8137573261D+00
 S   1 1.00       0.000000000000
      0.1612777588D+00  0.1000000000D+01
 ****
     69 0
 S   3 1.00       0.000000000000
      0.1873113696D+02  0.3349460434D-01
      0.2825394365D+01  0.2347269535D+00
      0.6401216923D+00  0.8137573261D+00
 S   1 1.00       0.000000000000
      0.1612777588D+00  0.1000000000D+01
 ****
     70 0
 S   3 1.00       0.000000000000
      0.1873113696D+02  0.3349460434D-01
      0.2825394365D+01  0.2347269535D+00
      0.6401216923D+00  0.8137573261D+00
 S   1 1.00       0.000000000000
      0.1612777588D+00  0.1000000000D+01
 ****
     71 0
 S   3 1.00       0.000000000000
      0.1873113696D+02  0.3349460434D-01
      0.2825394365D+01  0.2347269535D+00
      0.6401216923D+00  0.8137573261D+00
 S   1 1.00       0.000000000000
      0.1612777588D+00  0.1000000000D+01
 ****
     72 0
 S   3 1.00       0.000000000000
      0.1873113696D+02  0.3349460434D-01
      0.2825394365D+01  0.2347269535D+00
      0.6401216923D+00  0.8137573261D+00
 S   1 1.00       0.000000000000
      0.1612777588D+00  0.1000000000D+01
 ****
     73 0
 S   3 1.00       0.000000000000
      0.1873113696D+02  0.3349460434D-01
      0.2825394365D+01  0.2347269535D+00
      0.6401216923D+00  0.8137573261D+00
 S   1 1.00       0.000000000000
      0.1612777588D+00  0.1000000000D+01
 ****
     74 0
 S   3 1.00       0.000000000000
      0.1873113696D+02  0.3349460434D-01
      0.2825394365D+01  0.2347269535D+00
      0.6401216923D+00  0.8137573261D+00
 S   1 1.00       0.000000000000
      0.1612777588D+00  0.1000000000D+01
 ****
     75 0
 S   3 1.00       0.000000000000
      0.1873113696D+02  0.3349460434D-01
      0.2825394365D+01  0.2347269535D+00
      0.6401216923D+00  0.8137573261D+00
 S   1 1.00       0.000000000000
      0.1612777588D+00  0.1000000000D+01
 ****
     76 0
 S   3 1.00       0.000000000000
      0.1873113696D+02  0.3349460434D-01
      0.2825394365D+01  0.2347269535D+00
      0.6401216923D+00  0.8137573261D+00
 S   1 1.00       0.000000000000
      0.1612777588D+00  0.1000000000D+01
 ****
     77 0
 S   3 1.00       0.000000000000
      0.1873113696D+02  0.3349460434D-01
      0.2825394365D+01  0.2347269535D+00
      0.6401216923D+00  0.8137573261D+00
 S   1 1.00       0.000000000000
      0.1612777588D+00  0.1000000000D+01
 ****
     78 0
 S   3 1.00       0.000000000000
      0.1873113696D+02  0.3349460434D-01
      0.2825394365D+01  0.2347269535D+00
      0.6401216923D+00  0.8137573261D+00
 S   1 1.00       0.000000000000
      0.1612777588D+00  0.1000000000D+01
 ****
     79 0
 S   3 1.00       0.000000000000
      0.1873113696D+02  0.3349460434D-01
      0.2825394365D+01  0.2347269535D+00
      0.6401216923D+00  0.8137573261D+00
 S   1 1.00       0.000000000000
      0.1612777588D+00  0.1000000000D+01
 ****
     80 0
 S   3 1.00       0.000000000000
      0.1873113696D+02  0.3349460434D-01
      0.2825394365D+01  0.2347269535D+00
      0.6401216923D+00  0.8137573261D+00
 S   1 1.00       0.000000000000
      0.1612777588D+00  0.1000000000D+01
 ****
     81 0
 S   3 1.00       0.000000000000
      0.1873113696D+02  0.3349460434D-01
      0.2825394365D+01  0.2347269535D+00
      0.6401216923D+00  0.8137573261D+00
 S   1 1.00       0.000000000000
      0.1612777588D+00  0.1000000000D+01
 ****
     82 0
 S   3 1.00       0.000000000000
      0.1873113696D+02  0.3349460434D-01
      0.2825394365D+01  0.2347269535D+00
      0.6401216923D+00  0.8137573261D+00
 S   1 1.00       0.000000000000
      0.1612777588D+00  0.1000000000D+01
 ****
     83 0
 S   3 1.00       0.000000000000
      0.1873113696D+02  0.3349460434D-01
      0.2825394365D+01  0.2347269535D+00
      0.6401216923D+00  0.8137573261D+00
 S   1 1.00       0.000000000000
      0.1612777588D+00  0.1000000000D+01
 ****
     84 0
 S   3 1.00       0.000000000000
      0.1873113696D+02  0.3349460434D-01
      0.2825394365D+01  0.2347269535D+00
      0.6401216923D+00  0.8137573261D+00
 S   1 1.00       0.000000000000
      0.1612777588D+00  0.1000000000D+01
 ****
     85 0
 S   3 1.00       0.000000000000
      0.1873113696D+02  0.3349460434D-01
      0.2825394365D+01  0.2347269535D+00
      0.6401216923D+00  0.8137573261D+00
 S   1 1.00       0.000000000000
      0.1612777588D+00  0.1000000000D+01
 ****
     86 0
 S   3 1.00       0.000000000000
      0.1873113696D+02  0.3349460434D-01
      0.2825394365D+01  0.2347269535D+00
      0.6401216923D+00  0.8137573261D+00
 S   1 1.00       0.000000000000
      0.1612777588D+00  0.1000000000D+01
 ****
     87 0
 S   3 1.00       0.000000000000
      0.1873113696D+02  0.3349460434D-01
      0.2825394365D+01  0.2347269535D+00
      0.6401216923D+00  0.8137573261D+00
 S   1 1.00       0.000000000000
      0.1612777588D+00  0.1000000000D+01
 ****
     88 0
 S   3 1.00       0.000000000000
      0.1873113696D+02  0.3349460434D-01
      0.2825394365D+01  0.2347269535D+00
      0.6401216923D+00  0.8137573261D+00
 S   1 1.00       0.000000000000
      0.1612777588D+00  0.1000000000D+01
 ****
     89 0
 S   3 1.00       0.000000000000
      0.1873113696D+02  0.3349460434D-01
      0.2825394365D+01  0.2347269535D+00
      0.6401216923D+00  0.8137573261D+00
 S   1 1.00       0.000000000000
      0.1612777588D+00  0.1000000000D+01
 ****
     90 0
 S   3 1.00       0.000000000000
      0.1873113696D+02  0.3349460434D-01
      0.2825394365D+01  0.2347269535D+00
      0.6401216923D+00  0.8137573261D+00
 S   1 1.00       0.000000000000
      0.1612777588D+00  0.1000000000D+01
 ****
     91 0
 S   3 1.00       0.000000000000
      0.1873113696D+02  0.3349460434D-01
      0.2825394365D+01  0.2347269535D+00
      0.6401216923D+00  0.8137573261D+00
 S   1 1.00       0.000000000000
      0.1612777588D+00  0.1000000000D+01
 ****
     92 0
 S   3 1.00       0.000000000000
      0.1873113696D+02  0.3349460434D-01
      0.2825394365D+01  0.2347269535D+00
      0.6401216923D+00  0.8137573261D+00
 S   1 1.00       0.000000000000
      0.1612777588D+00  0.1000000000D+01
 ****
     93 0
 S   3 1.00       0.000000000000
      0.1873113696D+02  0.3349460434D-01
      0.2825394365D+01  0.2347269535D+00
      0.6401216923D+00  0.8137573261D+00
 S   1 1.00       0.000000000000
      0.1612777588D+00  0.1000000000D+01
 ****
     94 0
 S   3 1.00       0.000000000000
      0.1873113696D+02  0.3349460434D-01
      0.2825394365D+01  0.2347269535D+00
      0.6401216923D+00  0.8137573261D+00
 S   1 1.00       0.000000000000
      0.1612777588D+00  0.1000000000D+01
 ****
     95 0
 S   3 1.00       0.000000000000
      0.1873113696D+02  0.3349460434D-01
      0.2825394365D+01  0.2347269535D+00
      0.6401216923D+00  0.8137573261D+00
 S   1 1.00       0.000000000000
      0.1612777588D+00  0.1000000000D+01
 ****
     96 0
 S   3 1.00       0.000000000000
      0.1873113696D+02  0.3349460434D-01
      0.2825394365D+01  0.2347269535D+00
      0.6401216923D+00  0.8137573261D+00
 S   1 1.00       0.000000000000
      0.1612777588D+00  0.1000000000D+01
 ****
     97 0
 S   3 1.00       0.000000000000
      0.1873113696D+02  0.3349460434D-01
      0.2825394365D+01  0.2347269535D+00
      0.6401216923D+00  0.8137573261D+00
 S   1 1.00       0.000000000000
      0.1612777588D+00  0.1000000000D+01
 ****
     98 0
 S   3 1.00       0.000000000000
      0.1873113696D+02  0.3349460434D-01
      0.2825394365D+01  0.2347269535D+00
      0.6401216923D+00  0.8137573261D+00
 S   1 1.00       0.000000000000
      0.1612777588D+00  0.1000000000D+01
 ****
     99 0
 S   3 1.00       0.000000000000
      0.1873113696D+02  0.3349460434D-01
      0.2825394365D+01  0.2347269535D+00
      0.6401216923D+00  0.8137573261D+00
 S   1 1.00       0.000000000000
      0.1612777588D+00  0.1000000000D+01
 ****

   991 basis functions,  1860 primitive gaussians,   991 cartesian basis functions
   204 alpha electrons      204 beta electrons
[...]
 Alpha virt. eigenvalues --    0.84032   0.84079   0.84293   0.84440   0.84507
 Alpha virt. eigenvalues --    0.84747   0.84994   0.85347   0.85609   0.85991
 Alpha virt. eigenvalues --    0.86089   0.86315   0.86389   0.86834   0.87417
 Alpha virt. eigenvalues --    0.87559   0.87790   0.88002   0.88348   0.88752
 Alpha virt. eigenvalues --    0.89118   0.89349   0.90087   0.90451   0.90837
 Alpha virt. eigenvalues --    0.90909   0.91080   0.91138   0.91221   0.91458
 Alpha virt. eigenvalues --    0.91853   0.91928   0.92812   0.93063   0.93182
 Alpha virt. eigenvalues --    0.93824   0.93860   0.94606   0.94754   0.94936
 Alpha virt. eigenvalues --    0.95232   0.95513   0.95719   0.95848   0.96023
 Alpha virt. eigenvalues --    0.96262   0.96477   0.96771   0.97598   0.98364
 Alpha virt. eigenvalues --    0.98743   0.99196   0.99830   1.00263   1.00622
 Alpha virt. eigenvalues --    1.00781   1.01208   1.01276   1.01811   1.02124
 Alpha virt. eigenvalues --    1.02227   1.02563   1.03499   1.04321   1.05297
 Alpha virt. eigenvalues --    1.05902   1.06600   1.06941   1.07255   1.07998
 Alpha virt. eigenvalues --    1.09017   1.09601   1.10011   1.10265   1.10756
 Alpha virt. eigenvalues --    1.10861   1.11222   1.11463   1.12037   1.12214
 Alpha virt. eigenvalues --    1.12908   1.13777   1.13880   1.14356   1.14813
 Alpha virt. eigenvalues --    1.15142   1.15517   1.15849   1.16241   1.16348
 Alpha virt. eigenvalues --    1.16871   1.17147   1.17761   1.17866   1.18033
 Alpha virt. eigenvalues --    1.18473   1.19169   1.19464   1.19577   1.19924
 Alpha virt. eigenvalues --    1.20611   1.20982   1.21441   1.21727   1.22228
 Alpha virt. eigenvalues --    1.23513   1.23706   1.24080   1.24286   1.25026
 Alpha virt. eigenvalues --    1.25060   1.25283   1.25957   1.26100   1.26406
 Alpha virt. eigenvalues --    1.26927   1.27430   1.28720   1.29043   1.29635
 Alpha virt. eigenvalues --    1.29960   1.30889   1.31486   1.31794   1.32432
 Alpha virt. eigenvalues --    1.33197   1.33575   1.34635   1.35057   1.36140
 Alpha virt. eigenvalues --    1.36725   1.37409   1.37975   1.39073   1.39807
 Alpha virt. eigenvalues --    1.40281   1.41057   1.42261   1.42550   1.42901
 Alpha virt. eigenvalues --    1.43223   1.43661   1.43744   1.44024   1.44070
 Alpha virt. eigenvalues --    1.44296   1.44360   1.44760   1.44999   1.45225
 Alpha virt. eigenvalues --    1.45749   1.46514   1.46945   1.47030   1.47268
 Alpha virt. eigenvalues --    1.47500   1.47942   1.48206   1.48272   1.48347
 Alpha virt. eigenvalues --    1.48532   1.48718   1.48744   1.49020   1.49185
 Alpha virt. eigenvalues --    1.49293   1.49399   1.49434   1.49528   1.49644
 Alpha virt. eigenvalues --    1.49662   1.49820   1.50461   1.50736   1.51034
 Alpha virt. eigenvalues --    1.51227   1.51355   1.51400   1.51479   1.51615
 Alpha virt. eigenvalues --    1.51819   1.52067   1.52365   1.53188   1.53429
 Alpha virt. eigenvalues --    1.55248   1.56212   1.57281   1.58940   1.60713
 Alpha virt. eigenvalues --    1.61762   1.62937   1.63523   1.67152   1.69109
 Alpha virt. eigenvalues --    1.70226   1.70625   1.71097   1.71802   1.72368
 Alpha virt. eigenvalues --    1.74795   1.75307   1.75446   1.76474   1.76617
 Alpha virt. eigenvalues --    1.77171   1.77481   1.78272   1.79124   1.79241
 Alpha virt. eigenvalues --    1.79444   1.79859   1.80048   1.80435   1.80862
 Alpha virt. eigenvalues --    1.81295   1.81471   1.81884   1.82255   1.82377
 Alpha virt. eigenvalues --    1.82701   1.82832   1.83102   1.83602   1.83857
 Alpha virt. eigenvalues --    1.84430   1.84477   1.85320   1.85491   1.86249
 Alpha virt. eigenvalues --    1.87901   1.88157   1.88784   1.89043   1.89518
 Alpha virt. eigenvalues --    1.89611   1.90622   1.90701   1.91249   1.91376
 Alpha virt. eigenvalues --    1.91666   1.91881   1.92035   1.92105   1.92415
 Alpha virt. eigenvalues --    1.92523   1.93268   1.93593   1.94268   1.94340
 Alpha virt. eigenvalues --    1.94915   1.96762   1.97425   1.97734   1.98075
 Alpha virt. eigenvalues --    1.98436   1.98808   1.99457   2.00903   2.00920
 Alpha virt. eigenvalues --    2.00977   2.01138   2.02795   2.03472   2.04321
 Alpha virt. eigenvalues --    2.05168   2.05405   2.05542   2.05746   2.05992
 Alpha virt. eigenvalues --    2.06121   2.06461   2.06591   2.07364   2.08366
 Alpha virt. eigenvalues --    2.09028   2.09817   2.10763   2.10963   2.11033
 Alpha virt. eigenvalues --    2.11718   2.11891   2.12197   2.12801   2.13262
 Alpha virt. eigenvalues --    2.13347   2.13461   2.13805   2.13907   2.14509
 Alpha virt. eigenvalues --    2.14742   2.14782   2.14861   2.14895   2.14985
 Alpha virt. eigenvalues --    2.15242   2.15380   2.15896   2.16262   2.16650
 Alpha virt. eigenvalues --    2.16865   2.17696   2.18010   2.18535   2.19115
 Alpha virt. eigenvalues --    2.20029   2.20770   2.21406   2.21589   2.22639
 Alpha virt. eigenvalues --    2.22771   2.23455   2.24284   2.24956   2.25352
 Alpha virt. eigenvalues --    2.25452   2.25646   2.26028   2.26354   2.26484
 Alpha virt. eigenvalues --    2.27516   2.27914   2.28226   2.28887   2.29018
 Alpha virt. eigenvalues --    2.29735   2.29895   2.30341   2.30682   2.30740
 Alpha virt. eigenvalues --    2.30880   2.31069   2.31163   2.31460   2.31493
 Alpha virt. eigenvalues --    2.31651   2.32752   2.33167   2.33430   2.34671
 Alpha virt. eigenvalues --    2.35477   2.36008   2.36099   2.37012   2.37509
 Alpha virt. eigenvalues --    2.38213   2.38570   2.39548   2.39852   2.40204
 Alpha virt. eigenvalues --    2.40551   2.41441   2.41621   2.42296   2.44851
 Alpha virt. eigenvalues --    2.46035   2.46315   2.46921   2.50528   2.51530
 Alpha virt. eigenvalues --    2.52573   2.52838   2.54411   2.54702   2.55300
 Alpha virt. eigenvalues --    2.55667   2.56426   2.57097   2.58030   2.58396
 Alpha virt. eigenvalues --    2.58913   2.59047   2.59421   2.59569   2.60072
 Alpha virt. eigenvalues --    2.61057   2.61784   2.62024   2.62836   2.63536
 Alpha virt. eigenvalues --    2.63703   2.64186   2.64547   2.64743   2.65173
 Alpha virt. eigenvalues --    2.65307   2.65511   2.66400   2.66585   2.66914
 Alpha virt. eigenvalues --    2.67986   2.68462   2.68763   2.69280   2.70207
 Alpha virt. eigenvalues --    2.71035   2.71896   2.72072   2.72622   2.72930
 Alpha virt. eigenvalues --    2.73562   2.73847   2.73926   2.74011   2.74455
 Alpha virt. eigenvalues --    2.74799   2.75132   2.75234   2.75379   2.75487
 Alpha virt. eigenvalues --    2.75620   2.75912   2.76187   2.76696   2.77184
 Alpha virt. eigenvalues --    2.77930   2.78243   2.79603   2.80184   2.80602
 Alpha virt. eigenvalues --    2.82113   2.82692   2.82833   2.84259   2.85359
 Alpha virt. eigenvalues --    2.86037   2.87096   2.88057   2.88373   2.89799
 Alpha virt. eigenvalues --    2.90767   2.91859   2.93098   2.94730   2.95682
 Alpha virt. eigenvalues --    2.96115   2.96750   3.00097   3.01146   3.03049
 Alpha virt. eigenvalues --    3.03355   3.06687   3.09531   3.12461   3.12793
 Alpha virt. eigenvalues --    3.13692   3.18491   3.20902   3.25027   3.26093
 Alpha virt. eigenvalues --    3.31827   3.34895   3.36853   3.39979   3.41160
 Alpha virt. eigenvalues --    3.41180   3.41929   3.44969   3.47016   3.52049
 Alpha virt. eigenvalues --    3.53769   3.89334   4.05628   4.08350   4.08655
 Alpha virt. eigenvalues --    4.08743   4.08912   4.09134   4.09591   4.09874
 Alpha virt. eigenvalues --    4.10313   4.10815   4.10945   4.11097   4.11324
 Alpha virt. eigenvalues --    4.11523   4.11812   4.11896   4.12128   4.12614
 Alpha virt. eigenvalues --    4.12956   4.13300   4.14918   4.15009   4.16023
 Alpha virt. eigenvalues --    4.16699   4.20095   4.21774   4.23163   4.24994
 Alpha virt. eigenvalues --    4.26299   4.27787   4.29885   4.30023   4.31633
 Alpha virt. eigenvalues --    4.32935   4.33169   4.33472   4.33679   4.34106
 Alpha virt. eigenvalues --    4.34722   4.35206   4.36750   4.38907   4.40508
 Alpha virt. eigenvalues --    4.41684   4.43159   4.43529   4.44635   4.44839
 Alpha virt. eigenvalues --    4.48594   4.55141   4.57723   4.60682   4.66455
 Alpha virt. eigenvalues --    4.70835   4.71073   4.72999   4.74227   4.77103
 Alpha virt. eigenvalues --    4.81904   4.88710
          Condensed to atoms (all electrons):
 Mulliken charges:
               1
     1  C   -0.125749
     2  C   -0.133845
     3  C   -0.171467
     4  C    0.087659
     5  C    0.090255
     6  C   -0.228585
     7  C    0.093454
     8  C    0.088556
     9  C   -0.171018
    10  C   -0.134898
    11  C   -0.125599
    12  C   -0.134297
    13  C   -0.171654
    14  C   -0.218696
    15  C    0.098239
    16  C    0.278288
    17  C   -0.219545
    18  C    0.277242
    19  C    0.099574
    20  C   -0.178202
    21  C   -0.153630
    22  C    0.040540
    23  C   -0.095475
    24  C    0.253906
    25  C    0.097760
    26  C   -0.140931
    27  C   -0.136210
    28  C   -0.121334
    29  C   -0.140254
    30  C   -0.121342
    31  N   -0.480632
    32  N   -0.304007
    33  C    0.046642
    34  C   -0.126022
    35  C    0.073977
    36  C   -0.171012
    37  C   -0.134015
    38  C   -0.127181
    39  C   -0.133115
    40  C   -0.167520
    41  C    0.342932
    42  C    0.038799
    43  C   -0.197837
    44  C   -0.142848
    45  C   -0.124390
    46  C   -0.215593
    47  C    0.165414
    48  C   -0.172347
    49  C   -0.162590
    50  N   -0.556473
    51  C    0.445251
    52  C    0.074628
    53  C   -0.162850
    54  C   -0.139449
    55  C   -0.118897
    56  C   -0.139243
    57  C   -0.161657
    58  N   -0.555986
    59  C   -0.234724
    60  C   -0.171965
    61  C   -0.133953
    62  H    0.131796
    63  H    0.132579
    64  H    0.132331
    65  H    0.141116
    66  H    0.136843
    67  H    0.132407
    68  H    0.130764
    69  H    0.131204
    70  H    0.130253
    71  H    0.163848
    72  H    0.149968
    73  H    0.134000
    74  H    0.140145
    75  H    0.138016
    76  H    0.134170
    77  H    0.131631
    78  H    0.131720
    79  H    0.139628
    80  H    0.150141
    81  H    0.138555
    82  H    0.131270
    83  H    0.129966
    84  H    0.131535
    85  H    0.134999
    86  H    0.161391
    87  H    0.134426
    88  H    0.133329
    89  H    0.150085
    90  H    0.142316
    91  H    0.162119
    92  H    0.159061
    93  H    0.130550
    94  H    0.129650
    95  H    0.129512
    96  H    0.155307
    97  H    0.136196
    98  H    0.129121
    99  H    0.131973
 Sum of Mulliken charges =  -0.00000
 Mulliken charges with hydrogens summed into heavy atoms:
               1
     1  C    0.006047
     2  C   -0.001266
     3  C   -0.039136
     4  C    0.087659
     5  C    0.090255
     6  C   -0.087469
     7  C    0.093454
     8  C    0.088556
     9  C   -0.034176
    10  C   -0.002491
    11  C    0.005165
    12  C   -0.003093
    13  C   -0.041401
    14  C   -0.054849
    15  C    0.098239
    16  C    0.278288
    17  C   -0.069578
    18  C    0.277242
    19  C    0.099574
    20  C   -0.044202
    21  C   -0.013484
    22  C    0.040540
    23  C   -0.095475
    24  C    0.253906
    25  C    0.097760
    26  C   -0.002915
    27  C   -0.002041
    28  C    0.010297
    29  C   -0.008533
    30  C    0.018286
    31  N   -0.480632
    32  N   -0.304007
    33  C    0.196783
    34  C   -0.126022
    35  C    0.073977
    36  C   -0.032457
    37  C   -0.002745
    38  C    0.002785
    39  C   -0.001581
    40  C   -0.032521
    41  C    0.342932
    42  C    0.038799
    43  C   -0.036446
    44  C   -0.008422
    45  C    0.008940
    46  C   -0.065508
    47  C    0.165414
    48  C   -0.030031
    49  C   -0.000472
    50  N   -0.556473
    51  C    0.445251
    52  C    0.074628
    53  C   -0.003789
    54  C   -0.008899
    55  C    0.010754
    56  C   -0.009730
    57  C   -0.006350
    58  N   -0.555986
    59  C   -0.098528
    60  C   -0.042844
    61  C   -0.001980
 Electronic spatial extent (au):  <R**2>=          75967.2191
 Charge=             -0.0000 electrons
 Dipole moment (field-independent basis, Debye):
    X=             -0.6542    Y=              2.1614    Z=              0.1042  Tot=              2.2607
 Quadrupole moment (field-independent basis, Debye-Ang):
   XX=           -313.1043   YY=           -336.8264   ZZ=           -325.6812
   XY=              8.4515   XZ=            -11.6685   YZ=              7.6293
 Traceless Quadrupole moment (field-independent basis, Debye-Ang):
   XX=             12.0996   YY=            -11.6224   ZZ=             -0.4772
   XY=              8.4515   XZ=            -11.6685   YZ=              7.6293
 Octapole moment (field-independent basis, Debye-Ang**2):
  XXX=           -205.0149  YYY=             21.1147  ZZZ=             27.7457  XYY=             42.6884
  XXY=            131.2855  XXZ=            -71.2838  XZZ=           -144.1518  YZZ=             17.9590
  YYZ=            -26.8808  XYZ=            -47.3095
 Hexadecapole moment (field-independent basis, Debye-Ang**3):
 XXXX=         -74418.3344 YYYY=         -10391.5082 ZZZZ=         -11872.3060 XXXY=           -306.8900
 XXXZ=          -2660.5371 YYYX=           -818.4271 YYYZ=          -2079.7307 ZZZX=          -2372.7154
 ZZZY=          -2010.4580 XXYY=         -15540.5814 XXZZ=         -15389.7820 YYZZ=          -3334.0119
 XXYZ=           -603.8160 YYXZ=           -817.0933 ZZXY=           -507.1625
 N-N= 7.176987133282D+03 E-N=-1.994646988542D+04  KE= 2.390666399918D+03
 Leave Link  601 at Sat Nov  5 11:06:59 2022, MaxMem=   402653184 cpu:               2.1 elap:               0.4
 (Enter /home/wykgroup/appl/g16/l9999.exe)
 Electronic transition elements 
                 1             2             3             4 
      1  -0.241392D+04 -0.241391D+04 -0.241390D+04 -0.241388D+04
      2   0.000000D+00  0.000000D+00 -0.118229D+01  0.322766D-01
      3   0.000000D+00  0.000000D+00  0.527904D-01 -0.210430D+00
      4   0.000000D+00  0.000000D+00 -0.400859D+00  0.283224D+00
      5   0.000000D+00  0.000000D+00  0.138239D+00 -0.318716D-02
      6   0.000000D+00  0.000000D+00 -0.542111D-02  0.263793D-01
      7   0.000000D+00  0.000000D+00  0.496245D-01 -0.395816D-01
      8   0.000000D+00  0.000000D+00 -0.137705D+00  0.717804D-01
      9   0.000000D+00  0.000000D+00 -0.364400D+00  0.249257D+00
     10   0.000000D+00  0.000000D+00  0.982147D-01 -0.245293D-01
     11   0.000000D+00  0.000000D+00  0.747255D+00 -0.167424D+00
     12   0.000000D+00  0.000000D+00 -0.259664D-01 -0.889285D-01
     13   0.000000D+00  0.000000D+00 -0.419674D-01 -0.111254D+00
     14   0.000000D+00  0.000000D+00 -0.351438D-01  0.208437D+00
     15   0.000000D+00  0.000000D+00  0.304934D+00 -0.371238D+00
     16   0.000000D+00  0.000000D+00 -0.284318D+00  0.173405D-01
 1\1\GINC-NODE07\SP\RB3LYP TD-FC\6-31G(d)\C57H38N4\WYKGROUP\05-Nov-2022
 \0\\#p b3lyp/6-31g(d) 6D 10F nosymm GFInput td=(50-50,nstate=2) SCF=XQ
 C\\Gaussian input prepared by ASE\\0,1\C,0,-5.4939463294,3.6130855708,
 5.3709117849\C,0,-6.6533476704,2.8872636343,5.0917695351\C,0,-6.778289
 6114,2.2002449923,3.8851837719\C,0,-5.7479519787,2.2243578136,2.930328
 9776\C,0,-5.8815691853,1.4912273356,1.6443377027\C,0,-7.1053092257,1.4
 576633656,0.9605217903\C,0,-7.2538576646,0.7641916021,-0.2502329599\C,
 0,-8.559266235,0.7456295108,-0.9611326784\C,0,-8.6180380401,0.81169193
 42,-2.3633276219\C,0,-9.8420172483,0.7938788479,-3.0303352169\C,0,-11.
 0347675025,0.7103316766,-2.3096591278\C,0,-10.9921352681,0.6437609039,
 -0.9159088409\C,0,-9.7677224785,0.6608892996,-0.2495800689\C,0,-6.1409
 572905,0.098191083,-0.7792217047\C,0,-4.9015396928,0.1257714331,-0.126
 9207153\C,0,-3.744573034,-0.5960968075,-0.7208495739\C,0,-2.4204028493
 ,-0.272576439,-0.4029577443\C,0,-1.3996739619,-1.012678728,-1.01163563
 32\C,0,0.0375513776,-0.7554019834,-0.7392007569\C,0,0.4654011017,-0.08
 94671812,0.4196970181\C,0,1.8176480899,0.1456799842,0.6518412767\C,0,2
 .7909633533,-0.277967438,-0.2638924699\C,0,4.2422832649,-0.0139937353,
 -0.0181341974\C,0,4.8899895391,-0.6434499286,1.0142181754\C,0,4.268645
 7518,-1.6466747229,1.9232474024\C,0,3.7355009315,-2.8338320646,1.40428
 08681\C,0,3.1276714153,-3.765318641,2.2462761102\C,0,3.0434803335,-3.5
 197502423,3.6167123276\C,0,3.5775963419,-2.3410341609,4.1431594416\C,0
 ,4.1919338722,-1.413776554,3.3049159548\N,0,6.2331588712,-0.3399193909
 ,1.2361317792\N,0,6.9623476304,-0.9379744846,2.2113833729\C,0,8.170837
 5248,-0.3978400905,2.0894259843\C,0,8.2625619165,0.5555326448,1.052253
 7932\C,0,9.4778970596,1.3364828801,0.7404152003\C,0,9.4759869336,2.742
 5160533,0.7493552847\C,0,10.647211772,3.4608617546,0.511894425\C,0,11.
 8487672959,2.7896085291,0.2739596686\C,0,11.8684951393,1.3941207177,0.
 2751508098\C,0,10.6950001519,0.6753942383,0.5045799975\C,0,6.975555884
 6,0.5676172783,0.4899807529\C,0,6.3326686331,1.2079982786,-0.631108995
 2\C,0,7.0240407091,2.0808748548,-1.497514129\C,0,6.3733122817,2.700778
 6946,-2.5501771493\C,0,5.0052538489,2.4703871225,-2.762157057\C,0,4.31
 2497356,1.6012743379,-1.9371551326\C,0,4.9541683121,0.9309444192,-0.86
 99689171\C,0,2.3617229603,-0.9452235488,-1.4230383038\C,0,1.0115275056
 ,-1.1864810388,-1.6539278179\N,0,-1.6895965869,-1.9828151498,-1.894415
 6089\C,0,-2.9837601861,-2.2177670766,-2.1602719316\C,0,-3.2970530521,-
 3.2906866663,-3.1416064356\C,0,-4.6293212417,-3.6018889801,-3.45575286
 19\C,0,-4.9212712565,-4.6051314565,-4.3770667447\C,0,-3.8887663748,-5.
 3126669213,-4.997101179\C,0,-2.5604430268,-5.0112698604,-4.6873857186\
 C,0,-2.2653301033,-4.0088412229,-3.7662547746\N,0,-4.0190045846,-1.568
 5484666,-1.60529993\C,0,-4.7855636331,0.819495029,1.085015667\C,0,-4.5
 879447116,2.960272339,3.225001791\C,0,-4.4614399596,3.6464455555,4.431
 9590359\H,0,-5.3961597186,4.1483022348,6.3114716801\H,0,-7.4600866319,
 2.8477509813,5.8189862108\H,0,-7.6735326817,1.6166577733,3.689073356\H
 ,0,-7.946364458,2.018974381,1.3563376859\H,0,-7.6970448611,0.901418282
 8,-2.9324738592\H,0,-9.8635574256,0.853759812,-4.1153220427\H,0,-11.98
 88789695,0.6966658593,-2.8295162692\H,0,-11.9140232554,0.5692230067,-0
 .3450509334\H,0,-9.7451354001,0.5815445836,0.8338370596\H,0,-6.2269741
 811,-0.4699540572,-1.6981139457\H,0,-2.1926140934,0.5545558312,0.25657
 37485\H,0,-0.256727799,0.229036914,1.1653697903\H,0,2.126914694,0.6531
 217244,1.5605824748\H,0,3.7982724196,-3.0273224267,0.3381636768\H,0,2.
 7205721953,-4.6820895661,1.8286700127\H,0,2.5675691051,-4.2436344545,4
 .2728676311\H,0,3.5202546647,-2.1454424191,5.2105749555\H,0,4.62147862
 21,-0.5076932787,3.7196494563\H,0,8.9563085173,-0.6915979333,2.7745417
 079\H,0,8.5494200133,3.2707392507,0.9571701449\H,0,10.62328555,4.54750
 78835,0.5247513956\H,0,12.7618587965,3.3500891855,0.0923731566\H,0,12.
 7981067173,0.8617012709,0.0913663006\H,0,10.7119599365,-0.4110915485,0
 .4917408019\H,0,8.0787666973,2.2640181693,-1.3345012688\H,0,6.92405051
 07,3.3686532574,-3.2066821865\H,0,4.4866970274,2.9698831339,-3.5758863
 538\H,0,3.2572362618,1.4264674746,-2.1111712567\H,0,3.0987936663,-1.28
 22585194,-2.1471757341\H,0,0.6907277603,-1.7112410048,-2.5468206538\H,
 0,-5.4244689332,-3.0514707488,-2.9660492726\H,0,-5.957177892,-4.836611
 6612,-4.6106334383\H,0,-4.1178351822,-6.0955335333,-5.7155111513\H,0,-
 1.7521503211,-5.5597985861,-5.1639254515\H,0,-1.2376077821,-3.77156550
 3,-3.5161899155\H,0,-3.8499396569,0.7994711144,1.6344267741\H,0,-3.790
 4628985,3.0161912819,2.4890273143\H,0,-3.5583431894,4.2161810996,4.634
 7136956\\Version=ES64L-G16RevB.01\HF=-2414.0172312\RMSD=5.115e-09\PG=C
 01 [X(C57H38N4)]\\@


 I take a simple view of life: keep your eyes open and get on with it.
 -- Laurence Olivier
 Job cpu time:       0 days  8 hours 50 minutes 17.3 seconds.
 Elapsed time:       0 days  0 hours 56 minutes  0.6 seconds.
 File lengths (MBytes):  RWF=   5243 Int=      0 D2E=      0 Chk=    199 Scr=      1
 Normal termination of Gaussian 16 at Sat Nov  5 11:06:59 2022.
