 Entering Gaussian System, Link 0=/home/wykgroup/appl/g16/g16
 Input=calculation/no_transfer_pubchem_sampling_8_b3lyp/155220950_rwf.com
 Output=calculation/no_transfer_pubchem_sampling_8_b3lyp/155220950_rwf.log
 Initial command:
 /home/wykgroup/appl/g16/l1.exe "/userdata/scratch/wykgroup/khs/calculation/no_transfer_pubchem_sampling_8_b3lyp/155220950_rwf/Gau-20970.inp" -scrdir="/userdata/scratch/wykgroup/khs/calculation/no_transfer_pubchem_sampling_8_b3lyp/155220950_rwf/"
 Entering Link 1 = /home/wykgroup/appl/g16/l1.exe PID=     20971.
  
 Copyright (c) 1988-2017, Gaussian, Inc.  All Rights Reserved.
  
 This is part of the Gaussian(R) 16 program.  It is based on
 the Gaussian(R) 09 system (copyright 2009, Gaussian, Inc.),
 the Gaussian(R) 03 system (copyright 2003, Gaussian, Inc.),
 the Gaussian(R) 98 system (copyright 1998, Gaussian, Inc.),
 the Gaussian(R) 94 system (copyright 1995, Gaussian, Inc.),
 the Gaussian 92(TM) system (copyright 1992, Gaussian, Inc.),
 the Gaussian 90(TM) system (copyright 1990, Gaussian, Inc.),
 the Gaussian 88(TM) system (copyright 1988, Gaussian, Inc.),
 the Gaussian 86(TM) system (copyright 1986, Carnegie Mellon
 University), and the Gaussian 82(TM) system (copyright 1983,
 Carnegie Mellon University). Gaussian is a federally registered
 trademark of Gaussian, Inc.
  
 This software contains proprietary and confidential information,
 including trade secrets, belonging to Gaussian, Inc.
  
 This software is provided under written license and may be
 used, copied, transmitted, or stored only in accord with that
 written license.
  
 The following legend is applicable only to US Government
 contracts under FAR:
  
                    RESTRICTED RIGHTS LEGEND
  
 Use, reproduction and disclosure by the US Government is
 subject to restrictions as set forth in subparagraphs (a)
 and (c) of the Commercial Computer Software - Restricted
 Rights clause in FAR 52.227-19.
  
 Gaussian, Inc.
 340 Quinnipiac St., Bldg. 40, Wallingford CT 06492
  
  
 ---------------------------------------------------------------
 Warning -- This program may not be used in any manner that
 competes with the business of Gaussian, Inc. or will provide
 assistance to any competitor of Gaussian, Inc.  The licensee
 of this program is prohibited from giving any competitor of
 Gaussian, Inc. access to this program.  By using this program,
 the user acknowledges that Gaussian, Inc. is engaged in the
 business of creating and licensing software in the field of
 computational chemistry and represents and warrants to the
 licensee that it is not a competitor of Gaussian, Inc. and that
 it will not use this program in any manner prohibited above.
 ---------------------------------------------------------------
  

 Cite this work as:
 Gaussian 16, Revision B.01,
 M. J. Frisch, G. W. Trucks, H. B. Schlegel, G. E. Scuseria, 
 M. A. Robb, J. R. Cheeseman, G. Scalmani, V. Barone, 
 G. A. Petersson, H. Nakatsuji, X. Li, M. Caricato, A. V. Marenich, 
 J. Bloino, B. G. Janesko, R. Gomperts, B. Mennucci, H. P. Hratchian, 
 J. V. Ortiz, A. F. Izmaylov, J. L. Sonnenberg, D. Williams-Young, 
 F. Ding, F. Lipparini, F. Egidi, J. Goings, B. Peng, A. Petrone, 
 T. Henderson, D. Ranasinghe, V. G. Zakrzewski, J. Gao, N. Rega, 
 G. Zheng, W. Liang, M. Hada, M. Ehara, K. Toyota, R. Fukuda, 
 J. Hasegawa, M. Ishida, T. Nakajima, Y. Honda, O. Kitao, H. Nakai, 
 T. Vreven, K. Throssell, J. A. Montgomery, Jr., J. E. Peralta, 
 F. Ogliaro, M. J. Bearpark, J. J. Heyd, E. N. Brothers, K. N. Kudin, 
 V. N. Staroverov, T. A. Keith, R. Kobayashi, J. Normand, 
 K. Raghavachari, A. P. Rendell, J. C. Burant, S. S. Iyengar, 
 J. Tomasi, M. Cossi, J. M. Millam, M. Klene, C. Adamo, R. Cammi, 
 J. W. Ochterski, R. L. Martin, K. Morokuma, O. Farkas, 
 J. B. Foresman, and D. J. Fox, Gaussian, Inc., Wallingford CT, 2016.
 
 ******************************************
 Gaussian 16:  ES64L-G16RevB.01 20-Dec-2017
                 5-Nov-2022 
 ******************************************
 %chk=calculation/no_transfer_pubchem_sampling_8_b3lyp/155220950_rwf.chk
 %rwf=calculation/no_transfer_pubchem_sampling_8_b3lyp/155220950_rwf.rwf
 %nprocshared=14
 Will use up to   14 processors via shared memory.
 %mem=3GB
 -------------------------------------------------------------------
 #p b3lyp/6-31g(d) 6D 10F nosymm GFInput td=(50-50,nstate=2) SCF=XQC
 -------------------------------------------------------------------
 1/38=1,172=1/1;
 2/12=2,15=1,17=6,18=5,40=1/2;
 3/5=1,6=6,7=1,8=22,11=9,24=10,25=1,30=1,74=-5/1,2,3,8;
 4//1;
 5/5=2,8=3,13=1,38=5/2,8;
 8/6=1,10=2,108=2/1;
 9/41=2,42=1,48=2,70=2/14;
 6/7=2,8=2,9=2,10=2/1;
 99/5=1,9=1/99;
 Leave Link    1 at Sat Nov  5 10:10:44 2022, MaxMem=   402653184 cpu:               2.2 elap:               0.5
 (Enter /home/wykgroup/appl/g16/l101.exe)
 ------------------------------
 Gaussian input prepared by ASE
 ------------------------------
 Symbolic Z-matrix:
 Charge =  0 Multiplicity = 1
 C                    -1.39915   1.58642   1.79567 
 C                    -1.87026   0.43613   0.9385 
 C                    -2.78322  -0.48988   1.45022 
 C                    -3.22443  -1.59082   0.70396 
 C                    -4.22334  -2.53817   1.27596 
 C                    -5.41775  -2.01074   1.79862 
 C                    -6.40024  -2.83905   2.33295 
 C                    -6.20474  -4.21992   2.35307 
 C                    -5.02584  -4.76874   1.84661 
 C                    -4.02255  -3.93426   1.31245 
 C                    -2.74889  -4.63166   0.88149 
 C                    -2.26633  -5.60445   1.98135 
 C                    -3.37207  -6.58747   2.45405 
 C                    -4.75659  -6.25486   1.84939 
 C                    -2.73265  -1.73978  -0.59976 
 C                    -1.82815  -0.83318  -1.15907 
 C                    -1.34329  -1.02737  -2.57584 
 C                    -1.39565   0.25814  -0.37738 
 N                    -0.46032   1.20118  -0.92856 
 C                    -0.90615   2.51761  -1.2107 
 C                    -2.23137   2.73129  -1.63641 
 C                    -2.70752   4.01695  -1.8885 
 C                    -1.8554    5.11052  -1.73041 
 C                    -0.52821   4.90383  -1.30323 
 C                    -0.0554    3.62898  -1.03405 
 C                     0.21706   6.23432  -1.18358 
 C                     1.4284    6.28625  -2.14142 
 C                     0.68167   6.49347   0.26697 
 C                    -0.87083   7.22275  -1.60582 
 C                    -0.80046   8.60762  -1.7006 
 C                    -1.93134   9.32334  -2.11352 
 C                    -3.11874   8.65377  -2.42601 
 C                    -3.19682   7.26224  -2.3318 
 C                    -2.0687    6.54841  -1.92094 
 C                     0.86951   0.7836   -1.17242 
 C                     1.61598   1.31449  -2.24612 
 C                     2.91987   0.8946   -2.49337 
 C                     3.49626  -0.08613  -1.68239 
 C                     2.74606  -0.63372  -0.62609 
 C                     1.45348  -0.20858  -0.35959 
 C                     3.56291  -1.69521   0.12068 
 C                     2.89914  -3.07609   0.13666 
 C                     2.51006  -3.86314  -0.94057 
 C                     1.9191   -5.10647  -0.69071 
 C                     1.72402  -5.55058   0.62218 
 C                     2.11325  -4.76029   1.70625 
 C                     2.70289  -3.51881   1.45862 
 C                     3.20893  -2.4902    2.37822 
 C                     3.24754  -2.44695   3.77351 
 C                     3.79728  -1.32568   4.39873 
 C                     4.30176  -0.26265   3.64119 
 C                     4.26371  -0.30393   2.24318 
 C                     3.71635  -1.41843   1.61907 
 C                     4.88417  -1.65892  -0.65603 
 C                     6.03572  -2.40532  -0.44172 
 C                     7.136    -2.20943  -1.28465 
 C                     7.07582  -1.27632  -2.32533 
 C                     5.91917  -0.52371  -2.54226 
 C                     4.81961  -0.71767  -1.70269 
 H                    -0.30962   1.69295   1.75878 
 H                    -1.82226   2.54117   1.46064 
 H                    -1.69379   1.43511   2.83844 
 H                    -3.13956  -0.3673    2.46996 
 H                    -5.57615  -0.93633   1.76158 
 H                    -7.31845  -2.41003   2.72569 
 H                    -6.96889  -4.87559   2.76506 
 H                    -1.95671  -3.91487   0.65433 
 H                    -2.9277   -5.19939  -0.04501 
 H                    -1.91962  -5.00432   2.83051 
 H                    -1.39095  -6.15222   1.61386 
 H                    -3.44772  -6.5563    3.54698 
 H                    -3.11085  -7.61956   2.19181 
 H                    -4.78373  -6.62489   0.81323 
 H                    -5.54656  -6.79162   2.38689 
 H                    -3.08671  -2.56769  -1.20847 
 H                    -0.30947  -1.39322  -2.60027 
 H                    -1.36011  -0.08849  -3.13927 
 H                    -1.96893  -1.75569  -3.10076 
 H                    -2.88901   1.87813  -1.7654 
 H                    -3.73542   4.15208  -2.21583 
 H                     0.9601    3.47402  -0.68277 
 H                     1.11983   6.10783  -3.17655 
 H                     1.91682   7.26658  -2.09497 
 H                     2.17088   5.52709  -1.8689 
 H                     1.15504   7.47862   0.35137 
 H                     1.41442   5.74066   0.58027 
 H                    -0.16268   6.45971   0.96286 
 H                     0.11857   9.13718  -1.45926 
 H                    -1.88549   10.40634  -2.19159 
 H                    -3.98921   9.22117  -2.74497 
 H                    -4.12312   6.74778  -2.57544 
 H                     1.16083   2.05754  -2.89173 
 H                     3.47005   1.32156  -3.32827 
 H                     0.88995  -0.63275   0.46511 
 H                     2.66491  -3.52115  -1.96053 
 H                     1.61215  -5.73365  -1.52337 
 H                     1.26982  -6.52182   0.80031 
 H                     1.95978  -5.11065   2.72376 
 H                     2.85733  -3.27005   4.36681 
 H                     3.83396  -1.27856   5.48388 
 H                     4.72738   0.60238   4.14269 
 H                     4.6571    0.52185   1.65622 
 H                     6.08337  -3.13021   0.36674 
 H                     8.04331  -2.78669  -1.12872 
 H                     7.93804  -1.13471  -2.97176 
 H                     5.8798    0.20066  -3.35197 
 
 ITRead=  0  0  0  0  0  0  0  0  0  0  0  0  0  0  0  0  0  0  0  0
 ITRead=  0  0  0  0  0  0  0  0  0  0  0  0  0  0  0  0  0  0  0  0
 ITRead=  0  0  0  0  0  0  0  0  0  0  0  0  0  0  0  0  0  0  0  0
 ITRead=  0  0  0  0  0  0  0  0  0  0  0  0  0  0  0  0  0  0  0  0
 ITRead=  0  0  0  0  0  0  0  0  0  0  0  0  0  0  0  0  0  0  0  0
 ITRead=  0  0  0  0  0  0
 MicOpt= -1 -1 -1 -1 -1 -1 -1 -1 -1 -1 -1 -1 -1 -1 -1 -1 -1 -1 -1 -1
 MicOpt= -1 -1 -1 -1 -1 -1 -1 -1 -1 -1 -1 -1 -1 -1 -1 -1 -1 -1 -1 -1
 MicOpt= -1 -1 -1 -1 -1 -1 -1 -1 -1 -1 -1 -1 -1 -1 -1 -1 -1 -1 -1 -1
 MicOpt= -1 -1 -1 -1 -1 -1 -1 -1 -1 -1 -1 -1 -1 -1 -1 -1 -1 -1 -1 -1
 MicOpt= -1 -1 -1 -1 -1 -1 -1 -1 -1 -1 -1 -1 -1 -1 -1 -1 -1 -1 -1 -1
 MicOpt= -1 -1 -1 -1 -1 -1
 NAtoms=    106 NQM=      106 NQMF=       0 NMMI=      0 NMMIF=      0
                NMic=       0 NMicF=      0.
                    Isotopes and Nuclear Properties:
 (Nuclear quadrupole moments (NQMom) in fm**2, nuclear magnetic moments (NMagM)
  in nuclear magnetons)

  Atom         1           2           3           4           5           6           7           8           9          10
 IAtWgt=          12          12          12          12          12          12          12          12          12          12
 AtmWgt=  12.0000000  12.0000000  12.0000000  12.0000000  12.0000000  12.0000000  12.0000000  12.0000000  12.0000000  12.0000000
 NucSpn=           0           0           0           0           0           0           0           0           0           0
 AtZEff=  -0.0000000  -0.0000000  -0.0000000  -0.0000000  -0.0000000  -0.0000000  -0.0000000  -0.0000000  -0.0000000  -0.0000000
 NQMom=    0.0000000   0.0000000   0.0000000   0.0000000   0.0000000   0.0000000   0.0000000   0.0000000   0.0000000   0.0000000
 NMagM=    0.0000000   0.0000000   0.0000000   0.0000000   0.0000000   0.0000000   0.0000000   0.0000000   0.0000000   0.0000000
 AtZNuc=   6.0000000   6.0000000   6.0000000   6.0000000   6.0000000   6.0000000   6.0000000   6.0000000   6.0000000   6.0000000

  Atom        11          12          13          14          15          16          17          18          19          20
 IAtWgt=          12          12          12          12          12          12          12          12          14          12
 AtmWgt=  12.0000000  12.0000000  12.0000000  12.0000000  12.0000000  12.0000000  12.0000000  12.0000000  14.0030740  12.0000000
 NucSpn=           0           0           0           0           0           0           0           0           2           0
 AtZEff=  -0.0000000  -0.0000000  -0.0000000  -0.0000000  -0.0000000  -0.0000000  -0.0000000  -0.0000000  -0.0000000  -0.0000000
 NQMom=    0.0000000   0.0000000   0.0000000   0.0000000   0.0000000   0.0000000   0.0000000   0.0000000   2.0440000   0.0000000
 NMagM=    0.0000000   0.0000000   0.0000000   0.0000000   0.0000000   0.0000000   0.0000000   0.0000000   0.4037610   0.0000000
 AtZNuc=   6.0000000   6.0000000   6.0000000   6.0000000   6.0000000   6.0000000   6.0000000   6.0000000   7.0000000   6.0000000

  Atom        21          22          23          24          25          26          27          28          29          30
 IAtWgt=          12          12          12          12          12          12          12          12          12          12
 AtmWgt=  12.0000000  12.0000000  12.0000000  12.0000000  12.0000000  12.0000000  12.0000000  12.0000000  12.0000000  12.0000000
 NucSpn=           0           0           0           0           0           0           0           0           0           0
 AtZEff=  -0.0000000  -0.0000000  -0.0000000  -0.0000000  -0.0000000  -0.0000000  -0.0000000  -0.0000000  -0.0000000  -0.0000000
 NQMom=    0.0000000   0.0000000   0.0000000   0.0000000   0.0000000   0.0000000   0.0000000   0.0000000   0.0000000   0.0000000
 NMagM=    0.0000000   0.0000000   0.0000000   0.0000000   0.0000000   0.0000000   0.0000000   0.0000000   0.0000000   0.0000000
 AtZNuc=   6.0000000   6.0000000   6.0000000   6.0000000   6.0000000   6.0000000   6.0000000   6.0000000   6.0000000   6.0000000

  Atom        31          32          33          34          35          36          37          38          39          40
 IAtWgt=          12          12          12          12          12          12          12          12          12          12
 AtmWgt=  12.0000000  12.0000000  12.0000000  12.0000000  12.0000000  12.0000000  12.0000000  12.0000000  12.0000000  12.0000000
 NucSpn=           0           0           0           0           0           0           0           0           0           0
 AtZEff=  -0.0000000  -0.0000000  -0.0000000  -0.0000000  -0.0000000  -0.0000000  -0.0000000  -0.0000000  -0.0000000  -0.0000000
 NQMom=    0.0000000   0.0000000   0.0000000   0.0000000   0.0000000   0.0000000   0.0000000   0.0000000   0.0000000   0.0000000
 NMagM=    0.0000000   0.0000000   0.0000000   0.0000000   0.0000000   0.0000000   0.0000000   0.0000000   0.0000000   0.0000000
 AtZNuc=   6.0000000   6.0000000   6.0000000   6.0000000   6.0000000   6.0000000   6.0000000   6.0000000   6.0000000   6.0000000

  Atom        41          42          43          44          45          46          47          48          49          50
 IAtWgt=          12          12          12          12          12          12          12          12          12          12
 AtmWgt=  12.0000000  12.0000000  12.0000000  12.0000000  12.0000000  12.0000000  12.0000000  12.0000000  12.0000000  12.0000000
 NucSpn=           0           0           0           0           0           0           0           0           0           0
 AtZEff=  -0.0000000  -0.0000000  -0.0000000  -0.0000000  -0.0000000  -0.0000000  -0.0000000  -0.0000000  -0.0000000  -0.0000000
 NQMom=    0.0000000   0.0000000   0.0000000   0.0000000   0.0000000   0.0000000   0.0000000   0.0000000   0.0000000   0.0000000
 NMagM=    0.0000000   0.0000000   0.0000000   0.0000000   0.0000000   0.0000000   0.0000000   0.0000000   0.0000000   0.0000000
 AtZNuc=   6.0000000   6.0000000   6.0000000   6.0000000   6.0000000   6.0000000   6.0000000   6.0000000   6.0000000   6.0000000

  Atom        51          52          53          54          55          56          57          58          59          60
 IAtWgt=          12          12          12          12          12          12          12          12          12           1
 AtmWgt=  12.0000000  12.0000000  12.0000000  12.0000000  12.0000000  12.0000000  12.0000000  12.0000000  12.0000000   1.0078250
 NucSpn=           0           0           0           0           0           0           0           0           0           1
 AtZEff=  -0.0000000  -0.0000000  -0.0000000  -0.0000000  -0.0000000  -0.0000000  -0.0000000  -0.0000000  -0.0000000  -0.0000000
 NQMom=    0.0000000   0.0000000   0.0000000   0.0000000   0.0000000   0.0000000   0.0000000   0.0000000   0.0000000   0.0000000
 NMagM=    0.0000000   0.0000000   0.0000000   0.0000000   0.0000000   0.0000000   0.0000000   0.0000000   0.0000000   2.7928460
 AtZNuc=   6.0000000   6.0000000   6.0000000   6.0000000   6.0000000   6.0000000   6.0000000   6.0000000   6.0000000   1.0000000

  Atom        61          62          63          64          65          66          67          68          69          70
 IAtWgt=           1           1           1           1           1           1           1           1           1           1
 AtmWgt=   1.0078250   1.0078250   1.0078250   1.0078250   1.0078250   1.0078250   1.0078250   1.0078250   1.0078250   1.0078250
 NucSpn=           1           1           1           1           1           1           1           1           1           1
 AtZEff=  -0.0000000  -0.0000000  -0.0000000  -0.0000000  -0.0000000  -0.0000000  -0.0000000  -0.0000000  -0.0000000  -0.0000000
 NQMom=    0.0000000   0.0000000   0.0000000   0.0000000   0.0000000   0.0000000   0.0000000   0.0000000   0.0000000   0.0000000
 NMagM=    2.7928460   2.7928460   2.7928460   2.7928460   2.7928460   2.7928460   2.7928460   2.7928460   2.7928460   2.7928460
 AtZNuc=   1.0000000   1.0000000   1.0000000   1.0000000   1.0000000   1.0000000   1.0000000   1.0000000   1.0000000   1.0000000

  Atom        71          72          73          74          75          76          77          78          79          80
 IAtWgt=           1           1           1           1           1           1           1           1           1           1
 AtmWgt=   1.0078250   1.0078250   1.0078250   1.0078250   1.0078250   1.0078250   1.0078250   1.0078250   1.0078250   1.0078250
 NucSpn=           1           1           1           1           1           1           1           1           1           1
 AtZEff=  -0.0000000  -0.0000000  -0.0000000  -0.0000000  -0.0000000  -0.0000000  -0.0000000  -0.0000000  -0.0000000  -0.0000000
 NQMom=    0.0000000   0.0000000   0.0000000   0.0000000   0.0000000   0.0000000   0.0000000   0.0000000   0.0000000   0.0000000
 NMagM=    2.7928460   2.7928460   2.7928460   2.7928460   2.7928460   2.7928460   2.7928460   2.7928460   2.7928460   2.7928460
 AtZNuc=   1.0000000   1.0000000   1.0000000   1.0000000   1.0000000   1.0000000   1.0000000   1.0000000   1.0000000   1.0000000

  Atom        81          82          83          84          85          86          87          88          89          90
 IAtWgt=           1           1           1           1           1           1           1           1           1           1
 AtmWgt=   1.0078250   1.0078250   1.0078250   1.0078250   1.0078250   1.0078250   1.0078250   1.0078250   1.0078250   1.0078250
 NucSpn=           1           1           1           1           1           1           1           1           1           1
 AtZEff=  -0.0000000  -0.0000000  -0.0000000  -0.0000000  -0.0000000  -0.0000000  -0.0000000  -0.0000000  -0.0000000  -0.0000000
 NQMom=    0.0000000   0.0000000   0.0000000   0.0000000   0.0000000   0.0000000   0.0000000   0.0000000   0.0000000   0.0000000
 NMagM=    2.7928460   2.7928460   2.7928460   2.7928460   2.7928460   2.7928460   2.7928460   2.7928460   2.7928460   2.7928460
 AtZNuc=   1.0000000   1.0000000   1.0000000   1.0000000   1.0000000   1.0000000   1.0000000   1.0000000   1.0000000   1.0000000

  Atom        91          92          93          94          95          96          97          98          99         100
 IAtWgt=           1           1           1           1           1           1           1           1           1           1
 AtmWgt=   1.0078250   1.0078250   1.0078250   1.0078250   1.0078250   1.0078250   1.0078250   1.0078250   1.0078250   1.0078250
 NucSpn=           1           1           1           1           1           1           1           1           1           1
 AtZEff=  -0.0000000  -0.0000000  -0.0000000  -0.0000000  -0.0000000  -0.0000000  -0.0000000  -0.0000000  -0.0000000  -0.0000000
 NQMom=    0.0000000   0.0000000   0.0000000   0.0000000   0.0000000   0.0000000   0.0000000   0.0000000   0.0000000   0.0000000
 NMagM=    2.7928460   2.7928460   2.7928460   2.7928460   2.7928460   2.7928460   2.7928460   2.7928460   2.7928460   2.7928460
 AtZNuc=   1.0000000   1.0000000   1.0000000   1.0000000   1.0000000   1.0000000   1.0000000   1.0000000   1.0000000   1.0000000

  Atom       101         102         103         104         105         106
 IAtWgt=           1           1           1           1           1           1
 AtmWgt=   1.0078250   1.0078250   1.0078250   1.0078250   1.0078250   1.0078250
 NucSpn=           1           1           1           1           1           1
 AtZEff=  -0.0000000  -0.0000000  -0.0000000  -0.0000000  -0.0000000  -0.0000000
 NQMom=    0.0000000   0.0000000   0.0000000   0.0000000   0.0000000   0.0000000
 NMagM=    2.7928460   2.7928460   2.7928460   2.7928460   2.7928460   2.7928460
 AtZNuc=   1.0000000   1.0000000   1.0000000   1.0000000   1.0000000   1.0000000
 Leave Link  101 at Sat Nov  5 10:10:45 2022, MaxMem=   402653184 cpu:               2.2 elap:               0.4
 (Enter /home/wykgroup/appl/g16/l202.exe)
 Symmetry turned off by external request.
 Stoichiometry    C58H47N
 Framework group  C1[X(C58H47N)]
 Deg. of freedom   312
 Full point group                 C1      NOp   1
                          Input orientation:                          
 ---------------------------------------------------------------------
 Center     Atomic      Atomic             Coordinates (Angstroms)
 Number     Number       Type             X           Y           Z
 ---------------------------------------------------------------------
      1          6           0       -1.399145    1.586423    1.795666
      2          6           0       -1.870265    0.436129    0.938497
      3          6           0       -2.783223   -0.489878    1.450223
      4          6           0       -3.224432   -1.590819    0.703960
      5          6           0       -4.223341   -2.538169    1.275958
      6          6           0       -5.417752   -2.010740    1.798617
      7          6           0       -6.400244   -2.839052    2.332949
      8          6           0       -6.204743   -4.219917    2.353069
      9          6           0       -5.025842   -4.768742    1.846615
     10          6           0       -4.022547   -3.934265    1.312451
     11          6           0       -2.748889   -4.631657    0.881494
     12          6           0       -2.266325   -5.604445    1.981353
     13          6           0       -3.372066   -6.587471    2.454049
     14          6           0       -4.756592   -6.254859    1.849394
     15          6           0       -2.732646   -1.739779   -0.599756
     16          6           0       -1.828149   -0.833183   -1.159072
     17          6           0       -1.343294   -1.027375   -2.575837
     18          6           0       -1.395651    0.258139   -0.377382
     19          7           0       -0.460320    1.201180   -0.928557
     20          6           0       -0.906154    2.517607   -1.210697
     21          6           0       -2.231373    2.731287   -1.636412
     22          6           0       -2.707523    4.016945   -1.888498
     23          6           0       -1.855397    5.110523   -1.730405
     24          6           0       -0.528214    4.903829   -1.303233
     25          6           0       -0.055403    3.628985   -1.034046
     26          6           0        0.217059    6.234325   -1.183584
     27          6           0        1.428396    6.286254   -2.141420
     28          6           0        0.681666    6.493468    0.266974
     29          6           0       -0.870826    7.222751   -1.605822
     30          6           0       -0.800460    8.607618   -1.700600
     31          6           0       -1.931336    9.323345   -2.113523
     32          6           0       -3.118741    8.653771   -2.426011
     33          6           0       -3.196819    7.262241   -2.331802
     34          6           0       -2.068702    6.548406   -1.920938
     35          6           0        0.869513    0.783604   -1.172423
     36          6           0        1.615976    1.314493   -2.246119
     37          6           0        2.919865    0.894597   -2.493375
     38          6           0        3.496258   -0.086127   -1.682393
     39          6           0        2.746058   -0.633718   -0.626092
     40          6           0        1.453482   -0.208580   -0.359587
     41          6           0        3.562915   -1.695212    0.120677
     42          6           0        2.899142   -3.076087    0.136657
     43          6           0        2.510064   -3.863137   -0.940566
     44          6           0        1.919103   -5.106469   -0.690708
     45          6           0        1.724018   -5.550583    0.622181
     46          6           0        2.113252   -4.760287    1.706250
     47          6           0        2.702890   -3.518812    1.458622
     48          6           0        3.208927   -2.490199    2.378218
     49          6           0        3.247544   -2.446954    3.773509
     50          6           0        3.797280   -1.325683    4.398727
     51          6           0        4.301761   -0.262654    3.641194
     52          6           0        4.263706   -0.303929    2.243178
     53          6           0        3.716347   -1.418433    1.619071
     54          6           0        4.884172   -1.658923   -0.656027
     55          6           0        6.035722   -2.405322   -0.441715
     56          6           0        7.135997   -2.209425   -1.284648
     57          6           0        7.075816   -1.276315   -2.325335
     58          6           0        5.919170   -0.523707   -2.542256
     59          6           0        4.819607   -0.717672   -1.702685
     60          1           0       -0.309619    1.692945    1.758781
     61          1           0       -1.822255    2.541174    1.460641
     62          1           0       -1.693789    1.435108    2.838445
     63          1           0       -3.139557   -0.367301    2.469957
     64          1           0       -5.576150   -0.936334    1.761575
     65          1           0       -7.318447   -2.410033    2.725686
     66          1           0       -6.968885   -4.875594    2.765063
     67          1           0       -1.956707   -3.914872    0.654332
     68          1           0       -2.927705   -5.199389   -0.045010
     69          1           0       -1.919624   -5.004323    2.830513
     70          1           0       -1.390953   -6.152218    1.613859
     71          1           0       -3.447719   -6.556297    3.546979
     72          1           0       -3.110854   -7.619558    2.191814
     73          1           0       -4.783732   -6.624894    0.813231
     74          1           0       -5.546561   -6.791616    2.386887
     75          1           0       -3.086706   -2.567686   -1.208467
     76          1           0       -0.309466   -1.393216   -2.600266
     77          1           0       -1.360114   -0.088494   -3.139268
     78          1           0       -1.968928   -1.755686   -3.100760
     79          1           0       -2.889014    1.878132   -1.765397
     80          1           0       -3.735424    4.152078   -2.215828
     81          1           0        0.960105    3.474022   -0.682773
     82          1           0        1.119828    6.107826   -3.176555
     83          1           0        1.916819    7.266580   -2.094972
     84          1           0        2.170878    5.527089   -1.868897
     85          1           0        1.155038    7.478624    0.351372
     86          1           0        1.414421    5.740655    0.580266
     87          1           0       -0.162683    6.459708    0.962864
     88          1           0        0.118568    9.137177   -1.459260
     89          1           0       -1.885486   10.406337   -2.191587
     90          1           0       -3.989214    9.221174   -2.744970
     91          1           0       -4.123124    6.747783   -2.575438
     92          1           0        1.160830    2.057543   -2.891732
     93          1           0        3.470047    1.321561   -3.328268
     94          1           0        0.889951   -0.632750    0.465114
     95          1           0        2.664913   -3.521151   -1.960529
     96          1           0        1.612149   -5.733650   -1.523373
     97          1           0        1.269821   -6.521821    0.800310
     98          1           0        1.959776   -5.110645    2.723756
     99          1           0        2.857329   -3.270048    4.366805
    100          1           0        3.833958   -1.278561    5.483882
    101          1           0        4.727377    0.602378    4.142689
    102          1           0        4.657097    0.521846    1.656218
    103          1           0        6.083372   -3.130209    0.366741
    104          1           0        8.043313   -2.786691   -1.128723
    105          1           0        7.938036   -1.134706   -2.971760
    106          1           0        5.879798    0.200663   -3.351975
 ---------------------------------------------------------------------
 Rotational constants (GHZ):           0.0483049           0.0328683           0.0222243
 Leave Link  202 at Sat Nov  5 10:10:45 2022, MaxMem=   402653184 cpu:               1.0 elap:               0.2
 (Enter /home/wykgroup/appl/g16/l301.exe)
 Standard basis: 6-31G(d) (6D, 10F)
 Ernie: Thresh=  0.10000D-02 Tol=  0.10000D-05 Strict=F.
 AO basis set in the form of general basis input (Overlap normalization):
      1 0
 S   6 1.00       0.000000000000
      0.3047524880D+04  0.1834737132D-02
      0.4573695180D+03  0.1403732281D-01
      0.1039486850D+03  0.6884262226D-01
      0.2921015530D+02  0.2321844432D+00
      0.9286662960D+01  0.4679413484D+00
      0.3163926960D+01  0.3623119853D+00
 SP   3 1.00       0.000000000000
      0.7868272350D+01 -0.1193324198D+00  0.6899906659D-01
      0.1881288540D+01 -0.1608541517D+00  0.3164239610D+00
      0.5442492580D+00  0.1143456438D+01  0.7443082909D+00
 SP   1 1.00       0.000000000000
      0.1687144782D+00  0.1000000000D+01  0.1000000000D+01
 D   1 1.00       0.000000000000
      0.8000000000D+00  0.1000000000D+01
 ****
      2 0
 S   6 1.00       0.000000000000
      0.3047524880D+04  0.1834737132D-02
      0.4573695180D+03  0.1403732281D-01
      0.1039486850D+03  0.6884262226D-01
      0.2921015530D+02  0.2321844432D+00
      0.9286662960D+01  0.4679413484D+00
      0.3163926960D+01  0.3623119853D+00
 SP   3 1.00       0.000000000000
      0.7868272350D+01 -0.1193324198D+00  0.6899906659D-01
      0.1881288540D+01 -0.1608541517D+00  0.3164239610D+00
      0.5442492580D+00  0.1143456438D+01  0.7443082909D+00
 SP   1 1.00       0.000000000000
      0.1687144782D+00  0.1000000000D+01  0.1000000000D+01
 D   1 1.00       0.000000000000
      0.8000000000D+00  0.1000000000D+01
 ****
      3 0
 S   6 1.00       0.000000000000
      0.3047524880D+04  0.1834737132D-02
      0.4573695180D+03  0.1403732281D-01
      0.1039486850D+03  0.6884262226D-01
      0.2921015530D+02  0.2321844432D+00
      0.9286662960D+01  0.4679413484D+00
      0.3163926960D+01  0.3623119853D+00
 SP   3 1.00       0.000000000000
      0.7868272350D+01 -0.1193324198D+00  0.6899906659D-01
      0.1881288540D+01 -0.1608541517D+00  0.3164239610D+00
      0.5442492580D+00  0.1143456438D+01  0.7443082909D+00
 SP   1 1.00       0.000000000000
      0.1687144782D+00  0.1000000000D+01  0.1000000000D+01
 D   1 1.00       0.000000000000
      0.8000000000D+00  0.1000000000D+01
 ****
      4 0
 S   6 1.00       0.000000000000
      0.3047524880D+04  0.1834737132D-02
      0.4573695180D+03  0.1403732281D-01
      0.1039486850D+03  0.6884262226D-01
      0.2921015530D+02  0.2321844432D+00
      0.9286662960D+01  0.4679413484D+00
      0.3163926960D+01  0.3623119853D+00
 SP   3 1.00       0.000000000000
      0.7868272350D+01 -0.1193324198D+00  0.6899906659D-01
      0.1881288540D+01 -0.1608541517D+00  0.3164239610D+00
      0.5442492580D+00  0.1143456438D+01  0.7443082909D+00
 SP   1 1.00       0.000000000000
      0.1687144782D+00  0.1000000000D+01  0.1000000000D+01
 D   1 1.00       0.000000000000
      0.8000000000D+00  0.1000000000D+01
 ****
      5 0
 S   6 1.00       0.000000000000
      0.3047524880D+04  0.1834737132D-02
      0.4573695180D+03  0.1403732281D-01
      0.1039486850D+03  0.6884262226D-01
      0.2921015530D+02  0.2321844432D+00
      0.9286662960D+01  0.4679413484D+00
      0.3163926960D+01  0.3623119853D+00
 SP   3 1.00       0.000000000000
      0.7868272350D+01 -0.1193324198D+00  0.6899906659D-01
      0.1881288540D+01 -0.1608541517D+00  0.3164239610D+00
      0.5442492580D+00  0.1143456438D+01  0.7443082909D+00
 SP   1 1.00       0.000000000000
      0.1687144782D+00  0.1000000000D+01  0.1000000000D+01
 D   1 1.00       0.000000000000
      0.8000000000D+00  0.1000000000D+01
 ****
      6 0
 S   6 1.00       0.000000000000
      0.3047524880D+04  0.1834737132D-02
      0.4573695180D+03  0.1403732281D-01
      0.1039486850D+03  0.6884262226D-01
      0.2921015530D+02  0.2321844432D+00
      0.9286662960D+01  0.4679413484D+00
      0.3163926960D+01  0.3623119853D+00
 SP   3 1.00       0.000000000000
      0.7868272350D+01 -0.1193324198D+00  0.6899906659D-01
      0.1881288540D+01 -0.1608541517D+00  0.3164239610D+00
      0.5442492580D+00  0.1143456438D+01  0.7443082909D+00
 SP   1 1.00       0.000000000000
      0.1687144782D+00  0.1000000000D+01  0.1000000000D+01
 D   1 1.00       0.000000000000
      0.8000000000D+00  0.1000000000D+01
 ****
      7 0
 S   6 1.00       0.000000000000
      0.3047524880D+04  0.1834737132D-02
      0.4573695180D+03  0.1403732281D-01
      0.1039486850D+03  0.6884262226D-01
      0.2921015530D+02  0.2321844432D+00
      0.9286662960D+01  0.4679413484D+00
      0.3163926960D+01  0.3623119853D+00
 SP   3 1.00       0.000000000000
      0.7868272350D+01 -0.1193324198D+00  0.6899906659D-01
      0.1881288540D+01 -0.1608541517D+00  0.3164239610D+00
      0.5442492580D+00  0.1143456438D+01  0.7443082909D+00
 SP   1 1.00       0.000000000000
      0.1687144782D+00  0.1000000000D+01  0.1000000000D+01
 D   1 1.00       0.000000000000
      0.8000000000D+00  0.1000000000D+01
 ****
      8 0
 S   6 1.00       0.000000000000
      0.3047524880D+04  0.1834737132D-02
      0.4573695180D+03  0.1403732281D-01
      0.1039486850D+03  0.6884262226D-01
      0.2921015530D+02  0.2321844432D+00
      0.9286662960D+01  0.4679413484D+00
      0.3163926960D+01  0.3623119853D+00
 SP   3 1.00       0.000000000000
      0.7868272350D+01 -0.1193324198D+00  0.6899906659D-01
      0.1881288540D+01 -0.1608541517D+00  0.3164239610D+00
      0.5442492580D+00  0.1143456438D+01  0.7443082909D+00
 SP   1 1.00       0.000000000000
      0.1687144782D+00  0.1000000000D+01  0.1000000000D+01
 D   1 1.00       0.000000000000
      0.8000000000D+00  0.1000000000D+01
 ****
      9 0
 S   6 1.00       0.000000000000
      0.3047524880D+04  0.1834737132D-02
      0.4573695180D+03  0.1403732281D-01
      0.1039486850D+03  0.6884262226D-01
      0.2921015530D+02  0.2321844432D+00
      0.9286662960D+01  0.4679413484D+00
      0.3163926960D+01  0.3623119853D+00
 SP   3 1.00       0.000000000000
      0.7868272350D+01 -0.1193324198D+00  0.6899906659D-01
      0.1881288540D+01 -0.1608541517D+00  0.3164239610D+00
      0.5442492580D+00  0.1143456438D+01  0.7443082909D+00
 SP   1 1.00       0.000000000000
      0.1687144782D+00  0.1000000000D+01  0.1000000000D+01
 D   1 1.00       0.000000000000
      0.8000000000D+00  0.1000000000D+01
 ****
     10 0
 S   6 1.00       0.000000000000
      0.3047524880D+04  0.1834737132D-02
      0.4573695180D+03  0.1403732281D-01
      0.1039486850D+03  0.6884262226D-01
      0.2921015530D+02  0.2321844432D+00
      0.9286662960D+01  0.4679413484D+00
      0.3163926960D+01  0.3623119853D+00
 SP   3 1.00       0.000000000000
      0.7868272350D+01 -0.1193324198D+00  0.6899906659D-01
      0.1881288540D+01 -0.1608541517D+00  0.3164239610D+00
      0.5442492580D+00  0.1143456438D+01  0.7443082909D+00
 SP   1 1.00       0.000000000000
      0.1687144782D+00  0.1000000000D+01  0.1000000000D+01
 D   1 1.00       0.000000000000
      0.8000000000D+00  0.1000000000D+01
 ****
     11 0
 S   6 1.00       0.000000000000
      0.3047524880D+04  0.1834737132D-02
      0.4573695180D+03  0.1403732281D-01
      0.1039486850D+03  0.6884262226D-01
      0.2921015530D+02  0.2321844432D+00
      0.9286662960D+01  0.4679413484D+00
      0.3163926960D+01  0.3623119853D+00
 SP   3 1.00       0.000000000000
      0.7868272350D+01 -0.1193324198D+00  0.6899906659D-01
      0.1881288540D+01 -0.1608541517D+00  0.3164239610D+00
      0.5442492580D+00  0.1143456438D+01  0.7443082909D+00
 SP   1 1.00       0.000000000000
      0.1687144782D+00  0.1000000000D+01  0.1000000000D+01
 D   1 1.00       0.000000000000
      0.8000000000D+00  0.1000000000D+01
 ****
     12 0
 S   6 1.00       0.000000000000
      0.3047524880D+04  0.1834737132D-02
      0.4573695180D+03  0.1403732281D-01
      0.1039486850D+03  0.6884262226D-01
      0.2921015530D+02  0.2321844432D+00
      0.9286662960D+01  0.4679413484D+00
      0.3163926960D+01  0.3623119853D+00
 SP   3 1.00       0.000000000000
      0.7868272350D+01 -0.1193324198D+00  0.6899906659D-01
      0.1881288540D+01 -0.1608541517D+00  0.3164239610D+00
      0.5442492580D+00  0.1143456438D+01  0.7443082909D+00
 SP   1 1.00       0.000000000000
      0.1687144782D+00  0.1000000000D+01  0.1000000000D+01
 D   1 1.00       0.000000000000
      0.8000000000D+00  0.1000000000D+01
 ****
     13 0
 S   6 1.00       0.000000000000
      0.3047524880D+04  0.1834737132D-02
      0.4573695180D+03  0.1403732281D-01
      0.1039486850D+03  0.6884262226D-01
      0.2921015530D+02  0.2321844432D+00
      0.9286662960D+01  0.4679413484D+00
      0.3163926960D+01  0.3623119853D+00
 SP   3 1.00       0.000000000000
      0.7868272350D+01 -0.1193324198D+00  0.6899906659D-01
      0.1881288540D+01 -0.1608541517D+00  0.3164239610D+00
      0.5442492580D+00  0.1143456438D+01  0.7443082909D+00
 SP   1 1.00       0.000000000000
      0.1687144782D+00  0.1000000000D+01  0.1000000000D+01
 D   1 1.00       0.000000000000
      0.8000000000D+00  0.1000000000D+01
 ****
     14 0
 S   6 1.00       0.000000000000
      0.3047524880D+04  0.1834737132D-02
      0.4573695180D+03  0.1403732281D-01
      0.1039486850D+03  0.6884262226D-01
      0.2921015530D+02  0.2321844432D+00
      0.9286662960D+01  0.4679413484D+00
      0.3163926960D+01  0.3623119853D+00
 SP   3 1.00       0.000000000000
      0.7868272350D+01 -0.1193324198D+00  0.6899906659D-01
      0.1881288540D+01 -0.1608541517D+00  0.3164239610D+00
      0.5442492580D+00  0.1143456438D+01  0.7443082909D+00
 SP   1 1.00       0.000000000000
      0.1687144782D+00  0.1000000000D+01  0.1000000000D+01
 D   1 1.00       0.000000000000
      0.8000000000D+00  0.1000000000D+01
 ****
     15 0
 S   6 1.00       0.000000000000
      0.3047524880D+04  0.1834737132D-02
      0.4573695180D+03  0.1403732281D-01
      0.1039486850D+03  0.6884262226D-01
      0.2921015530D+02  0.2321844432D+00
      0.9286662960D+01  0.4679413484D+00
      0.3163926960D+01  0.3623119853D+00
 SP   3 1.00       0.000000000000
      0.7868272350D+01 -0.1193324198D+00  0.6899906659D-01
      0.1881288540D+01 -0.1608541517D+00  0.3164239610D+00
      0.5442492580D+00  0.1143456438D+01  0.7443082909D+00
 SP   1 1.00       0.000000000000
      0.1687144782D+00  0.1000000000D+01  0.1000000000D+01
 D   1 1.00       0.000000000000
      0.8000000000D+00  0.1000000000D+01
 ****
     16 0
 S   6 1.00       0.000000000000
      0.3047524880D+04  0.1834737132D-02
      0.4573695180D+03  0.1403732281D-01
      0.1039486850D+03  0.6884262226D-01
      0.2921015530D+02  0.2321844432D+00
      0.9286662960D+01  0.4679413484D+00
      0.3163926960D+01  0.3623119853D+00
 SP   3 1.00       0.000000000000
      0.7868272350D+01 -0.1193324198D+00  0.6899906659D-01
      0.1881288540D+01 -0.1608541517D+00  0.3164239610D+00
      0.5442492580D+00  0.1143456438D+01  0.7443082909D+00
 SP   1 1.00       0.000000000000
      0.1687144782D+00  0.1000000000D+01  0.1000000000D+01
 D   1 1.00       0.000000000000
      0.8000000000D+00  0.1000000000D+01
 ****
     17 0
 S   6 1.00       0.000000000000
      0.3047524880D+04  0.1834737132D-02
      0.4573695180D+03  0.1403732281D-01
      0.1039486850D+03  0.6884262226D-01
      0.2921015530D+02  0.2321844432D+00
      0.9286662960D+01  0.4679413484D+00
      0.3163926960D+01  0.3623119853D+00
 SP   3 1.00       0.000000000000
      0.7868272350D+01 -0.1193324198D+00  0.6899906659D-01
      0.1881288540D+01 -0.1608541517D+00  0.3164239610D+00
      0.5442492580D+00  0.1143456438D+01  0.7443082909D+00
 SP   1 1.00       0.000000000000
      0.1687144782D+00  0.1000000000D+01  0.1000000000D+01
 D   1 1.00       0.000000000000
      0.8000000000D+00  0.1000000000D+01
 ****
     18 0
 S   6 1.00       0.000000000000
      0.3047524880D+04  0.1834737132D-02
      0.4573695180D+03  0.1403732281D-01
      0.1039486850D+03  0.6884262226D-01
      0.2921015530D+02  0.2321844432D+00
      0.9286662960D+01  0.4679413484D+00
      0.3163926960D+01  0.3623119853D+00
 SP   3 1.00       0.000000000000
      0.7868272350D+01 -0.1193324198D+00  0.6899906659D-01
      0.1881288540D+01 -0.1608541517D+00  0.3164239610D+00
      0.5442492580D+00  0.1143456438D+01  0.7443082909D+00
 SP   1 1.00       0.000000000000
      0.1687144782D+00  0.1000000000D+01  0.1000000000D+01
 D   1 1.00       0.000000000000
      0.8000000000D+00  0.1000000000D+01
 ****
     19 0
 S   6 1.00       0.000000000000
      0.4173511460D+04  0.1834772160D-02
      0.6274579110D+03  0.1399462700D-01
      0.1429020930D+03  0.6858655181D-01
      0.4023432930D+02  0.2322408730D+00
      0.1282021290D+02  0.4690699481D+00
      0.4390437010D+01  0.3604551991D+00
 SP   3 1.00       0.000000000000
      0.1162636186D+02 -0.1149611817D+00  0.6757974388D-01
      0.2716279807D+01 -0.1691174786D+00  0.3239072959D+00
      0.7722183966D+00  0.1145851947D+01  0.7408951398D+00
 SP   1 1.00       0.000000000000
      0.2120314975D+00  0.1000000000D+01  0.1000000000D+01
 D   1 1.00       0.000000000000
      0.8000000000D+00  0.1000000000D+01
 ****
     20 0
 S   6 1.00       0.000000000000
      0.3047524880D+04  0.1834737132D-02
      0.4573695180D+03  0.1403732281D-01
      0.1039486850D+03  0.6884262226D-01
      0.2921015530D+02  0.2321844432D+00
      0.9286662960D+01  0.4679413484D+00
      0.3163926960D+01  0.3623119853D+00
 SP   3 1.00       0.000000000000
      0.7868272350D+01 -0.1193324198D+00  0.6899906659D-01
      0.1881288540D+01 -0.1608541517D+00  0.3164239610D+00
      0.5442492580D+00  0.1143456438D+01  0.7443082909D+00
 SP   1 1.00       0.000000000000
      0.1687144782D+00  0.1000000000D+01  0.1000000000D+01
 D   1 1.00       0.000000000000
      0.8000000000D+00  0.1000000000D+01
 ****
     21 0
 S   6 1.00       0.000000000000
      0.3047524880D+04  0.1834737132D-02
      0.4573695180D+03  0.1403732281D-01
      0.1039486850D+03  0.6884262226D-01
      0.2921015530D+02  0.2321844432D+00
      0.9286662960D+01  0.4679413484D+00
      0.3163926960D+01  0.3623119853D+00
 SP   3 1.00       0.000000000000
      0.7868272350D+01 -0.1193324198D+00  0.6899906659D-01
      0.1881288540D+01 -0.1608541517D+00  0.3164239610D+00
      0.5442492580D+00  0.1143456438D+01  0.7443082909D+00
 SP   1 1.00       0.000000000000
      0.1687144782D+00  0.1000000000D+01  0.1000000000D+01
 D   1 1.00       0.000000000000
      0.8000000000D+00  0.1000000000D+01
 ****
     22 0
 S   6 1.00       0.000000000000
      0.3047524880D+04  0.1834737132D-02
      0.4573695180D+03  0.1403732281D-01
      0.1039486850D+03  0.6884262226D-01
      0.2921015530D+02  0.2321844432D+00
      0.9286662960D+01  0.4679413484D+00
      0.3163926960D+01  0.3623119853D+00
 SP   3 1.00       0.000000000000
      0.7868272350D+01 -0.1193324198D+00  0.6899906659D-01
      0.1881288540D+01 -0.1608541517D+00  0.3164239610D+00
      0.5442492580D+00  0.1143456438D+01  0.7443082909D+00
 SP   1 1.00       0.000000000000
      0.1687144782D+00  0.1000000000D+01  0.1000000000D+01
 D   1 1.00       0.000000000000
      0.8000000000D+00  0.1000000000D+01
 ****
     23 0
 S   6 1.00       0.000000000000
      0.3047524880D+04  0.1834737132D-02
      0.4573695180D+03  0.1403732281D-01
      0.1039486850D+03  0.6884262226D-01
      0.2921015530D+02  0.2321844432D+00
      0.9286662960D+01  0.4679413484D+00
      0.3163926960D+01  0.3623119853D+00
 SP   3 1.00       0.000000000000
      0.7868272350D+01 -0.1193324198D+00  0.6899906659D-01
      0.1881288540D+01 -0.1608541517D+00  0.3164239610D+00
      0.5442492580D+00  0.1143456438D+01  0.7443082909D+00
 SP   1 1.00       0.000000000000
      0.1687144782D+00  0.1000000000D+01  0.1000000000D+01
 D   1 1.00       0.000000000000
      0.8000000000D+00  0.1000000000D+01
 ****
     24 0
 S   6 1.00       0.000000000000
      0.3047524880D+04  0.1834737132D-02
      0.4573695180D+03  0.1403732281D-01
      0.1039486850D+03  0.6884262226D-01
      0.2921015530D+02  0.2321844432D+00
      0.9286662960D+01  0.4679413484D+00
      0.3163926960D+01  0.3623119853D+00
 SP   3 1.00       0.000000000000
      0.7868272350D+01 -0.1193324198D+00  0.6899906659D-01
      0.1881288540D+01 -0.1608541517D+00  0.3164239610D+00
      0.5442492580D+00  0.1143456438D+01  0.7443082909D+00
 SP   1 1.00       0.000000000000
      0.1687144782D+00  0.1000000000D+01  0.1000000000D+01
 D   1 1.00       0.000000000000
      0.8000000000D+00  0.1000000000D+01
 ****
     25 0
 S   6 1.00       0.000000000000
      0.3047524880D+04  0.1834737132D-02
      0.4573695180D+03  0.1403732281D-01
      0.1039486850D+03  0.6884262226D-01
      0.2921015530D+02  0.2321844432D+00
      0.9286662960D+01  0.4679413484D+00
      0.3163926960D+01  0.3623119853D+00
 SP   3 1.00       0.000000000000
      0.7868272350D+01 -0.1193324198D+00  0.6899906659D-01
      0.1881288540D+01 -0.1608541517D+00  0.3164239610D+00
      0.5442492580D+00  0.1143456438D+01  0.7443082909D+00
 SP   1 1.00       0.000000000000
      0.1687144782D+00  0.1000000000D+01  0.1000000000D+01
 D   1 1.00       0.000000000000
      0.8000000000D+00  0.1000000000D+01
 ****
     26 0
 S   6 1.00       0.000000000000
      0.3047524880D+04  0.1834737132D-02
      0.4573695180D+03  0.1403732281D-01
      0.1039486850D+03  0.6884262226D-01
      0.2921015530D+02  0.2321844432D+00
      0.9286662960D+01  0.4679413484D+00
      0.3163926960D+01  0.3623119853D+00
 SP   3 1.00       0.000000000000
      0.7868272350D+01 -0.1193324198D+00  0.6899906659D-01
      0.1881288540D+01 -0.1608541517D+00  0.3164239610D+00
      0.5442492580D+00  0.1143456438D+01  0.7443082909D+00
 SP   1 1.00       0.000000000000
      0.1687144782D+00  0.1000000000D+01  0.1000000000D+01
 D   1 1.00       0.000000000000
      0.8000000000D+00  0.1000000000D+01
 ****
     27 0
 S   6 1.00       0.000000000000
      0.3047524880D+04  0.1834737132D-02
      0.4573695180D+03  0.1403732281D-01
      0.1039486850D+03  0.6884262226D-01
      0.2921015530D+02  0.2321844432D+00
      0.9286662960D+01  0.4679413484D+00
      0.3163926960D+01  0.3623119853D+00
 SP   3 1.00       0.000000000000
      0.7868272350D+01 -0.1193324198D+00  0.6899906659D-01
      0.1881288540D+01 -0.1608541517D+00  0.3164239610D+00
      0.5442492580D+00  0.1143456438D+01  0.7443082909D+00
 SP   1 1.00       0.000000000000
      0.1687144782D+00  0.1000000000D+01  0.1000000000D+01
 D   1 1.00       0.000000000000
      0.8000000000D+00  0.1000000000D+01
 ****
     28 0
 S   6 1.00       0.000000000000
      0.3047524880D+04  0.1834737132D-02
      0.4573695180D+03  0.1403732281D-01
      0.1039486850D+03  0.6884262226D-01
      0.2921015530D+02  0.2321844432D+00
      0.9286662960D+01  0.4679413484D+00
      0.3163926960D+01  0.3623119853D+00
 SP   3 1.00       0.000000000000
      0.7868272350D+01 -0.1193324198D+00  0.6899906659D-01
      0.1881288540D+01 -0.1608541517D+00  0.3164239610D+00
      0.5442492580D+00  0.1143456438D+01  0.7443082909D+00
 SP   1 1.00       0.000000000000
      0.1687144782D+00  0.1000000000D+01  0.1000000000D+01
 D   1 1.00       0.000000000000
      0.8000000000D+00  0.1000000000D+01
 ****
     29 0
 S   6 1.00       0.000000000000
      0.3047524880D+04  0.1834737132D-02
      0.4573695180D+03  0.1403732281D-01
      0.1039486850D+03  0.6884262226D-01
      0.2921015530D+02  0.2321844432D+00
      0.9286662960D+01  0.4679413484D+00
      0.3163926960D+01  0.3623119853D+00
 SP   3 1.00       0.000000000000
      0.7868272350D+01 -0.1193324198D+00  0.6899906659D-01
      0.1881288540D+01 -0.1608541517D+00  0.3164239610D+00
      0.5442492580D+00  0.1143456438D+01  0.7443082909D+00
 SP   1 1.00       0.000000000000
      0.1687144782D+00  0.1000000000D+01  0.1000000000D+01
 D   1 1.00       0.000000000000
      0.8000000000D+00  0.1000000000D+01
 ****
     30 0
 S   6 1.00       0.000000000000
      0.3047524880D+04  0.1834737132D-02
      0.4573695180D+03  0.1403732281D-01
      0.1039486850D+03  0.6884262226D-01
      0.2921015530D+02  0.2321844432D+00
      0.9286662960D+01  0.4679413484D+00
      0.3163926960D+01  0.3623119853D+00
 SP   3 1.00       0.000000000000
      0.7868272350D+01 -0.1193324198D+00  0.6899906659D-01
      0.1881288540D+01 -0.1608541517D+00  0.3164239610D+00
      0.5442492580D+00  0.1143456438D+01  0.7443082909D+00
 SP   1 1.00       0.000000000000
      0.1687144782D+00  0.1000000000D+01  0.1000000000D+01
 D   1 1.00       0.000000000000
      0.8000000000D+00  0.1000000000D+01
 ****
     31 0
 S   6 1.00       0.000000000000
      0.3047524880D+04  0.1834737132D-02
      0.4573695180D+03  0.1403732281D-01
      0.1039486850D+03  0.6884262226D-01
      0.2921015530D+02  0.2321844432D+00
      0.9286662960D+01  0.4679413484D+00
      0.3163926960D+01  0.3623119853D+00
 SP   3 1.00       0.000000000000
      0.7868272350D+01 -0.1193324198D+00  0.6899906659D-01
      0.1881288540D+01 -0.1608541517D+00  0.3164239610D+00
      0.5442492580D+00  0.1143456438D+01  0.7443082909D+00
 SP   1 1.00       0.000000000000
      0.1687144782D+00  0.1000000000D+01  0.1000000000D+01
 D   1 1.00       0.000000000000
      0.8000000000D+00  0.1000000000D+01
 ****
     32 0
 S   6 1.00       0.000000000000
      0.3047524880D+04  0.1834737132D-02
      0.4573695180D+03  0.1403732281D-01
      0.1039486850D+03  0.6884262226D-01
      0.2921015530D+02  0.2321844432D+00
      0.9286662960D+01  0.4679413484D+00
      0.3163926960D+01  0.3623119853D+00
 SP   3 1.00       0.000000000000
      0.7868272350D+01 -0.1193324198D+00  0.6899906659D-01
      0.1881288540D+01 -0.1608541517D+00  0.3164239610D+00
      0.5442492580D+00  0.1143456438D+01  0.7443082909D+00
 SP   1 1.00       0.000000000000
      0.1687144782D+00  0.1000000000D+01  0.1000000000D+01
 D   1 1.00       0.000000000000
      0.8000000000D+00  0.1000000000D+01
 ****
     33 0
 S   6 1.00       0.000000000000
      0.3047524880D+04  0.1834737132D-02
      0.4573695180D+03  0.1403732281D-01
      0.1039486850D+03  0.6884262226D-01
      0.2921015530D+02  0.2321844432D+00
      0.9286662960D+01  0.4679413484D+00
      0.3163926960D+01  0.3623119853D+00
 SP   3 1.00       0.000000000000
      0.7868272350D+01 -0.1193324198D+00  0.6899906659D-01
      0.1881288540D+01 -0.1608541517D+00  0.3164239610D+00
      0.5442492580D+00  0.1143456438D+01  0.7443082909D+00
 SP   1 1.00       0.000000000000
      0.1687144782D+00  0.1000000000D+01  0.1000000000D+01
 D   1 1.00       0.000000000000
      0.8000000000D+00  0.1000000000D+01
 ****
     34 0
 S   6 1.00       0.000000000000
      0.3047524880D+04  0.1834737132D-02
      0.4573695180D+03  0.1403732281D-01
      0.1039486850D+03  0.6884262226D-01
      0.2921015530D+02  0.2321844432D+00
      0.9286662960D+01  0.4679413484D+00
      0.3163926960D+01  0.3623119853D+00
 SP   3 1.00       0.000000000000
      0.7868272350D+01 -0.1193324198D+00  0.6899906659D-01
      0.1881288540D+01 -0.1608541517D+00  0.3164239610D+00
      0.5442492580D+00  0.1143456438D+01  0.7443082909D+00
 SP   1 1.00       0.000000000000
      0.1687144782D+00  0.1000000000D+01  0.1000000000D+01
 D   1 1.00       0.000000000000
      0.8000000000D+00  0.1000000000D+01
 ****
     35 0
 S   6 1.00       0.000000000000
      0.3047524880D+04  0.1834737132D-02
      0.4573695180D+03  0.1403732281D-01
      0.1039486850D+03  0.6884262226D-01
      0.2921015530D+02  0.2321844432D+00
      0.9286662960D+01  0.4679413484D+00
      0.3163926960D+01  0.3623119853D+00
 SP   3 1.00       0.000000000000
      0.7868272350D+01 -0.1193324198D+00  0.6899906659D-01
      0.1881288540D+01 -0.1608541517D+00  0.3164239610D+00
      0.5442492580D+00  0.1143456438D+01  0.7443082909D+00
 SP   1 1.00       0.000000000000
      0.1687144782D+00  0.1000000000D+01  0.1000000000D+01
 D   1 1.00       0.000000000000
      0.8000000000D+00  0.1000000000D+01
 ****
     36 0
 S   6 1.00       0.000000000000
      0.3047524880D+04  0.1834737132D-02
      0.4573695180D+03  0.1403732281D-01
      0.1039486850D+03  0.6884262226D-01
      0.2921015530D+02  0.2321844432D+00
      0.9286662960D+01  0.4679413484D+00
      0.3163926960D+01  0.3623119853D+00
 SP   3 1.00       0.000000000000
      0.7868272350D+01 -0.1193324198D+00  0.6899906659D-01
      0.1881288540D+01 -0.1608541517D+00  0.3164239610D+00
      0.5442492580D+00  0.1143456438D+01  0.7443082909D+00
 SP   1 1.00       0.000000000000
      0.1687144782D+00  0.1000000000D+01  0.1000000000D+01
 D   1 1.00       0.000000000000
      0.8000000000D+00  0.1000000000D+01
 ****
     37 0
 S   6 1.00       0.000000000000
      0.3047524880D+04  0.1834737132D-02
      0.4573695180D+03  0.1403732281D-01
      0.1039486850D+03  0.6884262226D-01
      0.2921015530D+02  0.2321844432D+00
      0.9286662960D+01  0.4679413484D+00
      0.3163926960D+01  0.3623119853D+00
 SP   3 1.00       0.000000000000
      0.7868272350D+01 -0.1193324198D+00  0.6899906659D-01
      0.1881288540D+01 -0.1608541517D+00  0.3164239610D+00
      0.5442492580D+00  0.1143456438D+01  0.7443082909D+00
 SP   1 1.00       0.000000000000
      0.1687144782D+00  0.1000000000D+01  0.1000000000D+01
 D   1 1.00       0.000000000000
      0.8000000000D+00  0.1000000000D+01
 ****
     38 0
 S   6 1.00       0.000000000000
      0.3047524880D+04  0.1834737132D-02
      0.4573695180D+03  0.1403732281D-01
      0.1039486850D+03  0.6884262226D-01
      0.2921015530D+02  0.2321844432D+00
      0.9286662960D+01  0.4679413484D+00
      0.3163926960D+01  0.3623119853D+00
 SP   3 1.00       0.000000000000
      0.7868272350D+01 -0.1193324198D+00  0.6899906659D-01
      0.1881288540D+01 -0.1608541517D+00  0.3164239610D+00
      0.5442492580D+00  0.1143456438D+01  0.7443082909D+00
 SP   1 1.00       0.000000000000
      0.1687144782D+00  0.1000000000D+01  0.1000000000D+01
 D   1 1.00       0.000000000000
      0.8000000000D+00  0.1000000000D+01
 ****
     39 0
 S   6 1.00       0.000000000000
      0.3047524880D+04  0.1834737132D-02
      0.4573695180D+03  0.1403732281D-01
      0.1039486850D+03  0.6884262226D-01
      0.2921015530D+02  0.2321844432D+00
      0.9286662960D+01  0.4679413484D+00
      0.3163926960D+01  0.3623119853D+00
 SP   3 1.00       0.000000000000
      0.7868272350D+01 -0.1193324198D+00  0.6899906659D-01
      0.1881288540D+01 -0.1608541517D+00  0.3164239610D+00
      0.5442492580D+00  0.1143456438D+01  0.7443082909D+00
 SP   1 1.00       0.000000000000
      0.1687144782D+00  0.1000000000D+01  0.1000000000D+01
 D   1 1.00       0.000000000000
      0.8000000000D+00  0.1000000000D+01
 ****
     40 0
 S   6 1.00       0.000000000000
      0.3047524880D+04  0.1834737132D-02
      0.4573695180D+03  0.1403732281D-01
      0.1039486850D+03  0.6884262226D-01
      0.2921015530D+02  0.2321844432D+00
      0.9286662960D+01  0.4679413484D+00
      0.3163926960D+01  0.3623119853D+00
 SP   3 1.00       0.000000000000
      0.7868272350D+01 -0.1193324198D+00  0.6899906659D-01
      0.1881288540D+01 -0.1608541517D+00  0.3164239610D+00
      0.5442492580D+00  0.1143456438D+01  0.7443082909D+00
 SP   1 1.00       0.000000000000
      0.1687144782D+00  0.1000000000D+01  0.1000000000D+01
 D   1 1.00       0.000000000000
      0.8000000000D+00  0.1000000000D+01
 ****
     41 0
 S   6 1.00       0.000000000000
      0.3047524880D+04  0.1834737132D-02
      0.4573695180D+03  0.1403732281D-01
      0.1039486850D+03  0.6884262226D-01
      0.2921015530D+02  0.2321844432D+00
      0.9286662960D+01  0.4679413484D+00
      0.3163926960D+01  0.3623119853D+00
 SP   3 1.00       0.000000000000
      0.7868272350D+01 -0.1193324198D+00  0.6899906659D-01
      0.1881288540D+01 -0.1608541517D+00  0.3164239610D+00
      0.5442492580D+00  0.1143456438D+01  0.7443082909D+00
 SP   1 1.00       0.000000000000
      0.1687144782D+00  0.1000000000D+01  0.1000000000D+01
 D   1 1.00       0.000000000000
      0.8000000000D+00  0.1000000000D+01
 ****
     42 0
 S   6 1.00       0.000000000000
      0.3047524880D+04  0.1834737132D-02
      0.4573695180D+03  0.1403732281D-01
      0.1039486850D+03  0.6884262226D-01
      0.2921015530D+02  0.2321844432D+00
      0.9286662960D+01  0.4679413484D+00
      0.3163926960D+01  0.3623119853D+00
 SP   3 1.00       0.000000000000
      0.7868272350D+01 -0.1193324198D+00  0.6899906659D-01
      0.1881288540D+01 -0.1608541517D+00  0.3164239610D+00
      0.5442492580D+00  0.1143456438D+01  0.7443082909D+00
 SP   1 1.00       0.000000000000
      0.1687144782D+00  0.1000000000D+01  0.1000000000D+01
 D   1 1.00       0.000000000000
      0.8000000000D+00  0.1000000000D+01
 ****
     43 0
 S   6 1.00       0.000000000000
      0.3047524880D+04  0.1834737132D-02
      0.4573695180D+03  0.1403732281D-01
      0.1039486850D+03  0.6884262226D-01
      0.2921015530D+02  0.2321844432D+00
      0.9286662960D+01  0.4679413484D+00
      0.3163926960D+01  0.3623119853D+00
 SP   3 1.00       0.000000000000
      0.7868272350D+01 -0.1193324198D+00  0.6899906659D-01
      0.1881288540D+01 -0.1608541517D+00  0.3164239610D+00
      0.5442492580D+00  0.1143456438D+01  0.7443082909D+00
 SP   1 1.00       0.000000000000
      0.1687144782D+00  0.1000000000D+01  0.1000000000D+01
 D   1 1.00       0.000000000000
      0.8000000000D+00  0.1000000000D+01
 ****
     44 0
 S   6 1.00       0.000000000000
      0.3047524880D+04  0.1834737132D-02
      0.4573695180D+03  0.1403732281D-01
      0.1039486850D+03  0.6884262226D-01
      0.2921015530D+02  0.2321844432D+00
      0.9286662960D+01  0.4679413484D+00
      0.3163926960D+01  0.3623119853D+00
 SP   3 1.00       0.000000000000
      0.7868272350D+01 -0.1193324198D+00  0.6899906659D-01
      0.1881288540D+01 -0.1608541517D+00  0.3164239610D+00
      0.5442492580D+00  0.1143456438D+01  0.7443082909D+00
 SP   1 1.00       0.000000000000
      0.1687144782D+00  0.1000000000D+01  0.1000000000D+01
 D   1 1.00       0.000000000000
      0.8000000000D+00  0.1000000000D+01
 ****
     45 0
 S   6 1.00       0.000000000000
      0.3047524880D+04  0.1834737132D-02
      0.4573695180D+03  0.1403732281D-01
      0.1039486850D+03  0.6884262226D-01
      0.2921015530D+02  0.2321844432D+00
      0.9286662960D+01  0.4679413484D+00
      0.3163926960D+01  0.3623119853D+00
 SP   3 1.00       0.000000000000
      0.7868272350D+01 -0.1193324198D+00  0.6899906659D-01
      0.1881288540D+01 -0.1608541517D+00  0.3164239610D+00
      0.5442492580D+00  0.1143456438D+01  0.7443082909D+00
 SP   1 1.00       0.000000000000
      0.1687144782D+00  0.1000000000D+01  0.1000000000D+01
 D   1 1.00       0.000000000000
      0.8000000000D+00  0.1000000000D+01
 ****
     46 0
 S   6 1.00       0.000000000000
      0.3047524880D+04  0.1834737132D-02
      0.4573695180D+03  0.1403732281D-01
      0.1039486850D+03  0.6884262226D-01
      0.2921015530D+02  0.2321844432D+00
      0.9286662960D+01  0.4679413484D+00
      0.3163926960D+01  0.3623119853D+00
 SP   3 1.00       0.000000000000
      0.7868272350D+01 -0.1193324198D+00  0.6899906659D-01
      0.1881288540D+01 -0.1608541517D+00  0.3164239610D+00
      0.5442492580D+00  0.1143456438D+01  0.7443082909D+00
 SP   1 1.00       0.000000000000
      0.1687144782D+00  0.1000000000D+01  0.1000000000D+01
 D   1 1.00       0.000000000000
      0.8000000000D+00  0.1000000000D+01
 ****
     47 0
 S   6 1.00       0.000000000000
      0.3047524880D+04  0.1834737132D-02
      0.4573695180D+03  0.1403732281D-01
      0.1039486850D+03  0.6884262226D-01
      0.2921015530D+02  0.2321844432D+00
      0.9286662960D+01  0.4679413484D+00
      0.3163926960D+01  0.3623119853D+00
 SP   3 1.00       0.000000000000
      0.7868272350D+01 -0.1193324198D+00  0.6899906659D-01
      0.1881288540D+01 -0.1608541517D+00  0.3164239610D+00
      0.5442492580D+00  0.1143456438D+01  0.7443082909D+00
 SP   1 1.00       0.000000000000
      0.1687144782D+00  0.1000000000D+01  0.1000000000D+01
 D   1 1.00       0.000000000000
      0.8000000000D+00  0.1000000000D+01
 ****
     48 0
 S   6 1.00       0.000000000000
      0.3047524880D+04  0.1834737132D-02
      0.4573695180D+03  0.1403732281D-01
      0.1039486850D+03  0.6884262226D-01
      0.2921015530D+02  0.2321844432D+00
      0.9286662960D+01  0.4679413484D+00
      0.3163926960D+01  0.3623119853D+00
 SP   3 1.00       0.000000000000
      0.7868272350D+01 -0.1193324198D+00  0.6899906659D-01
      0.1881288540D+01 -0.1608541517D+00  0.3164239610D+00
      0.5442492580D+00  0.1143456438D+01  0.7443082909D+00
 SP   1 1.00       0.000000000000
      0.1687144782D+00  0.1000000000D+01  0.1000000000D+01
 D   1 1.00       0.000000000000
      0.8000000000D+00  0.1000000000D+01
 ****
     49 0
 S   6 1.00       0.000000000000
      0.3047524880D+04  0.1834737132D-02
      0.4573695180D+03  0.1403732281D-01
      0.1039486850D+03  0.6884262226D-01
      0.2921015530D+02  0.2321844432D+00
      0.9286662960D+01  0.4679413484D+00
      0.3163926960D+01  0.3623119853D+00
 SP   3 1.00       0.000000000000
      0.7868272350D+01 -0.1193324198D+00  0.6899906659D-01
      0.1881288540D+01 -0.1608541517D+00  0.3164239610D+00
      0.5442492580D+00  0.1143456438D+01  0.7443082909D+00
 SP   1 1.00       0.000000000000
      0.1687144782D+00  0.1000000000D+01  0.1000000000D+01
 D   1 1.00       0.000000000000
      0.8000000000D+00  0.1000000000D+01
 ****
     50 0
 S   6 1.00       0.000000000000
      0.3047524880D+04  0.1834737132D-02
      0.4573695180D+03  0.1403732281D-01
      0.1039486850D+03  0.6884262226D-01
      0.2921015530D+02  0.2321844432D+00
      0.9286662960D+01  0.4679413484D+00
      0.3163926960D+01  0.3623119853D+00
 SP   3 1.00       0.000000000000
      0.7868272350D+01 -0.1193324198D+00  0.6899906659D-01
      0.1881288540D+01 -0.1608541517D+00  0.3164239610D+00
      0.5442492580D+00  0.1143456438D+01  0.7443082909D+00
 SP   1 1.00       0.000000000000
      0.1687144782D+00  0.1000000000D+01  0.1000000000D+01
 D   1 1.00       0.000000000000
      0.8000000000D+00  0.1000000000D+01
 ****
     51 0
 S   6 1.00       0.000000000000
      0.3047524880D+04  0.1834737132D-02
      0.4573695180D+03  0.1403732281D-01
      0.1039486850D+03  0.6884262226D-01
      0.2921015530D+02  0.2321844432D+00
      0.9286662960D+01  0.4679413484D+00
      0.3163926960D+01  0.3623119853D+00
 SP   3 1.00       0.000000000000
      0.7868272350D+01 -0.1193324198D+00  0.6899906659D-01
      0.1881288540D+01 -0.1608541517D+00  0.3164239610D+00
      0.5442492580D+00  0.1143456438D+01  0.7443082909D+00
 SP   1 1.00       0.000000000000
      0.1687144782D+00  0.1000000000D+01  0.1000000000D+01
 D   1 1.00       0.000000000000
      0.8000000000D+00  0.1000000000D+01
 ****
     52 0
 S   6 1.00       0.000000000000
      0.3047524880D+04  0.1834737132D-02
      0.4573695180D+03  0.1403732281D-01
      0.1039486850D+03  0.6884262226D-01
      0.2921015530D+02  0.2321844432D+00
      0.9286662960D+01  0.4679413484D+00
      0.3163926960D+01  0.3623119853D+00
 SP   3 1.00       0.000000000000
      0.7868272350D+01 -0.1193324198D+00  0.6899906659D-01
      0.1881288540D+01 -0.1608541517D+00  0.3164239610D+00
      0.5442492580D+00  0.1143456438D+01  0.7443082909D+00
 SP   1 1.00       0.000000000000
      0.1687144782D+00  0.1000000000D+01  0.1000000000D+01
 D   1 1.00       0.000000000000
      0.8000000000D+00  0.1000000000D+01
 ****
     53 0
 S   6 1.00       0.000000000000
      0.3047524880D+04  0.1834737132D-02
      0.4573695180D+03  0.1403732281D-01
      0.1039486850D+03  0.6884262226D-01
      0.2921015530D+02  0.2321844432D+00
      0.9286662960D+01  0.4679413484D+00
      0.3163926960D+01  0.3623119853D+00
 SP   3 1.00       0.000000000000
      0.7868272350D+01 -0.1193324198D+00  0.6899906659D-01
      0.1881288540D+01 -0.1608541517D+00  0.3164239610D+00
      0.5442492580D+00  0.1143456438D+01  0.7443082909D+00
 SP   1 1.00       0.000000000000
      0.1687144782D+00  0.1000000000D+01  0.1000000000D+01
 D   1 1.00       0.000000000000
      0.8000000000D+00  0.1000000000D+01
 ****
     54 0
 S   6 1.00       0.000000000000
      0.3047524880D+04  0.1834737132D-02
      0.4573695180D+03  0.1403732281D-01
      0.1039486850D+03  0.6884262226D-01
      0.2921015530D+02  0.2321844432D+00
      0.9286662960D+01  0.4679413484D+00
      0.3163926960D+01  0.3623119853D+00
 SP   3 1.00       0.000000000000
      0.7868272350D+01 -0.1193324198D+00  0.6899906659D-01
      0.1881288540D+01 -0.1608541517D+00  0.3164239610D+00
      0.5442492580D+00  0.1143456438D+01  0.7443082909D+00
 SP   1 1.00       0.000000000000
      0.1687144782D+00  0.1000000000D+01  0.1000000000D+01
 D   1 1.00       0.000000000000
      0.8000000000D+00  0.1000000000D+01
 ****
     55 0
 S   6 1.00       0.000000000000
      0.3047524880D+04  0.1834737132D-02
      0.4573695180D+03  0.1403732281D-01
      0.1039486850D+03  0.6884262226D-01
      0.2921015530D+02  0.2321844432D+00
      0.9286662960D+01  0.4679413484D+00
      0.3163926960D+01  0.3623119853D+00
 SP   3 1.00       0.000000000000
      0.7868272350D+01 -0.1193324198D+00  0.6899906659D-01
      0.1881288540D+01 -0.1608541517D+00  0.3164239610D+00
      0.5442492580D+00  0.1143456438D+01  0.7443082909D+00
 SP   1 1.00       0.000000000000
      0.1687144782D+00  0.1000000000D+01  0.1000000000D+01
 D   1 1.00       0.000000000000
      0.8000000000D+00  0.1000000000D+01
 ****
     56 0
 S   6 1.00       0.000000000000
      0.3047524880D+04  0.1834737132D-02
      0.4573695180D+03  0.1403732281D-01
      0.1039486850D+03  0.6884262226D-01
      0.2921015530D+02  0.2321844432D+00
      0.9286662960D+01  0.4679413484D+00
      0.3163926960D+01  0.3623119853D+00
 SP   3 1.00       0.000000000000
      0.7868272350D+01 -0.1193324198D+00  0.6899906659D-01
      0.1881288540D+01 -0.1608541517D+00  0.3164239610D+00
      0.5442492580D+00  0.1143456438D+01  0.7443082909D+00
 SP   1 1.00       0.000000000000
      0.1687144782D+00  0.1000000000D+01  0.1000000000D+01
 D   1 1.00       0.000000000000
      0.8000000000D+00  0.1000000000D+01
 ****
     57 0
 S   6 1.00       0.000000000000
      0.3047524880D+04  0.1834737132D-02
      0.4573695180D+03  0.1403732281D-01
      0.1039486850D+03  0.6884262226D-01
      0.2921015530D+02  0.2321844432D+00
      0.9286662960D+01  0.4679413484D+00
      0.3163926960D+01  0.3623119853D+00
 SP   3 1.00       0.000000000000
      0.7868272350D+01 -0.1193324198D+00  0.6899906659D-01
      0.1881288540D+01 -0.1608541517D+00  0.3164239610D+00
      0.5442492580D+00  0.1143456438D+01  0.7443082909D+00
 SP   1 1.00       0.000000000000
      0.1687144782D+00  0.1000000000D+01  0.1000000000D+01
 D   1 1.00       0.000000000000
      0.8000000000D+00  0.1000000000D+01
 ****
     58 0
 S   6 1.00       0.000000000000
      0.3047524880D+04  0.1834737132D-02
      0.4573695180D+03  0.1403732281D-01
      0.1039486850D+03  0.6884262226D-01
      0.2921015530D+02  0.2321844432D+00
      0.9286662960D+01  0.4679413484D+00
      0.3163926960D+01  0.3623119853D+00
 SP   3 1.00       0.000000000000
      0.7868272350D+01 -0.1193324198D+00  0.6899906659D-01
      0.1881288540D+01 -0.1608541517D+00  0.3164239610D+00
      0.5442492580D+00  0.1143456438D+01  0.7443082909D+00
 SP   1 1.00       0.000000000000
      0.1687144782D+00  0.1000000000D+01  0.1000000000D+01
 D   1 1.00       0.000000000000
      0.8000000000D+00  0.1000000000D+01
 ****
     59 0
 S   6 1.00       0.000000000000
      0.3047524880D+04  0.1834737132D-02
      0.4573695180D+03  0.1403732281D-01
      0.1039486850D+03  0.6884262226D-01
      0.2921015530D+02  0.2321844432D+00
      0.9286662960D+01  0.4679413484D+00
      0.3163926960D+01  0.3623119853D+00
 SP   3 1.00       0.000000000000
      0.7868272350D+01 -0.1193324198D+00  0.6899906659D-01
      0.1881288540D+01 -0.1608541517D+00  0.3164239610D+00
      0.5442492580D+00  0.1143456438D+01  0.7443082909D+00
 SP   1 1.00       0.000000000000
      0.1687144782D+00  0.1000000000D+01  0.1000000000D+01
 D   1 1.00       0.000000000000
      0.8000000000D+00  0.1000000000D+01
 ****
     60 0
 S   3 1.00       0.000000000000
      0.1873113696D+02  0.3349460434D-01
      0.2825394365D+01  0.2347269535D+00
      0.6401216923D+00  0.8137573261D+00
 S   1 1.00       0.000000000000
      0.1612777588D+00  0.1000000000D+01
 ****
     61 0
 S   3 1.00       0.000000000000
      0.1873113696D+02  0.3349460434D-01
      0.2825394365D+01  0.2347269535D+00
      0.6401216923D+00  0.8137573261D+00
 S   1 1.00       0.000000000000
      0.1612777588D+00  0.1000000000D+01
 ****
     62 0
 S   3 1.00       0.000000000000
      0.1873113696D+02  0.3349460434D-01
      0.2825394365D+01  0.2347269535D+00
      0.6401216923D+00  0.8137573261D+00
 S   1 1.00       0.000000000000
      0.1612777588D+00  0.1000000000D+01
 ****
     63 0
 S   3 1.00       0.000000000000
      0.1873113696D+02  0.3349460434D-01
      0.2825394365D+01  0.2347269535D+00
      0.6401216923D+00  0.8137573261D+00
 S   1 1.00       0.000000000000
      0.1612777588D+00  0.1000000000D+01
 ****
     64 0
 S   3 1.00       0.000000000000
      0.1873113696D+02  0.3349460434D-01
      0.2825394365D+01  0.2347269535D+00
      0.6401216923D+00  0.8137573261D+00
 S   1 1.00       0.000000000000
      0.1612777588D+00  0.1000000000D+01
 ****
     65 0
 S   3 1.00       0.000000000000
      0.1873113696D+02  0.3349460434D-01
      0.2825394365D+01  0.2347269535D+00
      0.6401216923D+00  0.8137573261D+00
 S   1 1.00       0.000000000000
      0.1612777588D+00  0.1000000000D+01
 ****
     66 0
 S   3 1.00       0.000000000000
      0.1873113696D+02  0.3349460434D-01
      0.2825394365D+01  0.2347269535D+00
      0.6401216923D+00  0.8137573261D+00
 S   1 1.00       0.000000000000
      0.1612777588D+00  0.1000000000D+01
 ****
     67 0
 S   3 1.00       0.000000000000
      0.1873113696D+02  0.3349460434D-01
      0.2825394365D+01  0.2347269535D+00
      0.6401216923D+00  0.8137573261D+00
 S   1 1.00       0.000000000000
      0.1612777588D+00  0.1000000000D+01
 ****
     68 0
 S   3 1.00       0.000000000000
      0.1873113696D+02  0.3349460434D-01
      0.2825394365D+01  0.2347269535D+00
      0.6401216923D+00  0.8137573261D+00
 S   1 1.00       0.000000000000
      0.1612777588D+00  0.1000000000D+01
 ****
     69 0
 S   3 1.00       0.000000000000
      0.1873113696D+02  0.3349460434D-01
      0.2825394365D+01  0.2347269535D+00
      0.6401216923D+00  0.8137573261D+00
 S   1 1.00       0.000000000000
      0.1612777588D+00  0.1000000000D+01
 ****
     70 0
 S   3 1.00       0.000000000000
      0.1873113696D+02  0.3349460434D-01
      0.2825394365D+01  0.2347269535D+00
      0.6401216923D+00  0.8137573261D+00
 S   1 1.00       0.000000000000
      0.1612777588D+00  0.1000000000D+01
 ****
     71 0
 S   3 1.00       0.000000000000
      0.1873113696D+02  0.3349460434D-01
      0.2825394365D+01  0.2347269535D+00
      0.6401216923D+00  0.8137573261D+00
 S   1 1.00       0.000000000000
      0.1612777588D+00  0.1000000000D+01
 ****
     72 0
 S   3 1.00       0.000000000000
      0.1873113696D+02  0.3349460434D-01
      0.2825394365D+01  0.2347269535D+00
      0.6401216923D+00  0.8137573261D+00
 S   1 1.00       0.000000000000
      0.1612777588D+00  0.1000000000D+01
 ****
     73 0
 S   3 1.00       0.000000000000
      0.1873113696D+02  0.3349460434D-01
      0.2825394365D+01  0.2347269535D+00
      0.6401216923D+00  0.8137573261D+00
 S   1 1.00       0.000000000000
      0.1612777588D+00  0.1000000000D+01
 ****
     74 0
 S   3 1.00       0.000000000000
      0.1873113696D+02  0.3349460434D-01
      0.2825394365D+01  0.2347269535D+00
      0.6401216923D+00  0.8137573261D+00
 S   1 1.00       0.000000000000
      0.1612777588D+00  0.1000000000D+01
 ****
     75 0
 S   3 1.00       0.000000000000
      0.1873113696D+02  0.3349460434D-01
      0.2825394365D+01  0.2347269535D+00
      0.6401216923D+00  0.8137573261D+00
 S   1 1.00       0.000000000000
      0.1612777588D+00  0.1000000000D+01
 ****
     76 0
 S   3 1.00       0.000000000000
      0.1873113696D+02  0.3349460434D-01
      0.2825394365D+01  0.2347269535D+00
      0.6401216923D+00  0.8137573261D+00
 S   1 1.00       0.000000000000
      0.1612777588D+00  0.1000000000D+01
 ****
     77 0
 S   3 1.00       0.000000000000
      0.1873113696D+02  0.3349460434D-01
      0.2825394365D+01  0.2347269535D+00
      0.6401216923D+00  0.8137573261D+00
 S   1 1.00       0.000000000000
      0.1612777588D+00  0.1000000000D+01
 ****
     78 0
 S   3 1.00       0.000000000000
      0.1873113696D+02  0.3349460434D-01
      0.2825394365D+01  0.2347269535D+00
      0.6401216923D+00  0.8137573261D+00
 S   1 1.00       0.000000000000
      0.1612777588D+00  0.1000000000D+01
 ****
     79 0
 S   3 1.00       0.000000000000
      0.1873113696D+02  0.3349460434D-01
      0.2825394365D+01  0.2347269535D+00
      0.6401216923D+00  0.8137573261D+00
 S   1 1.00       0.000000000000
      0.1612777588D+00  0.1000000000D+01
 ****
     80 0
 S   3 1.00       0.000000000000
      0.1873113696D+02  0.3349460434D-01
      0.2825394365D+01  0.2347269535D+00
      0.6401216923D+00  0.8137573261D+00
 S   1 1.00       0.000000000000
      0.1612777588D+00  0.1000000000D+01
 ****
     81 0
 S   3 1.00       0.000000000000
      0.1873113696D+02  0.3349460434D-01
      0.2825394365D+01  0.2347269535D+00
      0.6401216923D+00  0.8137573261D+00
 S   1 1.00       0.000000000000
      0.1612777588D+00  0.1000000000D+01
 ****
     82 0
 S   3 1.00       0.000000000000
      0.1873113696D+02  0.3349460434D-01
      0.2825394365D+01  0.2347269535D+00
      0.6401216923D+00  0.8137573261D+00
 S   1 1.00       0.000000000000
      0.1612777588D+00  0.1000000000D+01
 ****
     83 0
 S   3 1.00       0.000000000000
      0.1873113696D+02  0.3349460434D-01
      0.2825394365D+01  0.2347269535D+00
      0.6401216923D+00  0.8137573261D+00
 S   1 1.00       0.000000000000
      0.1612777588D+00  0.1000000000D+01
 ****
     84 0
 S   3 1.00       0.000000000000
      0.1873113696D+02  0.3349460434D-01
      0.2825394365D+01  0.2347269535D+00
      0.6401216923D+00  0.8137573261D+00
 S   1 1.00       0.000000000000
      0.1612777588D+00  0.1000000000D+01
 ****
     85 0
 S   3 1.00       0.000000000000
      0.1873113696D+02  0.3349460434D-01
      0.2825394365D+01  0.2347269535D+00
      0.6401216923D+00  0.8137573261D+00
 S   1 1.00       0.000000000000
      0.1612777588D+00  0.1000000000D+01
 ****
     86 0
 S   3 1.00       0.000000000000
      0.1873113696D+02  0.3349460434D-01
      0.2825394365D+01  0.2347269535D+00
      0.6401216923D+00  0.8137573261D+00
 S   1 1.00       0.000000000000
      0.1612777588D+00  0.1000000000D+01
 ****
     87 0
 S   3 1.00       0.000000000000
      0.1873113696D+02  0.3349460434D-01
      0.2825394365D+01  0.2347269535D+00
      0.6401216923D+00  0.8137573261D+00
 S   1 1.00       0.000000000000
      0.1612777588D+00  0.1000000000D+01
 ****
     88 0
 S   3 1.00       0.000000000000
      0.1873113696D+02  0.3349460434D-01
      0.2825394365D+01  0.2347269535D+00
      0.6401216923D+00  0.8137573261D+00
 S   1 1.00       0.000000000000
      0.1612777588D+00  0.1000000000D+01
 ****
     89 0
 S   3 1.00       0.000000000000
      0.1873113696D+02  0.3349460434D-01
      0.2825394365D+01  0.2347269535D+00
      0.6401216923D+00  0.8137573261D+00
 S   1 1.00       0.000000000000
      0.1612777588D+00  0.1000000000D+01
 ****
     90 0
 S   3 1.00       0.000000000000
      0.1873113696D+02  0.3349460434D-01
      0.2825394365D+01  0.2347269535D+00
      0.6401216923D+00  0.8137573261D+00
 S   1 1.00       0.000000000000
      0.1612777588D+00  0.1000000000D+01
 ****
     91 0
 S   3 1.00       0.000000000000
      0.1873113696D+02  0.3349460434D-01
      0.2825394365D+01  0.2347269535D+00
      0.6401216923D+00  0.8137573261D+00
 S   1 1.00       0.000000000000
      0.1612777588D+00  0.1000000000D+01
 ****
     92 0
 S   3 1.00       0.000000000000
      0.1873113696D+02  0.3349460434D-01
      0.2825394365D+01  0.2347269535D+00
      0.6401216923D+00  0.8137573261D+00
 S   1 1.00       0.000000000000
      0.1612777588D+00  0.1000000000D+01
 ****
     93 0
 S   3 1.00       0.000000000000
      0.1873113696D+02  0.3349460434D-01
      0.2825394365D+01  0.2347269535D+00
      0.6401216923D+00  0.8137573261D+00
 S   1 1.00       0.000000000000
      0.1612777588D+00  0.1000000000D+01
 ****
     94 0
 S   3 1.00       0.000000000000
      0.1873113696D+02  0.3349460434D-01
      0.2825394365D+01  0.2347269535D+00
      0.6401216923D+00  0.8137573261D+00
 S   1 1.00       0.000000000000
      0.1612777588D+00  0.1000000000D+01
 ****
     95 0
 S   3 1.00       0.000000000000
      0.1873113696D+02  0.3349460434D-01
      0.2825394365D+01  0.2347269535D+00
      0.6401216923D+00  0.8137573261D+00
 S   1 1.00       0.000000000000
      0.1612777588D+00  0.1000000000D+01
 ****
     96 0
 S   3 1.00       0.000000000000
      0.1873113696D+02  0.3349460434D-01
      0.2825394365D+01  0.2347269535D+00
      0.6401216923D+00  0.8137573261D+00
 S   1 1.00       0.000000000000
      0.1612777588D+00  0.1000000000D+01
 ****
     97 0
 S   3 1.00       0.000000000000
[...]
 Alpha virt. eigenvalues --    0.65997   0.66198   0.66387   0.66663   0.66971
 Alpha virt. eigenvalues --    0.67500   0.67692   0.68005   0.68217   0.68580
 Alpha virt. eigenvalues --    0.69115   0.69371   0.69723   0.70433   0.70947
 Alpha virt. eigenvalues --    0.70992   0.71410   0.72456   0.73034   0.73338
 Alpha virt. eigenvalues --    0.73952   0.74726   0.75061   0.75504   0.75976
 Alpha virt. eigenvalues --    0.76240   0.76567   0.76950   0.77296   0.77583
 Alpha virt. eigenvalues --    0.77940   0.78430   0.78714   0.79196   0.79333
 Alpha virt. eigenvalues --    0.79362   0.79600   0.80328   0.80407   0.80669
 Alpha virt. eigenvalues --    0.81028   0.81281   0.81766   0.81941   0.82541
 Alpha virt. eigenvalues --    0.82811   0.82843   0.82969   0.83292   0.83459
 Alpha virt. eigenvalues --    0.83662   0.83878   0.84099   0.84219   0.84652
 Alpha virt. eigenvalues --    0.84759   0.84783   0.84938   0.84974   0.85527
 Alpha virt. eigenvalues --    0.85967   0.86266   0.86723   0.86897   0.87073
 Alpha virt. eigenvalues --    0.87380   0.87496   0.87682   0.88071   0.88267
 Alpha virt. eigenvalues --    0.88868   0.88969   0.89421   0.89472   0.89855
 Alpha virt. eigenvalues --    0.90005   0.90495   0.90780   0.91121   0.91196
 Alpha virt. eigenvalues --    0.91459   0.91604   0.91681   0.91924   0.92132
 Alpha virt. eigenvalues --    0.92161   0.92529   0.92669   0.93034   0.93343
 Alpha virt. eigenvalues --    0.93622   0.94158   0.94496   0.95171   0.95365
 Alpha virt. eigenvalues --    0.95781   0.96195   0.96319   0.96555   0.96888
 Alpha virt. eigenvalues --    0.97140   0.97413   0.97458   0.97768   0.98027
 Alpha virt. eigenvalues --    0.98601   0.98617   0.98983   0.99077   0.99488
 Alpha virt. eigenvalues --    0.99864   1.00179   1.00530   1.00897   1.01228
 Alpha virt. eigenvalues --    1.01477   1.02159   1.02330   1.02714   1.03674
 Alpha virt. eigenvalues --    1.04008   1.04917   1.05187   1.05794   1.06537
 Alpha virt. eigenvalues --    1.06691   1.07274   1.07526   1.07908   1.08490
 Alpha virt. eigenvalues --    1.08856   1.09487   1.09820   1.10604   1.11257
 Alpha virt. eigenvalues --    1.11887   1.12212   1.12367   1.13541   1.14260
 Alpha virt. eigenvalues --    1.14540   1.14718   1.14942   1.15402   1.15504
 Alpha virt. eigenvalues --    1.16263   1.16335   1.16987   1.17133   1.17554
 Alpha virt. eigenvalues --    1.18196   1.18777   1.19559   1.19813   1.20684
 Alpha virt. eigenvalues --    1.21058   1.21157   1.21638   1.22786   1.22968
 Alpha virt. eigenvalues --    1.23298   1.24204   1.24363   1.24642   1.25385
 Alpha virt. eigenvalues --    1.26537   1.27032   1.27739   1.28047   1.29325
 Alpha virt. eigenvalues --    1.30102   1.30795   1.30980   1.31395   1.32948
 Alpha virt. eigenvalues --    1.33364   1.33789   1.34290   1.34343   1.34760
 Alpha virt. eigenvalues --    1.35050   1.35807   1.36578   1.37625   1.38260
 Alpha virt. eigenvalues --    1.38511   1.39418   1.39777   1.40532   1.40951
 Alpha virt. eigenvalues --    1.41191   1.41754   1.42104   1.42760   1.43146
 Alpha virt. eigenvalues --    1.43769   1.43887   1.44016   1.44704   1.44878
 Alpha virt. eigenvalues --    1.45072   1.45342   1.45824   1.45976   1.46159
 Alpha virt. eigenvalues --    1.46485   1.46966   1.47550   1.48277   1.48538
 Alpha virt. eigenvalues --    1.48761   1.48885   1.49392   1.49513   1.49918
 Alpha virt. eigenvalues --    1.50111   1.50482   1.50553   1.50774   1.50898
 Alpha virt. eigenvalues --    1.51264   1.51503   1.52882   1.53129   1.54429
 Alpha virt. eigenvalues --    1.55517   1.56164   1.57029   1.57246   1.57769
 Alpha virt. eigenvalues --    1.58132   1.58781   1.59869   1.60666   1.61597
 Alpha virt. eigenvalues --    1.62618   1.63189   1.63720   1.65094   1.65392
 Alpha virt. eigenvalues --    1.66879   1.67696   1.68704   1.69576   1.69980
 Alpha virt. eigenvalues --    1.71252   1.72709   1.73390   1.74146   1.74696
 Alpha virt. eigenvalues --    1.75242   1.75294   1.75774   1.75965   1.77054
 Alpha virt. eigenvalues --    1.77569   1.78487   1.79116   1.79340   1.79518
 Alpha virt. eigenvalues --    1.79598   1.79798   1.79870   1.80158   1.80577
 Alpha virt. eigenvalues --    1.80697   1.81271   1.81627   1.82321   1.82559
 Alpha virt. eigenvalues --    1.82772   1.83406   1.84182   1.84825   1.85112
 Alpha virt. eigenvalues --    1.85572   1.85868   1.86035   1.86519   1.87396
 Alpha virt. eigenvalues --    1.87806   1.88711   1.89233   1.89528   1.89987
 Alpha virt. eigenvalues --    1.90566   1.90664   1.91041   1.91320   1.91446
 Alpha virt. eigenvalues --    1.91816   1.91952   1.92129   1.92453   1.92779
 Alpha virt. eigenvalues --    1.92916   1.93142   1.93297   1.93838   1.94388
 Alpha virt. eigenvalues --    1.94851   1.95058   1.95513   1.96349   1.96437
 Alpha virt. eigenvalues --    1.96862   1.96972   1.97131   1.97693   1.98071
 Alpha virt. eigenvalues --    1.99203   1.99400   1.99556   2.00287   2.00749
 Alpha virt. eigenvalues --    2.01735   2.02020   2.02646   2.03251   2.03917
 Alpha virt. eigenvalues --    2.04587   2.04767   2.05169   2.05431   2.05862
 Alpha virt. eigenvalues --    2.06560   2.06892   2.07944   2.08795   2.09221
 Alpha virt. eigenvalues --    2.09990   2.10261   2.10525   2.11129   2.11785
 Alpha virt. eigenvalues --    2.12205   2.12546   2.12803   2.13467   2.14234
 Alpha virt. eigenvalues --    2.14686   2.14948   2.15213   2.15764   2.16663
 Alpha virt. eigenvalues --    2.18221   2.18363   2.18919   2.19175   2.19479
 Alpha virt. eigenvalues --    2.19717   2.19966   2.20374   2.20398   2.20763
 Alpha virt. eigenvalues --    2.21315   2.21830   2.22104   2.22342   2.22695
 Alpha virt. eigenvalues --    2.23432   2.23608   2.24185   2.24366   2.24878
 Alpha virt. eigenvalues --    2.25137   2.25322   2.25660   2.25807   2.26596
 Alpha virt. eigenvalues --    2.26908   2.27201   2.27572   2.27803   2.28145
 Alpha virt. eigenvalues --    2.28458   2.28751   2.29149   2.29327   2.29882
 Alpha virt. eigenvalues --    2.30404   2.30683   2.30900   2.31765   2.32356
 Alpha virt. eigenvalues --    2.32518   2.32747   2.32900   2.33067   2.33394
 Alpha virt. eigenvalues --    2.33892   2.34195   2.34637   2.35248   2.35787
 Alpha virt. eigenvalues --    2.36305   2.37333   2.38317   2.38822   2.39257
 Alpha virt. eigenvalues --    2.39479   2.39898   2.40145   2.40342   2.41095
 Alpha virt. eigenvalues --    2.42755   2.43705   2.44193   2.44614   2.45945
 Alpha virt. eigenvalues --    2.46396   2.46844   2.46947   2.47902   2.48427
 Alpha virt. eigenvalues --    2.48737   2.49705   2.50412   2.51026   2.53111
 Alpha virt. eigenvalues --    2.53696   2.54047   2.55802   2.56792   2.58222
 Alpha virt. eigenvalues --    2.60099   2.60878   2.61797   2.62175   2.62548
 Alpha virt. eigenvalues --    2.62795   2.63024   2.63353   2.64188   2.64735
 Alpha virt. eigenvalues --    2.65286   2.65893   2.66477   2.66703   2.67239
 Alpha virt. eigenvalues --    2.67786   2.67910   2.68171   2.68455   2.68817
 Alpha virt. eigenvalues --    2.69214   2.69928   2.70143   2.70299   2.70455
 Alpha virt. eigenvalues --    2.71835   2.72920   2.73539   2.74009   2.75263
 Alpha virt. eigenvalues --    2.75350   2.75685   2.75735   2.75888   2.76019
 Alpha virt. eigenvalues --    2.77107   2.77548   2.77692   2.79493   2.79604
 Alpha virt. eigenvalues --    2.80940   2.82117   2.82366   2.82627   2.83074
 Alpha virt. eigenvalues --    2.84020   2.85581   2.86009   2.86523   2.86694
 Alpha virt. eigenvalues --    2.87960   2.89518   2.90712   2.92302   2.93422
 Alpha virt. eigenvalues --    2.94499   2.95222   2.95823   2.96671   2.97439
 Alpha virt. eigenvalues --    2.99044   2.99597   3.01161   3.01542   3.02320
 Alpha virt. eigenvalues --    3.04385   3.07119   3.07447   3.10199   3.14558
 Alpha virt. eigenvalues --    3.16506   3.22843   3.24279   3.28449   3.30202
 Alpha virt. eigenvalues --    3.31944   3.35031   3.36193   3.37570   3.39220
 Alpha virt. eigenvalues --    3.46957   3.50902   3.51390   3.52088   4.08466
 Alpha virt. eigenvalues --    4.08847   4.08921   4.09596   4.09712   4.10272
 Alpha virt. eigenvalues --    4.10657   4.10769   4.13001   4.13161   4.13650
 Alpha virt. eigenvalues --    4.14401   4.14534   4.14917   4.15571   4.15881
 Alpha virt. eigenvalues --    4.16534   4.17346   4.17640   4.17762   4.18716
 Alpha virt. eigenvalues --    4.19040   4.20711   4.20956   4.22246   4.25858
 Alpha virt. eigenvalues --    4.26888   4.28034   4.29392   4.30573   4.31301
 Alpha virt. eigenvalues --    4.33389   4.33985   4.35217   4.36662   4.37099
 Alpha virt. eigenvalues --    4.38887   4.39911   4.41021   4.42779   4.43148
 Alpha virt. eigenvalues --    4.43560   4.43864   4.44746   4.47499   4.50790
 Alpha virt. eigenvalues --    4.51165   4.53918   4.61405   4.63109   4.63926
 Alpha virt. eigenvalues --    4.75379   4.75987   4.81862   4.82272   4.83229
 Alpha virt. eigenvalues --    4.83531   4.85242   4.87571
          Condensed to atoms (all electrons):
 Mulliken charges:
               1
     1  C   -0.534901
     2  C    0.195828
     3  C   -0.268248
     4  C    0.108040
     5  C    0.005994
     6  C   -0.169816
     7  C   -0.133167
     8  C   -0.191646
     9  C    0.126240
    10  C    0.090222
    11  C   -0.356801
    12  C   -0.266443
    13  C   -0.259538
    14  C   -0.353364
    15  C   -0.265633
    16  C    0.196112
    17  C   -0.534382
    18  C    0.092975
    19  N   -0.668493
    20  C    0.314367
    21  C   -0.191562
    22  C   -0.206315
    23  C    0.083918
    24  C    0.096570
    25  C   -0.260113
    26  C   -0.061409
    27  C   -0.438168
    28  C   -0.437350
    29  C    0.101198
    30  C   -0.204072
    31  C   -0.133134
    32  C   -0.136353
    33  C   -0.194479
    34  C    0.080465
    35  C    0.321158
    36  C   -0.187634
    37  C   -0.204987
    38  C    0.068318
    39  C    0.124438
    40  C   -0.259372
    41  C   -0.274082
    42  C    0.129137
    43  C   -0.188590
    44  C   -0.136488
    45  C   -0.136820
    46  C   -0.189793
    47  C    0.066107
    48  C    0.065813
    49  C   -0.190049
    50  C   -0.135089
    51  C   -0.136378
    52  C   -0.187584
    53  C    0.125885
    54  C    0.123067
    55  C   -0.189709
    56  C   -0.137455
    57  C   -0.135101
    58  C   -0.194113
    59  C    0.069094
    60  H    0.167605
    61  H    0.175623
    62  H    0.153226
    63  H    0.128088
    64  H    0.128289
    65  H    0.124841
    66  H    0.119017
    67  H    0.162937
    68  H    0.140093
    69  H    0.142752
    70  H    0.134612
    71  H    0.140615
    72  H    0.131843
    73  H    0.147747
    74  H    0.138737
    75  H    0.129033
    76  H    0.175916
    77  H    0.165717
    78  H    0.152074
    79  H    0.143117
    80  H    0.130524
    81  H    0.140989
    82  H    0.155669
    83  H    0.143941
    84  H    0.145381
    85  H    0.143704
    86  H    0.144868
    87  H    0.156770
    88  H    0.122338
    89  H    0.124820
    90  H    0.125826
    91  H    0.126430
    92  H    0.145288
    93  H    0.130733
    94  H    0.153494
    95  H    0.139070
    96  H    0.128552
    97  H    0.129324
    98  H    0.129992
    99  H    0.129226
   100  H    0.128562
   101  H    0.128850
   102  H    0.138417
   103  H    0.137598
   104  H    0.127549
   105  H    0.127001
   106  H    0.126885
 Sum of Mulliken charges =  -0.00000
 Mulliken charges with hydrogens summed into heavy atoms:
               1
     1  C   -0.038447
     2  C    0.195828
     3  C   -0.140160
     4  C    0.108040
     5  C    0.005994
     6  C   -0.041527
     7  C   -0.008326
     8  C   -0.072628
     9  C    0.126240
    10  C    0.090222
    11  C   -0.053771
    12  C    0.010922
    13  C    0.012921
    14  C   -0.066880
    15  C   -0.136600
    16  C    0.196112
    17  C   -0.040674
    18  C    0.092975
    19  N   -0.668493
    20  C    0.314367
    21  C   -0.048445
    22  C   -0.075791
    23  C    0.083918
    24  C    0.096570
    25  C   -0.119124
    26  C   -0.061409
    27  C    0.006823
    28  C    0.007991
    29  C    0.101198
    30  C   -0.081734
    31  C   -0.008314
    32  C   -0.010527
    33  C   -0.068049
    34  C    0.080465
    35  C    0.321158
    36  C   -0.042346
    37  C   -0.074254
    38  C    0.068318
    39  C    0.124438
    40  C   -0.105877
    41  C   -0.274082
    42  C    0.129137
    43  C   -0.049520
    44  C   -0.007936
    45  C   -0.007496
    46  C   -0.059801
    47  C    0.066107
    48  C    0.065813
    49  C   -0.060823
    50  C   -0.006528
    51  C   -0.007528
    52  C   -0.049167
    53  C    0.125885
    54  C    0.123067
    55  C   -0.052111
    56  C   -0.009907
    57  C   -0.008100
    58  C   -0.067227
    59  C    0.069094
 Electronic spatial extent (au):  <R**2>=          47685.2055
 Charge=              0.0000 electrons
 Dipole moment (field-independent basis, Debye):
    X=              0.2439    Y=             -0.6035    Z=              0.3073  Tot=              0.7198
 Quadrupole moment (field-independent basis, Debye-Ang):
   XX=           -331.5979   YY=           -318.7235   ZZ=           -329.5884
   XY=              7.5460   XZ=             -1.5058   YZ=             -2.6461
 Traceless Quadrupole moment (field-independent basis, Debye-Ang):
   XX=             -4.9613   YY=              7.9131   ZZ=             -2.9518
   XY=              7.5460   XZ=             -1.5058   YZ=             -2.6461
 Octapole moment (field-independent basis, Debye-Ang**2):
  XXX=           -134.1842  YYY=            -33.3203  ZZZ=             92.5072  XYY=            -61.2227
  XXY=             20.8188  XXZ=             -2.5991  XZZ=            -15.3189  YZZ=            -37.0527
  YYZ=             26.4871  XYZ=             13.5854
 Hexadecapole moment (field-independent basis, Debye-Ang**3):
 XXXX=         -23348.3508 YYYY=         -33121.7877 ZZZZ=          -7383.1292 XXXY=            610.0573
 XXXZ=            495.7545 YYYX=           1078.8175 YYYZ=           4086.9187 ZZZX=           1000.8122
 ZZZY=           4495.3930 XXYY=          -9587.0875 XXZZ=          -5015.2095 YYZZ=          -7140.4757
 XXYZ=           1280.3121 YYXZ=            395.5017 ZZXY=            294.6453
 N-N= 7.753873544296D+03 E-N=-2.081755562330D+04  KE= 2.271040224550D+03
 Leave Link  601 at Sat Nov  5 12:16:22 2022, MaxMem=   402653184 cpu:               4.5 elap:               0.9
 (Enter /home/wykgroup/appl/g16/l9999.exe)
 1\1\GINC-NODE45\SP\RB3LYP TD-FC\6-31G(d)\C58H47N1\WYKGROUP\05-Nov-2022
 \0\\#p b3lyp/6-31g(d) 6D 10F nosymm GFInput td=(50-50,nstate=2) SCF=XQ
 C\\Gaussian input prepared by ASE\\0,1\C,0,-1.3991454075,1.5864233856,
 1.7956656189\C,0,-1.8702647481,0.4361289738,0.9384973791\C,0,-2.783222
 5861,-0.4898778283,1.4502227781\C,0,-3.2244324793,-1.590819036,0.70395
 95094\C,0,-4.2233405343,-2.538169492,1.2759575987\C,0,-5.4177523399,-2
 .0107400192,1.7986168623\C,0,-6.4002441671,-2.8390516373,2.3329494254\
 C,0,-6.2047428216,-4.219917236,2.3530687108\C,0,-5.0258415106,-4.76874
 18034,1.846614836\C,0,-4.02254697,-3.9342647134,1.312451033\C,0,-2.748
 8887405,-4.6316569275,0.8814937267\C,0,-2.2663253748,-5.6044450676,1.9
 813525749\C,0,-3.3720661746,-6.5874707532,2.4540489144\C,0,-4.75659207
 68,-6.2548593006,1.849394417\C,0,-2.7326460083,-1.7397787986,-0.599756
 4569\C,0,-1.8281487702,-0.8331830939,-1.1590724983\C,0,-1.3432940256,-
 1.0273745754,-2.5758367577\C,0,-1.3956510267,0.258138652,-0.3773815817
 \N,0,-0.4603198057,1.2011798298,-0.9285568627\C,0,-0.9061538031,2.5176
 068368,-1.2106974451\C,0,-2.231372776,2.7312870119,-1.6364123346\C,0,-
 2.7075228758,4.0169450673,-1.8884976493\C,0,-1.8553970831,5.110523273,
 -1.7304054265\C,0,-0.528213569,4.9038290462,-1.3032333589\C,0,-0.05540
 27675,3.6289846389,-1.0340458557\C,0,0.2170589332,6.2343247392,-1.1835
 836969\C,0,1.428396452,6.2862543395,-2.1414200125\C,0,0.6816655074,6.4
 934680046,0.2669742571\C,0,-0.8708264941,7.2227505633,-1.6058221384\C,
 0,-0.8004601901,8.6076180832,-1.7006003201\C,0,-1.9313355711,9.3233449
 182,-2.1135226128\C,0,-3.1187409771,8.6537714657,-2.4260107822\C,0,-3.
 1968189366,7.2622405269,-2.3318023554\C,0,-2.0687018372,6.5484060685,-
 1.9209378019\C,0,0.8695133077,0.7836038833,-1.1724229025\C,0,1.6159757
 905,1.3144931008,-2.2461185121\C,0,2.9198650615,0.8945965846,-2.493374
 7704\C,0,3.4962576095,-0.0861270075,-1.6823926697\C,0,2.7460584145,-0.
 6337182089,-0.6260915066\C,0,1.4534821706,-0.2085804873,-0.3595873624\
 C,0,3.5629146659,-1.6952120227,0.1206773878\C,0,2.8991421384,-3.076087
 3321,0.1366566012\C,0,2.5100641962,-3.863136642,-0.9405659775\C,0,1.91
 91025713,-5.1064688576,-0.6907083889\C,0,1.724018216,-5.5505825959,0.6
 221810963\C,0,2.1132523259,-4.7602874595,1.7062501469\C,0,2.7028901792
 ,-3.5188120494,1.4586220623\C,0,3.2089274655,-2.4901985945,2.378218188
 4\C,0,3.247543979,-2.4469540866,3.773508944\C,0,3.7972800865,-1.325682
 7349,4.3987272117\C,0,4.3017605247,-0.2626542539,3.6411943765\C,0,4.26
 37062012,-0.3039290948,2.2431775587\C,0,3.7163466607,-1.4184331332,1.6
 190712591\C,0,4.8841720783,-1.6589226378,-0.6560268932\C,0,6.035721659
 7,-2.4053221801,-0.4417154549\C,0,7.135997184,-2.2094251498,-1.2846475
 253\C,0,7.0758159736,-1.2763150314,-2.3253345031\C,0,5.9191699579,-0.5
 237068605,-2.542256278\C,0,4.8196069321,-0.71767223,-1.702685068\H,0,-
 0.3096185414,1.6929452943,1.7587813619\H,0,-1.8222553275,2.5411742979,
 1.4606413509\H,0,-1.6937892134,1.435108403,2.8384447161\H,0,-3.1395572
 825,-0.3673008886,2.4699565635\H,0,-5.5761496364,-0.9363336905,1.76157
 52674\H,0,-7.3184465581,-2.4100329661,2.7256858002\H,0,-6.9688852885,-
 4.8755941096,2.7650630655\H,0,-1.9567071884,-3.9148719361,0.6543319741
 \H,0,-2.9277048319,-5.1993885619,-0.0450098908\H,0,-1.9196236957,-5.00
 43230654,2.830512577\H,0,-1.3909529111,-6.1522181112,1.6138593622\H,0,
 -3.447718661,-6.556297145,3.5469787382\H,0,-3.1108538285,-7.6195575556
 ,2.1918137361\H,0,-4.7837317598,-6.6248938018,0.8132311075\H,0,-5.5465
 609774,-6.7916158764,2.3868869302\H,0,-3.086705661,-2.5676860051,-1.20
 84666418\H,0,-0.309466494,-1.3932159944,-2.600266368\H,0,-1.3601140306
 ,-0.0884937869,-3.1392680683\H,0,-1.9689275198,-1.7556856605,-3.100760
 4175\H,0,-2.8890137322,1.8781316143,-1.7653969516\H,0,-3.7354243552,4.
 1520776044,-2.2158278084\H,0,0.9601049888,3.4740217527,-0.6827731801\H
 ,0,1.1198277635,6.1078260001,-3.1765549252\H,0,1.9168192194,7.26657965
 59,-2.094971969\H,0,2.1708779645,5.5270885453,-1.8688971682\H,0,1.1550
 382997,7.4786236286,0.3513723499\H,0,1.4144211378,5.7406553608,0.58026
 60133\H,0,-0.1626829843,6.459708247,0.9628644825\H,0,0.1185679478,9.13
 71770218,-1.4592597653\H,0,-1.8854862785,10.4063372271,-2.1915873416\H
 ,0,-3.9892143556,9.221174302,-2.7449696085\H,0,-4.1231241806,6.7477826
 34,-2.5754379582\H,0,1.160829907,2.0575428871,-2.8917322745\H,0,3.4700
 469588,1.3215614445,-3.328268236\H,0,0.8899512874,-0.6327501812,0.4651
 137869\H,0,2.6649127031,-3.5211512528,-1.96052939\H,0,1.6121487076,-5.
 7336500507,-1.5233730829\H,0,1.2698209175,-6.5218207832,0.8003096047\H
 ,0,1.9597755482,-5.1106452855,2.7237557416\H,0,2.8573288341,-3.2700482
 26,4.3668050645\H,0,3.8339577008,-1.278560709,5.4838817804\H,0,4.72737
 72099,0.6023779622,4.142688951\H,0,4.6570965241,0.5218455552,1.6562178
 892\H,0,6.0833720749,-3.1302090096,0.366740656\H,0,8.0433128755,-2.786
 6911443,-1.1287232706\H,0,7.9380356847,-1.1347057128,-2.9717597574\H,0
 ,5.8797982436,0.2006630126,-3.3519745107\\Version=ES64L-G16RevB.01\HF=
 -2293.3218495\RMSD=4.422e-09\PG=C01 [X(C58H47N1)]\\@


 Money is a good servant but a bad master.
                        -- French Proverb
 Job cpu time:       0 days 14 hours 54 minutes 32.4 seconds.
 Elapsed time:       0 days  2 hours  5 minutes 38.0 seconds.
 File lengths (MBytes):  RWF=   5161 Int=      0 D2E=      0 Chk=    195 Scr=      1
 Normal termination of Gaussian 16 at Sat Nov  5 12:16:23 2022.
