 Entering Gaussian System, Link 0=/home/wykgroup/appl/g16/g16
 Input=calculation/no_transfer_pubchem_sampling_8_b3lyp/157061245_rwf.com
 Output=calculation/no_transfer_pubchem_sampling_8_b3lyp/157061245_rwf.log
 Initial command:
 /home/wykgroup/appl/g16/l1.exe "/userdata/scratch/wykgroup/khs/calculation/no_transfer_pubchem_sampling_8_b3lyp/157061245_rwf/Gau-30654.inp" -scrdir="/userdata/scratch/wykgroup/khs/calculation/no_transfer_pubchem_sampling_8_b3lyp/157061245_rwf/"
 Entering Link 1 = /home/wykgroup/appl/g16/l1.exe PID=     30655.
  
 Copyright (c) 1988-2017, Gaussian, Inc.  All Rights Reserved.
  
 This is part of the Gaussian(R) 16 program.  It is based on
 the Gaussian(R) 09 system (copyright 2009, Gaussian, Inc.),
 the Gaussian(R) 03 system (copyright 2003, Gaussian, Inc.),
 the Gaussian(R) 98 system (copyright 1998, Gaussian, Inc.),
 the Gaussian(R) 94 system (copyright 1995, Gaussian, Inc.),
 the Gaussian 92(TM) system (copyright 1992, Gaussian, Inc.),
 the Gaussian 90(TM) system (copyright 1990, Gaussian, Inc.),
 the Gaussian 88(TM) system (copyright 1988, Gaussian, Inc.),
 the Gaussian 86(TM) system (copyright 1986, Carnegie Mellon
 University), and the Gaussian 82(TM) system (copyright 1983,
 Carnegie Mellon University). Gaussian is a federally registered
 trademark of Gaussian, Inc.
  
 This software contains proprietary and confidential information,
 including trade secrets, belonging to Gaussian, Inc.
  
 This software is provided under written license and may be
 used, copied, transmitted, or stored only in accord with that
 written license.
  
 The following legend is applicable only to US Government
 contracts under FAR:
  
                    RESTRICTED RIGHTS LEGEND
  
 Use, reproduction and disclosure by the US Government is
 subject to restrictions as set forth in subparagraphs (a)
 and (c) of the Commercial Computer Software - Restricted
 Rights clause in FAR 52.227-19.
  
 Gaussian, Inc.
 340 Quinnipiac St., Bldg. 40, Wallingford CT 06492
  
  
 ---------------------------------------------------------------
 Warning -- This program may not be used in any manner that
 competes with the business of Gaussian, Inc. or will provide
 assistance to any competitor of Gaussian, Inc.  The licensee
 of this program is prohibited from giving any competitor of
 Gaussian, Inc. access to this program.  By using this program,
 the user acknowledges that Gaussian, Inc. is engaged in the
 business of creating and licensing software in the field of
 computational chemistry and represents and warrants to the
 licensee that it is not a competitor of Gaussian, Inc. and that
 it will not use this program in any manner prohibited above.
 ---------------------------------------------------------------
  

 Cite this work as:
 Gaussian 16, Revision B.01,
 M. J. Frisch, G. W. Trucks, H. B. Schlegel, G. E. Scuseria, 
 M. A. Robb, J. R. Cheeseman, G. Scalmani, V. Barone, 
 G. A. Petersson, H. Nakatsuji, X. Li, M. Caricato, A. V. Marenich, 
 J. Bloino, B. G. Janesko, R. Gomperts, B. Mennucci, H. P. Hratchian, 
 J. V. Ortiz, A. F. Izmaylov, J. L. Sonnenberg, D. Williams-Young, 
 F. Ding, F. Lipparini, F. Egidi, J. Goings, B. Peng, A. Petrone, 
 T. Henderson, D. Ranasinghe, V. G. Zakrzewski, J. Gao, N. Rega, 
 G. Zheng, W. Liang, M. Hada, M. Ehara, K. Toyota, R. Fukuda, 
 J. Hasegawa, M. Ishida, T. Nakajima, Y. Honda, O. Kitao, H. Nakai, 
 T. Vreven, K. Throssell, J. A. Montgomery, Jr., J. E. Peralta, 
 F. Ogliaro, M. J. Bearpark, J. J. Heyd, E. N. Brothers, K. N. Kudin, 
 V. N. Staroverov, T. A. Keith, R. Kobayashi, J. Normand, 
 K. Raghavachari, A. P. Rendell, J. C. Burant, S. S. Iyengar, 
 J. Tomasi, M. Cossi, J. M. Millam, M. Klene, C. Adamo, R. Cammi, 
 J. W. Ochterski, R. L. Martin, K. Morokuma, O. Farkas, 
 J. B. Foresman, and D. J. Fox, Gaussian, Inc., Wallingford CT, 2016.
 
 ******************************************
 Gaussian 16:  ES64L-G16RevB.01 20-Dec-2017
                 5-Nov-2022 
 ******************************************
 %chk=calculation/no_transfer_pubchem_sampling_8_b3lyp/157061245_rwf.chk
 %rwf=calculation/no_transfer_pubchem_sampling_8_b3lyp/157061245_rwf.rwf
 %nprocshared=14
 Will use up to   14 processors via shared memory.
 %mem=3GB
 -------------------------------------------------------------------
 #p b3lyp/6-31g(d) 6D 10F nosymm GFInput td=(50-50,nstate=2) SCF=XQC
 -------------------------------------------------------------------
 1/38=1,172=1/1;
 2/12=2,15=1,17=6,18=5,40=1/2;
 3/5=1,6=6,7=1,8=22,11=9,24=10,25=1,30=1,74=-5/1,2,3,8;
 4//1;
 5/5=2,8=3,13=1,38=5/2,8;
 8/6=1,10=2,108=2/1;
 9/41=2,42=1,48=2,70=2/14;
 6/7=2,8=2,9=2,10=2/1;
 99/5=1,9=1/99;
 Leave Link    1 at Sat Nov  5 10:12:56 2022, MaxMem=   402653184 cpu:               4.7 elap:               0.4
 (Enter /home/wykgroup/appl/g16/l101.exe)
 ------------------------------
 Gaussian input prepared by ASE
 ------------------------------
 Symbolic Z-matrix:
 Charge =  0 Multiplicity = 1
 C                    -6.18227  -2.58262  -1.86187 
 C                    -6.66438  -1.74952  -0.84628 
 C                    -5.81274  -0.82224  -0.25914 
 C                    -4.45783  -0.67986  -0.64406 
 C                    -3.99128  -1.58639  -1.62553 
 C                    -4.84867  -2.50993  -2.24445 
 S                    -2.30738  -1.6392   -2.1779 
 C                    -1.39263  -0.8076   -0.9084 
 C                    -0.01886  -1.05741  -0.92497 
 C                     0.8069   -0.4334    0.01456 
 N                     2.19861  -0.69628   0.02414 
 C                     2.85965  -1.91234  -0.26948 
 C                     2.36926  -3.18905  -0.52868 
 C                     3.29457  -4.21445  -0.7548 
 C                     4.67232  -3.9788   -0.71333 
 C                     5.17438  -2.70593  -0.42546 
 C                     4.2572   -1.68785  -0.20046 
 N                     4.41716  -0.3494    0.14745 
 C                     5.35562   0.64325   0.4251 
 C                     6.74691   0.66675   0.4396 
 C                     7.35295   1.87825   0.77566 
 C                     6.5872    3.01647   1.08298 
 C                     5.19357   2.98555   1.06578 
 C                     4.56015   1.78534   0.7324 
 N                     3.19218   1.50616   0.65014 
 C                     3.17719   0.24803   0.3018 
 C                     0.26992   0.46834   0.93591 
 C                    -1.10243   0.72842   0.91792 
 C                    -1.99265   0.09204   0.01149 
 B                    -3.51057   0.36609   0.01833 
 C                    -4.03013   1.67284   0.68602 
 C                    -5.26622   2.26421   0.32806 
 C                    -5.73774   3.429     0.9191 
 C                    -4.97566   4.05595   1.91172 
 C                    -3.73746   3.53734   2.26762 
 C                    -3.25896   2.3727    1.64511 
 S                    -1.64523   1.86045   2.16462 
 H                    -6.83848  -3.30795  -2.33563 
 H                    -7.69685  -1.82827  -0.51754 
 H                    -6.19377  -0.1911    0.53726 
 H                    -4.46141  -3.18577  -3.00245 
 H                     0.40596  -1.71774  -1.67171 
 H                     1.30583  -3.39482  -0.53988 
 H                     2.92701  -5.21493  -0.96199 
 H                     5.36479  -4.79477  -0.89622 
 H                     6.24167  -2.52024  -0.36986 
 H                     7.33933  -0.21124   0.2015 
 H                     8.4371    1.94018   0.79888 
 H                     7.09535   3.94197   1.33933 
 H                     4.60206   3.8645    1.30208 
 H                     0.9259    0.9861    1.62552 
 H                    -5.85791   1.79547  -0.45162 
 H                    -6.68972   3.85203   0.61085 
 H                    -5.33442   4.96467   2.38783 
 H                    -3.12507   4.04703   3.00683 
 
 ITRead=  0  0  0  0  0  0  0  0  0  0  0  0  0  0  0  0  0  0  0  0
 ITRead=  0  0  0  0  0  0  0  0  0  0  0  0  0  0  0  0  0  0  0  0
 ITRead=  0  0  0  0  0  0  0  0  0  0  0  0  0  0  0
 MicOpt= -1 -1 -1 -1 -1 -1 -1 -1 -1 -1 -1 -1 -1 -1 -1 -1 -1 -1 -1 -1
 MicOpt= -1 -1 -1 -1 -1 -1 -1 -1 -1 -1 -1 -1 -1 -1 -1 -1 -1 -1 -1 -1
 MicOpt= -1 -1 -1 -1 -1 -1 -1 -1 -1 -1 -1 -1 -1 -1 -1
 NAtoms=     55 NQM=       55 NQMF=       0 NMMI=      0 NMMIF=      0
                NMic=       0 NMicF=      0.
                    Isotopes and Nuclear Properties:
 (Nuclear quadrupole moments (NQMom) in fm**2, nuclear magnetic moments (NMagM)
  in nuclear magnetons)

  Atom         1           2           3           4           5           6           7           8           9          10
 IAtWgt=          12          12          12          12          12          12          32          12          12          12
 AtmWgt=  12.0000000  12.0000000  12.0000000  12.0000000  12.0000000  12.0000000  31.9720718  12.0000000  12.0000000  12.0000000
 NucSpn=           0           0           0           0           0           0           0           0           0           0
 AtZEff=  -0.0000000  -0.0000000  -0.0000000  -0.0000000  -0.0000000  -0.0000000  -0.0000000  -0.0000000  -0.0000000  -0.0000000
 NQMom=    0.0000000   0.0000000   0.0000000   0.0000000   0.0000000   0.0000000   0.0000000   0.0000000   0.0000000   0.0000000
 NMagM=    0.0000000   0.0000000   0.0000000   0.0000000   0.0000000   0.0000000   0.0000000   0.0000000   0.0000000   0.0000000
 AtZNuc=   6.0000000   6.0000000   6.0000000   6.0000000   6.0000000   6.0000000  16.0000000   6.0000000   6.0000000   6.0000000

  Atom        11          12          13          14          15          16          17          18          19          20
 IAtWgt=          14          12          12          12          12          12          12          14          12          12
 AtmWgt=  14.0030740  12.0000000  12.0000000  12.0000000  12.0000000  12.0000000  12.0000000  14.0030740  12.0000000  12.0000000
 NucSpn=           2           0           0           0           0           0           0           2           0           0
 AtZEff=  -0.0000000  -0.0000000  -0.0000000  -0.0000000  -0.0000000  -0.0000000  -0.0000000  -0.0000000  -0.0000000  -0.0000000
 NQMom=    2.0440000   0.0000000   0.0000000   0.0000000   0.0000000   0.0000000   0.0000000   2.0440000   0.0000000   0.0000000
 NMagM=    0.4037610   0.0000000   0.0000000   0.0000000   0.0000000   0.0000000   0.0000000   0.4037610   0.0000000   0.0000000
 AtZNuc=   7.0000000   6.0000000   6.0000000   6.0000000   6.0000000   6.0000000   6.0000000   7.0000000   6.0000000   6.0000000

  Atom        21          22          23          24          25          26          27          28          29          30
 IAtWgt=          12          12          12          12          14          12          12          12          12          11
 AtmWgt=  12.0000000  12.0000000  12.0000000  12.0000000  14.0030740  12.0000000  12.0000000  12.0000000  12.0000000  11.0093053
 NucSpn=           0           0           0           0           2           0           0           0           0           3
 AtZEff=  -0.0000000  -0.0000000  -0.0000000  -0.0000000  -0.0000000  -0.0000000  -0.0000000  -0.0000000  -0.0000000  -0.0000000
 NQMom=    0.0000000   0.0000000   0.0000000   0.0000000   2.0440000   0.0000000   0.0000000   0.0000000   0.0000000   4.0590000
 NMagM=    0.0000000   0.0000000   0.0000000   0.0000000   0.4037610   0.0000000   0.0000000   0.0000000   0.0000000   2.6886370
 AtZNuc=   6.0000000   6.0000000   6.0000000   6.0000000   7.0000000   6.0000000   6.0000000   6.0000000   6.0000000   5.0000000

  Atom        31          32          33          34          35          36          37          38          39          40
 IAtWgt=          12          12          12          12          12          12          32           1           1           1
 AtmWgt=  12.0000000  12.0000000  12.0000000  12.0000000  12.0000000  12.0000000  31.9720718   1.0078250   1.0078250   1.0078250
 NucSpn=           0           0           0           0           0           0           0           1           1           1
 AtZEff=  -0.0000000  -0.0000000  -0.0000000  -0.0000000  -0.0000000  -0.0000000  -0.0000000  -0.0000000  -0.0000000  -0.0000000
 NQMom=    0.0000000   0.0000000   0.0000000   0.0000000   0.0000000   0.0000000   0.0000000   0.0000000   0.0000000   0.0000000
 NMagM=    0.0000000   0.0000000   0.0000000   0.0000000   0.0000000   0.0000000   0.0000000   2.7928460   2.7928460   2.7928460
 AtZNuc=   6.0000000   6.0000000   6.0000000   6.0000000   6.0000000   6.0000000  16.0000000   1.0000000   1.0000000   1.0000000

  Atom        41          42          43          44          45          46          47          48          49          50
 IAtWgt=           1           1           1           1           1           1           1           1           1           1
 AtmWgt=   1.0078250   1.0078250   1.0078250   1.0078250   1.0078250   1.0078250   1.0078250   1.0078250   1.0078250   1.0078250
 NucSpn=           1           1           1           1           1           1           1           1           1           1
 AtZEff=  -0.0000000  -0.0000000  -0.0000000  -0.0000000  -0.0000000  -0.0000000  -0.0000000  -0.0000000  -0.0000000  -0.0000000
 NQMom=    0.0000000   0.0000000   0.0000000   0.0000000   0.0000000   0.0000000   0.0000000   0.0000000   0.0000000   0.0000000
 NMagM=    2.7928460   2.7928460   2.7928460   2.7928460   2.7928460   2.7928460   2.7928460   2.7928460   2.7928460   2.7928460
 AtZNuc=   1.0000000   1.0000000   1.0000000   1.0000000   1.0000000   1.0000000   1.0000000   1.0000000   1.0000000   1.0000000

  Atom        51          52          53          54          55
 IAtWgt=           1           1           1           1           1
 AtmWgt=   1.0078250   1.0078250   1.0078250   1.0078250   1.0078250
 NucSpn=           1           1           1           1           1
 AtZEff=  -0.0000000  -0.0000000  -0.0000000  -0.0000000  -0.0000000
 NQMom=    0.0000000   0.0000000   0.0000000   0.0000000   0.0000000
 NMagM=    2.7928460   2.7928460   2.7928460   2.7928460   2.7928460
 AtZNuc=   1.0000000   1.0000000   1.0000000   1.0000000   1.0000000
 Leave Link  101 at Sat Nov  5 10:12:56 2022, MaxMem=   402653184 cpu:               1.6 elap:               0.1
 (Enter /home/wykgroup/appl/g16/l202.exe)
 Symmetry turned off by external request.
 Stoichiometry    C31H18BN3S2
 Framework group  C1[X(C31H18BN3S2)]
 Deg. of freedom   159
 Full point group                 C1      NOp   1
                          Input orientation:                          
 ---------------------------------------------------------------------
 Center     Atomic      Atomic             Coordinates (Angstroms)
 Number     Number       Type             X           Y           Z
 ---------------------------------------------------------------------
      1          6           0       -6.182272   -2.582618   -1.861866
      2          6           0       -6.664383   -1.749517   -0.846275
      3          6           0       -5.812744   -0.822244   -0.259139
      4          6           0       -4.457833   -0.679856   -0.644058
      5          6           0       -3.991276   -1.586389   -1.625526
      6          6           0       -4.848669   -2.509927   -2.244448
      7         16           0       -2.307378   -1.639201   -2.177900
      8          6           0       -1.392629   -0.807604   -0.908401
      9          6           0       -0.018863   -1.057408   -0.924973
     10          6           0        0.806904   -0.433395    0.014555
     11          7           0        2.198613   -0.696281    0.024140
     12          6           0        2.859646   -1.912342   -0.269476
     13          6           0        2.369258   -3.189046   -0.528676
     14          6           0        3.294570   -4.214453   -0.754798
     15          6           0        4.672319   -3.978805   -0.713329
     16          6           0        5.174376   -2.705934   -0.425459
     17          6           0        4.257196   -1.687847   -0.200461
     18          7           0        4.417158   -0.349400    0.147446
     19          6           0        5.355615    0.643249    0.425101
     20          6           0        6.746912    0.666755    0.439597
     21          6           0        7.352946    1.878249    0.775664
     22          6           0        6.587205    3.016467    1.082978
     23          6           0        5.193571    2.985547    1.065781
     24          6           0        4.560152    1.785338    0.732397
     25          7           0        3.192176    1.506163    0.650141
     26          6           0        3.177193    0.248034    0.301801
     27          6           0        0.269921    0.468341    0.935913
     28          6           0       -1.102433    0.728423    0.917921
     29          6           0       -1.992650    0.092036    0.011486
     30          5           0       -3.510570    0.366086    0.018333
     31          6           0       -4.030130    1.672835    0.686016
     32          6           0       -5.266222    2.264214    0.328063
     33          6           0       -5.737737    3.428996    0.919097
     34          6           0       -4.975661    4.055951    1.911722
     35          6           0       -3.737462    3.537337    2.267619
     36          6           0       -3.258958    2.372698    1.645106
     37         16           0       -1.645226    1.860447    2.164622
     38          1           0       -6.838477   -3.307951   -2.335629
     39          1           0       -7.696853   -1.828268   -0.517538
     40          1           0       -6.193770   -0.191104    0.537258
     41          1           0       -4.461409   -3.185775   -3.002446
     42          1           0        0.405958   -1.717736   -1.671713
     43          1           0        1.305832   -3.394821   -0.539876
     44          1           0        2.927009   -5.214932   -0.961992
     45          1           0        5.364786   -4.794772   -0.896221
     46          1           0        6.241667   -2.520238   -0.369858
     47          1           0        7.339327   -0.211238    0.201495
     48          1           0        8.437101    1.940175    0.798882
     49          1           0        7.095355    3.941971    1.339334
     50          1           0        4.602055    3.864496    1.302075
     51          1           0        0.925903    0.986095    1.625521
     52          1           0       -5.857907    1.795472   -0.451617
     53          1           0       -6.689723    3.852030    0.610849
     54          1           0       -5.334424    4.964671    2.387832
     55          1           0       -3.125066    4.047026    3.006828
 ---------------------------------------------------------------------
 Rotational constants (GHZ):           0.1641936           0.0548050           0.0424001
 Leave Link  202 at Sat Nov  5 10:12:56 2022, MaxMem=   402653184 cpu:               1.1 elap:               0.1
 (Enter /home/wykgroup/appl/g16/l301.exe)
 Standard basis: 6-31G(d) (6D, 10F)
 Ernie: Thresh=  0.10000D-02 Tol=  0.10000D-05 Strict=F.
 AO basis set in the form of general basis input (Overlap normalization):
      1 0
 S   6 1.00       0.000000000000
      0.3047524880D+04  0.1834737132D-02
      0.4573695180D+03  0.1403732281D-01
      0.1039486850D+03  0.6884262226D-01
      0.2921015530D+02  0.2321844432D+00
      0.9286662960D+01  0.4679413484D+00
      0.3163926960D+01  0.3623119853D+00
 SP   3 1.00       0.000000000000
      0.7868272350D+01 -0.1193324198D+00  0.6899906659D-01
      0.1881288540D+01 -0.1608541517D+00  0.3164239610D+00
      0.5442492580D+00  0.1143456438D+01  0.7443082909D+00
 SP   1 1.00       0.000000000000
      0.1687144782D+00  0.1000000000D+01  0.1000000000D+01
 D   1 1.00       0.000000000000
      0.8000000000D+00  0.1000000000D+01
 ****
      2 0
 S   6 1.00       0.000000000000
      0.3047524880D+04  0.1834737132D-02
      0.4573695180D+03  0.1403732281D-01
      0.1039486850D+03  0.6884262226D-01
      0.2921015530D+02  0.2321844432D+00
      0.9286662960D+01  0.4679413484D+00
      0.3163926960D+01  0.3623119853D+00
 SP   3 1.00       0.000000000000
      0.7868272350D+01 -0.1193324198D+00  0.6899906659D-01
      0.1881288540D+01 -0.1608541517D+00  0.3164239610D+00
      0.5442492580D+00  0.1143456438D+01  0.7443082909D+00
 SP   1 1.00       0.000000000000
      0.1687144782D+00  0.1000000000D+01  0.1000000000D+01
 D   1 1.00       0.000000000000
      0.8000000000D+00  0.1000000000D+01
 ****
      3 0
 S   6 1.00       0.000000000000
      0.3047524880D+04  0.1834737132D-02
      0.4573695180D+03  0.1403732281D-01
      0.1039486850D+03  0.6884262226D-01
      0.2921015530D+02  0.2321844432D+00
      0.9286662960D+01  0.4679413484D+00
      0.3163926960D+01  0.3623119853D+00
 SP   3 1.00       0.000000000000
      0.7868272350D+01 -0.1193324198D+00  0.6899906659D-01
      0.1881288540D+01 -0.1608541517D+00  0.3164239610D+00
      0.5442492580D+00  0.1143456438D+01  0.7443082909D+00
 SP   1 1.00       0.000000000000
      0.1687144782D+00  0.1000000000D+01  0.1000000000D+01
 D   1 1.00       0.000000000000
      0.8000000000D+00  0.1000000000D+01
 ****
      4 0
 S   6 1.00       0.000000000000
      0.3047524880D+04  0.1834737132D-02
      0.4573695180D+03  0.1403732281D-01
      0.1039486850D+03  0.6884262226D-01
      0.2921015530D+02  0.2321844432D+00
      0.9286662960D+01  0.4679413484D+00
      0.3163926960D+01  0.3623119853D+00
 SP   3 1.00       0.000000000000
      0.7868272350D+01 -0.1193324198D+00  0.6899906659D-01
      0.1881288540D+01 -0.1608541517D+00  0.3164239610D+00
      0.5442492580D+00  0.1143456438D+01  0.7443082909D+00
 SP   1 1.00       0.000000000000
      0.1687144782D+00  0.1000000000D+01  0.1000000000D+01
 D   1 1.00       0.000000000000
      0.8000000000D+00  0.1000000000D+01
 ****
      5 0
 S   6 1.00       0.000000000000
      0.3047524880D+04  0.1834737132D-02
      0.4573695180D+03  0.1403732281D-01
      0.1039486850D+03  0.6884262226D-01
      0.2921015530D+02  0.2321844432D+00
      0.9286662960D+01  0.4679413484D+00
      0.3163926960D+01  0.3623119853D+00
 SP   3 1.00       0.000000000000
      0.7868272350D+01 -0.1193324198D+00  0.6899906659D-01
      0.1881288540D+01 -0.1608541517D+00  0.3164239610D+00
      0.5442492580D+00  0.1143456438D+01  0.7443082909D+00
 SP   1 1.00       0.000000000000
      0.1687144782D+00  0.1000000000D+01  0.1000000000D+01
 D   1 1.00       0.000000000000
      0.8000000000D+00  0.1000000000D+01
 ****
      6 0
 S   6 1.00       0.000000000000
      0.3047524880D+04  0.1834737132D-02
      0.4573695180D+03  0.1403732281D-01
      0.1039486850D+03  0.6884262226D-01
      0.2921015530D+02  0.2321844432D+00
      0.9286662960D+01  0.4679413484D+00
      0.3163926960D+01  0.3623119853D+00
 SP   3 1.00       0.000000000000
      0.7868272350D+01 -0.1193324198D+00  0.6899906659D-01
      0.1881288540D+01 -0.1608541517D+00  0.3164239610D+00
      0.5442492580D+00  0.1143456438D+01  0.7443082909D+00
 SP   1 1.00       0.000000000000
      0.1687144782D+00  0.1000000000D+01  0.1000000000D+01
 D   1 1.00       0.000000000000
      0.8000000000D+00  0.1000000000D+01
 ****
      7 0
 S   6 1.00       0.000000000000
      0.2191710000D+05  0.1869240849D-02
      0.3301490000D+04  0.1423030646D-01
      0.7541460000D+03  0.6969623166D-01
      0.2127110000D+03  0.2384871083D+00
      0.6798960000D+02  0.4833072195D+00
      0.2305150000D+02  0.3380741536D+00
 SP   6 1.00       0.000000000000
      0.4237350000D+03 -0.2376770499D-02  0.4061009982D-02
      0.1007100000D+03 -0.3169300665D-01  0.3068129986D-01
      0.3215990000D+02 -0.1133170238D+00  0.1304519994D+00
      0.1180790000D+02  0.5609001177D-01  0.3272049985D+00
      0.4631100000D+01  0.5922551243D+00  0.4528509980D+00
      0.1870250000D+01  0.4550060955D+00  0.2560419989D+00
 SP   3 1.00       0.000000000000
      0.2615840000D+01 -0.2503731142D+00 -0.1451048955D-01
      0.9221670000D+00  0.6695676310D-01  0.3102627765D+00
      0.3412870000D+00  0.1054506269D+01  0.7544824565D+00
 SP   1 1.00       0.000000000000
      0.1171670000D+00  0.1000000000D+01  0.1000000000D+01
 D   1 1.00       0.000000000000
      0.6500000000D+00  0.1000000000D+01
 ****
      8 0
 S   6 1.00       0.000000000000
      0.3047524880D+04  0.1834737132D-02
      0.4573695180D+03  0.1403732281D-01
      0.1039486850D+03  0.6884262226D-01
      0.2921015530D+02  0.2321844432D+00
      0.9286662960D+01  0.4679413484D+00
      0.3163926960D+01  0.3623119853D+00
 SP   3 1.00       0.000000000000
      0.7868272350D+01 -0.1193324198D+00  0.6899906659D-01
      0.1881288540D+01 -0.1608541517D+00  0.3164239610D+00
      0.5442492580D+00  0.1143456438D+01  0.7443082909D+00
 SP   1 1.00       0.000000000000
      0.1687144782D+00  0.1000000000D+01  0.1000000000D+01
 D   1 1.00       0.000000000000
      0.8000000000D+00  0.1000000000D+01
 ****
      9 0
 S   6 1.00       0.000000000000
      0.3047524880D+04  0.1834737132D-02
      0.4573695180D+03  0.1403732281D-01
      0.1039486850D+03  0.6884262226D-01
      0.2921015530D+02  0.2321844432D+00
      0.9286662960D+01  0.4679413484D+00
      0.3163926960D+01  0.3623119853D+00
 SP   3 1.00       0.000000000000
      0.7868272350D+01 -0.1193324198D+00  0.6899906659D-01
      0.1881288540D+01 -0.1608541517D+00  0.3164239610D+00
      0.5442492580D+00  0.1143456438D+01  0.7443082909D+00
 SP   1 1.00       0.000000000000
      0.1687144782D+00  0.1000000000D+01  0.1000000000D+01
 D   1 1.00       0.000000000000
      0.8000000000D+00  0.1000000000D+01
 ****
     10 0
 S   6 1.00       0.000000000000
      0.3047524880D+04  0.1834737132D-02
      0.4573695180D+03  0.1403732281D-01
      0.1039486850D+03  0.6884262226D-01
      0.2921015530D+02  0.2321844432D+00
      0.9286662960D+01  0.4679413484D+00
      0.3163926960D+01  0.3623119853D+00
 SP   3 1.00       0.000000000000
      0.7868272350D+01 -0.1193324198D+00  0.6899906659D-01
      0.1881288540D+01 -0.1608541517D+00  0.3164239610D+00
      0.5442492580D+00  0.1143456438D+01  0.7443082909D+00
 SP   1 1.00       0.000000000000
      0.1687144782D+00  0.1000000000D+01  0.1000000000D+01
 D   1 1.00       0.000000000000
      0.8000000000D+00  0.1000000000D+01
 ****
     11 0
 S   6 1.00       0.000000000000
      0.4173511460D+04  0.1834772160D-02
      0.6274579110D+03  0.1399462700D-01
      0.1429020930D+03  0.6858655181D-01
      0.4023432930D+02  0.2322408730D+00
      0.1282021290D+02  0.4690699481D+00
      0.4390437010D+01  0.3604551991D+00
 SP   3 1.00       0.000000000000
      0.1162636186D+02 -0.1149611817D+00  0.6757974388D-01
      0.2716279807D+01 -0.1691174786D+00  0.3239072959D+00
      0.7722183966D+00  0.1145851947D+01  0.7408951398D+00
 SP   1 1.00       0.000000000000
      0.2120314975D+00  0.1000000000D+01  0.1000000000D+01
 D   1 1.00       0.000000000000
      0.8000000000D+00  0.1000000000D+01
 ****
     12 0
 S   6 1.00       0.000000000000
      0.3047524880D+04  0.1834737132D-02
      0.4573695180D+03  0.1403732281D-01
      0.1039486850D+03  0.6884262226D-01
      0.2921015530D+02  0.2321844432D+00
      0.9286662960D+01  0.4679413484D+00
      0.3163926960D+01  0.3623119853D+00
 SP   3 1.00       0.000000000000
      0.7868272350D+01 -0.1193324198D+00  0.6899906659D-01
      0.1881288540D+01 -0.1608541517D+00  0.3164239610D+00
      0.5442492580D+00  0.1143456438D+01  0.7443082909D+00
 SP   1 1.00       0.000000000000
      0.1687144782D+00  0.1000000000D+01  0.1000000000D+01
 D   1 1.00       0.000000000000
      0.8000000000D+00  0.1000000000D+01
 ****
     13 0
 S   6 1.00       0.000000000000
      0.3047524880D+04  0.1834737132D-02
      0.4573695180D+03  0.1403732281D-01
      0.1039486850D+03  0.6884262226D-01
      0.2921015530D+02  0.2321844432D+00
      0.9286662960D+01  0.4679413484D+00
      0.3163926960D+01  0.3623119853D+00
 SP   3 1.00       0.000000000000
      0.7868272350D+01 -0.1193324198D+00  0.6899906659D-01
      0.1881288540D+01 -0.1608541517D+00  0.3164239610D+00
      0.5442492580D+00  0.1143456438D+01  0.7443082909D+00
 SP   1 1.00       0.000000000000
      0.1687144782D+00  0.1000000000D+01  0.1000000000D+01
 D   1 1.00       0.000000000000
      0.8000000000D+00  0.1000000000D+01
 ****
     14 0
 S   6 1.00       0.000000000000
      0.3047524880D+04  0.1834737132D-02
      0.4573695180D+03  0.1403732281D-01
      0.1039486850D+03  0.6884262226D-01
      0.2921015530D+02  0.2321844432D+00
      0.9286662960D+01  0.4679413484D+00
      0.3163926960D+01  0.3623119853D+00
 SP   3 1.00       0.000000000000
      0.7868272350D+01 -0.1193324198D+00  0.6899906659D-01
      0.1881288540D+01 -0.1608541517D+00  0.3164239610D+00
      0.5442492580D+00  0.1143456438D+01  0.7443082909D+00
 SP   1 1.00       0.000000000000
      0.1687144782D+00  0.1000000000D+01  0.1000000000D+01
 D   1 1.00       0.000000000000
      0.8000000000D+00  0.1000000000D+01
 ****
     15 0
 S   6 1.00       0.000000000000
      0.3047524880D+04  0.1834737132D-02
      0.4573695180D+03  0.1403732281D-01
      0.1039486850D+03  0.6884262226D-01
      0.2921015530D+02  0.2321844432D+00
      0.9286662960D+01  0.4679413484D+00
      0.3163926960D+01  0.3623119853D+00
 SP   3 1.00       0.000000000000
      0.7868272350D+01 -0.1193324198D+00  0.6899906659D-01
      0.1881288540D+01 -0.1608541517D+00  0.3164239610D+00
      0.5442492580D+00  0.1143456438D+01  0.7443082909D+00
 SP   1 1.00       0.000000000000
      0.1687144782D+00  0.1000000000D+01  0.1000000000D+01
 D   1 1.00       0.000000000000
      0.8000000000D+00  0.1000000000D+01
 ****
     16 0
 S   6 1.00       0.000000000000
      0.3047524880D+04  0.1834737132D-02
      0.4573695180D+03  0.1403732281D-01
      0.1039486850D+03  0.6884262226D-01
      0.2921015530D+02  0.2321844432D+00
      0.9286662960D+01  0.4679413484D+00
      0.3163926960D+01  0.3623119853D+00
 SP   3 1.00       0.000000000000
      0.7868272350D+01 -0.1193324198D+00  0.6899906659D-01
      0.1881288540D+01 -0.1608541517D+00  0.3164239610D+00
      0.5442492580D+00  0.1143456438D+01  0.7443082909D+00
 SP   1 1.00       0.000000000000
      0.1687144782D+00  0.1000000000D+01  0.1000000000D+01
 D   1 1.00       0.000000000000
      0.8000000000D+00  0.1000000000D+01
 ****
     17 0
 S   6 1.00       0.000000000000
      0.3047524880D+04  0.1834737132D-02
      0.4573695180D+03  0.1403732281D-01
      0.1039486850D+03  0.6884262226D-01
      0.2921015530D+02  0.2321844432D+00
      0.9286662960D+01  0.4679413484D+00
      0.3163926960D+01  0.3623119853D+00
 SP   3 1.00       0.000000000000
      0.7868272350D+01 -0.1193324198D+00  0.6899906659D-01
      0.1881288540D+01 -0.1608541517D+00  0.3164239610D+00
      0.5442492580D+00  0.1143456438D+01  0.7443082909D+00
 SP   1 1.00       0.000000000000
      0.1687144782D+00  0.1000000000D+01  0.1000000000D+01
 D   1 1.00       0.000000000000
      0.8000000000D+00  0.1000000000D+01
 ****
     18 0
 S   6 1.00       0.000000000000
      0.4173511460D+04  0.1834772160D-02
      0.6274579110D+03  0.1399462700D-01
      0.1429020930D+03  0.6858655181D-01
      0.4023432930D+02  0.2322408730D+00
      0.1282021290D+02  0.4690699481D+00
      0.4390437010D+01  0.3604551991D+00
 SP   3 1.00       0.000000000000
      0.1162636186D+02 -0.1149611817D+00  0.6757974388D-01
      0.2716279807D+01 -0.1691174786D+00  0.3239072959D+00
      0.7722183966D+00  0.1145851947D+01  0.7408951398D+00
 SP   1 1.00       0.000000000000
      0.2120314975D+00  0.1000000000D+01  0.1000000000D+01
 D   1 1.00       0.000000000000
      0.8000000000D+00  0.1000000000D+01
 ****
     19 0
 S   6 1.00       0.000000000000
      0.3047524880D+04  0.1834737132D-02
      0.4573695180D+03  0.1403732281D-01
      0.1039486850D+03  0.6884262226D-01
      0.2921015530D+02  0.2321844432D+00
      0.9286662960D+01  0.4679413484D+00
      0.3163926960D+01  0.3623119853D+00
 SP   3 1.00       0.000000000000
      0.7868272350D+01 -0.1193324198D+00  0.6899906659D-01
      0.1881288540D+01 -0.1608541517D+00  0.3164239610D+00
      0.5442492580D+00  0.1143456438D+01  0.7443082909D+00
 SP   1 1.00       0.000000000000
      0.1687144782D+00  0.1000000000D+01  0.1000000000D+01
 D   1 1.00       0.000000000000
      0.8000000000D+00  0.1000000000D+01
 ****
     20 0
 S   6 1.00       0.000000000000
      0.3047524880D+04  0.1834737132D-02
      0.4573695180D+03  0.1403732281D-01
      0.1039486850D+03  0.6884262226D-01
      0.2921015530D+02  0.2321844432D+00
      0.9286662960D+01  0.4679413484D+00
      0.3163926960D+01  0.3623119853D+00
 SP   3 1.00       0.000000000000
      0.7868272350D+01 -0.1193324198D+00  0.6899906659D-01
      0.1881288540D+01 -0.1608541517D+00  0.3164239610D+00
      0.5442492580D+00  0.1143456438D+01  0.7443082909D+00
 SP   1 1.00       0.000000000000
      0.1687144782D+00  0.1000000000D+01  0.1000000000D+01
 D   1 1.00       0.000000000000
      0.8000000000D+00  0.1000000000D+01
 ****
     21 0
 S   6 1.00       0.000000000000
      0.3047524880D+04  0.1834737132D-02
      0.4573695180D+03  0.1403732281D-01
      0.1039486850D+03  0.6884262226D-01
      0.2921015530D+02  0.2321844432D+00
      0.9286662960D+01  0.4679413484D+00
      0.3163926960D+01  0.3623119853D+00
 SP   3 1.00       0.000000000000
      0.7868272350D+01 -0.1193324198D+00  0.6899906659D-01
      0.1881288540D+01 -0.1608541517D+00  0.3164239610D+00
      0.5442492580D+00  0.1143456438D+01  0.7443082909D+00
 SP   1 1.00       0.000000000000
      0.1687144782D+00  0.1000000000D+01  0.1000000000D+01
 D   1 1.00       0.000000000000
      0.8000000000D+00  0.1000000000D+01
 ****
     22 0
 S   6 1.00       0.000000000000
      0.3047524880D+04  0.1834737132D-02
      0.4573695180D+03  0.1403732281D-01
      0.1039486850D+03  0.6884262226D-01
      0.2921015530D+02  0.2321844432D+00
      0.9286662960D+01  0.4679413484D+00
      0.3163926960D+01  0.3623119853D+00
 SP   3 1.00       0.000000000000
      0.7868272350D+01 -0.1193324198D+00  0.6899906659D-01
      0.1881288540D+01 -0.1608541517D+00  0.3164239610D+00
      0.5442492580D+00  0.1143456438D+01  0.7443082909D+00
 SP   1 1.00       0.000000000000
      0.1687144782D+00  0.1000000000D+01  0.1000000000D+01
 D   1 1.00       0.000000000000
      0.8000000000D+00  0.1000000000D+01
 ****
     23 0
 S   6 1.00       0.000000000000
      0.3047524880D+04  0.1834737132D-02
      0.4573695180D+03  0.1403732281D-01
      0.1039486850D+03  0.6884262226D-01
      0.2921015530D+02  0.2321844432D+00
      0.9286662960D+01  0.4679413484D+00
      0.3163926960D+01  0.3623119853D+00
 SP   3 1.00       0.000000000000
      0.7868272350D+01 -0.1193324198D+00  0.6899906659D-01
      0.1881288540D+01 -0.1608541517D+00  0.3164239610D+00
      0.5442492580D+00  0.1143456438D+01  0.7443082909D+00
 SP   1 1.00       0.000000000000
      0.1687144782D+00  0.1000000000D+01  0.1000000000D+01
 D   1 1.00       0.000000000000
      0.8000000000D+00  0.1000000000D+01
 ****
     24 0
 S   6 1.00       0.000000000000
      0.3047524880D+04  0.1834737132D-02
      0.4573695180D+03  0.1403732281D-01
      0.1039486850D+03  0.6884262226D-01
      0.2921015530D+02  0.2321844432D+00
      0.9286662960D+01  0.4679413484D+00
      0.3163926960D+01  0.3623119853D+00
 SP   3 1.00       0.000000000000
      0.7868272350D+01 -0.1193324198D+00  0.6899906659D-01
      0.1881288540D+01 -0.1608541517D+00  0.3164239610D+00
      0.5442492580D+00  0.1143456438D+01  0.7443082909D+00
 SP   1 1.00       0.000000000000
      0.1687144782D+00  0.1000000000D+01  0.1000000000D+01
 D   1 1.00       0.000000000000
      0.8000000000D+00  0.1000000000D+01
 ****
     25 0
 S   6 1.00       0.000000000000
      0.4173511460D+04  0.1834772160D-02
      0.6274579110D+03  0.1399462700D-01
      0.1429020930D+03  0.6858655181D-01
      0.4023432930D+02  0.2322408730D+00
      0.1282021290D+02  0.4690699481D+00
      0.4390437010D+01  0.3604551991D+00
 SP   3 1.00       0.000000000000
      0.1162636186D+02 -0.1149611817D+00  0.6757974388D-01
      0.2716279807D+01 -0.1691174786D+00  0.3239072959D+00
      0.7722183966D+00  0.1145851947D+01  0.7408951398D+00
 SP   1 1.00       0.000000000000
      0.2120314975D+00  0.1000000000D+01  0.1000000000D+01
 D   1 1.00       0.000000000000
      0.8000000000D+00  0.1000000000D+01
 ****
     26 0
 S   6 1.00       0.000000000000
      0.3047524880D+04  0.1834737132D-02
      0.4573695180D+03  0.1403732281D-01
      0.1039486850D+03  0.6884262226D-01
      0.2921015530D+02  0.2321844432D+00
      0.9286662960D+01  0.4679413484D+00
      0.3163926960D+01  0.3623119853D+00
 SP   3 1.00       0.000000000000
      0.7868272350D+01 -0.1193324198D+00  0.6899906659D-01
      0.1881288540D+01 -0.1608541517D+00  0.3164239610D+00
      0.5442492580D+00  0.1143456438D+01  0.7443082909D+00
 SP   1 1.00       0.000000000000
      0.1687144782D+00  0.1000000000D+01  0.1000000000D+01
 D   1 1.00       0.000000000000
      0.8000000000D+00  0.1000000000D+01
 ****
     27 0
 S   6 1.00       0.000000000000
      0.3047524880D+04  0.1834737132D-02
      0.4573695180D+03  0.1403732281D-01
      0.1039486850D+03  0.6884262226D-01
      0.2921015530D+02  0.2321844432D+00
      0.9286662960D+01  0.4679413484D+00
      0.3163926960D+01  0.3623119853D+00
 SP   3 1.00       0.000000000000
      0.7868272350D+01 -0.1193324198D+00  0.6899906659D-01
      0.1881288540D+01 -0.1608541517D+00  0.3164239610D+00
      0.5442492580D+00  0.1143456438D+01  0.7443082909D+00
 SP   1 1.00       0.000000000000
      0.1687144782D+00  0.1000000000D+01  0.1000000000D+01
 D   1 1.00       0.000000000000
      0.8000000000D+00  0.1000000000D+01
 ****
     28 0
 S   6 1.00       0.000000000000
      0.3047524880D+04  0.1834737132D-02
      0.4573695180D+03  0.1403732281D-01
      0.1039486850D+03  0.6884262226D-01
      0.2921015530D+02  0.2321844432D+00
      0.9286662960D+01  0.4679413484D+00
      0.3163926960D+01  0.3623119853D+00
 SP   3 1.00       0.000000000000
      0.7868272350D+01 -0.1193324198D+00  0.6899906659D-01
      0.1881288540D+01 -0.1608541517D+00  0.3164239610D+00
      0.5442492580D+00  0.1143456438D+01  0.7443082909D+00
 SP   1 1.00       0.000000000000
      0.1687144782D+00  0.1000000000D+01  0.1000000000D+01
 D   1 1.00       0.000000000000
      0.8000000000D+00  0.1000000000D+01
 ****
     29 0
 S   6 1.00       0.000000000000
      0.3047524880D+04  0.1834737132D-02
      0.4573695180D+03  0.1403732281D-01
      0.1039486850D+03  0.6884262226D-01
      0.2921015530D+02  0.2321844432D+00
      0.9286662960D+01  0.4679413484D+00
      0.3163926960D+01  0.3623119853D+00
 SP   3 1.00       0.000000000000
      0.7868272350D+01 -0.1193324198D+00  0.6899906659D-01
      0.1881288540D+01 -0.1608541517D+00  0.3164239610D+00
      0.5442492580D+00  0.1143456438D+01  0.7443082909D+00
 SP   1 1.00       0.000000000000
      0.1687144782D+00  0.1000000000D+01  0.1000000000D+01
 D   1 1.00       0.000000000000
      0.8000000000D+00  0.1000000000D+01
 ****
     30 0
 S   6 1.00       0.000000000000
      0.2068882250D+04  0.1866274590D-02
      0.3106495700D+03  0.1425148170D-01
      0.7068303300D+02  0.6955161850D-01
      0.1986108030D+02  0.2325729330D+00
      0.6299304840D+01  0.4670787120D+00
      0.2127026970D+01  0.3634314400D+00
 SP   3 1.00       0.000000000000
      0.4727971071D+01 -0.1303937974D+00  0.7459757992D-01
      0.1190337736D+01 -0.1307889514D+00  0.3078466771D+00
      0.3594116829D+00  0.1130944484D+01  0.7434568342D+00
 SP   1 1.00       0.000000000000
      0.1267512469D+00  0.1000000000D+01  0.1000000000D+01
 D   1 1.00       0.000000000000
      0.6000000000D+00  0.1000000000D+01
 ****
     31 0
 S   6 1.00       0.000000000000
      0.3047524880D+04  0.1834737132D-02
      0.4573695180D+03  0.1403732281D-01
      0.1039486850D+03  0.6884262226D-01
      0.2921015530D+02  0.2321844432D+00
      0.9286662960D+01  0.4679413484D+00
      0.3163926960D+01  0.3623119853D+00
 SP   3 1.00       0.000000000000
      0.7868272350D+01 -0.1193324198D+00  0.6899906659D-01
      0.1881288540D+01 -0.1608541517D+00  0.3164239610D+00
      0.5442492580D+00  0.1143456438D+01  0.7443082909D+00
 SP   1 1.00       0.000000000000
      0.1687144782D+00  0.1000000000D+01  0.1000000000D+01
 D   1 1.00       0.000000000000
      0.8000000000D+00  0.1000000000D+01
 ****
     32 0
 S   6 1.00       0.000000000000
      0.3047524880D+04  0.1834737132D-02
      0.4573695180D+03  0.1403732281D-01
      0.1039486850D+03  0.6884262226D-01
      0.2921015530D+02  0.2321844432D+00
      0.9286662960D+01  0.4679413484D+00
      0.3163926960D+01  0.3623119853D+00
 SP   3 1.00       0.000000000000
      0.7868272350D+01 -0.1193324198D+00  0.6899906659D-01
      0.1881288540D+01 -0.1608541517D+00  0.3164239610D+00
      0.5442492580D+00  0.1143456438D+01  0.7443082909D+00
 SP   1 1.00       0.000000000000
      0.1687144782D+00  0.1000000000D+01  0.1000000000D+01
 D   1 1.00       0.000000000000
      0.8000000000D+00  0.1000000000D+01
 ****
     33 0
 S   6 1.00       0.000000000000
      0.3047524880D+04  0.1834737132D-02
      0.4573695180D+03  0.1403732281D-01
      0.1039486850D+03  0.6884262226D-01
      0.2921015530D+02  0.2321844432D+00
      0.9286662960D+01  0.4679413484D+00
      0.3163926960D+01  0.3623119853D+00
 SP   3 1.00       0.000000000000
      0.7868272350D+01 -0.1193324198D+00  0.6899906659D-01
      0.1881288540D+01 -0.1608541517D+00  0.3164239610D+00
      0.5442492580D+00  0.1143456438D+01  0.7443082909D+00
 SP   1 1.00       0.000000000000
      0.1687144782D+00  0.1000000000D+01  0.1000000000D+01
 D   1 1.00       0.000000000000
      0.8000000000D+00  0.1000000000D+01
 ****
     34 0
 S   6 1.00       0.000000000000
      0.3047524880D+04  0.1834737132D-02
      0.4573695180D+03  0.1403732281D-01
      0.1039486850D+03  0.6884262226D-01
      0.2921015530D+02  0.2321844432D+00
      0.9286662960D+01  0.4679413484D+00
      0.3163926960D+01  0.3623119853D+00
 SP   3 1.00       0.000000000000
      0.7868272350D+01 -0.1193324198D+00  0.6899906659D-01
      0.1881288540D+01 -0.1608541517D+00  0.3164239610D+00
      0.5442492580D+00  0.1143456438D+01  0.7443082909D+00
 SP   1 1.00       0.000000000000
      0.1687144782D+00  0.1000000000D+01  0.1000000000D+01
 D   1 1.00       0.000000000000
      0.8000000000D+00  0.1000000000D+01
 ****
     35 0
 S   6 1.00       0.000000000000
      0.3047524880D+04  0.1834737132D-02
      0.4573695180D+03  0.1403732281D-01
      0.1039486850D+03  0.6884262226D-01
      0.2921015530D+02  0.2321844432D+00
      0.9286662960D+01  0.4679413484D+00
      0.3163926960D+01  0.3623119853D+00
 SP   3 1.00       0.000000000000
      0.7868272350D+01 -0.1193324198D+00  0.6899906659D-01
      0.1881288540D+01 -0.1608541517D+00  0.3164239610D+00
      0.5442492580D+00  0.1143456438D+01  0.7443082909D+00
 SP   1 1.00       0.000000000000
      0.1687144782D+00  0.1000000000D+01  0.1000000000D+01
 D   1 1.00       0.000000000000
      0.8000000000D+00  0.1000000000D+01
 ****
     36 0
 S   6 1.00       0.000000000000
      0.3047524880D+04  0.1834737132D-02
      0.4573695180D+03  0.1403732281D-01
      0.1039486850D+03  0.6884262226D-01
      0.2921015530D+02  0.2321844432D+00
      0.9286662960D+01  0.4679413484D+00
      0.3163926960D+01  0.3623119853D+00
 SP   3 1.00       0.000000000000
      0.7868272350D+01 -0.1193324198D+00  0.6899906659D-01
      0.1881288540D+01 -0.1608541517D+00  0.3164239610D+00
      0.5442492580D+00  0.1143456438D+01  0.7443082909D+00
 SP   1 1.00       0.000000000000
      0.1687144782D+00  0.1000000000D+01  0.1000000000D+01
 D   1 1.00       0.000000000000
      0.8000000000D+00  0.1000000000D+01
 ****
     37 0
 S   6 1.00       0.000000000000
      0.2191710000D+05  0.1869240849D-02
      0.3301490000D+04  0.1423030646D-01
      0.7541460000D+03  0.6969623166D-01
      0.2127110000D+03  0.2384871083D+00
      0.6798960000D+02  0.4833072195D+00
      0.2305150000D+02  0.3380741536D+00
 SP   6 1.00       0.000000000000
      0.4237350000D+03 -0.2376770499D-02  0.4061009982D-02
      0.1007100000D+03 -0.3169300665D-01  0.3068129986D-01
      0.3215990000D+02 -0.1133170238D+00  0.1304519994D+00
      0.1180790000D+02  0.5609001177D-01  0.3272049985D+00
      0.4631100000D+01  0.5922551243D+00  0.4528509980D+00
      0.1870250000D+01  0.4550060955D+00  0.2560419989D+00
 SP   3 1.00       0.000000000000
      0.2615840000D+01 -0.2503731142D+00 -0.1451048955D-01
      0.9221670000D+00  0.6695676310D-01  0.3102627765D+00
      0.3412870000D+00  0.1054506269D+01  0.7544824565D+00
 SP   1 1.00       0.000000000000
      0.1171670000D+00  0.1000000000D+01  0.1000000000D+01
 D   1 1.00       0.000000000000
      0.6500000000D+00  0.1000000000D+01
 ****
     38 0
 S   3 1.00       0.000000000000
      0.1873113696D+02  0.3349460434D-01
      0.2825394365D+01  0.2347269535D+00
      0.6401216923D+00  0.8137573261D+00
 S   1 1.00       0.000000000000
      0.1612777588D+00  0.1000000000D+01
 ****
     39 0
 S   3 1.00       0.000000000000
      0.1873113696D+02  0.3349460434D-01
      0.2825394365D+01  0.2347269535D+00
      0.6401216923D+00  0.8137573261D+00
 S   1 1.00       0.000000000000
      0.1612777588D+00  0.1000000000D+01
 ****
     40 0
 S   3 1.00       0.000000000000
      0.1873113696D+02  0.3349460434D-01
      0.2825394365D+01  0.2347269535D+00
      0.6401216923D+00  0.8137573261D+00
 S   1 1.00       0.000000000000
      0.1612777588D+00  0.1000000000D+01
 ****
     41 0
 S   3 1.00       0.000000000000
      0.1873113696D+02  0.3349460434D-01
      0.2825394365D+01  0.2347269535D+00
      0.6401216923D+00  0.8137573261D+00
 S   1 1.00       0.000000000000
      0.1612777588D+00  0.1000000000D+01
 ****
     42 0
 S   3 1.00       0.000000000000
      0.1873113696D+02  0.3349460434D-01
      0.2825394365D+01  0.2347269535D+00
      0.6401216923D+00  0.8137573261D+00
 S   1 1.00       0.000000000000
      0.1612777588D+00  0.1000000000D+01
 ****
     43 0
 S   3 1.00       0.000000000000
      0.1873113696D+02  0.3349460434D-01
      0.2825394365D+01  0.2347269535D+00
      0.6401216923D+00  0.8137573261D+00
 S   1 1.00       0.000000000000
      0.1612777588D+00  0.1000000000D+01
 ****
     44 0
 S   3 1.00       0.000000000000
      0.1873113696D+02  0.3349460434D-01
      0.2825394365D+01  0.2347269535D+00
      0.6401216923D+00  0.8137573261D+00
 S   1 1.00       0.000000000000
      0.1612777588D+00  0.1000000000D+01
 ****
     45 0
 S   3 1.00       0.000000000000
      0.1873113696D+02  0.3349460434D-01
      0.2825394365D+01  0.2347269535D+00
      0.6401216923D+00  0.8137573261D+00
 S   1 1.00       0.000000000000
      0.1612777588D+00  0.1000000000D+01
 ****
     46 0
 S   3 1.00       0.000000000000
      0.1873113696D+02  0.3349460434D-01
      0.2825394365D+01  0.2347269535D+00
      0.6401216923D+00  0.8137573261D+00
 S   1 1.00       0.000000000000
      0.1612777588D+00  0.1000000000D+01
 ****
     47 0
 S   3 1.00       0.000000000000
      0.1873113696D+02  0.3349460434D-01
      0.2825394365D+01  0.2347269535D+00
      0.6401216923D+00  0.8137573261D+00
 S   1 1.00       0.000000000000
      0.1612777588D+00  0.1000000000D+01
 ****
     48 0
 S   3 1.00       0.000000000000
      0.1873113696D+02  0.3349460434D-01
      0.2825394365D+01  0.2347269535D+00
      0.6401216923D+00  0.8137573261D+00
 S   1 1.00       0.000000000000
      0.1612777588D+00  0.1000000000D+01
 ****
     49 0
 S   3 1.00       0.000000000000
      0.1873113696D+02  0.3349460434D-01
      0.2825394365D+01  0.2347269535D+00
      0.6401216923D+00  0.8137573261D+00
 S   1 1.00       0.000000000000
      0.1612777588D+00  0.1000000000D+01
 ****
     50 0
 S   3 1.00       0.000000000000
      0.1873113696D+02  0.3349460434D-01
      0.2825394365D+01  0.2347269535D+00
      0.6401216923D+00  0.8137573261D+00
 S   1 1.00       0.000000000000
      0.1612777588D+00  0.1000000000D+01
 ****
     51 0
 S   3 1.00       0.000000000000
      0.1873113696D+02  0.3349460434D-01
      0.2825394365D+01  0.2347269535D+00
      0.6401216923D+00  0.8137573261D+00
 S   1 1.00       0.000000000000
      0.1612777588D+00  0.1000000000D+01
 ****
     52 0
 S   3 1.00       0.000000000000
      0.1873113696D+02  0.3349460434D-01
      0.2825394365D+01  0.2347269535D+00
      0.6401216923D+00  0.8137573261D+00
 S   1 1.00       0.000000000000
      0.1612777588D+00  0.1000000000D+01
 ****
     53 0
 S   3 1.00       0.000000000000
      0.1873113696D+02  0.3349460434D-01
      0.2825394365D+01  0.2347269535D+00
      0.6401216923D+00  0.8137573261D+00
 S   1 1.00       0.000000000000
      0.1612777588D+00  0.1000000000D+01
 ****
     54 0
 S   3 1.00       0.000000000000
      0.1873113696D+02  0.3349460434D-01
      0.2825394365D+01  0.2347269535D+00
      0.6401216923D+00  0.8137573261D+00
 S   1 1.00       0.000000000000
      0.1612777588D+00  0.1000000000D+01
 ****
     55 0
 S   3 1.00       0.000000000000
      0.1873113696D+02  0.3349460434D-01
      0.2825394365D+01  0.2347269535D+00
      0.6401216923D+00  0.8137573261D+00
 S   1 1.00       0.000000000000
      0.1612777588D+00  0.1000000000D+01
 ****

   599 basis functions,  1156 primitive gaussians,   599 cartesian basis functions
   131 alpha electrons      131 beta electrons
       nuclear repulsion energy      3861.3423760837 Hartrees.
 IExCor=  402 DFT=T Ex+Corr=B3LYP ExCW=0 ScaHFX=  0.200000
 ScaDFX=  0.800000  0.720000  1.000000  0.810000 ScalE2=  1.000000  1.000000
 IRadAn=      5 IRanWt=     -1 IRanGd=            0 ICorTp=0 IEmpDi=  4
 NAtoms=   55 NActive=   55 NUniq=   55 SFac= 1.00D+00 NAtFMM=   60 NAOKFM=F Big=F
 Integral buffers will be    131072 words long.
 Regular integral format.
 Two-electron integral symmetry is turned off.
 Leave Link  301 at Sat Nov  5 10:12:56 2022, MaxMem=   402653184 cpu:               0.8 elap:               0.1
 (Enter /home/wykgroup/appl/g16/l302.exe)
 NPDir=0 NMtPBC=     1 NCelOv=     1 NCel=       1 NClECP=     1 NCelD=      1
         NCelK=      1 NCelE2=     1 NClLst=     1 CellRange=     0.0.
 One-electron integrals computed using PRISM.
 NBasis=   599 RedAO= T EigKep=  3.37D-04  NBF=   599
 NBsUse=   599 1.00D-06 EigRej= -1.00D+00 NBFU=   599
 Precomputing XC quadrature grid using
 IXCGrd= 4 IRadAn=           5 IRanWt=          -1 IRanGd=           0 AccXCQ= 0.00D+00.
 Generated NRdTot=       0 NPtTot=           0 NUsed=           0 NTot=          32
 NSgBfM=   583   582   582   582   583 MxSgAt=    55 MxSgA2=    55.
 Leave Link  302 at Sat Nov  5 10:12:58 2022, MaxMem=   402653184 cpu:              18.5 elap:               1.6
 (Enter /home/wykgroup/appl/g16/l303.exe)
 DipDrv:  MaxL=1.
 Leave Link  303 at Sat Nov  5 10:12:58 2022, MaxMem=   402653184 cpu:               1.9 elap:               0.2
 (Enter /home/wykgroup/appl/g16/l308.exe)
 Leave Link  308 at Sat Nov  5 10:12:59 2022, MaxMem=   402653184 cpu:               1.7 elap:               0.2
 (Enter /home/wykgroup/appl/g16/l401.exe)
 ExpMin= 1.17D-01 ExpMax= 2.19D+04 ExpMxC= 3.30D+03 IAcc=3 IRadAn=         5 AccDes= 0.00D+00
 Harris functional with IExCor=  402 and IRadAn=       5 diagonalized for initial guess.
 HarFok:  IExCor=  402 AccDes= 0.00D+00 IRadAn=         5 IDoV= 1 UseB2=F ITyADJ=14
 ICtDFT=  3500011 ScaDFX=  1.000000  1.000000  1.000000  1.000000
 FoFCou: FMM=F IPFlag=           0 FMFlag=      100000 FMFlg1=           0
         NFxFlg=           0 DoJE=T BraDBF=F KetDBF=T FulRan=T
         wScrn=  0.000000 ICntrl=       500 IOpCl=  0 I1Cent=   200000004 NGrid=           0
         NMat0=    1 NMatS0=      1 NMatT0=    0 NMatD0=    1 NMtDS0=    0 NMtDT0=    0
 Symmetry not used in FoFCou.
 Harris En= -2177.56939173482    
 JPrj=0 DoOrth=F DoCkMO=F.
 Leave Link  401 at Sat Nov  5 10:13:02 2022, MaxMem=   402653184 cpu:              39.2 elap:               3.5
 (Enter /home/wykgroup/appl/g16/l502.exe)
 Two-electron integral symmetry not used.
 Closed shell SCF:
 Using DIIS extrapolation, IDIIS=  1040.
 NGot=   402653184 LenX=   401922440 LenY=   401563040
 Requested convergence on RMS density matrix=1.00D-08 within  32 cycles.
 Requested convergence on MAX density matrix=1.00D-06.
 Requested convergence on             energy=1.00D-06.
 No special actions if energy rises.
 Fock matrices will be formed incrementally for  20 cycles.
 Integral accuracy reduced to 1.0D-05 until final iterations.

 Cycle   1  Pass 0  IDiag  1:
 FoFJK:  IHMeth= 1 ICntrl=       0 DoSepK=F KAlg= 0 I1Cent=           0 FoldK=F
 IRaf= 570000000 NMat=       1 IRICut=       1 DoRegI=T DoRafI=F ISym2E= 0 IDoP0=0 IntGTp=1.
 FoFCou: FMM=F IPFlag=           0 FMFlag=      100000 FMFlg1=           0
         NFxFlg=           0 DoJE=F BraDBF=F KetDBF=F FulRan=T
         wScrn=  0.000000 ICntrl=         0 IOpCl=  0 I1Cent=           0 NGrid=           0
         NMat0=    1 NMatS0=      1 NMatT0=    0 NMatD0=    1 NMtDS0=    0 NMtDT0=    0
 Symmetry not used in FoFCou.
 E= -2176.78225933908    
 DIIS: error= 2.56D-02 at cycle   1 NSaved=   1.
 NSaved= 1 IEnMin= 1 EnMin= -2176.78225933908     IErMin= 1 ErrMin= 2.56D-02
 ErrMax= 2.56D-02  0.00D+00 EMaxC= 1.00D-01 BMatC= 8.42D-01 BMatP= 8.42D-01
 IDIUse=3 WtCom= 7.44D-01 WtEn= 2.56D-01
 Coeff-Com:  0.100D+01
 Coeff-En:   0.100D+01
 Coeff:      0.100D+01
 Gap=     0.238 Goal=   None    Shift=    0.000
 GapD=    0.238 DampG=1.000 DampE=0.500 DampFc=0.5000 IDamp=-1.
 Damping current iteration by 5.00D-01
 RMSDP=4.54D-03 MaxDP=2.22D-01              OVMax= 3.03D-01

 Cycle   2  Pass 0  IDiag  1:
 RMSU=  2.24D-03    CP:  9.76D-01
 E= -2177.03995058644     Delta-E=       -0.257691247362 Rises=F Damp=T
 DIIS: error= 1.28D-02 at cycle   2 NSaved=   2.
 NSaved= 2 IEnMin= 2 EnMin= -2177.03995058644     IErMin= 2 ErrMin= 1.28D-02
 ErrMax= 1.28D-02  0.00D+00 EMaxC= 1.00D-01 BMatC= 1.34D-01 BMatP= 8.42D-01
 IDIUse=3 WtCom= 8.72D-01 WtEn= 1.28D-01
 Coeff-Com:  0.195D+00 0.805D+00
 Coeff-En:   0.335D+00 0.665D+00
 Coeff:      0.213D+00 0.787D+00
 Gap=     0.279 Goal=   None    Shift=    0.000
 RMSDP=1.66D-03 MaxDP=1.18D-01 DE=-2.58D-01 OVMax= 3.45D-01

 Cycle   3  Pass 0  IDiag  1:
 RMSU=  1.46D-03    CP:  9.60D-01  6.66D-01
 E= -2177.55739186598     Delta-E=       -0.517441279541 Rises=F Damp=F
 DIIS: error= 1.40D-02 at cycle   3 NSaved=   3.
 NSaved= 3 IEnMin= 3 EnMin= -2177.55739186598     IErMin= 2 ErrMin= 1.28D-02
 ErrMax= 1.40D-02  0.00D+00 EMaxC= 1.00D-01 BMatC= 1.23D-01 BMatP= 1.34D-01
 IDIUse=3 WtCom= 8.60D-01 WtEn= 1.40D-01
 Coeff-Com:  0.459D-01 0.480D+00 0.474D+00
 Coeff-En:   0.000D+00 0.000D+00 0.100D+01
 Coeff:      0.395D-01 0.413D+00 0.547D+00
 Gap=     0.152 Goal=   None    Shift=    0.000
 RMSDP=1.10D-03 MaxDP=6.60D-02 DE=-5.17D-01 OVMax= 1.56D-01

 Cycle   4  Pass 0  IDiag  1:
 RMSU=  7.88D-04    CP:  9.64D-01  7.99D-01  5.15D-01
 E= -2177.64046844689     Delta-E=       -0.083076580914 Rises=F Damp=F
 DIIS: error= 8.19D-03 at cycle   4 NSaved=   4.
 NSaved= 4 IEnMin= 4 EnMin= -2177.64046844689     IErMin= 4 ErrMin= 8.19D-03
 ErrMax= 8.19D-03  0.00D+00 EMaxC= 1.00D-01 BMatC= 4.93D-02 BMatP= 1.23D-01
 IDIUse=3 WtCom= 9.18D-01 WtEn= 8.19D-02
 Coeff-Com:  0.640D-02 0.113D+00 0.384D+00 0.496D+00
 Coeff-En:   0.000D+00 0.000D+00 0.329D+00 0.671D+00
 Coeff:      0.588D-02 0.104D+00 0.380D+00 0.511D+00
 Gap=     0.134 Goal=   None    Shift=    0.000
 RMSDP=5.02D-04 MaxDP=2.53D-02 DE=-8.31D-02 OVMax= 6.65D-02

 Cycle   5  Pass 0  IDiag  1:
 RMSU=  2.21D-04    CP:  9.64D-01  7.65D-01  6.83D-01  5.31D-01
 E= -2177.69240425063     Delta-E=       -0.051935803733 Rises=F Damp=F
 DIIS: error= 1.46D-03 at cycle   5 NSaved=   5.
 NSaved= 5 IEnMin= 5 EnMin= -2177.69240425063     IErMin= 5 ErrMin= 1.46D-03
 ErrMax= 1.46D-03  0.00D+00 EMaxC= 1.00D-01 BMatC= 2.59D-03 BMatP= 4.93D-02
 IDIUse=3 WtCom= 9.85D-01 WtEn= 1.46D-02
 Coeff-Com:  0.886D-03 0.108D-01 0.166D+00 0.296D+00 0.526D+00
 Coeff-En:   0.000D+00 0.000D+00 0.000D+00 0.000D+00 0.100D+01
 Coeff:      0.873D-03 0.107D-01 0.164D+00 0.292D+00 0.533D+00
 Gap=     0.128 Goal=   None    Shift=    0.000
 RMSDP=1.44D-04 MaxDP=7.89D-03 DE=-5.19D-02 OVMax= 1.88D-02

 Cycle   6  Pass 0  IDiag  1:
 RMSU=  8.72D-05    CP:  9.63D-01  7.61D-01  6.81D-01  5.85D-01  5.23D-01
 E= -2177.69490041720     Delta-E=       -0.002496166574 Rises=F Damp=F
 DIIS: error= 7.63D-04 at cycle   6 NSaved=   6.
 NSaved= 6 IEnMin= 6 EnMin= -2177.69490041720     IErMin= 6 ErrMin= 7.63D-04
 ErrMax= 7.63D-04  0.00D+00 EMaxC= 1.00D-01 BMatC= 4.80D-04 BMatP= 2.59D-03
 IDIUse=3 WtCom= 9.92D-01 WtEn= 7.63D-03
 Coeff-Com:  0.338D-03-0.595D-02 0.581D-01 0.123D+00 0.345D+00 0.479D+00
 Coeff-En:   0.000D+00 0.000D+00 0.000D+00 0.000D+00 0.148D+00 0.852D+00
 Coeff:      0.336D-03-0.590D-02 0.577D-01 0.122D+00 0.344D+00 0.482D+00
 Gap=     0.127 Goal=   None    Shift=    0.000
 RMSDP=5.52D-05 MaxDP=2.66D-03 DE=-2.50D-03 OVMax= 5.88D-03

 Cycle   7  Pass 0  IDiag  1:
 RMSU=  2.82D-05    CP:  9.63D-01  7.59D-01  6.88D-01  5.90D-01  6.06D-01
                    CP:  5.22D-01
 E= -2177.69538862869     Delta-E=       -0.000488211489 Rises=F Damp=F
 DIIS: error= 1.80D-04 at cycle   7 NSaved=   7.
 NSaved= 7 IEnMin= 7 EnMin= -2177.69538862869     IErMin= 7 ErrMin= 1.80D-04
 ErrMax= 1.80D-04  0.00D+00 EMaxC= 1.00D-01 BMatC= 4.42D-05 BMatP= 4.80D-04
 IDIUse=3 WtCom= 9.98D-01 WtEn= 1.80D-03
 Coeff-Com:  0.278D-03-0.448D-02 0.134D-01 0.342D-01 0.137D+00 0.286D+00
 Coeff-Com:  0.534D+00
 Coeff-En:   0.000D+00 0.000D+00 0.000D+00 0.000D+00 0.000D+00 0.435D-01
 Coeff-En:   0.956D+00
 Coeff:      0.277D-03-0.447D-02 0.134D-01 0.342D-01 0.136D+00 0.285D+00
 Coeff:      0.535D+00
 Gap=     0.128 Goal=   None    Shift=    0.000
 RMSDP=1.50D-05 MaxDP=7.53D-04 DE=-4.88D-04 OVMax= 1.69D-03

 Cycle   8  Pass 0  IDiag  1:
 RMSU=  7.66D-06    CP:  9.63D-01  7.59D-01  6.87D-01  5.90D-01  6.11D-01
                    CP:  5.86D-01  5.97D-01
 E= -2177.69543402947     Delta-E=       -0.000045400776 Rises=F Damp=F
 DIIS: error= 4.17D-05 at cycle   8 NSaved=   8.
 NSaved= 8 IEnMin= 8 EnMin= -2177.69543402947     IErMin= 8 ErrMin= 4.17D-05
 ErrMax= 4.17D-05  0.00D+00 EMaxC= 1.00D-01 BMatC= 3.09D-06 BMatP= 4.42D-05
 IDIUse=1 WtCom= 1.00D+00 WtEn= 0.00D+00
 Coeff-Com:  0.191D-03-0.180D-02 0.254D-02 0.769D-02 0.432D-01 0.111D+00
 Coeff-Com:  0.285D+00 0.553D+00
 Coeff:      0.191D-03-0.180D-02 0.254D-02 0.769D-02 0.432D-01 0.111D+00
 Coeff:      0.285D+00 0.553D+00
 Gap=     0.128 Goal=   None    Shift=    0.000
 RMSDP=5.20D-06 MaxDP=2.15D-04 DE=-4.54D-05 OVMax= 5.93D-04

 Initial convergence to 1.0D-05 achieved.  Increase integral accuracy.
 Cycle   9  Pass 1  IDiag  1:
 E= -2177.69540927065     Delta-E=        0.000024758814 Rises=F Damp=F
 DIIS: error= 1.01D-04 at cycle   1 NSaved=   1.
 NSaved= 1 IEnMin= 1 EnMin= -2177.69540927065     IErMin= 1 ErrMin= 1.01D-04
 ErrMax= 1.01D-04  0.00D+00 EMaxC= 1.00D-01 BMatC= 4.95D-06 BMatP= 4.95D-06
 IDIUse=3 WtCom= 9.99D-01 WtEn= 1.01D-03
 Coeff-Com:  0.100D+01
 Coeff-En:   0.100D+01
 Coeff:      0.100D+01
 Gap=     0.128 Goal=   None    Shift=    0.000
 RMSDP=5.20D-06 MaxDP=2.15D-04 DE= 2.48D-05 OVMax= 6.62D-04

 Cycle  10  Pass 1  IDiag  1:
 RMSU=  5.84D-05    CP:  1.00D+00
 E= -2177.69541015346     Delta-E=       -0.000000882805 Rises=F Damp=F
 DIIS: error= 5.58D-05 at cycle   2 NSaved=   2.
 NSaved= 2 IEnMin= 2 EnMin= -2177.69541015346     IErMin= 2 ErrMin= 5.58D-05
 ErrMax= 5.58D-05  0.00D+00 EMaxC= 1.00D-01 BMatC= 3.44D-06 BMatP= 4.95D-06
 IDIUse=1 WtCom= 1.00D+00 WtEn= 0.00D+00
 Coeff-Com:  0.434D+00 0.566D+00
 Coeff:      0.434D+00 0.566D+00
 Gap=     0.128 Goal=   None    Shift=    0.000
 RMSDP=6.81D-06 MaxDP=3.59D-04 DE=-8.83D-07 OVMax= 8.52D-04

 Cycle  11  Pass 1  IDiag  1:
 RMSU=  6.81D-06    CP:  1.00D+00  9.97D-01
 E= -2177.69541122287     Delta-E=       -0.000001069409 Rises=F Damp=F
 DIIS: error= 5.22D-05 at cycle   3 NSaved=   3.
 NSaved= 3 IEnMin= 3 EnMin= -2177.69541122287     IErMin= 3 ErrMin= 5.22D-05
 ErrMax= 5.22D-05  0.00D+00 EMaxC= 1.00D-01 BMatC= 2.49D-06 BMatP= 3.44D-06
 IDIUse=1 WtCom= 1.00D+00 WtEn= 0.00D+00
 Coeff-Com:  0.754D-02 0.458D+00 0.535D+00
 Coeff:      0.754D-02 0.458D+00 0.535D+00
 Gap=     0.128 Goal=   None    Shift=    0.000
 RMSDP=3.25D-06 MaxDP=1.84D-04 DE=-1.07D-06 OVMax= 4.10D-04

 Cycle  12  Pass 1  IDiag  1:
 RMSU=  7.28D-07    CP:  1.00D+00  1.01D+00  5.43D-01
 E= -2177.69541394721     Delta-E=       -0.000002724340 Rises=F Damp=F
 DIIS: error= 6.83D-06 at cycle   4 NSaved=   4.
 NSaved= 4 IEnMin= 4 EnMin= -2177.69541394721     IErMin= 4 ErrMin= 6.83D-06
 ErrMax= 6.83D-06  0.00D+00 EMaxC= 1.00D-01 BMatC= 4.80D-08 BMatP= 2.49D-06
 IDIUse=1 WtCom= 1.00D+00 WtEn= 0.00D+00
 Coeff-Com: -0.309D-02 0.267D+00 0.323D+00 0.413D+00
 Coeff:     -0.309D-02 0.267D+00 0.323D+00 0.413D+00
 Gap=     0.128 Goal=   None    Shift=    0.000
 RMSDP=4.65D-07 MaxDP=3.21D-05 DE=-2.72D-06 OVMax= 4.12D-05

 Cycle  13  Pass 1  IDiag  1:
 RMSU=  2.03D-07    CP:  1.00D+00  1.01D+00  5.53D-01  4.33D-01
 E= -2177.69541399519     Delta-E=       -0.000000047982 Rises=F Damp=F
 DIIS: error= 1.35D-06 at cycle   5 NSaved=   5.
 NSaved= 5 IEnMin= 5 EnMin= -2177.69541399519     IErMin= 5 ErrMin= 1.35D-06
 ErrMax= 1.35D-06  0.00D+00 EMaxC= 1.00D-01 BMatC= 1.82D-09 BMatP= 4.80D-08
 IDIUse=1 WtCom= 1.00D+00 WtEn= 0.00D+00
 Coeff-Com: -0.218D-02 0.150D+00 0.182D+00 0.258D+00 0.412D+00
 Coeff:     -0.218D-02 0.150D+00 0.182D+00 0.258D+00 0.412D+00
 Gap=     0.128 Goal=   None    Shift=    0.000
 RMSDP=1.11D-07 MaxDP=5.20D-06 DE=-4.80D-08 OVMax= 1.14D-05

 Cycle  14  Pass 1  IDiag  1:
 RMSU=  6.58D-08    CP:  1.00D+00  1.01D+00  5.51D-01  4.54D-01  5.69D-01
 E= -2177.69541399713     Delta-E=       -0.000000001940 Rises=F Damp=F
 DIIS: error= 3.42D-07 at cycle   6 NSaved=   6.
 NSaved= 6 IEnMin= 6 EnMin= -2177.69541399713     IErMin= 6 ErrMin= 3.42D-07
 ErrMax= 3.42D-07  0.00D+00 EMaxC= 1.00D-01 BMatC= 1.11D-10 BMatP= 1.82D-09
 IDIUse=1 WtCom= 1.00D+00 WtEn= 0.00D+00
 Coeff-Com: -0.102D-02 0.647D-01 0.788D-01 0.116D+00 0.242D+00 0.499D+00
 Coeff:     -0.102D-02 0.647D-01 0.788D-01 0.116D+00 0.242D+00 0.499D+00
 Gap=     0.128 Goal=   None    Shift=    0.000
 RMSDP=2.64D-08 MaxDP=1.28D-06 DE=-1.94D-09 OVMax= 3.15D-06

 Cycle  15  Pass 1  IDiag  1:
 RMSU=  2.18D-08    CP:  1.00D+00  1.01D+00  5.51D-01  4.56D-01  6.09D-01
                    CP:  8.13D-01
 E= -2177.69541399729     Delta-E=       -0.000000000158 Rises=F Damp=F
 DIIS: error= 1.47D-07 at cycle   7 NSaved=   7.
 NSaved= 7 IEnMin= 7 EnMin= -2177.69541399729     IErMin= 7 ErrMin= 1.47D-07
 ErrMax= 1.47D-07  0.00D+00 EMaxC= 1.00D-01 BMatC= 1.41D-11 BMatP= 1.11D-10
 IDIUse=1 WtCom= 1.00D+00 WtEn= 0.00D+00
 Coeff-Com: -0.250D-03 0.142D-01 0.175D-01 0.269D-01 0.744D-01 0.290D+00
 Coeff-Com:  0.577D+00
 Coeff:     -0.250D-03 0.142D-01 0.175D-01 0.269D-01 0.744D-01 0.290D+00
 Coeff:      0.577D+00
 Gap=     0.128 Goal=   None    Shift=    0.000
 RMSDP=1.10D-08 MaxDP=6.48D-07 DE=-1.58D-10 OVMax= 1.58D-06

 Cycle  16  Pass 1  IDiag  1:
 RMSU=  8.24D-09    CP:  1.00D+00  1.01D+00  5.51D-01  4.59D-01  6.12D-01
                    CP:  8.60D-01  7.23D-01
 E= -2177.69541399732     Delta-E=       -0.000000000030 Rises=F Damp=F
 DIIS: error= 8.04D-08 at cycle   8 NSaved=   8.
 NSaved= 8 IEnMin= 8 EnMin= -2177.69541399732     IErMin= 8 ErrMin= 8.04D-08
 ErrMax= 8.04D-08  0.00D+00 EMaxC= 1.00D-01 BMatC= 3.87D-12 BMatP= 1.41D-11
 IDIUse=1 WtCom= 1.00D+00 WtEn= 0.00D+00
 Coeff-Com:  0.339D-04-0.336D-02-0.388D-02-0.492D-02 0.235D-02 0.988D-01
 Coeff-Com:  0.393D+00 0.518D+00
 Coeff:      0.339D-04-0.336D-02-0.388D-02-0.492D-02 0.235D-02 0.988D-01
 Coeff:      0.393D+00 0.518D+00
 Gap=     0.128 Goal=   None    Shift=    0.000
 RMSDP=4.93D-09 MaxDP=1.91D-07 DE=-3.00D-11 OVMax= 6.18D-07

 SCF Done:  E(RB3LYP) =  -2177.69541400     A.U. after   16 cycles
            NFock= 16  Conv=0.49D-08     -V/T= 2.0073
 KE= 2.161866730505D+03 PE=-1.281494457837D+04 EE= 4.614040057789D+03
 Leave Link  502 at Sat Nov  5 10:14:20 2022, MaxMem=   402653184 cpu:            1016.8 elap:              78.0
 (Enter /home/wykgroup/appl/g16/l508.exe)
 QCSCF skips out because SCF is already converged.
 Leave Link  508 at Sat Nov  5 10:14:20 2022, MaxMem=   402653184 cpu:               0.4 elap:               0.1
 (Enter /home/wykgroup/appl/g16/l801.exe)
 DoSCS=F DFT=T ScalE2(SS,OS)=  1.000000  1.000000
 ExpMin= 1.17D-01 ExpMax= 2.19D+04 ExpMxC= 3.30D+03 IAcc=3 IRadAn=         5 AccDes= 0.00D+00
 HarFok:  IExCor=  205 AccDes= 0.00D+00 IRadAn=         5 IDoV=-2 UseB2=F ITyADJ=14
 ICtDFT= 12500011 ScaDFX=  1.000000  1.000000  1.000000  1.000000
 GSVD:  LWork=       -2385 too small for GESVD, short by       10800 words or       10800 for optimal perf.
 Largest valence mixing into a core orbital is  1.07D-04
 Largest core mixing into a valence orbital is  3.35D-05
 Range of M.O.s used for correlation:    46   599
 NBasis=   599 NAE=   131 NBE=   131 NFC=    45 NFV=     0
 NROrb=    554 NOA=    86 NOB=    86 NVA=   468 NVB=   468
 Leave Link  801 at Sat Nov  5 10:14:21 2022, MaxMem=   402653184 cpu:               4.0 elap:               0.4
 (Enter /home/wykgroup/appl/g16/l914.exe)
 RHF ground state
 Two-electron integral symmetry not used.
 MDV=   402653184 DFT=T DoStab=F Mixed=T DoRPA=T DoScal=F NonHer=T
 Making orbital integer symmetry assigments:
    16 initial guesses have been made.
 Convergence on wavefunction:    0.001000000000000
 Davidson Disk Diagonalization:  ConvIn= 1.00D-03 SkipCon=T Conv= 1.00D-03.
 Max sub-space:  2000 roots to seek:    16 dimension of matrix:        80496
 Iteration     1 Dimension    16 NMult     0 NNew     16
 CISAX will form    16 AO SS matrices at one time.
 NMat=    16 NSing=     8 JSym2X= 0.
 FoFJK:  IHMeth= 1 ICntrl=       0 DoSepK=F KAlg= 0 I1Cent=           0 FoldK=F
 IRaf= 570000000 NMat=      32 IRICut=       1 DoRegI=T DoRafI=F ISym2E= 0 IDoP0=0 IntGTp=1.
 FoFCou: FMM=F IPFlag=           0 FMFlag=      100000 FMFlg1=           0
         NFxFlg=           0 DoJE=F BraDBF=F KetDBF=F FulRan=T
         wScrn=  0.000000 ICntrl=         0 IOpCl=  0 I1Cent=           0 NGrid=           0
         NMat0=   32 NMatS0=      8 NMatT0=    8 NMatD0=   32 NMtDS0=    0 NMtDT0=    0
 Symmetry not used in FoFCou.
 New state      1 was old state      4
 New state      3 was old state      1
 New state      4 was old state      8
 New state      5 was old state      3
 New state      7 was old state      5
 New state      8 was old state     16
 Excitation Energies [eV] at current iteration:
 Root      1 :     2.651856643655460
 Root      2 :     2.937772243127115
 Root      3 :     3.129355561209791
 Root      4 :     3.185434542362406
 Root      5 :     3.409225323840565
 Root      6 :     3.547670503759044
 Root      7 :     3.584695897321243
 Root      8 :     3.853237299838858
 Root      9 :     3.965934888338783
 Root     10 :     4.090415088700694
 Root     11 :     4.144372963867187
 Root     12 :     4.155156486323403
 Root     13 :     4.291826901394864
 Root     14 :     4.378370571560506
 Root     15 :     4.498597885401362
 Root     16 :     4.770814572301921
 Vector   4 SDiff=2.45D-01 TDiff=1.40D+01 assumed to be singlet.
 Vector   8 SDiff=2.35D-01 TDiff=1.07D+01 assumed to be singlet.
 Iteration     2 Dimension    24 NMult    16 NNew      8
 CISAX will form     8 AO SS matrices at one time.
 NMat=     8 NSing=     4 JSym2X= 0.
 Root      1 not converged, maximum delta is    0.070599621417037
 Root      2 not converged, maximum delta is    0.079051829020326
 New state      3 was old state      5
 Root      3 not converged, maximum delta is    0.293011935421154
 New state      4 was old state      3
 Root      4 not converged, maximum delta is    0.279594417795881
 Excitation Energies [eV] at current iteration:
 Root      1 :     2.581057764868272   Change is   -0.070798878787188
 Root      2 :     2.851276841007361   Change is   -0.086495402119754
 Root      3 :     3.059692327182088   Change is   -0.349532996658477
 Root      4 :     3.080646888174230   Change is   -0.048708673035561
 Iteration     3 Dimension    32 NMult    24 NNew      8
 CISAX will form     8 AO SS matrices at one time.
 NMat=     8 NSing=     4 JSym2X= 0.
 Root      1 not converged, maximum delta is    0.011131879166227
 Root      2 not converged, maximum delta is    0.042478198278305
 Root      3 not converged, maximum delta is    0.147477281063615
 Root      4 not converged, maximum delta is    0.142451281019420
 Excitation Energies [eV] at current iteration:
 Root      1 :     2.575405037392174   Change is   -0.005652727476098
 Root      2 :     2.824364326892954   Change is   -0.026912514114407
 Root      3 :     3.031149593009448   Change is   -0.028542734172639
 Root      4 :     3.068413835512243   Change is   -0.012233052661986
 Iteration     4 Dimension    40 NMult    32 NNew      8
 CISAX will form     8 AO SS matrices at one time.
 NMat=     8 NSing=     4 JSym2X= 0.
 Root      1 not converged, maximum delta is    0.011424059216597
 Root      2 not converged, maximum delta is    0.023235065938226
 Root      3 not converged, maximum delta is    0.009880492746157
 Root      4 not converged, maximum delta is    0.009512950029872
 Excitation Energies [eV] at current iteration:
 Root      1 :     2.573663029924723   Change is   -0.001742007467451
 Root      2 :     2.818532214221875   Change is   -0.005832112671079
 Root      3 :     3.026515388772947   Change is   -0.004634204236501
 Root      4 :     3.066607844300392   Change is   -0.001805991211852
 Iteration     5 Dimension    48 NMult    40 NNew      8
 CISAX will form     8 AO SS matrices at one time.
 NMat=     8 NSing=     4 JSym2X= 0.
 Root      1 not converged, maximum delta is    0.005029136148639
 Root      2 not converged, maximum delta is    0.005091823744112
 Root      3 not converged, maximum delta is    0.004584958515533
 Root      4 not converged, maximum delta is    0.001927091776682
 Excitation Energies [eV] at current iteration:
 Root      1 :     2.573322613039417   Change is   -0.000340416885307
 Root      2 :     2.817743154052979   Change is   -0.000789060168896
 Root      3 :     3.025486568197345   Change is   -0.001028820575602
 Root      4 :     3.066272907466204   Change is   -0.000334936834188
 Iteration     6 Dimension    56 NMult    48 NNew      8
 CISAX will form     8 AO SS matrices at one time.
 NMat=     8 NSing=     4 JSym2X= 0.
 Root      1 has converged.
 Root      2 not converged, maximum delta is    0.002351179700487
 Root      3 has converged.
 Root      4 has converged.
 Excitation Energies [eV] at current iteration:
 Root      1 :     2.573298230626169   Change is   -0.000024382413247
 Root      2 :     2.817534858057024   Change is   -0.000208295995955
 Root      3 :     3.025379847562180   Change is   -0.000106720635165
 Root      4 :     3.066225479305270   Change is   -0.000047428160933
 Iteration     7 Dimension    58 NMult    56 NNew      2
 CISAX will form     2 AO SS matrices at one time.
 NMat=     2 NSing=     0 JSym2X= 0.
 Root      1 has converged.
 Root      2 not converged, maximum delta is    0.001013733043380
 Root      3 has converged.
 Root      4 has converged.
 Excitation Energies [eV] at current iteration:
 Root      1 :     2.573298162432698   Change is   -0.000000068193471
 Root      2 :     2.817493874893495   Change is   -0.000040983163529
 Root      3 :     3.025379847562153   Change is   -0.000000000000027
 Root      4 :     3.066225479305324   Change is    0.000000000000054
 Iteration     8 Dimension    60 NMult    58 NNew      2
 CISAX will form     2 AO SS matrices at one time.
 NMat=     2 NSing=     0 JSym2X= 0.
 Root      1 has converged.
 Root      2 has converged.
 Root      3 has converged.
 Root      4 has converged.
 Excitation Energies [eV] at current iteration:
 Root      1 :     2.573298141454928   Change is   -0.000000020977771
 Root      2 :     2.817486931719110   Change is   -0.000006943174385
 Root      3 :     3.025379847562044   Change is   -0.000000000000109
 Root      4 :     3.066225479305190   Change is   -0.000000000000134
 Convergence achieved on expansion vectors.
 ***********************************************************************
 Excited states from <AA,BB:AA,BB> singles matrix:
 ***********************************************************************
 
 1PDM for each excited state written to RWF  633
 Ground to excited state transition densities written to RWF  633
 Ground to excited state transition electric dipole moments (Au):
       state          X           Y           Z        Dip. S.      Osc.
         1         0.0000     -0.0000     -0.0000      0.0000      0.0000
         2        -0.0000      0.0000      0.0000      0.0000      0.0000
         3         0.0875     -0.8037     -0.8367      1.3536      0.1003
         4        -1.6402      0.0234     -0.1567      2.7153      0.2040
 Ground to excited state transition velocity dipole moments (Au):
       state          X           Y           Z        Dip. S.      Osc.
         1        -0.0000      0.0000      0.0000      0.0000      0.0000
         2         0.0000     -0.0000     -0.0000      0.0000      0.0000
         3        -0.0071      0.0950      0.0985      0.0188      0.1127
         4         0.1789     -0.0012      0.0185      0.0323      0.1913
 Ground to excited state transition magnetic dipole moments (Au):
       state          X           Y           Z
         1        -0.0000      0.0000     -0.0000
         2         0.0000     -0.0000      0.0000
         3         0.0622      0.6560     -0.8973
         4        -0.0029      0.0649      0.1261
 Ground to excited state transition velocity quadrupole moments (Au):
       state          XX          YY          ZZ          XY          XZ          YZ
         1        -0.0000      0.0000     -0.0000     -0.0000     -0.0000      0.0000
         2        -0.0000      0.0000     -0.0000     -0.0000      0.0000     -0.0000
         3        -0.3332      0.1441      0.0281     -0.6761     -0.5612      0.0719
         4         0.2233      0.1227     -0.1183     -0.0128     -0.0439     -0.0668
 <0|del|b> * <b|rxdel|0> + <0|del|b> * <b|delr+rdel|0>
 Rotatory Strengths (R) in cgs (10**-40 erg-esu-cm/Gauss)
       state          XX          YY          ZZ    R(velocity)    E-M Angle
         1        -0.0000      0.0000     -0.0000      0.0000       90.00
         2         0.0000     -0.0000      0.0000     -0.0000       90.00
         3      -125.0710    -72.3340     28.8701    -56.1783      100.00
         4         6.1713    -31.0884     35.7963      3.6264       86.10
 1/2[<0|r|b>*<b|rxdel|0> + (<0|rxdel|b>*<b|r|0>)*]
 Rotatory Strengths (R) in cgs (10**-40 erg-esu-cm/Gauss)
       state          XX          YY          ZZ     R(length)
         1         0.0000      0.0000     -0.0000      0.0000
         2         0.0000      0.0000     -0.0000      0.0000
         3        -3.8502    372.8175   -530.9096    -53.9808
         4        -3.3775     -1.0740     13.9741      3.1742
  1/2[<0|del|b>*<b|r|0> + (<0|r|b>*<b|del|0>)*] (Au)
       state          X           Y           Z        Dip. S.   Osc.(frdel)
         1        -0.0000     -0.0000     -0.0000      0.0000      0.0000
         2        -0.0000     -0.0000     -0.0000      0.0000      0.0000
         3        -0.0006     -0.0764     -0.0824      0.1594      0.1063
         4        -0.2934     -0.0000     -0.0029      0.2963      0.1975

 Excitation energies and oscillator strengths:
 
 Excited state symmetry could not be determined.
 Excited State   1:      Triplet-?Sym    2.5733 eV  481.81 nm  f=0.0000  <S**2>=2.000
     130 ->132         0.69447
 This state for optimization and/or second-order correction.
 Total Energy, E(TD-HF/TD-DFT) =  -2177.60084703    
 Copying the excited state density for this state as the 1-particle RhoCI density.
 
 Excited state symmetry could not be determined.
 Excited State   2:      Triplet-?Sym    2.8175 eV  440.05 nm  f=0.0000  <S**2>=2.000
     127 ->132        -0.13569
     128 ->132        -0.22206
     130 ->133         0.10214
     131 ->132         0.59502
 
 Excited state symmetry could not be determined.
 Excited State   3:      Singlet-?Sym    3.0254 eV  409.81 nm  f=0.1003  <S**2>=0.000
     130 ->132         0.68394
     131 ->132        -0.14488
 
 Excited state symmetry could not be determined.
 Excited State   4:      Singlet-?Sym    3.0662 eV  404.35 nm  f=0.2040  <S**2>=0.000
     130 ->132         0.14430
     131 ->132         0.68811
 SavETr:  write IOETrn=   770 NScale= 10 NData=  16 NLR=1 NState=    4 LETran=      82.
 Leave Link  914 at Sat Nov  5 10:22:07 2022, MaxMem=   402653184 cpu:            6021.0 elap:             466.6
 (Enter /home/wykgroup/appl/g16/l601.exe)
 Copying SCF densities to generalized density rwf, IOpCl= 0 IROHF=0.

 **********************************************************************

            Population analysis using the SCF Density.

 **********************************************************************

 Alpha  occ. eigenvalues --  -88.90061 -88.89862 -14.41107 -14.40470 -14.31618
 Alpha  occ. eigenvalues --  -10.29094 -10.25660 -10.25072 -10.24966 -10.24143
 Alpha  occ. eigenvalues --  -10.23977 -10.23354 -10.23204 -10.22810 -10.21279
 Alpha  occ. eigenvalues --  -10.20973 -10.20842 -10.20527 -10.20240 -10.20233
 Alpha  occ. eigenvalues --  -10.20179 -10.20108 -10.20071 -10.19999 -10.19896
 Alpha  occ. eigenvalues --  -10.19656 -10.19550 -10.19547 -10.19383 -10.19249
 Alpha  occ. eigenvalues --  -10.18786 -10.18580 -10.18366 -10.18307 -10.18224
 Alpha  occ. eigenvalues --  -10.18108  -7.96206  -7.96005  -6.73203  -5.92692
 Alpha  occ. eigenvalues --   -5.92490  -5.92280  -5.92072  -5.91773  -5.91577
 Alpha  occ. eigenvalues --   -1.06677  -0.97534  -0.91938  -0.88478  -0.86718
 Alpha  occ. eigenvalues --   -0.86183  -0.85578  -0.83993  -0.82024  -0.80338
 Alpha  occ. eigenvalues --   -0.77383  -0.76983  -0.76083  -0.75828  -0.74723
 Alpha  occ. eigenvalues --   -0.74394  -0.73397  -0.72604  -0.70916  -0.69570
 Alpha  occ. eigenvalues --   -0.66587  -0.65070  -0.63394  -0.61760  -0.61642
 Alpha  occ. eigenvalues --   -0.60865  -0.60150  -0.59284  -0.58647  -0.58152
 Alpha  occ. eigenvalues --   -0.56315  -0.54591  -0.53833  -0.52415  -0.51922
 Alpha  occ. eigenvalues --   -0.51305  -0.49924  -0.49544  -0.48670  -0.47691
 Alpha  occ. eigenvalues --   -0.46962  -0.46491  -0.46460  -0.45954  -0.45680
 Alpha  occ. eigenvalues --   -0.45585  -0.44438  -0.43778  -0.43664  -0.43298
 Alpha  occ. eigenvalues --   -0.42845  -0.42457  -0.41491  -0.41193  -0.40104
 Alpha  occ. eigenvalues --   -0.39699  -0.39284  -0.39040  -0.38446  -0.38013
 Alpha  occ. eigenvalues --   -0.37969  -0.37325  -0.36996  -0.36291  -0.36228
 Alpha  occ. eigenvalues --   -0.35207  -0.34981  -0.34328  -0.34018  -0.32787
 Alpha  occ. eigenvalues --   -0.32586  -0.31786  -0.31201  -0.30895  -0.29627
 Alpha  occ. eigenvalues --   -0.28017  -0.27691  -0.26743  -0.26568  -0.26092
 Alpha  occ. eigenvalues --   -0.25354  -0.24366  -0.22459  -0.21713  -0.20336
 Alpha  occ. eigenvalues --   -0.20033
 Alpha virt. eigenvalues --   -0.07248  -0.02568  -0.02462  -0.02219  -0.01132
 Alpha virt. eigenvalues --   -0.01105  -0.00279   0.00124   0.01329   0.02348
 Alpha virt. eigenvalues --    0.03152   0.04571   0.06271   0.06981   0.07334
 Alpha virt. eigenvalues --    0.08096   0.09163   0.10222   0.11056   0.11497
 Alpha virt. eigenvalues --    0.11630   0.12971   0.13728   0.13928   0.14298
 Alpha virt. eigenvalues --    0.14824   0.14920   0.15158   0.15823   0.16349
 Alpha virt. eigenvalues --    0.16420   0.17051   0.17146   0.17738   0.18207
 Alpha virt. eigenvalues --    0.18517   0.18662   0.19059   0.19808   0.20097
 Alpha virt. eigenvalues --    0.21534   0.21858   0.22392   0.22824   0.23397
 Alpha virt. eigenvalues --    0.24608   0.24885   0.24970   0.26170   0.27091
 Alpha virt. eigenvalues --    0.27171   0.27423   0.27784   0.28497   0.29282
 Alpha virt. eigenvalues --    0.30194   0.30435   0.31147   0.31868   0.32006
 Alpha virt. eigenvalues --    0.32517   0.33125   0.33732   0.34523   0.35182
 Alpha virt. eigenvalues --    0.35828   0.36215   0.36743   0.37169   0.37928
 Alpha virt. eigenvalues --    0.38087   0.38413   0.40477   0.40736   0.41321
 Alpha virt. eigenvalues --    0.42500   0.44115   0.44621   0.44825   0.46025
 Alpha virt. eigenvalues --    0.46882   0.47342   0.48196   0.48526   0.48978
 Alpha virt. eigenvalues --    0.49396   0.50423   0.51116   0.51645   0.52171
 Alpha virt. eigenvalues --    0.52652   0.52913   0.53253   0.53455   0.53787
 Alpha virt. eigenvalues --    0.53910   0.55111   0.55455   0.55680   0.55730
 Alpha virt. eigenvalues --    0.56115   0.56365   0.57073   0.57265   0.57327
 Alpha virt. eigenvalues --    0.57509   0.57662   0.57999   0.58412   0.58893
 Alpha virt. eigenvalues --    0.59343   0.59769   0.59847   0.60006   0.60198
 Alpha virt. eigenvalues --    0.60261   0.60386   0.60425   0.60676   0.60767
 Alpha virt. eigenvalues --    0.61516   0.61630   0.61930   0.62104   0.62208
 Alpha virt. eigenvalues --    0.62925   0.63017   0.63374   0.63889   0.64463
 Alpha virt. eigenvalues --    0.65009   0.65717   0.66520   0.66835   0.67546
 Alpha virt. eigenvalues --    0.67904   0.68504   0.68836   0.69682   0.69957
 Alpha virt. eigenvalues --    0.71365   0.71466   0.73806   0.74324   0.74784
 Alpha virt. eigenvalues --    0.75130   0.76486   0.76575   0.77682   0.78634
 Alpha virt. eigenvalues --    0.79332   0.80036   0.81004   0.81430   0.81733
 Alpha virt. eigenvalues --    0.82610   0.82863   0.83030   0.83279   0.83347
 Alpha virt. eigenvalues --    0.83809   0.83915   0.84137   0.84761   0.85240
 Alpha virt. eigenvalues --    0.85431   0.85896   0.86406   0.86613   0.86742
 Alpha virt. eigenvalues --    0.87486   0.87849   0.88447   0.88890   0.89460
 Alpha virt. eigenvalues --    0.91001   0.91200   0.91288   0.91834   0.91996
 Alpha virt. eigenvalues --    0.92391   0.92956   0.93993   0.94884   0.94972
 Alpha virt. eigenvalues --    0.95743   0.96218   0.96439   0.97111   0.97837
 Alpha virt. eigenvalues --    0.98255   0.98493   0.98946   0.99368   0.99646
 Alpha virt. eigenvalues --    1.00685   1.01305   1.02158   1.02844   1.03248
 Alpha virt. eigenvalues --    1.03751   1.04361   1.05211   1.05745   1.06207
 Alpha virt. eigenvalues --    1.07143   1.07457   1.10035   1.10517   1.10739
 Alpha virt. eigenvalues --    1.11478   1.12090   1.13336   1.14375   1.14800
 Alpha virt. eigenvalues --    1.15539   1.15825   1.16933   1.17177   1.18138
 Alpha virt. eigenvalues --    1.18501   1.19500   1.20346   1.21036   1.22425
 Alpha virt. eigenvalues --    1.23597   1.23747   1.24628   1.25219   1.25773
 Alpha virt. eigenvalues --    1.26293   1.26439   1.28119   1.29544   1.30014
 Alpha virt. eigenvalues --    1.30872   1.32029   1.32880   1.34072   1.35099
 Alpha virt. eigenvalues --    1.36131   1.37966   1.38178   1.38712   1.40279
 Alpha virt. eigenvalues --    1.41191   1.41285   1.41868   1.42339   1.42586
 Alpha virt. eigenvalues --    1.43317   1.44063   1.44509   1.45417   1.45627
 Alpha virt. eigenvalues --    1.45725   1.46215   1.46344   1.47413   1.48268
 Alpha virt. eigenvalues --    1.48419   1.48593   1.48704   1.49530   1.49697
 Alpha virt. eigenvalues --    1.49832   1.50131   1.50473   1.52331   1.52641
 Alpha virt. eigenvalues --    1.54297   1.54934   1.57291   1.59001   1.59229
 Alpha virt. eigenvalues --    1.62637   1.64766   1.66047   1.66640   1.66828
 Alpha virt. eigenvalues --    1.69467   1.72412   1.73023   1.73760   1.74133
 Alpha virt. eigenvalues --    1.74840   1.75641   1.77086   1.78012   1.78484
 Alpha virt. eigenvalues --    1.78664   1.79551   1.82040   1.82716   1.83078
 Alpha virt. eigenvalues --    1.83349   1.84104   1.85578   1.86434   1.87177
 Alpha virt. eigenvalues --    1.88159   1.88462   1.88978   1.89139   1.89846
 Alpha virt. eigenvalues --    1.90268   1.90945   1.91564   1.92620   1.93340
 Alpha virt. eigenvalues --    1.94053   1.94800   1.95360   1.96109   1.96870
 Alpha virt. eigenvalues --    1.98444   1.98680   1.98977   2.00963   2.02238
 Alpha virt. eigenvalues --    2.03171   2.04091   2.05375   2.05894   2.07983
 Alpha virt. eigenvalues --    2.09314   2.10100   2.10551   2.11145   2.11398
 Alpha virt. eigenvalues --    2.11548   2.11766   2.12055   2.12979   2.13315
 Alpha virt. eigenvalues --    2.13721   2.14259   2.14611   2.14998   2.15698
 Alpha virt. eigenvalues --    2.16352   2.16975   2.17391   2.17863   2.18062
 Alpha virt. eigenvalues --    2.19966   2.20437   2.20817   2.22163   2.23745
 Alpha virt. eigenvalues --    2.24425   2.25041   2.25368   2.26377   2.26903
 Alpha virt. eigenvalues --    2.27267   2.28203   2.28388   2.28912   2.29311
 Alpha virt. eigenvalues --    2.29679   2.30695   2.30762   2.31713   2.33928
 Alpha virt. eigenvalues --    2.36015   2.36443   2.38221   2.40371   2.40979
 Alpha virt. eigenvalues --    2.42792   2.46116   2.50791   2.51766   2.54116
 Alpha virt. eigenvalues --    2.56479   2.57186   2.57611   2.57919   2.58311
 Alpha virt. eigenvalues --    2.59228   2.59741   2.60987   2.61934   2.62390
 Alpha virt. eigenvalues --    2.63471   2.63561   2.64332   2.65665   2.66716
 Alpha virt. eigenvalues --    2.67222   2.67881   2.67971   2.69491   2.69778
 Alpha virt. eigenvalues --    2.70271   2.70691   2.71995   2.72730   2.72851
 Alpha virt. eigenvalues --    2.74686   2.75721   2.75841   2.77452   2.77709
 Alpha virt. eigenvalues --    2.78447   2.79487   2.79909   2.80565   2.82248
 Alpha virt. eigenvalues --    2.83438   2.84362   2.87257   2.87481   2.90296
 Alpha virt. eigenvalues --    2.92227   2.92823   2.97168   3.01169   3.07134
 Alpha virt. eigenvalues --    3.11076   3.13193   3.15140   3.22154   3.27994
 Alpha virt. eigenvalues --    3.32496   3.36207   3.37526   3.40722   3.47570
 Alpha virt. eigenvalues --    3.49594   3.75517   3.96200   3.99391   4.07479
 Alpha virt. eigenvalues --    4.08666   4.08905   4.09093   4.11556   4.12133
 Alpha virt. eigenvalues --    4.12388   4.12973   4.13254   4.13572   4.15518
 Alpha virt. eigenvalues --    4.17763   4.21483   4.21938   4.23978   4.28117
 Alpha virt. eigenvalues --    4.32222   4.33124   4.34839   4.35480   4.36857
 Alpha virt. eigenvalues --    4.38124   4.41517   4.43234   4.44809   4.46876
 Alpha virt. eigenvalues --    4.49774   4.57756   4.63431   4.70091   4.70652
 Alpha virt. eigenvalues --    4.75219   4.78137   4.85278
          Condensed to atoms (all electrons):
 Mulliken charges:
               1
     1  C   -0.123272
     2  C   -0.123826
     3  C   -0.206506
     4  C    0.107410
     5  C   -0.162005
     6  C   -0.151932
     7  S    0.192120
     8  C   -0.167102
     9  C   -0.204763
    10  C    0.323599
    11  N   -0.765382
    12  C    0.316276
    13  C   -0.183878
    14  C   -0.141057
    15  C   -0.147477
    16  C   -0.160711
    17  C    0.320222
    18  N   -0.738032
    19  C    0.320389
    20  C   -0.154133
    21  C   -0.156878
    22  C   -0.136062
    23  C   -0.196166
    24  C    0.236885
    25  N   -0.602162
    26  C    0.789600
    27  C   -0.183380
    28  C   -0.170122
    29  C    0.101040
    30  B    0.020492
    31  C    0.107925
    32  C   -0.205825
    33  C   -0.124024
    34  C   -0.122842
    35  C   -0.151780
    36  C   -0.163207
    37  S    0.209756
    38  H    0.138591
    39  H    0.133894
    40  H    0.145028
    41  H    0.145003
    42  H    0.162293
    43  H    0.160174
    44  H    0.138028
    45  H    0.137442
    46  H    0.150965
    47  H    0.135484
    48  H    0.127148
    49  H    0.126821
    50  H    0.141135
    51  H    0.190879
    52  H    0.144146
    53  H    0.133491
    54  H    0.138988
    55  H    0.147297
 Sum of Mulliken charges =  -0.00000
 Mulliken charges with hydrogens summed into heavy atoms:
               1
     1  C    0.015319
     2  C    0.010069
     3  C   -0.061478
     4  C    0.107410
     5  C   -0.162005
     6  C   -0.006929
     7  S    0.192120
     8  C   -0.167102
     9  C   -0.042469
    10  C    0.323599
    11  N   -0.765382
    12  C    0.316276
    13  C   -0.023704
    14  C   -0.003029
    15  C   -0.010035
    16  C   -0.009746
    17  C    0.320222
    18  N   -0.738032
    19  C    0.320389
    20  C   -0.018649
    21  C   -0.029730
    22  C   -0.009241
    23  C   -0.055031
    24  C    0.236885
    25  N   -0.602162
    26  C    0.789600
    27  C    0.007499
    28  C   -0.170122
    29  C    0.101040
    30  B    0.020492
    31  C    0.107925
    32  C   -0.061680
    33  C    0.009467
    34  C    0.016146
    35  C   -0.004483
    36  C   -0.163207
    37  S    0.209756
 Electronic spatial extent (au):  <R**2>=          23467.7850
 Charge=             -0.0000 electrons
 Dipole moment (field-independent basis, Debye):
    X=             -0.8616    Y=             -2.4055    Z=             -0.5026  Tot=              2.6041
 Quadrupole moment (field-independent basis, Debye-Ang):
   XX=           -184.7851   YY=           -205.8453   ZZ=           -225.5662
   XY=            -11.3033   XZ=             -0.8436   YZ=             10.5984
 Traceless Quadrupole moment (field-independent basis, Debye-Ang):
   XX=             20.6138   YY=             -0.4465   ZZ=            -20.1673
   XY=            -11.3033   XZ=             -0.8436   YZ=             10.5984
 Octapole moment (field-independent basis, Debye-Ang**2):
  XXX=             34.1606  YYY=            -21.3056  ZZZ=            -51.6816  XYY=              5.3186
  XXY=            -35.0830  XXZ=            -32.7037  XZZ=             -3.5616  YZZ=             -1.5737
  YYZ=            -10.1440  XYZ=            -22.5765
 Hexadecapole moment (field-independent basis, Debye-Ang**3):
 XXXX=         -21493.8726 YYYY=          -6038.5086 ZZZZ=          -2251.0625 XXXY=            280.0894
 XXXZ=           -394.9592 YYYX=            204.5964 YYYZ=          -1137.9040 ZZZX=           -516.6529
 ZZZY=          -1387.3381 XXYY=          -4481.2217 XXZZ=          -4528.3771 YYZZ=          -1364.7890
 XXYZ=           -165.1761 YYXZ=           -194.8072 ZZXY=            162.2883
 N-N= 3.861342376084D+03 E-N=-1.281494456923D+04  KE= 2.161866730505D+03
 Leave Link  601 at Sat Nov  5 10:22:08 2022, MaxMem=   402653184 cpu:               2.4 elap:               0.3
 (Enter /home/wykgroup/appl/g16/l9999.exe)
 Electronic transition elements 
                 1             2             3             4 
      1  -0.217760D+04 -0.217759D+04 -0.217758D+04 -0.217758D+04
      2   0.000000D+00  0.000000D+00  0.874894D-01 -0.164018D+01
      3   0.000000D+00  0.000000D+00 -0.803666D+00  0.234049D-01
      4   0.000000D+00  0.000000D+00 -0.836713D+00 -0.156748D+00
      5   0.000000D+00  0.000000D+00 -0.711752D-02  0.178860D+00
      6   0.000000D+00  0.000000D+00  0.950455D-01 -0.117415D-02
      7   0.000000D+00  0.000000D+00  0.985249D-01  0.184865D-01
      8   0.000000D+00  0.000000D+00  0.622315D-01 -0.291192D-02
      9   0.000000D+00  0.000000D+00  0.655994D+00  0.648871D-01
     10   0.000000D+00  0.000000D+00 -0.897270D+00  0.126067D+00
     11   0.000000D+00  0.000000D+00 -0.333232D+00  0.223327D+00
     12   0.000000D+00  0.000000D+00  0.144120D+00  0.122747D+00
     13   0.000000D+00  0.000000D+00  0.281218D-01 -0.118306D+00
     14   0.000000D+00  0.000000D+00 -0.676106D+00 -0.127688D-01
     15   0.000000D+00  0.000000D+00 -0.561206D+00 -0.439462D-01
     16   0.000000D+00  0.000000D+00  0.718870D-01 -0.668298D-01
 1\1\GINC-NODE68\SP\RB3LYP TD-FC\6-31G(d)\C31H18B1N3S2\WYKGROUP\05-Nov-
 2022\0\\#p b3lyp/6-31g(d) 6D 10F nosymm GFInput td=(50-50,nstate=2) SC
 F=XQC\\Gaussian input prepared by ASE\\0,1\C,0,-6.1822721096,-2.582617
 6039,-1.8618660438\C,0,-6.6643833091,-1.7495174997,-0.8462751036\C,0,-
 5.8127443026,-0.822244288,-0.2591387477\C,0,-4.4578326488,-0.679856406
 3,-0.6440580774\C,0,-3.991276176,-1.5863887423,-1.6255262168\C,0,-4.84
 86687717,-2.5099269424,-2.2444482881\S,0,-2.3073775557,-1.6392005682,-
 2.1778998063\C,0,-1.3926287891,-0.8076035671,-0.9084010027\C,0,-0.0188
 632287,-1.0574077579,-0.924973164\C,0,0.8069042523,-0.4333954448,0.014
 5551111\N,0,2.1986134271,-0.6962809511,0.0241401918\C,0,2.8596461289,-
 1.9123415823,-0.2694759931\C,0,2.3692578275,-3.1890460326,-0.528675914
 3\C,0,3.294569834,-4.2144525743,-0.7547976614\C,0,4.672318868,-3.97880
 45207,-0.7133291026\C,0,5.1743756982,-2.7059339071,-0.4254594407\C,0,4
 .2571962436,-1.6878465607,-0.2004607275\N,0,4.4171581405,-0.3494004356
 ,0.1474456153\C,0,5.3556150159,0.6432493335,0.425101365\C,0,6.74691178
 6,0.6667546904,0.4395974217\C,0,7.3529459518,1.878249236,0.7756639306\
 C,0,6.5872049677,3.0164666397,1.0829780441\C,0,5.1935708985,2.98554717
 55,1.0657805714\C,0,4.560151894,1.7853379411,0.7323967578\N,0,3.192175
 7238,1.5061627632,0.6501407478\C,0,3.1771926031,0.2480337919,0.3018009
 034\C,0,0.2699208152,0.4683411986,0.9359126229\C,0,-1.1024329631,0.728
 4227346,0.917921434\C,0,-1.9926503324,0.0920357471,0.0114864337\B,0,-3
 .5105700766,0.3660858838,0.0183328668\C,0,-4.0301304959,1.6728352505,0
 .686015825\C,0,-5.2662220172,2.2642144898,0.3280632301\C,0,-5.73773656
 63,3.4289961145,0.9190966423\C,0,-4.9756605299,4.0559514585,1.91172172
 3\C,0,-3.7374621846,3.5373368891,2.2676188148\C,0,-3.2589578776,2.3726
 981215,1.6451055723\S,0,-1.6452263368,1.8604474783,2.1646216744\H,0,-6
 .8384765855,-3.3079508591,-2.3356291385\H,0,-7.6968529067,-1.828267630
 5,-0.517538306\H,0,-6.1937695547,-0.1911042173,0.5372582122\H,0,-4.461
 408999,-3.1857746182,-3.0024459556\H,0,0.4059577195,-1.7177361931,-1.6
 717131555\H,0,1.30583248,-3.394821403,-0.5398763511\H,0,2.9270085899,-
 5.2149315982,-0.9619922658\H,0,5.3647857283,-4.794771521,-0.8962210996
 \H,0,6.2416665608,-2.5202384161,-0.3698582826\H,0,7.3393267947,-0.2112
 378053,0.2014951955\H,0,8.4371010017,1.9401750931,0.7988821659\H,0,7.0
 953547327,3.941971457,1.3393344295\H,0,4.6020553713,3.8644964262,1.302
 0753542\H,0,0.9259032534,0.9860952252,1.6255212626\H,0,-5.857907403,1.
 7954716924,-0.4516169464\H,0,-6.6897226618,3.8520297172,0.6108491313\H
 ,0,-5.3344238784,4.9646706308,2.3878323182\H,0,-3.1250660478,4.0470264
 674,3.0068282228\\Version=ES64L-G16RevB.01\HF=-2177.695414\RMSD=4.928e
 -09\PG=C01 [X(C31H18B1N3S2)]\\@


 KNOWLEDGE IS CHIMERA - FOR BEYOND IT LIES OTHER KNOWLEDGE,
 AND THE INCOMPLETENESS OF WHAT IS KNOWN RENDERS THE KNOWING FALSE.
     -- THE THOMAS COVENANT CHRONICLES
 Job cpu time:       0 days  1 hours 58 minutes 36.5 seconds.
 Elapsed time:       0 days  0 hours  9 minutes 11.8 seconds.
 File lengths (MBytes):  RWF=   1935 Int=      0 D2E=      0 Chk=     74 Scr=      1
 Normal termination of Gaussian 16 at Sat Nov  5 10:22:08 2022.
