 Entering Gaussian System, Link 0=/home/wykgroup/appl/g16/g16
 Input=./calculation/no_transfer_pubchem_sampling_8_b3lyp/157061245.com
 Output=./calculation/no_transfer_pubchem_sampling_8_b3lyp/157061245.log
 Initial command:
 /home/wykgroup/appl/g16/l1.exe "/userdata/scratch/wykgroup/khs/./calculation/no_transfer_pubchem_sampling_8_b3lyp/157061245/Gau-5594.inp" -scrdir="/userdata/scratch/wykgroup/khs/./calculation/no_transfer_pubchem_sampling_8_b3lyp/157061245/"
 Entering Link 1 = /home/wykgroup/appl/g16/l1.exe PID=      5595.
  
 Copyright (c) 1988-2017, Gaussian, Inc.  All Rights Reserved.
  
 This is part of the Gaussian(R) 16 program.  It is based on
 the Gaussian(R) 09 system (copyright 2009, Gaussian, Inc.),
 the Gaussian(R) 03 system (copyright 2003, Gaussian, Inc.),
 the Gaussian(R) 98 system (copyright 1998, Gaussian, Inc.),
 the Gaussian(R) 94 system (copyright 1995, Gaussian, Inc.),
 the Gaussian 92(TM) system (copyright 1992, Gaussian, Inc.),
 the Gaussian 90(TM) system (copyright 1990, Gaussian, Inc.),
 the Gaussian 88(TM) system (copyright 1988, Gaussian, Inc.),
 the Gaussian 86(TM) system (copyright 1986, Carnegie Mellon
 University), and the Gaussian 82(TM) system (copyright 1983,
 Carnegie Mellon University). Gaussian is a federally registered
 trademark of Gaussian, Inc.
  
 This software contains proprietary and confidential information,
 including trade secrets, belonging to Gaussian, Inc.
  
 This software is provided under written license and may be
 used, copied, transmitted, or stored only in accord with that
 written license.
  
 The following legend is applicable only to US Government
 contracts under FAR:
  
                    RESTRICTED RIGHTS LEGEND
  
 Use, reproduction and disclosure by the US Government is
 subject to restrictions as set forth in subparagraphs (a)
 and (c) of the Commercial Computer Software - Restricted
 Rights clause in FAR 52.227-19.
  
 Gaussian, Inc.
 340 Quinnipiac St., Bldg. 40, Wallingford CT 06492
  
  
 ---------------------------------------------------------------
 Warning -- This program may not be used in any manner that
 competes with the business of Gaussian, Inc. or will provide
 assistance to any competitor of Gaussian, Inc.  The licensee
 of this program is prohibited from giving any competitor of
 Gaussian, Inc. access to this program.  By using this program,
 the user acknowledges that Gaussian, Inc. is engaged in the
 business of creating and licensing software in the field of
 computational chemistry and represents and warrants to the
 licensee that it is not a competitor of Gaussian, Inc. and that
 it will not use this program in any manner prohibited above.
 ---------------------------------------------------------------
  

 Cite this work as:
 Gaussian 16, Revision B.01,
 M. J. Frisch, G. W. Trucks, H. B. Schlegel, G. E. Scuseria, 
 M. A. Robb, J. R. Cheeseman, G. Scalmani, V. Barone, 
 G. A. Petersson, H. Nakatsuji, X. Li, M. Caricato, A. V. Marenich, 
 J. Bloino, B. G. Janesko, R. Gomperts, B. Mennucci, H. P. Hratchian, 
 J. V. Ortiz, A. F. Izmaylov, J. L. Sonnenberg, D. Williams-Young, 
 F. Ding, F. Lipparini, F. Egidi, J. Goings, B. Peng, A. Petrone, 
 T. Henderson, D. Ranasinghe, V. G. Zakrzewski, J. Gao, N. Rega, 
 G. Zheng, W. Liang, M. Hada, M. Ehara, K. Toyota, R. Fukuda, 
 J. Hasegawa, M. Ishida, T. Nakajima, Y. Honda, O. Kitao, H. Nakai, 
 T. Vreven, K. Throssell, J. A. Montgomery, Jr., J. E. Peralta, 
 F. Ogliaro, M. J. Bearpark, J. J. Heyd, E. N. Brothers, K. N. Kudin, 
 V. N. Staroverov, T. A. Keith, R. Kobayashi, J. Normand, 
 K. Raghavachari, A. P. Rendell, J. C. Burant, S. S. Iyengar, 
 J. Tomasi, M. Cossi, J. M. Millam, M. Klene, C. Adamo, R. Cammi, 
 J. W. Ochterski, R. L. Martin, K. Morokuma, O. Farkas, 
 J. B. Foresman, and D. J. Fox, Gaussian, Inc., Wallingford CT, 2016.
 
 ******************************************
 Gaussian 16:  ES64L-G16RevB.01 20-Dec-2017
                 5-Nov-2022 
 ******************************************
 %chk=./calculation/no_transfer_pubchem_sampling_8_b3lyp/157061245.chk
 %nprocshared=7
 Will use up to    7 processors via shared memory.
 %mem=6GB
 -----------------------------
 #p b3lyp/6-31g(d) opt SCF=XQC
 -----------------------------
 1/18=20,19=15,26=3,38=1/1,3;
 2/9=110,12=2,17=6,18=5,40=1/2;
 3/5=1,6=6,7=1,11=2,25=1,30=1,71=1,74=-5/1,2,3;
 4//1;
 5/5=2,8=3,13=1,38=5/2,8;
 6/7=2,8=2,9=2,10=2,28=1/1;
 7//1,2,3,16;
 1/18=20,19=15,26=3/3(2);
 2/9=110/2;
 99//99;
 2/9=110/2;
 3/5=1,6=6,7=1,11=2,25=1,30=1,71=1,74=-5/1,2,3;
 4/5=5,16=3,69=1/1;
 5/5=2,8=3,13=1,38=5/2,8;
 7//1,2,3,16;
 1/18=20,19=15,26=3/3(-5);
 2/9=110/2;
 6/7=2,8=2,9=2,10=2,19=2,28=1/1;
 99/9=1/99;
 Leave Link    1 at Sat Nov  5 00:20:56 2022, MaxMem=   805306368 cpu:               0.8 elap:               0.1
 (Enter /home/wykgroup/appl/g16/l101.exe)
 ------------------------------
 Gaussian input prepared by ASE
 ------------------------------
 Symbolic Z-matrix:
 Charge =  0 Multiplicity = 1
 C                    -6.18823  -2.59334  -1.71734 
 C                    -6.63798  -1.7384   -0.7184 
 C                    -5.77679  -0.81581  -0.16479 
 C                    -4.43895  -0.70136  -0.5708 
 C                    -4.00243  -1.62236  -1.53131 
 C                    -4.87045  -2.54132  -2.11624 
 S                    -2.33567  -1.70274  -2.09543 
 C                    -1.39409  -0.85078  -0.88023 
 C                    -0.03212  -1.11169  -0.90916 
 C                     0.8083   -0.4891    0.00589 
 N                     2.18147  -0.74356   0.01581 
 C                     2.85735  -1.91448  -0.32582 
 C                     2.39593  -3.18415  -0.62646 
 C                     3.33291  -4.16887  -0.89937 
 C                     4.69623  -3.91025  -0.86326 
 C                     5.17623  -2.65562  -0.52454 
 C                     4.24899  -1.66963  -0.24962 
 N                     4.38853  -0.36205   0.15278 
 C                     5.28812   0.6313    0.46702 
 C                     6.66789   0.69786   0.48392 
 C                     7.23569   1.89909   0.86752 
 C                     6.45066   2.99452   1.22195 
 C                     5.07086   2.93672   1.20795 
 C                     4.47577   1.74309   0.82576 
 N                     3.13502   1.4262    0.73237 
 C                     3.13208   0.18855   0.33375 
 C                     0.28197   0.43114   0.90397 
 C                    -1.07677   0.70728   0.8909 
 C                    -1.97241   0.06494   0.01601 
 B                    -3.47655   0.35699   0.02411 
 C                    -3.96921   1.69631   0.62221 
 C                    -5.18244   2.29025   0.24192 
 C                    -5.63128   3.46842   0.79731 
 C                    -4.87373   4.10707   1.77226 
 C                    -3.65751   3.5785    2.14469 
 C                    -3.19982   2.40012   1.55817 
 S                    -1.60668   1.87204   2.0907 
 H                    -6.85994  -3.30962  -2.16649 
 H                    -7.66178  -1.79583  -0.37932 
 H                    -6.13013  -0.16601   0.62241 
 H                    -4.49312  -3.21741  -2.86916 
 H                     0.35943  -1.77917  -1.65934 
 H                     1.34425  -3.41855  -0.62885 
 H                     2.98937  -5.16311  -1.1403 
 H                     5.39428  -4.70209  -1.08647 
 H                     6.23375  -2.45446  -0.46731 
 H                     7.27746  -0.14949   0.20958 
 H                     8.31131   1.98977   0.89296 
 H                     6.93856   3.91246   1.51495 
 H                     4.4634    3.78392   1.48158 
 H                     0.93594   0.95086   1.58495 
 H                    -5.76905   1.80949  -0.52729 
 H                    -6.57074   3.89509   0.47812 
 H                    -5.22462   5.02373   2.22234 
 H                    -3.03926   4.07556   2.87733 
 
 ITRead=  0  0  0  0  0  0  0  0  0  0  0  0  0  0  0  0  0  0  0  0
 ITRead=  0  0  0  0  0  0  0  0  0  0  0  0  0  0  0  0  0  0  0  0
 ITRead=  0  0  0  0  0  0  0  0  0  0  0  0  0  0  0
 MicOpt= -1 -1 -1 -1 -1 -1 -1 -1 -1 -1 -1 -1 -1 -1 -1 -1 -1 -1 -1 -1
 MicOpt= -1 -1 -1 -1 -1 -1 -1 -1 -1 -1 -1 -1 -1 -1 -1 -1 -1 -1 -1 -1
 MicOpt= -1 -1 -1 -1 -1 -1 -1 -1 -1 -1 -1 -1 -1 -1 -1
 NAtoms=     55 NQM=       55 NQMF=       0 NMMI=      0 NMMIF=      0
                NMic=       0 NMicF=      0.
                    Isotopes and Nuclear Properties:
 (Nuclear quadrupole moments (NQMom) in fm**2, nuclear magnetic moments (NMagM)
  in nuclear magnetons)

  Atom         1           2           3           4           5           6           7           8           9          10
 IAtWgt=          12          12          12          12          12          12          32          12          12          12
 AtmWgt=  12.0000000  12.0000000  12.0000000  12.0000000  12.0000000  12.0000000  31.9720718  12.0000000  12.0000000  12.0000000
 NucSpn=           0           0           0           0           0           0           0           0           0           0
 AtZEff=  -0.0000000  -0.0000000  -0.0000000  -0.0000000  -0.0000000  -0.0000000  -0.0000000  -0.0000000  -0.0000000  -0.0000000
 NQMom=    0.0000000   0.0000000   0.0000000   0.0000000   0.0000000   0.0000000   0.0000000   0.0000000   0.0000000   0.0000000
 NMagM=    0.0000000   0.0000000   0.0000000   0.0000000   0.0000000   0.0000000   0.0000000   0.0000000   0.0000000   0.0000000
 AtZNuc=   6.0000000   6.0000000   6.0000000   6.0000000   6.0000000   6.0000000  16.0000000   6.0000000   6.0000000   6.0000000

  Atom        11          12          13          14          15          16          17          18          19          20
 IAtWgt=          14          12          12          12          12          12          12          14          12          12
 AtmWgt=  14.0030740  12.0000000  12.0000000  12.0000000  12.0000000  12.0000000  12.0000000  14.0030740  12.0000000  12.0000000
 NucSpn=           2           0           0           0           0           0           0           2           0           0
 AtZEff=  -0.0000000  -0.0000000  -0.0000000  -0.0000000  -0.0000000  -0.0000000  -0.0000000  -0.0000000  -0.0000000  -0.0000000
 NQMom=    2.0440000   0.0000000   0.0000000   0.0000000   0.0000000   0.0000000   0.0000000   2.0440000   0.0000000   0.0000000
 NMagM=    0.4037610   0.0000000   0.0000000   0.0000000   0.0000000   0.0000000   0.0000000   0.4037610   0.0000000   0.0000000
 AtZNuc=   7.0000000   6.0000000   6.0000000   6.0000000   6.0000000   6.0000000   6.0000000   7.0000000   6.0000000   6.0000000

  Atom        21          22          23          24          25          26          27          28          29          30
 IAtWgt=          12          12          12          12          14          12          12          12          12          11
 AtmWgt=  12.0000000  12.0000000  12.0000000  12.0000000  14.0030740  12.0000000  12.0000000  12.0000000  12.0000000  11.0093053
 NucSpn=           0           0           0           0           2           0           0           0           0           3
 AtZEff=  -0.0000000  -0.0000000  -0.0000000  -0.0000000  -0.0000000  -0.0000000  -0.0000000  -0.0000000  -0.0000000  -0.0000000
 NQMom=    0.0000000   0.0000000   0.0000000   0.0000000   2.0440000   0.0000000   0.0000000   0.0000000   0.0000000   4.0590000
 NMagM=    0.0000000   0.0000000   0.0000000   0.0000000   0.4037610   0.0000000   0.0000000   0.0000000   0.0000000   2.6886370
 AtZNuc=   6.0000000   6.0000000   6.0000000   6.0000000   7.0000000   6.0000000   6.0000000   6.0000000   6.0000000   5.0000000

  Atom        31          32          33          34          35          36          37          38          39          40
 IAtWgt=          12          12          12          12          12          12          32           1           1           1
 AtmWgt=  12.0000000  12.0000000  12.0000000  12.0000000  12.0000000  12.0000000  31.9720718   1.0078250   1.0078250   1.0078250
 NucSpn=           0           0           0           0           0           0           0           1           1           1
 AtZEff=  -0.0000000  -0.0000000  -0.0000000  -0.0000000  -0.0000000  -0.0000000  -0.0000000  -0.0000000  -0.0000000  -0.0000000
 NQMom=    0.0000000   0.0000000   0.0000000   0.0000000   0.0000000   0.0000000   0.0000000   0.0000000   0.0000000   0.0000000
 NMagM=    0.0000000   0.0000000   0.0000000   0.0000000   0.0000000   0.0000000   0.0000000   2.7928460   2.7928460   2.7928460
 AtZNuc=   6.0000000   6.0000000   6.0000000   6.0000000   6.0000000   6.0000000  16.0000000   1.0000000   1.0000000   1.0000000

  Atom        41          42          43          44          45          46          47          48          49          50
 IAtWgt=           1           1           1           1           1           1           1           1           1           1
 AtmWgt=   1.0078250   1.0078250   1.0078250   1.0078250   1.0078250   1.0078250   1.0078250   1.0078250   1.0078250   1.0078250
 NucSpn=           1           1           1           1           1           1           1           1           1           1
 AtZEff=  -0.0000000  -0.0000000  -0.0000000  -0.0000000  -0.0000000  -0.0000000  -0.0000000  -0.0000000  -0.0000000  -0.0000000
 NQMom=    0.0000000   0.0000000   0.0000000   0.0000000   0.0000000   0.0000000   0.0000000   0.0000000   0.0000000   0.0000000
 NMagM=    2.7928460   2.7928460   2.7928460   2.7928460   2.7928460   2.7928460   2.7928460   2.7928460   2.7928460   2.7928460
 AtZNuc=   1.0000000   1.0000000   1.0000000   1.0000000   1.0000000   1.0000000   1.0000000   1.0000000   1.0000000   1.0000000

  Atom        51          52          53          54          55
 IAtWgt=           1           1           1           1           1
 AtmWgt=   1.0078250   1.0078250   1.0078250   1.0078250   1.0078250
 NucSpn=           1           1           1           1           1
 AtZEff=  -0.0000000  -0.0000000  -0.0000000  -0.0000000  -0.0000000
 NQMom=    0.0000000   0.0000000   0.0000000   0.0000000   0.0000000
 NMagM=    2.7928460   2.7928460   2.7928460   2.7928460   2.7928460
 AtZNuc=   1.0000000   1.0000000   1.0000000   1.0000000   1.0000000
 Leave Link  101 at Sat Nov  5 00:20:56 2022, MaxMem=   805306368 cpu:               1.3 elap:               0.2
 (Enter /home/wykgroup/appl/g16/l103.exe)

 GradGradGradGradGradGradGradGradGradGradGradGradGradGradGradGradGradGrad
 Berny optimization.
 Initialization pass.
                           ----------------------------
                           !    Initial Parameters    !
                           ! (Angstroms and Degrees)  !
 --------------------------                            --------------------------
 ! Name  Definition              Value          Derivative Info.                !
 --------------------------------------------------------------------------------
 ! R1    R(1,2)                  1.3896         estimate D2E/DX2                !
 ! R2    R(1,6)                  1.3778         estimate D2E/DX2                !
 ! R3    R(1,38)                 1.0798         estimate D2E/DX2                !
 ! R4    R(2,3)                  1.3782         estimate D2E/DX2                !
 ! R5    R(2,39)                 1.08           estimate D2E/DX2                !
 ! R6    R(3,4)                  1.4028         estimate D2E/DX2                !
 ! R7    R(3,40)                 1.0802         estimate D2E/DX2                !
 ! R8    R(4,5)                  1.4005         estimate D2E/DX2                !
 ! R9    R(4,30)                 1.5493         estimate D2E/DX2                !
 ! R10   R(5,6)                  1.3929         estimate D2E/DX2                !
 ! R11   R(5,7)                  1.7615         estimate D2E/DX2                !
 ! R12   R(6,41)                 1.08           estimate D2E/DX2                !
 ! R13   R(7,8)                  1.7576         estimate D2E/DX2                !
 ! R14   R(8,9)                  1.387          estimate D2E/DX2                !
 ! R15   R(8,29)                 1.4058         estimate D2E/DX2                !
 ! R16   R(9,10)                 1.3897         estimate D2E/DX2                !
 ! R17   R(9,42)                 1.0778         estimate D2E/DX2                !
 ! R18   R(10,11)                1.3966         estimate D2E/DX2                !
 ! R19   R(10,27)                1.3894         estimate D2E/DX2                !
 ! R20   R(11,12)                1.3945         estimate D2E/DX2                !
 ! R21   R(11,26)                1.3688         estimate D2E/DX2                !
 ! R22   R(12,13)                1.384          estimate D2E/DX2                !
 ! R23   R(12,17)                1.4151         estimate D2E/DX2                !
 ! R24   R(13,14)                1.3864         estimate D2E/DX2                !
 ! R25   R(13,43)                1.0775         estimate D2E/DX2                !
 ! R26   R(14,15)                1.3881         estimate D2E/DX2                !
 ! R27   R(14,44)                1.0792         estimate D2E/DX2                !
 ! R28   R(15,16)                1.3854         estimate D2E/DX2                !
 ! R29   R(15,45)                1.0789         estimate D2E/DX2                !
 ! R30   R(16,17)                1.3811         estimate D2E/DX2                !
 ! R31   R(16,46)                1.078          estimate D2E/DX2                !
 ! R32   R(17,18)                1.3752         estimate D2E/DX2                !
 ! R33   R(18,19)                1.3765         estimate D2E/DX2                !
 ! R34   R(18,26)                1.3837         estimate D2E/DX2                !
 ! R35   R(19,20)                1.3815         estimate D2E/DX2                !
 ! R36   R(19,24)                1.4229         estimate D2E/DX2                !
 ! R37   R(20,21)                1.3829         estimate D2E/DX2                !
 ! R38   R(20,47)                1.0793         estimate D2E/DX2                !
 ! R39   R(21,22)                1.3935         estimate D2E/DX2                !
 ! R40   R(21,48)                1.0797         estimate D2E/DX2                !
 ! R41   R(22,23)                1.3811         estimate D2E/DX2                !
 ! R42   R(22,49)                1.0801         estimate D2E/DX2                !
 ! R43   R(23,24)                1.3874         estimate D2E/DX2                !
 ! R44   R(23,50)                1.0778         estimate D2E/DX2                !
 ! R45   R(24,25)                1.3809         estimate D2E/DX2                !
 ! R46   R(25,26)                1.3003         estimate D2E/DX2                !
 ! R47   R(27,28)                1.3866         estimate D2E/DX2                !
 ! R48   R(27,51)                1.0777         estimate D2E/DX2                !
 ! R49   R(28,29)                1.4072         estimate D2E/DX2                !
 ! R50   R(28,37)                1.7541         estimate D2E/DX2                !
 ! R51   R(29,30)                1.5322         estimate D2E/DX2                !
 ! R52   R(30,31)                1.5473         estimate D2E/DX2                !
 ! R53   R(31,32)                1.4033         estimate D2E/DX2                !
 ! R54   R(31,36)                1.4012         estimate D2E/DX2                !
 ! R55   R(32,33)                1.3777         estimate D2E/DX2                !
 ! R56   R(32,52)                1.0802         estimate D2E/DX2                !
 ! R57   R(33,34)                1.3901         estimate D2E/DX2                !
 ! R58   R(33,53)                1.0801         estimate D2E/DX2                !
 ! R59   R(34,35)                1.3774         estimate D2E/DX2                !
 ! R60   R(34,54)                1.0798         estimate D2E/DX2                !
 ! R61   R(35,36)                1.3936         estimate D2E/DX2                !
 ! R62   R(35,55)                1.0798         estimate D2E/DX2                !
 ! R63   R(36,37)                1.7608         estimate D2E/DX2                !
 ! A1    A(2,1,6)              119.632          estimate D2E/DX2                !
 ! A2    A(2,1,38)             120.3836         estimate D2E/DX2                !
 ! A3    A(6,1,38)             119.9725         estimate D2E/DX2                !
 ! A4    A(1,2,3)              119.8935         estimate D2E/DX2                !
 ! A5    A(1,2,39)             119.985          estimate D2E/DX2                !
 ! A6    A(3,2,39)             120.1213         estimate D2E/DX2                !
 ! A7    A(2,3,4)              122.297          estimate D2E/DX2                !
 ! A8    A(2,3,40)             119.4107         estimate D2E/DX2                !
 ! A9    A(4,3,40)             118.2827         estimate D2E/DX2                !
 ! A10   A(3,4,5)              116.239          estimate D2E/DX2                !
 ! A11   A(3,4,30)             122.4818         estimate D2E/DX2                !
 ! A12   A(5,4,30)             121.2642         estimate D2E/DX2                !
 ! A13   A(4,5,6)              121.8467         estimate D2E/DX2                !
 ! A14   A(4,5,7)              122.9962         estimate D2E/DX2                !
 ! A15   A(6,5,7)              115.1561         estimate D2E/DX2                !
 ! A16   A(1,6,5)              119.9582         estimate D2E/DX2                !
 ! A17   A(1,6,41)             120.8214         estimate D2E/DX2                !
 ! A18   A(5,6,41)             119.2128         estimate D2E/DX2                !
 ! A19   A(5,7,8)              105.2703         estimate D2E/DX2                !
 ! A20   A(7,8,9)              114.862          estimate D2E/DX2                !
 ! A21   A(7,8,29)             122.4223         estimate D2E/DX2                !
 ! A22   A(9,8,29)             122.6688         estimate D2E/DX2                !
 ! A23   A(8,9,10)             119.7233         estimate D2E/DX2                !
 ! A24   A(8,9,42)             119.1922         estimate D2E/DX2                !
 ! A25   A(10,9,42)            121.069          estimate D2E/DX2                !
 ! A26   A(9,10,11)            121.1754         estimate D2E/DX2                !
 ! A27   A(9,10,27)            119.5546         estimate D2E/DX2                !
 ! A28   A(11,10,27)           119.246          estimate D2E/DX2                !
 ! A29   A(10,11,12)           128.8888         estimate D2E/DX2                !
 ! A30   A(10,11,26)           124.0847         estimate D2E/DX2                !
 ! A31   A(12,11,26)           106.984          estimate D2E/DX2                !
 ! A32   A(11,12,13)           131.4497         estimate D2E/DX2                !
 ! A33   A(11,12,17)           108.5526         estimate D2E/DX2                !
 ! A34   A(13,12,17)           119.889          estimate D2E/DX2                !
 ! A35   A(12,13,14)           117.9727         estimate D2E/DX2                !
 ! A36   A(12,13,43)           121.7003         estimate D2E/DX2                !
 ! A37   A(14,13,43)           120.3116         estimate D2E/DX2                !
 ! A38   A(13,14,15)           121.7574         estimate D2E/DX2                !
 ! A39   A(13,14,44)           118.8937         estimate D2E/DX2                !
 ! A40   A(15,14,44)           119.3479         estimate D2E/DX2                !
 ! A41   A(14,15,16)           121.023          estimate D2E/DX2                !
 ! A42   A(14,15,45)           119.5583         estimate D2E/DX2                !
 ! A43   A(16,15,45)           119.411          estimate D2E/DX2                !
 ! A44   A(15,16,17)           117.5543         estimate D2E/DX2                !
 ! A45   A(15,16,46)           121.458          estimate D2E/DX2                !
 ! A46   A(17,16,46)           120.9852         estimate D2E/DX2                !
 ! A47   A(12,17,16)           121.7355         estimate D2E/DX2                !
 ! A48   A(12,17,18)           106.2642         estimate D2E/DX2                !
 ! A49   A(16,17,18)           131.9841         estimate D2E/DX2                !
 ! A50   A(17,18,19)           145.0126         estimate D2E/DX2                !
 ! A51   A(17,18,26)           108.9347         estimate D2E/DX2                !
 ! A52   A(19,18,26)           106.047          estimate D2E/DX2                !
 ! A53   A(18,19,20)           133.6532         estimate D2E/DX2                !
 ! A54   A(18,19,24)           104.3772         estimate D2E/DX2                !
 ! A55   A(20,19,24)           121.9696         estimate D2E/DX2                !
 ! A56   A(19,20,21)           117.085          estimate D2E/DX2                !
 ! A57   A(19,20,47)           121.5441         estimate D2E/DX2                !
 ! A58   A(21,20,47)           121.3709         estimate D2E/DX2                !
 ! A59   A(20,21,22)           121.471          estimate D2E/DX2                !
 ! A60   A(20,21,48)           119.2416         estimate D2E/DX2                !
 ! A61   A(22,21,48)           119.2873         estimate D2E/DX2                !
 ! A62   A(21,22,23)           121.8264         estimate D2E/DX2                !
 ! A63   A(21,22,49)           118.8564         estimate D2E/DX2                !
 ! A64   A(23,22,49)           119.3172         estimate D2E/DX2                !
 ! A65   A(22,23,24)           117.8602         estimate D2E/DX2                !
 ! A66   A(22,23,50)           121.8447         estimate D2E/DX2                !
 ! A67   A(24,23,50)           120.2951         estimate D2E/DX2                !
 ! A68   A(19,24,23)           119.7878         estimate D2E/DX2                !
 ! A69   A(19,24,25)           110.9754         estimate D2E/DX2                !
 ! A70   A(23,24,25)           129.2363         estimate D2E/DX2                !
 ! A71   A(24,25,26)           103.9674         estimate D2E/DX2                !
 ! A72   A(11,26,18)           109.2247         estimate D2E/DX2                !
 ! A73   A(11,26,25)           136.1346         estimate D2E/DX2                !
 ! A74   A(18,26,25)           114.6326         estimate D2E/DX2                !
 ! A75   A(10,27,28)           119.804          estimate D2E/DX2                !
 ! A76   A(10,27,51)           119.8649         estimate D2E/DX2                !
 ! A77   A(28,27,51)           120.2998         estimate D2E/DX2                !
 ! A78   A(27,28,29)           122.5912         estimate D2E/DX2                !
 ! A79   A(27,28,37)           114.9501         estimate D2E/DX2                !
 ! A80   A(29,28,37)           122.4166         estimate D2E/DX2                !
 ! A81   A(8,29,28)            115.5866         estimate D2E/DX2                !
 ! A82   A(8,29,30)            122.0978         estimate D2E/DX2                !
 ! A83   A(28,29,30)           122.3102         estimate D2E/DX2                !
 ! A84   A(4,30,29)            118.5263         estimate D2E/DX2                !
 ! A85   A(4,30,31)            122.8158         estimate D2E/DX2                !
 ! A86   A(29,30,31)           118.6577         estimate D2E/DX2                !
 ! A87   A(30,31,32)           122.4699         estimate D2E/DX2                !
 ! A88   A(30,31,36)           121.2074         estimate D2E/DX2                !
 ! A89   A(32,31,36)           116.305          estimate D2E/DX2                !
 ! A90   A(31,32,33)           122.3002         estimate D2E/DX2                !
 ! A91   A(31,32,52)           118.2999         estimate D2E/DX2                !
 ! A92   A(33,32,52)           119.3894         estimate D2E/DX2                !
 ! A93   A(32,33,34)           119.8746         estimate D2E/DX2                !
 ! A94   A(32,33,53)           120.1372         estimate D2E/DX2                !
 ! A95   A(34,33,53)           119.9881         estimate D2E/DX2                !
 ! A96   A(33,34,35)           119.6386         estimate D2E/DX2                !
 ! A97   A(33,34,54)           120.3496         estimate D2E/DX2                !
 ! A98   A(35,34,54)           119.9997         estimate D2E/DX2                !
 ! A99   A(34,35,36)           120.0452         estimate D2E/DX2                !
 ! A100  A(34,35,55)           120.8195         estimate D2E/DX2                !
 ! A101  A(36,35,55)           119.1263         estimate D2E/DX2                !
 ! A102  A(31,36,35)           121.7032         estimate D2E/DX2                !
 ! A103  A(31,36,37)           123.2421         estimate D2E/DX2                !
 ! A104  A(35,36,37)           115.0533         estimate D2E/DX2                !
 ! A105  A(28,37,36)           105.4032         estimate D2E/DX2                !
 ! D1    D(6,1,2,3)              2.1291         estimate D2E/DX2                !
 ! D2    D(6,1,2,39)          -178.0531         estimate D2E/DX2                !
 ! D3    D(38,1,2,3)          -179.1235         estimate D2E/DX2                !
 ! D4    D(38,1,2,39)            0.6944         estimate D2E/DX2                !
 ! D5    D(2,1,6,5)             -0.8854         estimate D2E/DX2                !
 ! D6    D(2,1,6,41)           178.1021         estimate D2E/DX2                !
 ! D7    D(38,1,6,5)          -179.638          estimate D2E/DX2                !
 ! D8    D(38,1,6,41)           -0.6506         estimate D2E/DX2                !
 ! D9    D(1,2,3,4)             -0.1576         estimate D2E/DX2                !
 ! D10   D(1,2,3,40)          -179.0094         estimate D2E/DX2                !
 ! D11   D(39,2,3,4)          -179.9752         estimate D2E/DX2                !
 ! D12   D(39,2,3,40)            1.173          estimate D2E/DX2                !
 ! D13   D(2,3,4,5)             -2.9176         estimate D2E/DX2                !
 ! D14   D(2,3,4,30)           178.4768         estimate D2E/DX2                !
 ! D15   D(40,3,4,5)           175.9466         estimate D2E/DX2                !
 ! D16   D(40,3,4,30)           -2.659          estimate D2E/DX2                !
 ! D17   D(3,4,5,6)              4.1801         estimate D2E/DX2                !
 ! D18   D(3,4,5,7)           -176.2058         estimate D2E/DX2                !
 ! D19   D(30,4,5,6)          -177.196          estimate D2E/DX2                !
 ! D20   D(30,4,5,7)             2.4181         estimate D2E/DX2                !
 ! D21   D(3,4,30,29)          153.927          estimate D2E/DX2                !
 ! D22   D(3,4,30,31)          -26.2282         estimate D2E/DX2                !
 ! D23   D(5,4,30,29)          -24.6098         estimate D2E/DX2                !
 ! D24   D(5,4,30,31)          155.2351         estimate D2E/DX2                !
 ! D25   D(4,5,6,1)             -2.3855         estimate D2E/DX2                !
 ! D26   D(4,5,6,41)           178.6107         estimate D2E/DX2                !
 ! D27   D(7,5,6,1)            177.972          estimate D2E/DX2                !
 ! D28   D(7,5,6,41)            -1.0317         estimate D2E/DX2                !
 ! D29   D(4,5,7,8)             18.0194         estimate D2E/DX2                !
 ! D30   D(6,5,7,8)           -162.3427         estimate D2E/DX2                !
 ! D31   D(5,7,8,9)            162.259          estimate D2E/DX2                !
 ! D32   D(5,7,8,29)           -20.1709         estimate D2E/DX2                !
 ! D33   D(7,8,9,10)           179.859          estimate D2E/DX2                !
 ! D34   D(7,8,9,42)             1.2759         estimate D2E/DX2                !
 ! D35   D(29,8,9,10)            2.2955         estimate D2E/DX2                !
 ! D36   D(29,8,9,42)         -176.2876         estimate D2E/DX2                !
 ! D37   D(7,8,29,28)         -177.3834         estimate D2E/DX2                !
 ! D38   D(7,8,29,30)            1.7894         estimate D2E/DX2                !
 ! D39   D(9,8,29,28)           -0.0024         estimate D2E/DX2                !
 ! D40   D(9,8,29,30)          179.1704         estimate D2E/DX2                !
 ! D41   D(8,9,10,11)          179.1176         estimate D2E/DX2                !
 ! D42   D(8,9,10,27)           -2.68           estimate D2E/DX2                !
 ! D43   D(42,9,10,11)          -2.3266         estimate D2E/DX2                !
 ! D44   D(42,9,10,27)         175.8759         estimate D2E/DX2                !
 ! D45   D(9,10,11,12)         -31.2434         estimate D2E/DX2                !
 ! D46   D(9,10,11,26)         146.0664         estimate D2E/DX2                !
 ! D47   D(27,10,11,12)        150.5487         estimate D2E/DX2                !
 ! D48   D(27,10,11,26)        -32.1415         estimate D2E/DX2                !
 ! D49   D(9,10,27,28)           0.8111         estimate D2E/DX2                !
 ! D50   D(9,10,27,51)        -177.1599         estimate D2E/DX2                !
 ! D51   D(11,10,27,28)        179.0484         estimate D2E/DX2                !
 ! D52   D(11,10,27,51)          1.0775         estimate D2E/DX2                !
 ! D53   D(10,11,12,13)         -7.9654         estimate D2E/DX2                !
 ! D54   D(10,11,12,17)        175.9329         estimate D2E/DX2                !
 ! D55   D(26,11,12,13)        174.364          estimate D2E/DX2                !
 ! D56   D(26,11,12,17)         -1.7377         estimate D2E/DX2                !
 ! D57   D(10,11,26,18)       -175.7448         estimate D2E/DX2                !
 ! D58   D(10,11,26,25)          3.1221         estimate D2E/DX2                !
 ! D59   D(12,11,26,18)          2.0661         estimate D2E/DX2                !
 ! D60   D(12,11,26,25)       -179.067          estimate D2E/DX2                !
 ! D61   D(11,12,13,14)       -178.3746         estimate D2E/DX2                !
 ! D62   D(11,12,13,43)          0.2034         estimate D2E/DX2                !
 ! D63   D(17,12,13,14)         -2.638          estimate D2E/DX2                !
 ! D64   D(17,12,13,43)        175.9401         estimate D2E/DX2                !
 ! D65   D(11,12,17,16)        179.4555         estimate D2E/DX2                !
 ! D66   D(11,12,17,18)          0.7549         estimate D2E/DX2                !
 ! D67   D(13,12,17,16)          2.825          estimate D2E/DX2                !
 ! D68   D(13,12,17,18)       -175.8755         estimate D2E/DX2                !
 ! D69   D(12,13,14,15)          0.6517         estimate D2E/DX2                !
 ! D70   D(12,13,14,44)       -179.7085         estimate D2E/DX2                !
 ! D71   D(43,13,14,15)       -177.947          estimate D2E/DX2                !
 ! D72   D(43,13,14,44)          1.6929         estimate D2E/DX2                !
 ! D73   D(13,14,15,16)          1.308          estimate D2E/DX2                !
 ! D74   D(13,14,15,45)       -179.7055         estimate D2E/DX2                !
 ! D75   D(44,14,15,16)       -178.3302         estimate D2E/DX2                !
 ! D76   D(44,14,15,45)          0.6563         estimate D2E/DX2                !
 ! D77   D(14,15,16,17)         -1.173          estimate D2E/DX2                !
 ! D78   D(14,15,16,46)        178.2563         estimate D2E/DX2                !
 ! D79   D(45,15,16,17)        179.839          estimate D2E/DX2                !
 ! D80   D(45,15,16,46)         -0.7317         estimate D2E/DX2                !
 ! D81   D(15,16,17,12)         -0.8628         estimate D2E/DX2                !
 ! D82   D(15,16,17,18)        177.4589         estimate D2E/DX2                !
 ! D83   D(46,16,17,12)        179.705          estimate D2E/DX2                !
 ! D84   D(46,16,17,18)         -1.9733         estimate D2E/DX2                !
 ! D85   D(12,17,18,19)        179.4411         estimate D2E/DX2                !
 ! D86   D(12,17,18,26)          0.5164         estimate D2E/DX2                !
 ! D87   D(16,17,18,19)          0.928          estimate D2E/DX2                !
 ! D88   D(16,17,18,26)       -177.9968         estimate D2E/DX2                !
 ! D89   D(17,18,19,20)          1.0069         estimate D2E/DX2                !
 ! D90   D(17,18,19,24)       -178.9423         estimate D2E/DX2                !
 ! D91   D(26,18,19,20)        179.9486         estimate D2E/DX2                !
 ! D92   D(26,18,19,24)         -0.0006         estimate D2E/DX2                !
 ! D93   D(17,18,26,11)         -1.6332         estimate D2E/DX2                !
 ! D94   D(17,18,26,25)        179.2306         estimate D2E/DX2                !
 ! D95   D(19,18,26,11)        179.0083         estimate D2E/DX2                !
 ! D96   D(19,18,26,25)         -0.1279         estimate D2E/DX2                !
 ! D97   D(18,19,20,21)       -179.9135         estimate D2E/DX2                !
 ! D98   D(18,19,20,47)          0.1153         estimate D2E/DX2                !
 ! D99   D(24,19,20,21)          0.0285         estimate D2E/DX2                !
 ! D100  D(24,19,20,47)       -179.9427         estimate D2E/DX2                !
 ! D101  D(18,19,24,23)        179.8771         estimate D2E/DX2                !
 ! D102  D(18,19,24,25)          0.1182         estimate D2E/DX2                !
 ! D103  D(20,19,24,23)         -0.0796         estimate D2E/DX2                !
 ! D104  D(20,19,24,25)       -179.8384         estimate D2E/DX2                !
 ! D105  D(19,20,21,22)          0.0188         estimate D2E/DX2                !
 ! D106  D(19,20,21,48)       -179.9895         estimate D2E/DX2                !
 ! D107  D(47,20,21,22)        179.9901         estimate D2E/DX2                !
 ! D108  D(47,20,21,48)         -0.0182         estimate D2E/DX2                !
 ! D109  D(20,21,22,23)         -0.0162         estimate D2E/DX2                !
 ! D110  D(20,21,22,49)        179.9969         estimate D2E/DX2                !
 ! D111  D(48,21,22,23)        179.9921         estimate D2E/DX2                !
 ! D112  D(48,21,22,49)          0.0051         estimate D2E/DX2                !
 ! D113  D(21,22,23,24)         -0.0343         estimate D2E/DX2                !
 ! D114  D(21,22,23,50)       -179.9705         estimate D2E/DX2                !
 ! D115  D(49,22,23,24)        179.9526         estimate D2E/DX2                !
 ! D116  D(49,22,23,50)          0.0164         estimate D2E/DX2                !
 ! D117  D(22,23,24,19)          0.0796         estimate D2E/DX2                !
 ! D118  D(22,23,24,25)        179.789          estimate D2E/DX2                !
 ! D119  D(50,23,24,19)       -179.9831         estimate D2E/DX2                !
 ! D120  D(50,23,24,25)         -0.2738         estimate D2E/DX2                !
 ! D121  D(19,24,25,26)         -0.19           estimate D2E/DX2                !
 ! D122  D(23,24,25,26)       -179.9198         estimate D2E/DX2                !
 ! D123  D(24,25,26,11)       -178.6273         estimate D2E/DX2                !
 ! D124  D(24,25,26,18)          0.1956         estimate D2E/DX2                !
 ! D125  D(10,27,28,29)          1.5719         estimate D2E/DX2                !
 ! D126  D(10,27,28,37)        179.2617         estimate D2E/DX2                !
 ! D127  D(51,27,28,29)        179.5339         estimate D2E/DX2                !
 ! D128  D(51,27,28,37)         -2.7763         estimate D2E/DX2                !
 ! D129  D(27,28,29,8)          -1.9416         estimate D2E/DX2                !
 ! D130  D(27,28,29,30)        178.8875         estimate D2E/DX2                !
 ! D131  D(37,28,29,8)        -179.4603         estimate D2E/DX2                !
 ! D132  D(37,28,29,30)          1.3689         estimate D2E/DX2                !
 ! D133  D(27,28,37,36)        163.2752         estimate D2E/DX2                !
 ! D134  D(29,28,37,36)        -19.0305         estimate D2E/DX2                !
 ! D135  D(8,29,30,4)           22.4269         estimate D2E/DX2                !
 ! D136  D(8,29,30,31)        -157.4245         estimate D2E/DX2                !
 ! D137  D(28,29,30,4)        -158.4559         estimate D2E/DX2                !
 ! D138  D(28,29,30,31)         21.6927         estimate D2E/DX2                !
 ! D139  D(4,30,31,32)         -24.9374         estimate D2E/DX2                !
 ! D140  D(4,30,31,36)         156.6488         estimate D2E/DX2                !
 ! D141  D(29,30,31,32)        154.9073         estimate D2E/DX2                !
 ! D142  D(29,30,31,36)        -23.5066         estimate D2E/DX2                !
 ! D143  D(30,31,32,33)        178.5938         estimate D2E/DX2                !
 ! D144  D(30,31,32,52)         -2.5897         estimate D2E/DX2                !
 ! D145  D(36,31,32,33)         -2.9195         estimate D2E/DX2                !
 ! D146  D(36,31,32,52)        175.897          estimate D2E/DX2                !
 ! D147  D(30,31,36,35)       -177.3092         estimate D2E/DX2                !
 ! D148  D(30,31,36,37)          2.2362         estimate D2E/DX2                !
 ! D149  D(32,31,36,35)          4.1835         estimate D2E/DX2                !
 ! D150  D(32,31,36,37)       -176.2711         estimate D2E/DX2                !
 ! D151  D(31,32,33,34)         -0.1462         estimate D2E/DX2                !
 ! D152  D(31,32,33,53)        179.9749         estimate D2E/DX2                !
 ! D153  D(52,32,33,34)       -178.9503         estimate D2E/DX2                !
 ! D154  D(52,32,33,53)          1.1709         estimate D2E/DX2                !
 ! D155  D(32,33,34,35)          2.0981         estimate D2E/DX2                !
 ! D156  D(32,33,34,54)       -179.166          estimate D2E/DX2                !
 ! D157  D(53,33,34,35)       -178.0229         estimate D2E/DX2                !
 ! D158  D(53,33,34,54)          0.7131         estimate D2E/DX2                !
 ! D159  D(33,34,35,36)         -0.8467         estimate D2E/DX2                !
 ! D160  D(33,34,35,55)        178.0553         estimate D2E/DX2                !
 ! D161  D(54,34,35,36)       -179.5872         estimate D2E/DX2                !
 ! D162  D(54,34,35,55)         -0.6852         estimate D2E/DX2                !
 ! D163  D(34,35,36,31)         -2.4083         estimate D2E/DX2                !
 ! D164  D(34,35,36,37)        178.0114         estimate D2E/DX2                !
 ! D165  D(55,35,36,31)        178.6712         estimate D2E/DX2                !
 ! D166  D(55,35,36,37)         -0.9091         estimate D2E/DX2                !
 ! D167  D(31,36,37,28)         17.231          estimate D2E/DX2                !
 ! D168  D(35,36,37,28)       -163.1959         estimate D2E/DX2                !
 --------------------------------------------------------------------------------
 Trust Radius=3.00D-01 FncErr=1.00D-07 GrdErr=1.00D-06 EigMax=2.50D+02 EigMin=1.00D-04
 Number of steps in this run=    330 maximum allowed number of steps=    330.
 GradGradGradGradGradGradGradGradGradGradGradGradGradGradGradGradGradGrad

 Leave Link  103 at Sat Nov  5 00:20:56 2022, MaxMem=   805306368 cpu:               0.1 elap:               0.0
 (Enter /home/wykgroup/appl/g16/l202.exe)
 Stoichiometry    C31H18BN3S2
 Framework group  C1[X(C31H18BN3S2)]
 Deg. of freedom   159
 Full point group                 C1      NOp   1
 Largest Abelian subgroup         C1      NOp   1
 Largest concise Abelian subgroup C1      NOp   1
                         Standard orientation:                         
 ---------------------------------------------------------------------
 Center     Atomic      Atomic             Coordinates (Angstroms)
 Number     Number       Type             X           Y           Z
 ---------------------------------------------------------------------
      1          6           0       -6.077094   -3.244856   -0.114023
      2          6           0       -6.517919   -2.044364    0.429654
      3          6           0       -5.671926   -0.957205    0.470652
      4          6           0       -4.358448   -1.010716   -0.018937
      5          6           0       -3.926498   -2.253686   -0.498317
      6          6           0       -4.780809   -3.351552   -0.568592
      7         16           0       -2.283557   -2.546073   -1.062255
      8          6           0       -1.326096   -1.228366   -0.401922
      9          6           0        0.042844   -1.451374   -0.389647
     10          6           0        0.895761   -0.473824    0.108522
     11          7           0        2.277288   -0.673677    0.152137
     12          6           0        2.984831   -1.862986    0.323854
     13          6           0        2.562820   -3.142591    0.639887
     14          6           0        3.526404   -4.129982    0.776416
     15          6           0        4.878414   -3.858296    0.618002
     16          6           0        5.321213   -2.575028    0.341660
     17          6           0        4.367385   -1.585430    0.205822
     18          7           0        4.470898   -0.232462   -0.017605
     19          6           0        5.342110    0.812999   -0.224404
     20          6           0        6.717501    0.904245   -0.316350
     21          6           0        7.252031    2.161001   -0.533899
     22          6           0        6.439135    3.286371   -0.654726
     23          6           0        5.063482    3.204260   -0.564051
     24          6           0        4.501462    1.954467   -0.347049
     25          7           0        3.171895    1.605597   -0.215547
     26          6           0        3.202061    0.319390   -0.027241
     27          6           0        0.371513    0.739289    0.537378
     28          6           0       -0.996612    0.957446    0.480583
     29          6           0       -1.902140   -0.021027    0.030207
     30          5           0       -3.415153    0.218213   -0.006441
     31          6           0       -3.935638    1.675137   -0.032896
     32          6           0       -5.187136    2.018474   -0.566921
     33          6           0       -5.659172    3.312765   -0.563103
     34          6           0       -4.887060    4.329748   -0.013668
     35          6           0       -3.635569    4.041600    0.484339
     36          6           0       -3.156021    2.733525    0.452230
     37         16           0       -1.521425    2.523173    1.072224
     38          1           0       -6.737834   -4.097500   -0.163005
     39          1           0       -7.523077   -1.963826    0.816447
     40          1           0       -6.017263   -0.032613    0.909560
     41          1           0       -4.408980   -4.284144   -0.966562
     42          1           0        0.428632   -2.374791   -0.789754
     43          1           0        1.522380   -3.372209    0.800282
     44          1           0        3.213458   -5.134130    1.017963
     45          1           0        5.597790   -4.654918    0.727545
     46          1           0        6.371184   -2.350866    0.244718
     47          1           0        7.348613    0.033694   -0.223174
     48          1           0        8.323188    2.272342   -0.611678
     49          1           0        6.901521    4.247625   -0.824137
     50          1           0        4.434451    4.074398   -0.657923
     51          1           0        1.032446    1.517848    0.881670
     52          1           0       -5.786191    1.237025   -1.011218
     53          1           0       -6.627973    3.537884   -0.984122
     54          1           0       -5.255225    5.344655    0.005496
     55          1           0       -3.007160    4.822053    0.886910
 ---------------------------------------------------------------------
 Rotational constants (GHZ):           0.1662682           0.0560461           0.0430214
 Leave Link  202 at Sat Nov  5 00:20:56 2022, MaxMem=   805306368 cpu:               0.1 elap:               0.0
 (Enter /home/wykgroup/appl/g16/l301.exe)
 Standard basis: 6-31G(d) (6D, 7F)
 Ernie: Thresh=  0.10000D-02 Tol=  0.10000D-05 Strict=F.
 There are   599 symmetry adapted cartesian basis functions of A   symmetry.
 There are   599 symmetry adapted basis functions of A   symmetry.
   599 basis functions,  1156 primitive gaussians,   599 cartesian basis functions
   131 alpha electrons      131 beta electrons
       nuclear repulsion energy      3893.0439515680 Hartrees.
 IExCor=  402 DFT=T Ex+Corr=B3LYP ExCW=0 ScaHFX=  0.200000
 ScaDFX=  0.800000  0.720000  1.000000  0.810000 ScalE2=  1.000000  1.000000
 IRadAn=      5 IRanWt=     -1 IRanGd=            0 ICorTp=0 IEmpDi=  4
 NAtoms=   55 NActive=   55 NUniq=   55 SFac= 1.00D+00 NAtFMM=   60 NAOKFM=F Big=F
 Integral buffers will be    131072 words long.
 Raffenetti 2 integral format.
 Two-electron integral symmetry is turned on.
 Leave Link  301 at Sat Nov  5 00:20:56 2022, MaxMem=   805306368 cpu:               0.3 elap:               0.1
 (Enter /home/wykgroup/appl/g16/l302.exe)
 NPDir=0 NMtPBC=     1 NCelOv=     1 NCel=       1 NClECP=     1 NCelD=      1
         NCelK=      1 NCelE2=     1 NClLst=     1 CellRange=     0.0.
 One-electron integrals computed using PRISM.
 One-electron integral symmetry used in STVInt
 NBasis=   599 RedAO= T EigKep=  3.13D-04  NBF=   599
 NBsUse=   599 1.00D-06 EigRej= -1.00D+00 NBFU=   599
 Precomputing XC quadrature grid using
 IXCGrd= 4 IRadAn=           5 IRanWt=          -1 IRanGd=           0 AccXCQ= 0.00D+00.
 Generated NRdTot=       0 NPtTot=           0 NUsed=           0 NTot=          32
 NSgBfM=   582   582   582   582   582 MxSgAt=    55 MxSgA2=    55.
 Leave Link  302 at Sat Nov  5 00:20:57 2022, MaxMem=   805306368 cpu:               6.5 elap:               1.0
 (Enter /home/wykgroup/appl/g16/l303.exe)
 DipDrv:  MaxL=1.
 Leave Link  303 at Sat Nov  5 00:20:57 2022, MaxMem=   805306368 cpu:               0.4 elap:               0.1
 (Enter /home/wykgroup/appl/g16/l401.exe)
 ExpMin= 1.17D-01 ExpMax= 2.19D+04 ExpMxC= 3.30D+03 IAcc=3 IRadAn=         5 AccDes= 0.00D+00
 Harris functional with IExCor=  402 and IRadAn=       5 diagonalized for initial guess.
 HarFok:  IExCor=  402 AccDes= 0.00D+00 IRadAn=         5 IDoV= 1 UseB2=F ITyADJ=14
 ICtDFT=  3500011 ScaDFX=  1.000000  1.000000  1.000000  1.000000
 FoFCou: FMM=F IPFlag=           0 FMFlag=      100000 FMFlg1=           0
         NFxFlg=           0 DoJE=T BraDBF=F KetDBF=T FulRan=T
         wScrn=  0.000000 ICntrl=       500 IOpCl=  0 I1Cent=   200000004 NGrid=           0
         NMat0=    1 NMatS0=      1 NMatT0=    0 NMatD0=    1 NMtDS0=    0 NMtDT0=    0
 Petite list used in FoFCou.
 Harris En= -2177.59838312660    
 JPrj=0 DoOrth=F DoCkMO=F.
 Leave Link  401 at Sat Nov  5 00:21:01 2022, MaxMem=   805306368 cpu:              27.7 elap:               4.0
 (Enter /home/wykgroup/appl/g16/l502.exe)
 Integral symmetry usage will be decided dynamically.
 Closed shell SCF:
 Using DIIS extrapolation, IDIIS=  1040.
 NGot=   805306368 LenX=   804578433 LenY=   804219033
 Requested convergence on RMS density matrix=1.00D-08 within  32 cycles.
 Requested convergence on MAX density matrix=1.00D-06.
 Requested convergence on             energy=1.00D-06.
 No special actions if energy rises.
 Fock matrices will be formed incrementally for  20 cycles.
 Integral accuracy reduced to 1.0D-05 until final iterations.

 Cycle   1  Pass 0  IDiag  1:
 FoFJK:  IHMeth= 1 ICntrl=       0 DoSepK=F KAlg= 0 I1Cent=           0 FoldK=F
 IRaf= 570000000 NMat=       1 IRICut=       1 DoRegI=T DoRafI=F ISym2E= 0 IDoP0=0 IntGTp=1.
 FoFCou: FMM=F IPFlag=           0 FMFlag=      100000 FMFlg1=           0
         NFxFlg=           0 DoJE=F BraDBF=F KetDBF=F FulRan=T
         wScrn=  0.000000 ICntrl=         0 IOpCl=  0 I1Cent=           0 NGrid=           0
         NMat0=    1 NMatS0=      1 NMatT0=    0 NMatD0=    1 NMtDS0=    0 NMtDT0=    0
 Symmetry not used in FoFCou.
 E= -2176.72996509200    
 DIIS: error= 2.61D-02 at cycle   1 NSaved=   1.
 NSaved= 1 IEnMin= 1 EnMin= -2176.72996509200     IErMin= 1 ErrMin= 2.61D-02
 ErrMax= 2.61D-02  0.00D+00 EMaxC= 1.00D-01 BMatC= 8.86D-01 BMatP= 8.86D-01
 IDIUse=3 WtCom= 7.39D-01 WtEn= 2.61D-01
 Coeff-Com:  0.100D+01
 Coeff-En:   0.100D+01
 Coeff:      0.100D+01
 Gap=     0.240 Goal=   None    Shift=    0.000
 GapD=    0.240 DampG=1.000 DampE=0.500 DampFc=0.5000 IDamp=-1.
 Damping current iteration by 5.00D-01
 RMSDP=4.71D-03 MaxDP=2.28D-01              OVMax= 3.03D-01

 Cycle   2  Pass 0  IDiag  1:
 RMSU=  2.32D-03    CP:  9.74D-01
 E= -2177.00834731083     Delta-E=       -0.278382218823 Rises=F Damp=T
 DIIS: error= 1.02D-02 at cycle   2 NSaved=   2.
 NSaved= 2 IEnMin= 2 EnMin= -2177.00834731083     IErMin= 2 ErrMin= 1.02D-02
 ErrMax= 1.02D-02  0.00D+00 EMaxC= 1.00D-01 BMatC= 1.36D-01 BMatP= 8.86D-01
 IDIUse=3 WtCom= 8.98D-01 WtEn= 1.02D-01
 Coeff-Com:  0.189D+00 0.811D+00
 Coeff-En:   0.327D+00 0.673D+00
 Coeff:      0.203D+00 0.797D+00
 Gap=     0.287 Goal=   None    Shift=    0.000
 RMSDP=1.75D-03 MaxDP=1.23D-01 DE=-2.78D-01 OVMax= 3.47D-01

 Cycle   3  Pass 0  IDiag  1:
 RMSU=  1.54D-03    CP:  9.56D-01  6.64D-01
 E= -2177.54292948966     Delta-E=       -0.534582178838 Rises=F Damp=F
 DIIS: error= 1.21D-02 at cycle   3 NSaved=   3.
 NSaved= 3 IEnMin= 3 EnMin= -2177.54292948966     IErMin= 2 ErrMin= 1.02D-02
 ErrMax= 1.21D-02  0.00D+00 EMaxC= 1.00D-01 BMatC= 1.30D-01 BMatP= 1.36D-01
 IDIUse=3 WtCom= 8.79D-01 WtEn= 1.21D-01
 Coeff-Com:  0.417D-01 0.487D+00 0.471D+00
 Coeff-En:   0.000D+00 0.000D+00 0.100D+01
 Coeff:      0.366D-01 0.428D+00 0.535D+00
 Gap=     0.153 Goal=   None    Shift=    0.000
 RMSDP=1.12D-03 MaxDP=6.83D-02 DE=-5.35D-01 OVMax= 1.56D-01

 Cycle   4  Pass 0  IDiag  1:
 RMSU=  8.04D-04    CP:  9.61D-01  7.96D-01  5.36D-01
 E= -2177.63813023729     Delta-E=       -0.095200747622 Rises=F Damp=F
 DIIS: error= 6.78D-03 at cycle   4 NSaved=   4.
 NSaved= 4 IEnMin= 4 EnMin= -2177.63813023729     IErMin= 4 ErrMin= 6.78D-03
 ErrMax= 6.78D-03  0.00D+00 EMaxC= 1.00D-01 BMatC= 4.52D-02 BMatP= 1.30D-01
 IDIUse=3 WtCom= 9.32D-01 WtEn= 6.78D-02
 Coeff-Com:  0.336D-02 0.119D+00 0.371D+00 0.506D+00
 Coeff-En:   0.000D+00 0.000D+00 0.304D+00 0.696D+00
 Coeff:      0.313D-02 0.111D+00 0.367D+00 0.519D+00
 Gap=     0.134 Goal=   None    Shift=    0.000
 RMSDP=4.95D-04 MaxDP=2.47D-02 DE=-9.52D-02 OVMax= 6.33D-02

 Cycle   5  Pass 0  IDiag  1:
 RMSU=  2.26D-04    CP:  9.60D-01  7.66D-01  6.89D-01  5.46D-01
 E= -2177.68555148295     Delta-E=       -0.047421245661 Rises=F Damp=F
 DIIS: error= 1.73D-03 at cycle   5 NSaved=   5.
 NSaved= 5 IEnMin= 5 EnMin= -2177.68555148295     IErMin= 5 ErrMin= 1.73D-03
 ErrMax= 1.73D-03  0.00D+00 EMaxC= 1.00D-01 BMatC= 2.58D-03 BMatP= 4.52D-02
 IDIUse=3 WtCom= 9.83D-01 WtEn= 1.73D-02
 Coeff-Com: -0.509D-03 0.136D-01 0.158D+00 0.300D+00 0.529D+00
 Coeff-En:   0.000D+00 0.000D+00 0.000D+00 0.000D+00 0.100D+01
 Coeff:     -0.501D-03 0.134D-01 0.155D+00 0.295D+00 0.537D+00
 Gap=     0.130 Goal=   None    Shift=    0.000
 RMSDP=1.46D-04 MaxDP=8.07D-03 DE=-4.74D-02 OVMax= 1.89D-02

 Cycle   6  Pass 0  IDiag  1:
 RMSU=  9.00D-05    CP:  9.60D-01  7.63D-01  6.86D-01  6.00D-01  5.32D-01
 E= -2177.68801634395     Delta-E=       -0.002464861006 Rises=F Damp=F
 DIIS: error= 8.45D-04 at cycle   6 NSaved=   6.
 NSaved= 6 IEnMin= 6 EnMin= -2177.68801634395     IErMin= 6 ErrMin= 8.45D-04
 ErrMax= 8.45D-04  0.00D+00 EMaxC= 1.00D-01 BMatC= 4.82D-04 BMatP= 2.58D-03
 IDIUse=3 WtCom= 9.92D-01 WtEn= 8.45D-03
 Coeff-Com: -0.201D-03-0.500D-02 0.535D-01 0.123D+00 0.347D+00 0.482D+00
 Coeff-En:   0.000D+00 0.000D+00 0.000D+00 0.000D+00 0.150D+00 0.850D+00
 Coeff:     -0.199D-03-0.496D-02 0.531D-01 0.122D+00 0.345D+00 0.485D+00
 Gap=     0.129 Goal=   None    Shift=    0.000
 RMSDP=5.63D-05 MaxDP=2.50D-03 DE=-2.46D-03 OVMax= 5.79D-03

 Cycle   7  Pass 0  IDiag  1:
 RMSU=  2.87D-05    CP:  9.60D-01  7.60D-01  6.94D-01  6.04D-01  6.15D-01
                    CP:  5.27D-01
 E= -2177.68850415080     Delta-E=       -0.000487806852 Rises=F Damp=F
 DIIS: error= 1.70D-04 at cycle   7 NSaved=   7.
 NSaved= 7 IEnMin= 7 EnMin= -2177.68850415080     IErMin= 7 ErrMin= 1.70D-04
 ErrMax= 1.70D-04  0.00D+00 EMaxC= 1.00D-01 BMatC= 4.37D-05 BMatP= 4.82D-04
 IDIUse=3 WtCom= 9.98D-01 WtEn= 1.70D-03
 Coeff-Com:  0.126D-03-0.423D-02 0.124D-01 0.347D-01 0.139D+00 0.287D+00
 Coeff-Com:  0.532D+00
 Coeff-En:   0.000D+00 0.000D+00 0.000D+00 0.000D+00 0.000D+00 0.390D-01
 Coeff-En:   0.961D+00
 Coeff:      0.126D-03-0.422D-02 0.124D-01 0.347D-01 0.138D+00 0.286D+00
 Coeff:      0.533D+00
 Gap=     0.130 Goal=   None    Shift=    0.000
 RMSDP=1.51D-05 MaxDP=7.95D-04 DE=-4.88D-04 OVMax= 1.59D-03

 Cycle   8  Pass 0  IDiag  1:
 RMSU=  7.65D-06    CP:  9.60D-01  7.61D-01  6.92D-01  6.04D-01  6.19D-01
                    CP:  5.89D-01  6.01D-01
 E= -2177.68854905972     Delta-E=       -0.000044908914 Rises=F Damp=F
 DIIS: error= 5.35D-05 at cycle   8 NSaved=   8.
 NSaved= 8 IEnMin= 8 EnMin= -2177.68854905972     IErMin= 8 ErrMin= 5.35D-05
 ErrMax= 5.35D-05  0.00D+00 EMaxC= 1.00D-01 BMatC= 2.83D-06 BMatP= 4.37D-05
 IDIUse=1 WtCom= 1.00D+00 WtEn= 0.00D+00
 Coeff-Com:  0.153D-03-0.172D-02 0.225D-02 0.771D-02 0.429D-01 0.108D+00
 Coeff-Com:  0.278D+00 0.563D+00
 Coeff:      0.153D-03-0.172D-02 0.225D-02 0.771D-02 0.429D-01 0.108D+00
 Coeff:      0.278D+00 0.563D+00
 Gap=     0.129 Goal=   None    Shift=    0.000
 RMSDP=5.14D-06 MaxDP=2.10D-04 DE=-4.49D-05 OVMax= 5.84D-04

 Initial convergence to 1.0D-05 achieved.  Increase integral accuracy.
 Cycle   9  Pass 1  IDiag  1:
 E= -2177.68854312786     Delta-E=        0.000005931861 Rises=F Damp=F
 DIIS: error= 9.63D-05 at cycle   1 NSaved=   1.
 NSaved= 1 IEnMin= 1 EnMin= -2177.68854312786     IErMin= 1 ErrMin= 9.63D-05
 ErrMax= 9.63D-05  0.00D+00 EMaxC= 1.00D-01 BMatC= 4.78D-06 BMatP= 4.78D-06
 IDIUse=1 WtCom= 1.00D+00 WtEn= 0.00D+00
 Coeff-Com:  0.100D+01
 Coeff:      0.100D+01
 Gap=     0.129 Goal=   None    Shift=    0.000
 RMSDP=5.14D-06 MaxDP=2.10D-04 DE= 5.93D-06 OVMax= 6.51D-04

 Cycle  10  Pass 1  IDiag  1:
 RMSU=  5.92D-05    CP:  1.00D+00
 E= -2177.68854388171     Delta-E=       -0.000000753857 Rises=F Damp=F
 DIIS: error= 6.74D-05 at cycle   2 NSaved=   2.
 NSaved= 2 IEnMin= 2 EnMin= -2177.68854388171     IErMin= 2 ErrMin= 6.74D-05
 ErrMax= 6.74D-05  0.00D+00 EMaxC= 1.00D-01 BMatC= 3.30D-06 BMatP= 4.78D-06
 IDIUse=1 WtCom= 1.00D+00 WtEn= 0.00D+00
 Coeff-Com:  0.433D+00 0.567D+00
 Coeff:      0.433D+00 0.567D+00
 Gap=     0.129 Goal=   None    Shift=    0.000
 RMSDP=6.70D-06 MaxDP=3.44D-04 DE=-7.54D-07 OVMax= 8.28D-04

 Cycle  11  Pass 1  IDiag  1:
 RMSU=  6.70D-06    CP:  1.00D+00  9.98D-01
 E= -2177.68854497840     Delta-E=       -0.000001096683 Rises=F Damp=F
 DIIS: error= 5.60D-05 at cycle   3 NSaved=   3.
 NSaved= 3 IEnMin= 3 EnMin= -2177.68854497840     IErMin= 3 ErrMin= 5.60D-05
 ErrMax= 5.60D-05  0.00D+00 EMaxC= 1.00D-01 BMatC= 2.32D-06 BMatP= 3.30D-06
 IDIUse=1 WtCom= 1.00D+00 WtEn= 0.00D+00
 Coeff-Com:  0.769D-02 0.454D+00 0.538D+00
 Coeff:      0.769D-02 0.454D+00 0.538D+00
 Gap=     0.129 Goal=   None    Shift=    0.000
 RMSDP=3.17D-06 MaxDP=1.78D-04 DE=-1.10D-06 OVMax= 3.98D-04

 Cycle  12  Pass 1  IDiag  1:
 RMSU=  7.14D-07    CP:  1.00D+00  1.01D+00  5.46D-01
 E= -2177.68854750146     Delta-E=       -0.000002523061 Rises=F Damp=F
 DIIS: error= 4.08D-06 at cycle   4 NSaved=   4.
 NSaved= 4 IEnMin= 4 EnMin= -2177.68854750146     IErMin= 4 ErrMin= 4.08D-06
 ErrMax= 4.08D-06  0.00D+00 EMaxC= 1.00D-01 BMatC= 4.48D-08 BMatP= 2.32D-06
 IDIUse=1 WtCom= 1.00D+00 WtEn= 0.00D+00
 Coeff-Com: -0.291D-02 0.264D+00 0.324D+00 0.414D+00
 Coeff:     -0.291D-02 0.264D+00 0.324D+00 0.414D+00
 Gap=     0.129 Goal=   None    Shift=    0.000
 RMSDP=4.54D-07 MaxDP=3.04D-05 DE=-2.52D-06 OVMax= 3.73D-05

 Cycle  13  Pass 1  IDiag  1:
 RMSU=  2.02D-07    CP:  1.00D+00  1.01D+00  5.56D-01  4.38D-01
 E= -2177.68854754592     Delta-E=       -0.000000044459 Rises=F Damp=F
 DIIS: error= 1.52D-06 at cycle   5 NSaved=   5.
 NSaved= 5 IEnMin= 5 EnMin= -2177.68854754592     IErMin= 5 ErrMin= 1.52D-06
 ErrMax= 1.52D-06  0.00D+00 EMaxC= 1.00D-01 BMatC= 1.57D-09 BMatP= 4.48D-08
 IDIUse=1 WtCom= 1.00D+00 WtEn= 0.00D+00
 Coeff-Com: -0.204D-02 0.147D+00 0.181D+00 0.256D+00 0.418D+00
 Coeff:     -0.204D-02 0.147D+00 0.181D+00 0.256D+00 0.418D+00
 Gap=     0.129 Goal=   None    Shift=    0.000
 RMSDP=1.06D-07 MaxDP=5.24D-06 DE=-4.45D-08 OVMax= 1.09D-05

 Cycle  14  Pass 1  IDiag  1:
 RMSU=  6.55D-08    CP:  1.00D+00  1.01D+00  5.55D-01  4.55D-01  5.92D-01
 E= -2177.68854754765     Delta-E=       -0.000000001733 Rises=F Damp=F
 DIIS: error= 3.63D-07 at cycle   6 NSaved=   6.
 NSaved= 6 IEnMin= 6 EnMin= -2177.68854754765     IErMin= 6 ErrMin= 3.63D-07
 ErrMax= 3.63D-07  0.00D+00 EMaxC= 1.00D-01 BMatC= 9.66D-11 BMatP= 1.57D-09
 IDIUse=1 WtCom= 1.00D+00 WtEn= 0.00D+00
 Coeff-Com: -0.945D-03 0.630D-01 0.778D-01 0.114D+00 0.245D+00 0.502D+00
 Coeff:     -0.945D-03 0.630D-01 0.778D-01 0.114D+00 0.245D+00 0.502D+00
 Gap=     0.129 Goal=   None    Shift=    0.000
 RMSDP=2.50D-08 MaxDP=1.11D-06 DE=-1.73D-09 OVMax= 3.05D-06

 Cycle  15  Pass 1  IDiag  1:
 RMSU=  2.03D-08    CP:  1.00D+00  1.01D+00  5.55D-01  4.57D-01  6.28D-01
                    CP:  8.11D-01
 E= -2177.68854754771     Delta-E=       -0.000000000056 Rises=F Damp=F
 DIIS: error= 1.07D-07 at cycle   7 NSaved=   7.
 NSaved= 7 IEnMin= 7 EnMin= -2177.68854754771     IErMin= 7 ErrMin= 1.07D-07
 ErrMax= 1.07D-07  0.00D+00 EMaxC= 1.00D-01 BMatC= 1.21D-11 BMatP= 9.66D-11
 IDIUse=1 WtCom= 1.00D+00 WtEn= 0.00D+00
 Coeff-Com: -0.236D-03 0.142D-01 0.178D-01 0.268D-01 0.761D-01 0.288D+00
 Coeff-Com:  0.577D+00
 Coeff:     -0.236D-03 0.142D-01 0.178D-01 0.268D-01 0.761D-01 0.288D+00
 Coeff:      0.577D+00
 Gap=     0.129 Goal=   None    Shift=    0.000
 RMSDP=1.02D-08 MaxDP=6.48D-07 DE=-5.64D-11 OVMax= 1.45D-06

 Cycle  16  Pass 1  IDiag  1:
 RMSU=  7.73D-09    CP:  1.00D+00  1.01D+00  5.55D-01  4.59D-01  6.32D-01
                    CP:  8.54D-01  7.24D-01
 E= -2177.68854754770     Delta-E=        0.000000000006 Rises=F Damp=F
 DIIS: error= 7.23D-08 at cycle   8 NSaved=   8.
 NSaved= 8 IEnMin= 7 EnMin= -2177.68854754771     IErMin= 8 ErrMin= 7.23D-08
 ErrMax= 7.23D-08  0.00D+00 EMaxC= 1.00D-01 BMatC= 3.50D-12 BMatP= 1.21D-11
 IDIUse=1 WtCom= 1.00D+00 WtEn= 0.00D+00
 Coeff-Com:  0.313D-04-0.326D-02-0.382D-02-0.500D-02 0.226D-02 0.965D-01
 Coeff-Com:  0.396D+00 0.517D+00
 Coeff:      0.313D-04-0.326D-02-0.382D-02-0.500D-02 0.226D-02 0.965D-01
 Coeff:      0.396D+00 0.517D+00
 Gap=     0.129 Goal=   None    Shift=    0.000
 RMSDP=4.82D-09 MaxDP=2.01D-07 DE= 6.37D-12 OVMax= 5.95D-07

 SCF Done:  E(RB3LYP) =  -2177.68854755     A.U. after   16 cycles
            NFock= 16  Conv=0.48D-08     -V/T= 2.0067
 KE= 2.163252660627D+03 PE=-1.287946924293D+04 EE= 4.645484083184D+03
 Leave Link  502 at Sat Nov  5 00:23:07 2022, MaxMem=   805306368 cpu:             880.1 elap:             125.7
 (Enter /home/wykgroup/appl/g16/l508.exe)
 QCSCF skips out because SCF is already converged.
 Leave Link  508 at Sat Nov  5 00:23:07 2022, MaxMem=   805306368 cpu:               0.0 elap:               0.0
 (Enter /home/wykgroup/appl/g16/l601.exe)
 Copying SCF densities to generalized density rwf, IOpCl= 0 IROHF=0.

 **********************************************************************

            Population analysis using the SCF Density.

 **********************************************************************

 Orbital symmetries:
       Occupied  (A) (A) (A) (A) (A) (A) (A) (A) (A) (A) (A) (A)
                 (A) (A) (A) (A) (A) (A) (A) (A) (A) (A) (A) (A)
                 (A) (A) (A) (A) (A) (A) (A) (A) (A) (A) (A) (A)
                 (A) (A) (A) (A) (A) (A) (A) (A) (A) (A) (A) (A)
                 (A) (A) (A) (A) (A) (A) (A) (A) (A) (A) (A) (A)
                 (A) (A) (A) (A) (A) (A) (A) (A) (A) (A) (A) (A)
                 (A) (A) (A) (A) (A) (A) (A) (A) (A) (A) (A) (A)
                 (A) (A) (A) (A) (A) (A) (A) (A) (A) (A) (A) (A)
                 (A) (A) (A) (A) (A) (A) (A) (A) (A) (A) (A) (A)
                 (A) (A) (A) (A) (A) (A) (A) (A) (A) (A) (A) (A)
                 (A) (A) (A) (A) (A) (A) (A) (A) (A) (A) (A)
       Virtual   (A) (A) (A) (A) (A) (A) (A) (A) (A) (A) (A) (A)
                 (A) (A) (A) (A) (A) (A) (A) (A) (A) (A) (A) (A)
                 (A) (A) (A) (A) (A) (A) (A) (A) (A) (A) (A) (A)
                 (A) (A) (A) (A) (A) (A) (A) (A) (A) (A) (A) (A)
                 (A) (A) (A) (A) (A) (A) (A) (A) (A) (A) (A) (A)
                 (A) (A) (A) (A) (A) (A) (A) (A) (A) (A) (A) (A)
                 (A) (A) (A) (A) (A) (A) (A) (A) (A) (A) (A) (A)
                 (A) (A) (A) (A) (A) (A) (A) (A) (A) (A) (A) (A)
                 (A) (A) (A) (A) (A) (A) (A) (A) (A) (A) (A) (A)
                 (A) (A) (A) (A) (A) (A) (A) (A) (A) (A) (A) (A)
                 (A) (A) (A) (A) (A) (A) (A) (A) (A) (A) (A) (A)
                 (A) (A) (A) (A) (A) (A) (A) (A) (A) (A) (A) (A)
                 (A) (A) (A) (A) (A) (A) (A) (A) (A) (A) (A) (A)
                 (A) (A) (A) (A) (A) (A) (A) (A) (A) (A) (A) (A)
                 (A) (A) (A) (A) (A) (A) (A) (A) (A) (A) (A) (A)
                 (A) (A) (A) (A) (A) (A) (A) (A) (A) (A) (A) (A)
                 (A) (A) (A) (A) (A) (A) (A) (A) (A) (A) (A) (A)
                 (A) (A) (A) (A) (A) (A) (A) (A) (A) (A) (A) (A)
                 (A) (A) (A) (A) (A) (A) (A) (A) (A) (A) (A) (A)
                 (A) (A) (A) (A) (A) (A) (A) (A) (A) (A) (A) (A)
                 (A) (A) (A) (A) (A) (A) (A) (A) (A) (A) (A) (A)
                 (A) (A) (A) (A) (A) (A) (A) (A) (A) (A) (A) (A)
                 (A) (A) (A) (A) (A) (A) (A) (A) (A) (A) (A) (A)
                 (A) (A) (A) (A) (A) (A) (A) (A) (A) (A) (A) (A)
                 (A) (A) (A) (A) (A) (A) (A) (A) (A) (A) (A) (A)
                 (A) (A) (A) (A) (A) (A) (A) (A) (A) (A) (A) (A)
                 (A) (A) (A) (A) (A) (A) (A) (A) (A) (A) (A) (A)
                 (A) (A) (A) (A) (A) (A) (A) (A) (A) (A) (A) (A)
                 (A) (A) (A) (A) (A) (A) (A) (A) (A) (A) (A) (A)
                 (A) (A) (A) (A) (A) (A) (A) (A) (A) (A) (A) (A)
                 (A) (A) (A) (A) (A) (A) (A) (A) (A) (A) (A) (A)
                 (A) (A) (A) (A) (A) (A) (A) (A) (A) (A) (A) (A)
                 (A) (A) (A) (A) (A) (A) (A) (A) (A) (A) (A) (A)
                 (A) (A) (A) (A) (A) (A) (A) (A) (A) (A) (A) (A)
                 (A) (A) (A) (A) (A) (A) (A) (A) (A) (A) (A) (A)
                 (A) (A) (A) (A) (A) (A) (A) (A) (A) (A) (A) (A)
                 (A) (A) (A) (A) (A) (A) (A) (A) (A) (A) (A) (A)
                 (A) (A) (A) (A) (A) (A) (A) (A) (A) (A) (A) (A)
                 (A) (A) (A) (A) (A) (A) (A) (A) (A) (A) (A) (A)
 The electronic state is 1-A.
 Alpha  occ. eigenvalues --  -88.89792 -88.89562 -14.41214 -14.40409 -14.31294
 Alpha  occ. eigenvalues --  -10.28834 -10.25364 -10.24782 -10.24690 -10.23686
 Alpha  occ. eigenvalues --  -10.23463 -10.22911 -10.22745 -10.22436 -10.20924
 Alpha  occ. eigenvalues --  -10.20594 -10.20501 -10.20164 -10.19859 -10.19817
 Alpha  occ. eigenvalues --  -10.19754 -10.19722 -10.19664 -10.19478 -10.19459
 Alpha  occ. eigenvalues --  -10.19243 -10.19135 -10.19131 -10.18968 -10.18833
 Alpha  occ. eigenvalues --  -10.18193 -10.18124 -10.17950 -10.17889 -10.17685
 Alpha  occ. eigenvalues --  -10.17566  -7.96000  -7.95763  -6.72695  -5.92481
 Alpha  occ. eigenvalues --   -5.92244  -5.92062  -5.91820  -5.91569  -5.91337
 Alpha  occ. eigenvalues --   -1.07701  -0.98621  -0.92572  -0.89014  -0.87242
 Alpha  occ. eigenvalues --   -0.86697  -0.86042  -0.84469  -0.82388  -0.80813
 Alpha  occ. eigenvalues --   -0.77822  -0.77390  -0.76368  -0.76120  -0.75066
 Alpha  occ. eigenvalues --   -0.74694  -0.73639  -0.72913  -0.71061  -0.69712
 Alpha  occ. eigenvalues --   -0.67129  -0.65579  -0.63838  -0.61966  -0.61852
 Alpha  occ. eigenvalues --   -0.61108  -0.60330  -0.59471  -0.58843  -0.58411
 Alpha  occ. eigenvalues --   -0.56389  -0.54995  -0.54198  -0.52806  -0.52138
 Alpha  occ. eigenvalues --   -0.51598  -0.50292  -0.50186  -0.48987  -0.48026
 Alpha  occ. eigenvalues --   -0.47059  -0.46657  -0.46515  -0.46062  -0.45810
 Alpha  occ. eigenvalues --   -0.45735  -0.44524  -0.43840  -0.43717  -0.43541
 Alpha  occ. eigenvalues --   -0.43165  -0.42620  -0.41890  -0.41447  -0.40309
 Alpha  occ. eigenvalues --   -0.39940  -0.39402  -0.39176  -0.38596  -0.38309
 Alpha  occ. eigenvalues --   -0.38189  -0.37291  -0.36997  -0.36627  -0.36214
 Alpha  occ. eigenvalues --   -0.35262  -0.34990  -0.34373  -0.34247  -0.32679
 Alpha  occ. eigenvalues --   -0.32595  -0.31974  -0.31168  -0.30942  -0.29693
 Alpha  occ. eigenvalues --   -0.27757  -0.27632  -0.26807  -0.26726  -0.26226
 Alpha  occ. eigenvalues --   -0.25477  -0.24415  -0.22357  -0.21687  -0.20183
 Alpha  occ. eigenvalues --   -0.19967
 Alpha virt. eigenvalues --   -0.07032  -0.02332  -0.02198  -0.02000  -0.00945
 Alpha virt. eigenvalues --   -0.00869   0.00041   0.00445   0.01748   0.02844
 Alpha virt. eigenvalues --    0.03570   0.05025   0.06587   0.07318   0.07729
 Alpha virt. eigenvalues --    0.08542   0.09555   0.10411   0.11326   0.11797
 Alpha virt. eigenvalues --    0.11886   0.13389   0.14244   0.14424   0.14597
 Alpha virt. eigenvalues --    0.15218   0.15253   0.15503   0.16177   0.16904
 Alpha virt. eigenvalues --    0.17267   0.17574   0.17612   0.18263   0.18746
 Alpha virt. eigenvalues --    0.18919   0.19087   0.19556   0.20199   0.20505
 Alpha virt. eigenvalues --    0.22152   0.22508   0.23071   0.23396   0.24159
 Alpha virt. eigenvalues --    0.25172   0.25425   0.25705   0.26936   0.27530
 Alpha virt. eigenvalues --    0.27803   0.27954   0.28237   0.28967   0.30034
 Alpha virt. eigenvalues --    0.30717   0.31013   0.31771   0.32338   0.32555
 Alpha virt. eigenvalues --    0.33164   0.33737   0.34172   0.35050   0.35874
 Alpha virt. eigenvalues --    0.36412   0.36580   0.37115   0.37438   0.38451
 Alpha virt. eigenvalues --    0.38706   0.38990   0.41104   0.41440   0.42190
 Alpha virt. eigenvalues --    0.43266   0.44811   0.45152   0.45485   0.46286
 Alpha virt. eigenvalues --    0.47297   0.47898   0.48449   0.48797   0.49347
 Alpha virt. eigenvalues --    0.49610   0.50566   0.51307   0.51906   0.52541
 Alpha virt. eigenvalues --    0.52638   0.52959   0.53390   0.53731   0.54053
 Alpha virt. eigenvalues --    0.54421   0.55434   0.55926   0.56025   0.56383
 Alpha virt. eigenvalues --    0.56799   0.57059   0.57454   0.57726   0.57944
 Alpha virt. eigenvalues --    0.58036   0.58182   0.58551   0.58732   0.59397
 Alpha virt. eigenvalues --    0.59535   0.60015   0.60237   0.60407   0.60530
 Alpha virt. eigenvalues --    0.60627   0.60723   0.60898   0.60996   0.61001
 Alpha virt. eigenvalues --    0.61794   0.61874   0.62215   0.62355   0.62542
 Alpha virt. eigenvalues --    0.63172   0.63492   0.63840   0.64405   0.64934
 Alpha virt. eigenvalues --    0.65295   0.66163   0.67107   0.67237   0.68025
 Alpha virt. eigenvalues --    0.68657   0.69099   0.69249   0.70217   0.70726
 Alpha virt. eigenvalues --    0.71684   0.72167   0.74256   0.74575   0.75121
 Alpha virt. eigenvalues --    0.75867   0.76942   0.77050   0.78133   0.79473
 Alpha virt. eigenvalues --    0.80039   0.80441   0.81186   0.82011   0.82082
 Alpha virt. eigenvalues --    0.83104   0.83444   0.83512   0.83668   0.83869
 Alpha virt. eigenvalues --    0.84196   0.84329   0.84594   0.85282   0.85739
 Alpha virt. eigenvalues --    0.85968   0.86343   0.86995   0.87255   0.87420
 Alpha virt. eigenvalues --    0.87844   0.88147   0.88860   0.89372   0.89869
 Alpha virt. eigenvalues --    0.91473   0.91679   0.91805   0.92326   0.92567
 Alpha virt. eigenvalues --    0.92864   0.93590   0.94632   0.95348   0.95606
 Alpha virt. eigenvalues --    0.96186   0.96814   0.97115   0.98049   0.98716
 Alpha virt. eigenvalues --    0.98993   0.99351   0.99659   0.99918   1.00417
 Alpha virt. eigenvalues --    1.01198   1.01869   1.02687   1.03617   1.03997
 Alpha virt. eigenvalues --    1.04716   1.05103   1.05988   1.06505   1.06741
 Alpha virt. eigenvalues --    1.07804   1.08504   1.10613   1.10742   1.11108
 Alpha virt. eigenvalues --    1.12265   1.12741   1.14032   1.15157   1.15664
 Alpha virt. eigenvalues --    1.16271   1.16672   1.17880   1.18046   1.18352
 Alpha virt. eigenvalues --    1.19519   1.20070   1.21339   1.21584   1.23009
 Alpha virt. eigenvalues --    1.24005   1.24282   1.25318   1.25512   1.26575
 Alpha virt. eigenvalues --    1.26687   1.27353   1.28225   1.30056   1.30553
 Alpha virt. eigenvalues --    1.31442   1.32979   1.33192   1.34852   1.35999
 Alpha virt. eigenvalues --    1.36821   1.38654   1.39037   1.39452   1.40846
 Alpha virt. eigenvalues --    1.41715   1.41888   1.42073   1.42759   1.43339
 Alpha virt. eigenvalues --    1.43651   1.45016   1.45234   1.45850   1.46313
 Alpha virt. eigenvalues --    1.46415   1.46791   1.47027   1.48303   1.48502
 Alpha virt. eigenvalues --    1.48790   1.48916   1.49032   1.49915   1.50127
 Alpha virt. eigenvalues --    1.50277   1.50379   1.50804   1.53099   1.53670
 Alpha virt. eigenvalues --    1.54863   1.55731   1.57848   1.59624   1.59963
 Alpha virt. eigenvalues --    1.62975   1.65286   1.66467   1.66968   1.67877
 Alpha virt. eigenvalues --    1.70418   1.73298   1.73858   1.74071   1.75011
 Alpha virt. eigenvalues --    1.75934   1.77083   1.78379   1.78824   1.79832
 Alpha virt. eigenvalues --    1.80038   1.80501   1.83219   1.84071   1.84413
 Alpha virt. eigenvalues --    1.84677   1.85544   1.86923   1.87537   1.88275
 Alpha virt. eigenvalues --    1.89215   1.89549   1.89949   1.90212   1.91278
 Alpha virt. eigenvalues --    1.91834   1.92096   1.92914   1.93836   1.94960
 Alpha virt. eigenvalues --    1.95212   1.96677   1.96835   1.97678   1.98600
 Alpha virt. eigenvalues --    1.99921   2.00017   2.00575   2.02649   2.03131
 Alpha virt. eigenvalues --    2.04516   2.05489   2.07113   2.07621   2.09851
 Alpha virt. eigenvalues --    2.10854   2.11808   2.11924   2.12268   2.12679
 Alpha virt. eigenvalues --    2.13139   2.13207   2.13653   2.14161   2.14474
 Alpha virt. eigenvalues --    2.14880   2.15956   2.16190   2.16702   2.16940
 Alpha virt. eigenvalues --    2.17825   2.18359   2.18635   2.19310   2.19615
 Alpha virt. eigenvalues --    2.20527   2.21909   2.22083   2.23463   2.25168
 Alpha virt. eigenvalues --    2.25601   2.26272   2.26385   2.27305   2.27865
 Alpha virt. eigenvalues --    2.28347   2.29365   2.29812   2.30333   2.30633
 Alpha virt. eigenvalues --    2.31065   2.31807   2.31934   2.32920   2.35894
 Alpha virt. eigenvalues --    2.37148   2.38024   2.39937   2.41968   2.42809
 Alpha virt. eigenvalues --    2.45169   2.47147   2.52852   2.53869   2.56080
 Alpha virt. eigenvalues --    2.57803   2.58401   2.59154   2.59722   2.59912
 Alpha virt. eigenvalues --    2.60409   2.61541   2.62275   2.63393   2.63910
 Alpha virt. eigenvalues --    2.65698   2.65785   2.66434   2.67350   2.68815
 Alpha virt. eigenvalues --    2.68868   2.69901   2.70144   2.71563   2.71941
 Alpha virt. eigenvalues --    2.72383   2.72712   2.74190   2.74260   2.75570
 Alpha virt. eigenvalues --    2.76819   2.77096   2.77221   2.78861   2.79559
 Alpha virt. eigenvalues --    2.80055   2.80849   2.81439   2.82014   2.83587
 Alpha virt. eigenvalues --    2.84933   2.85947   2.88807   2.89187   2.92047
 Alpha virt. eigenvalues --    2.93952   2.94531   2.98523   3.02746   3.09817
 Alpha virt. eigenvalues --    3.13316   3.15608   3.18707   3.25724   3.31830
 Alpha virt. eigenvalues --    3.36002   3.40018   3.41507   3.44542   3.51436
 Alpha virt. eigenvalues --    3.53216   3.76269   3.97204   4.00413   4.08809
 Alpha virt. eigenvalues --    4.09811   4.10068   4.10427   4.12562   4.12692
 Alpha virt. eigenvalues --    4.13102   4.13515   4.13858   4.14274   4.16243
 Alpha virt. eigenvalues --    4.18878   4.22348   4.22898   4.25467   4.30844
 Alpha virt. eigenvalues --    4.33310   4.33774   4.35272   4.36174   4.37984
 Alpha virt. eigenvalues --    4.41173   4.42312   4.44763   4.47157   4.47922
 Alpha virt. eigenvalues --    4.51066   4.59973   4.66578   4.71453   4.72362
 Alpha virt. eigenvalues --    4.77338   4.80428   4.87445
          Condensed to atoms (all electrons):
 Mulliken charges:
               1
     1  C   -0.121319
     2  C   -0.123469
     3  C   -0.206525
     4  C    0.120328
     5  C   -0.160569
     6  C   -0.152095
     7  S    0.186281
     8  C   -0.165991
     9  C   -0.207980
    10  C    0.331964
    11  N   -0.756663
    12  C    0.313962
    13  C   -0.181338
    14  C   -0.140028
    15  C   -0.146365
    16  C   -0.157730
    17  C    0.318643
    18  N   -0.735596
    19  C    0.320318
    20  C   -0.153068
    21  C   -0.154241
    22  C   -0.136743
    23  C   -0.190936
    24  C    0.246394
    25  N   -0.608899
    26  C    0.781021
    27  C   -0.190522
    28  C   -0.168391
    29  C    0.114792
    30  B   -0.003523
    31  C    0.120582
    32  C   -0.205672
    33  C   -0.123776
    34  C   -0.120626
    35  C   -0.152199
    36  C   -0.161644
    37  S    0.204255
    38  H    0.137588
    39  H    0.131509
    40  H    0.143486
    41  H    0.143135
    42  H    0.159812
    43  H    0.159107
    44  H    0.135787
    45  H    0.135373
    46  H    0.149581
    47  H    0.132952
    48  H    0.124915
    49  H    0.124564
    50  H    0.139488
    51  H    0.193109
    52  H    0.142541
    53  H    0.131056
    54  H    0.137982
    55  H    0.145384
 Sum of Mulliken charges =  -0.00000
 Mulliken charges with hydrogens summed into heavy atoms:
               1
     1  C    0.016269
     2  C    0.008040
     3  C   -0.063038
     4  C    0.120328
     5  C   -0.160569
     6  C   -0.008960
     7  S    0.186281
     8  C   -0.165991
     9  C   -0.048168
    10  C    0.331964
    11  N   -0.756663
    12  C    0.313962
    13  C   -0.022231
    14  C   -0.004241
    15  C   -0.010993
    16  C   -0.008150
    17  C    0.318643
    18  N   -0.735596
    19  C    0.320318
    20  C   -0.020116
    21  C   -0.029326
    22  C   -0.012179
    23  C   -0.051448
    24  C    0.246394
    25  N   -0.608899
    26  C    0.781021
    27  C    0.002587
    28  C   -0.168391
    29  C    0.114792
    30  B   -0.003523
    31  C    0.120582
    32  C   -0.063130
    33  C    0.007280
    34  C    0.017356
    35  C   -0.006815
    36  C   -0.161644
    37  S    0.204255
 Electronic spatial extent (au):  <R**2>=          23064.4090
 Charge=              0.0000 electrons
 Dipole moment (field-independent basis, Debye):
    X=             -0.6555    Y=             -2.3383    Z=              0.4888  Tot=              2.4771
 Quadrupole moment (field-independent basis, Debye-Ang):
   XX=           -185.0115   YY=           -201.7372   ZZ=           -229.7574
   XY=            -10.3034   XZ=              1.2559   YZ=             -0.7761
 Traceless Quadrupole moment (field-independent basis, Debye-Ang):
   XX=             20.4905   YY=              3.7649   ZZ=            -24.2553
   XY=            -10.3034   XZ=              1.2559   YZ=             -0.7761
 Octapole moment (field-independent basis, Debye-Ang**2):
  XXX=             -2.9699  YYY=              4.1369  ZZZ=              0.5112  XYY=            -25.2640
  XXY=            -37.7916  XXZ=             -4.3525  XZZ=             -1.6507  YZZ=             -0.2272
  YYZ=              4.1565  XYZ=             -9.3449
 Hexadecapole moment (field-independent basis, Debye-Ang**3):
 XXXX=         -21217.7462 YYYY=          -7161.4663 ZZZZ=           -674.7577 XXXY=            -77.6859
 XXXZ=            -40.4379 YYYX=           -133.5430 YYYZ=            -16.7834 ZZZX=              6.9383
 ZZZY=             16.4734 XXYY=          -4570.6346 XXZZ=          -4281.7768 YYZZ=          -1488.2978
 XXYZ=           -102.2597 YYXZ=             35.7736 ZZXY=             -4.0330
 N-N= 3.893043951568D+03 E-N=-1.287946923647D+04  KE= 2.163252660627D+03
 No NMR shielding tensors so no spin-rotation constants.
 Leave Link  601 at Sat Nov  5 00:23:07 2022, MaxMem=   805306368 cpu:               1.5 elap:               0.3
 (Enter /home/wykgroup/appl/g16/l701.exe)
 ... and contract with generalized density number  0.
[...]
       Occupied  (A) (A) (A) (A) (A) (A) (A) (A) (A) (A) (A) (A)
                 (A) (A) (A) (A) (A) (A) (A) (A) (A) (A) (A) (A)
                 (A) (A) (A) (A) (A) (A) (A) (A) (A) (A) (A) (A)
                 (A) (A) (A) (A) (A) (A) (A) (A) (A) (A) (A) (A)
                 (A) (A) (A) (A) (A) (A) (A) (A) (A) (A) (A) (A)
                 (A) (A) (A) (A) (A) (A) (A) (A) (A) (A) (A) (A)
                 (A) (A) (A) (A) (A) (A) (A) (A) (A) (A) (A) (A)
                 (A) (A) (A) (A) (A) (A) (A) (A) (A) (A) (A) (A)
                 (A) (A) (A) (A) (A) (A) (A) (A) (A) (A) (A) (A)
                 (A) (A) (A) (A) (A) (A) (A) (A) (A) (A) (A) (A)
                 (A) (A) (A) (A) (A) (A) (A) (A) (A) (A) (A)
       Virtual   (A) (A) (A) (A) (A) (A) (A) (A) (A) (A) (A) (A)
                 (A) (A) (A) (A) (A) (A) (A) (A) (A) (A) (A) (A)
                 (A) (A) (A) (A) (A) (A) (A) (A) (A) (A) (A) (A)
                 (A) (A) (A) (A) (A) (A) (A) (A) (A) (A) (A) (A)
                 (A) (A) (A) (A) (A) (A) (A) (A) (A) (A) (A) (A)
                 (A) (A) (A) (A) (A) (A) (A) (A) (A) (A) (A) (A)
                 (A) (A) (A) (A) (A) (A) (A) (A) (A) (A) (A) (A)
                 (A) (A) (A) (A) (A) (A) (A) (A) (A) (A) (A) (A)
                 (A) (A) (A) (A) (A) (A) (A) (A) (A) (A) (A) (A)
                 (A) (A) (A) (A) (A) (A) (A) (A) (A) (A) (A) (A)
                 (A) (A) (A) (A) (A) (A) (A) (A) (A) (A) (A) (A)
                 (A) (A) (A) (A) (A) (A) (A) (A) (A) (A) (A) (A)
                 (A) (A) (A) (A) (A) (A) (A) (A) (A) (A) (A) (A)
                 (A) (A) (A) (A) (A) (A) (A) (A) (A) (A) (A) (A)
                 (A) (A) (A) (A) (A) (A) (A) (A) (A) (A) (A) (A)
                 (A) (A) (A) (A) (A) (A) (A) (A) (A) (A) (A) (A)
                 (A) (A) (A) (A) (A) (A) (A) (A) (A) (A) (A) (A)
                 (A) (A) (A) (A) (A) (A) (A) (A) (A) (A) (A) (A)
                 (A) (A) (A) (A) (A) (A) (A) (A) (A) (A) (A) (A)
                 (A) (A) (A) (A) (A) (A) (A) (A) (A) (A) (A) (A)
                 (A) (A) (A) (A) (A) (A) (A) (A) (A) (A) (A) (A)
                 (A) (A) (A) (A) (A) (A) (A) (A) (A) (A) (A) (A)
                 (A) (A) (A) (A) (A) (A) (A) (A) (A) (A) (A) (A)
                 (A) (A) (A) (A) (A) (A) (A) (A) (A) (A) (A) (A)
                 (A) (A) (A) (A) (A) (A) (A) (A) (A) (A) (A) (A)
                 (A) (A) (A) (A) (A) (A) (A) (A) (A) (A) (A) (A)
                 (A) (A) (A) (A) (A) (A) (A) (A) (A) (A) (A) (A)
                 (A) (A) (A) (A) (A) (A) (A) (A) (A) (A) (A) (A)
                 (A) (A) (A) (A) (A) (A) (A) (A) (A) (A) (A) (A)
                 (A) (A) (A) (A) (A) (A) (A) (A) (A) (A) (A) (A)
                 (A) (A) (A) (A) (A) (A) (A) (A) (A) (A) (A) (A)
                 (A) (A) (A) (A) (A) (A) (A) (A) (A) (A) (A) (A)
                 (A) (A) (A) (A) (A) (A) (A) (A) (A) (A) (A) (A)
                 (A) (A) (A) (A) (A) (A) (A) (A) (A) (A) (A) (A)
                 (A) (A) (A) (A) (A) (A) (A) (A) (A) (A) (A) (A)
                 (A) (A) (A) (A) (A) (A) (A) (A) (A) (A) (A) (A)
                 (A) (A) (A) (A) (A) (A) (A) (A) (A) (A) (A) (A)
                 (A) (A) (A) (A) (A) (A) (A) (A) (A) (A) (A) (A)
                 (A) (A) (A) (A) (A) (A) (A) (A) (A) (A) (A) (A)
 The electronic state is 1-A.
 Alpha  occ. eigenvalues --  -88.90060 -88.89862 -14.41107 -14.40470 -14.31618
 Alpha  occ. eigenvalues --  -10.29094 -10.25660 -10.25072 -10.24966 -10.24143
 Alpha  occ. eigenvalues --  -10.23977 -10.23354 -10.23204 -10.22810 -10.21279
 Alpha  occ. eigenvalues --  -10.20973 -10.20842 -10.20527 -10.20240 -10.20233
 Alpha  occ. eigenvalues --  -10.20179 -10.20108 -10.20071 -10.19999 -10.19896
 Alpha  occ. eigenvalues --  -10.19656 -10.19550 -10.19547 -10.19382 -10.19249
 Alpha  occ. eigenvalues --  -10.18786 -10.18580 -10.18366 -10.18306 -10.18224
 Alpha  occ. eigenvalues --  -10.18108  -7.96206  -7.96005  -6.73203  -5.92692
 Alpha  occ. eigenvalues --   -5.92490  -5.92280  -5.92072  -5.91773  -5.91577
 Alpha  occ. eigenvalues --   -1.06677  -0.97534  -0.91938  -0.88478  -0.86718
 Alpha  occ. eigenvalues --   -0.86183  -0.85578  -0.83993  -0.82024  -0.80338
 Alpha  occ. eigenvalues --   -0.77383  -0.76983  -0.76083  -0.75828  -0.74723
 Alpha  occ. eigenvalues --   -0.74394  -0.73397  -0.72604  -0.70916  -0.69570
 Alpha  occ. eigenvalues --   -0.66587  -0.65070  -0.63394  -0.61760  -0.61642
 Alpha  occ. eigenvalues --   -0.60865  -0.60150  -0.59284  -0.58647  -0.58152
 Alpha  occ. eigenvalues --   -0.56315  -0.54591  -0.53833  -0.52415  -0.51922
 Alpha  occ. eigenvalues --   -0.51305  -0.49924  -0.49544  -0.48670  -0.47691
 Alpha  occ. eigenvalues --   -0.46962  -0.46491  -0.46460  -0.45954  -0.45680
 Alpha  occ. eigenvalues --   -0.45585  -0.44438  -0.43778  -0.43664  -0.43298
 Alpha  occ. eigenvalues --   -0.42845  -0.42457  -0.41491  -0.41193  -0.40104
 Alpha  occ. eigenvalues --   -0.39699  -0.39284  -0.39040  -0.38446  -0.38013
 Alpha  occ. eigenvalues --   -0.37969  -0.37325  -0.36996  -0.36291  -0.36228
 Alpha  occ. eigenvalues --   -0.35207  -0.34981  -0.34328  -0.34018  -0.32787
 Alpha  occ. eigenvalues --   -0.32586  -0.31786  -0.31201  -0.30895  -0.29627
 Alpha  occ. eigenvalues --   -0.28017  -0.27691  -0.26743  -0.26568  -0.26092
 Alpha  occ. eigenvalues --   -0.25354  -0.24366  -0.22459  -0.21713  -0.20336
 Alpha  occ. eigenvalues --   -0.20033
 Alpha virt. eigenvalues --   -0.07248  -0.02568  -0.02462  -0.02219  -0.01132
 Alpha virt. eigenvalues --   -0.01105  -0.00279   0.00124   0.01329   0.02348
 Alpha virt. eigenvalues --    0.03152   0.04571   0.06271   0.06982   0.07334
 Alpha virt. eigenvalues --    0.08096   0.09163   0.10222   0.11056   0.11497
 Alpha virt. eigenvalues --    0.11630   0.12971   0.13728   0.13928   0.14298
 Alpha virt. eigenvalues --    0.14824   0.14920   0.15158   0.15823   0.16349
 Alpha virt. eigenvalues --    0.16420   0.17051   0.17146   0.17738   0.18207
 Alpha virt. eigenvalues --    0.18517   0.18662   0.19059   0.19808   0.20097
 Alpha virt. eigenvalues --    0.21534   0.21858   0.22392   0.22824   0.23397
 Alpha virt. eigenvalues --    0.24608   0.24885   0.24970   0.26170   0.27091
 Alpha virt. eigenvalues --    0.27172   0.27424   0.27783   0.28497   0.29282
 Alpha virt. eigenvalues --    0.30194   0.30435   0.31147   0.31868   0.32006
 Alpha virt. eigenvalues --    0.32517   0.33125   0.33732   0.34523   0.35182
 Alpha virt. eigenvalues --    0.35828   0.36215   0.36743   0.37168   0.37928
 Alpha virt. eigenvalues --    0.38087   0.38413   0.40477   0.40736   0.41321
 Alpha virt. eigenvalues --    0.42500   0.44115   0.44621   0.44825   0.46025
 Alpha virt. eigenvalues --    0.46882   0.47342   0.48196   0.48526   0.48978
 Alpha virt. eigenvalues --    0.49396   0.50424   0.51116   0.51646   0.52172
 Alpha virt. eigenvalues --    0.52652   0.52913   0.53252   0.53455   0.53787
 Alpha virt. eigenvalues --    0.53910   0.55111   0.55456   0.55680   0.55730
 Alpha virt. eigenvalues --    0.56115   0.56365   0.57073   0.57266   0.57327
 Alpha virt. eigenvalues --    0.57509   0.57662   0.57999   0.58412   0.58893
 Alpha virt. eigenvalues --    0.59343   0.59769   0.59847   0.60006   0.60198
 Alpha virt. eigenvalues --    0.60261   0.60386   0.60425   0.60676   0.60767
 Alpha virt. eigenvalues --    0.61516   0.61630   0.61930   0.62103   0.62208
 Alpha virt. eigenvalues --    0.62925   0.63017   0.63374   0.63889   0.64463
 Alpha virt. eigenvalues --    0.65009   0.65717   0.66520   0.66835   0.67546
 Alpha virt. eigenvalues --    0.67905   0.68504   0.68836   0.69682   0.69957
 Alpha virt. eigenvalues --    0.71365   0.71466   0.73806   0.74324   0.74784
 Alpha virt. eigenvalues --    0.75130   0.76486   0.76575   0.77682   0.78634
 Alpha virt. eigenvalues --    0.79332   0.80036   0.81004   0.81430   0.81733
 Alpha virt. eigenvalues --    0.82610   0.82863   0.83030   0.83279   0.83347
 Alpha virt. eigenvalues --    0.83809   0.83915   0.84137   0.84761   0.85240
 Alpha virt. eigenvalues --    0.85431   0.85896   0.86407   0.86613   0.86742
 Alpha virt. eigenvalues --    0.87486   0.87849   0.88447   0.88890   0.89460
 Alpha virt. eigenvalues --    0.91001   0.91200   0.91288   0.91834   0.91995
 Alpha virt. eigenvalues --    0.92391   0.92956   0.93993   0.94884   0.94972
 Alpha virt. eigenvalues --    0.95743   0.96218   0.96439   0.97111   0.97837
 Alpha virt. eigenvalues --    0.98255   0.98493   0.98946   0.99368   0.99646
 Alpha virt. eigenvalues --    1.00685   1.01305   1.02158   1.02844   1.03248
 Alpha virt. eigenvalues --    1.03751   1.04361   1.05211   1.05745   1.06207
 Alpha virt. eigenvalues --    1.07143   1.07457   1.10034   1.10517   1.10739
 Alpha virt. eigenvalues --    1.11478   1.12090   1.13336   1.14375   1.14800
 Alpha virt. eigenvalues --    1.15539   1.15825   1.16933   1.17177   1.18138
 Alpha virt. eigenvalues --    1.18500   1.19500   1.20346   1.21036   1.22425
 Alpha virt. eigenvalues --    1.23597   1.23747   1.24629   1.25219   1.25773
 Alpha virt. eigenvalues --    1.26292   1.26439   1.28119   1.29544   1.30014
 Alpha virt. eigenvalues --    1.30872   1.32029   1.32880   1.34072   1.35099
 Alpha virt. eigenvalues --    1.36131   1.37967   1.38178   1.38712   1.40279
 Alpha virt. eigenvalues --    1.41191   1.41285   1.41868   1.42339   1.42586
 Alpha virt. eigenvalues --    1.43317   1.44063   1.44509   1.45417   1.45627
 Alpha virt. eigenvalues --    1.45725   1.46215   1.46344   1.47413   1.48268
 Alpha virt. eigenvalues --    1.48419   1.48593   1.48704   1.49530   1.49697
 Alpha virt. eigenvalues --    1.49832   1.50131   1.50473   1.52331   1.52641
 Alpha virt. eigenvalues --    1.54297   1.54934   1.57291   1.59001   1.59229
 Alpha virt. eigenvalues --    1.62637   1.64766   1.66048   1.66640   1.66828
 Alpha virt. eigenvalues --    1.69467   1.72412   1.73023   1.73760   1.74133
 Alpha virt. eigenvalues --    1.74840   1.75641   1.77086   1.78011   1.78484
 Alpha virt. eigenvalues --    1.78664   1.79551   1.82040   1.82716   1.83078
 Alpha virt. eigenvalues --    1.83349   1.84104   1.85578   1.86434   1.87177
 Alpha virt. eigenvalues --    1.88159   1.88462   1.88978   1.89139   1.89846
 Alpha virt. eigenvalues --    1.90268   1.90945   1.91564   1.92620   1.93340
 Alpha virt. eigenvalues --    1.94053   1.94800   1.95360   1.96109   1.96870
 Alpha virt. eigenvalues --    1.98444   1.98680   1.98977   2.00964   2.02238
 Alpha virt. eigenvalues --    2.03171   2.04091   2.05375   2.05894   2.07983
 Alpha virt. eigenvalues --    2.09314   2.10100   2.10551   2.11145   2.11398
 Alpha virt. eigenvalues --    2.11548   2.11766   2.12055   2.12979   2.13315
 Alpha virt. eigenvalues --    2.13721   2.14259   2.14611   2.14998   2.15698
 Alpha virt. eigenvalues --    2.16352   2.16975   2.17391   2.17863   2.18062
 Alpha virt. eigenvalues --    2.19966   2.20437   2.20817   2.22163   2.23745
 Alpha virt. eigenvalues --    2.24425   2.25041   2.25368   2.26377   2.26903
 Alpha virt. eigenvalues --    2.27267   2.28203   2.28388   2.28912   2.29311
 Alpha virt. eigenvalues --    2.29679   2.30695   2.30762   2.31712   2.33928
 Alpha virt. eigenvalues --    2.36015   2.36443   2.38221   2.40371   2.40979
 Alpha virt. eigenvalues --    2.42792   2.46116   2.50791   2.51766   2.54116
 Alpha virt. eigenvalues --    2.56479   2.57186   2.57611   2.57919   2.58311
 Alpha virt. eigenvalues --    2.59228   2.59741   2.60987   2.61934   2.62390
 Alpha virt. eigenvalues --    2.63471   2.63561   2.64332   2.65665   2.66716
 Alpha virt. eigenvalues --    2.67222   2.67881   2.67971   2.69491   2.69778
 Alpha virt. eigenvalues --    2.70271   2.70691   2.71995   2.72730   2.72851
 Alpha virt. eigenvalues --    2.74686   2.75721   2.75841   2.77452   2.77709
 Alpha virt. eigenvalues --    2.78447   2.79487   2.79909   2.80565   2.82248
 Alpha virt. eigenvalues --    2.83438   2.84362   2.87257   2.87481   2.90296
 Alpha virt. eigenvalues --    2.92227   2.92823   2.97168   3.01169   3.07134
 Alpha virt. eigenvalues --    3.11076   3.13193   3.15140   3.22154   3.27994
 Alpha virt. eigenvalues --    3.32496   3.36207   3.37525   3.40722   3.47570
 Alpha virt. eigenvalues --    3.49594   3.75517   3.96199   3.99391   4.07479
 Alpha virt. eigenvalues --    4.08666   4.08905   4.09093   4.11556   4.12133
 Alpha virt. eigenvalues --    4.12388   4.12973   4.13254   4.13572   4.15518
 Alpha virt. eigenvalues --    4.17763   4.21482   4.21938   4.23978   4.28117
 Alpha virt. eigenvalues --    4.32222   4.33124   4.34839   4.35480   4.36857
 Alpha virt. eigenvalues --    4.38124   4.41517   4.43234   4.44808   4.46876
 Alpha virt. eigenvalues --    4.49774   4.57756   4.63431   4.70091   4.70652
 Alpha virt. eigenvalues --    4.75219   4.78137   4.85278
          Condensed to atoms (all electrons):
 Mulliken charges:
               1
     1  C   -0.123272
     2  C   -0.123824
     3  C   -0.206500
     4  C    0.107378
     5  C   -0.161992
     6  C   -0.151939
     7  S    0.192125
     8  C   -0.167091
     9  C   -0.204782
    10  C    0.323619
    11  N   -0.765371
    12  C    0.316274
    13  C   -0.183882
    14  C   -0.141058
    15  C   -0.147474
    16  C   -0.160712
    17  C    0.320224
    18  N   -0.738029
    19  C    0.320388
    20  C   -0.154138
    21  C   -0.156876
    22  C   -0.136064
    23  C   -0.196162
    24  C    0.236880
    25  N   -0.602157
    26  C    0.789598
    27  C   -0.183394
    28  C   -0.170116
    29  C    0.101030
    30  B    0.020522
    31  C    0.107928
    32  C   -0.205841
    33  C   -0.124016
    34  C   -0.122844
    35  C   -0.151787
    36  C   -0.163192
    37  S    0.209738
    38  H    0.138591
    39  H    0.133893
    40  H    0.145027
    41  H    0.145004
    42  H    0.162293
    43  H    0.160173
    44  H    0.138027
    45  H    0.137442
    46  H    0.150965
    47  H    0.135485
    48  H    0.127148
    49  H    0.126820
    50  H    0.141135
    51  H    0.190879
    52  H    0.144148
    53  H    0.133492
    54  H    0.138989
    55  H    0.147298
 Sum of Mulliken charges =  -0.00000
 Mulliken charges with hydrogens summed into heavy atoms:
               1
     1  C    0.015319
     2  C    0.010069
     3  C   -0.061473
     4  C    0.107378
     5  C   -0.161992
     6  C   -0.006936
     7  S    0.192125
     8  C   -0.167091
     9  C   -0.042489
    10  C    0.323619
    11  N   -0.765371
    12  C    0.316274
    13  C   -0.023709
    14  C   -0.003030
    15  C   -0.010032
    16  C   -0.009747
    17  C    0.320224
    18  N   -0.738029
    19  C    0.320388
    20  C   -0.018653
    21  C   -0.029728
    22  C   -0.009243
    23  C   -0.055027
    24  C    0.236880
    25  N   -0.602157
    26  C    0.789598
    27  C    0.007485
    28  C   -0.170116
    29  C    0.101030
    30  B    0.020522
    31  C    0.107928
    32  C   -0.061693
    33  C    0.009476
    34  C    0.016145
    35  C   -0.004489
    36  C   -0.163192
    37  S    0.209738
 Electronic spatial extent (au):  <R**2>=          23456.8081
 Charge=             -0.0000 electrons
 Dipole moment (field-independent basis, Debye):
    X=             -0.7857    Y=             -2.3902    Z=              0.6714  Tot=              2.6041
 Quadrupole moment (field-independent basis, Debye-Ang):
   XX=           -184.2050   YY=           -201.3866   ZZ=           -230.5168
   XY=            -10.3817   XZ=              1.9071   YZ=             -0.8063
 Traceless Quadrupole moment (field-independent basis, Debye-Ang):
   XX=             21.1645   YY=              3.9829   ZZ=            -25.1474
   XY=            -10.3817   XZ=              1.9071   YZ=             -0.8063
 Octapole moment (field-independent basis, Debye-Ang**2):
  XXX=             -3.3361  YYY=              2.6039  ZZZ=              0.4045  XYY=            -28.4326
  XXY=            -37.4469  XXZ=             -1.7166  XZZ=             -0.1363  YZZ=             -1.0195
  YYZ=              6.3418  XYZ=            -15.0695
 Hexadecapole moment (field-independent basis, Debye-Ang**3):
 XXXX=         -21543.6962 YYYY=          -7167.2991 ZZZZ=           -775.5793 XXXY=            -85.0058
 XXXZ=            -18.3478 YYYX=           -134.0950 YYYZ=            -20.0259 ZZZX=              6.9329
 ZZZY=             17.7097 XXYY=          -4623.7627 XXZZ=          -4394.2280 YYZZ=          -1493.8231
 XXYZ=           -117.9641 YYXZ=             36.9150 ZZXY=             -2.5530
 N-N= 3.861342376072D+03 E-N=-1.281494455051D+04  KE= 2.161866730982D+03
 No NMR shielding tensors so no spin-rotation constants.
 Leave Link  601 at Sat Nov  5 00:47:16 2022, MaxMem=   805306368 cpu:               1.5 elap:               0.3
 (Enter /home/wykgroup/appl/g16/l9999.exe)
 1\1\GINC-NODE24\FOpt\RB3LYP\6-31G(d)\C31H18B1N3S2\WYKGROUP\05-Nov-2022
 \0\\#p b3lyp/6-31g(d) opt SCF=XQC\\Gaussian input prepared by ASE\\0,1
 \C,-6.1822721096,-2.5826176039,-1.8618660438\C,-6.6643833091,-1.749517
 4997,-0.8462751036\C,-5.8127443026,-0.822244288,-0.2591387477\C,-4.457
 8326488,-0.6798564063,-0.6440580774\C,-3.991276176,-1.5863887423,-1.62
 55262168\C,-4.8486687717,-2.5099269424,-2.2444482881\S,-2.3073775557,-
 1.6392005682,-2.1778998063\C,-1.3926287891,-0.8076035671,-0.9084010027
 \C,-0.0188632287,-1.0574077579,-0.924973164\C,0.8069042523,-0.43339544
 48,0.0145551111\N,2.1986134271,-0.6962809511,0.0241401918\C,2.85964612
 89,-1.9123415823,-0.2694759931\C,2.3692578275,-3.1890460326,-0.5286759
 143\C,3.294569834,-4.2144525743,-0.7547976614\C,4.672318868,-3.9788045
 207,-0.7133291026\C,5.1743756982,-2.7059339071,-0.4254594407\C,4.25719
 62436,-1.6878465607,-0.2004607275\N,4.4171581405,-0.3494004356,0.14744
 56153\C,5.3556150159,0.6432493335,0.425101365\C,6.746911786,0.66675469
 04,0.4395974217\C,7.3529459518,1.878249236,0.7756639306\C,6.5872049677
 ,3.0164666397,1.0829780441\C,5.1935708985,2.9855471755,1.0657805714\C,
 4.560151894,1.7853379411,0.7323967578\N,3.1921757238,1.5061627632,0.65
 01407478\C,3.1771926031,0.2480337919,0.3018009034\C,0.2699208152,0.468
 3411986,0.9359126229\C,-1.1024329631,0.7284227346,0.917921434\C,-1.992
 6503324,0.0920357471,0.0114864337\B,-3.5105700766,0.3660858838,0.01833
 28668\C,-4.0301304959,1.6728352505,0.686015825\C,-5.2662220172,2.26421
 44898,0.3280632301\C,-5.7377365663,3.4289961145,0.9190966423\C,-4.9756
 605299,4.0559514585,1.911721723\C,-3.7374621846,3.5373368891,2.2676188
 148\C,-3.2589578776,2.3726981215,1.6451055723\S,-1.6452263368,1.860447
 4783,2.1646216744\H,-6.8384765855,-3.3079508591,-2.3356291385\H,-7.696
 8529067,-1.8282676305,-0.517538306\H,-6.1937695547,-0.1911042173,0.537
 2582122\H,-4.461408999,-3.1857746182,-3.0024459556\H,0.4059577195,-1.7
 177361931,-1.6717131555\H,1.30583248,-3.394821403,-0.5398763511\H,2.92
 70085899,-5.2149315982,-0.9619922658\H,5.3647857283,-4.794771521,-0.89
 62210996\H,6.2416665608,-2.5202384161,-0.3698582826\H,7.3393267947,-0.
 2112378053,0.2014951955\H,8.4371010017,1.9401750931,0.7988821659\H,7.0
 953547327,3.941971457,1.3393344295\H,4.6020553713,3.8644964262,1.30207
 53542\H,0.9259032534,0.9860952252,1.6255212626\H,-5.857907403,1.795471
 6924,-0.4516169464\H,-6.6897226618,3.8520297172,0.6108491313\H,-5.3344
 238784,4.9646706308,2.3878323182\H,-3.1250660478,4.0470264674,3.006828
 2228\\Version=ES64L-G16RevB.01\State=1-A\HF=-2177.6954116\RMSD=2.393e-
 09\RMSF=4.773e-06\Dipole=-0.3389824,-0.9463783,-0.1977607\Quadrupole=1
 5.2138627,-0.2556934,-14.9581693,-8.5123513,-0.6040401,8.0278747\PG=C0
 1 [X(C31H18B1N3S2)]\\@


 BETTER TO HUNT IN FIELDS, FOR HEALTH UNBOUGHT
 THAN FEE THE DOCTOR FOR A NAUSEOUS DRAUGHT.
 THE WISE, FOR CURE, ON EXERCISE DEPEND;
 GOD NEVER MADE HIS WORK FOR MAN TO MEND.
     -- JOHN DRYDEN (1631-1700)
 Job cpu time:       0 days  3 hours  1 minutes 43.3 seconds.
 Elapsed time:       0 days  0 hours 26 minutes 18.6 seconds.
 File lengths (MBytes):  RWF=    226 Int=      0 D2E=      0 Chk=     29 Scr=      1
 Normal termination of Gaussian 16 at Sat Nov  5 00:47:16 2022.
