 Entering Gaussian System, Link 0=/home/wykgroup/appl/g16/g16
 Input=./calculation/no_transfer_pubchem_sampling_1_b3lyp/10045908.com
 Output=./calculation/no_transfer_pubchem_sampling_1_b3lyp/10045908.log
 Initial command:
 /home/wykgroup/appl/g16/l1.exe "/userdata/scratch/wykgroup/khs/./calculation/no_transfer_pubchem_sampling_1_b3lyp/10045908/Gau-13822.inp" -scrdir="/userdata/scratch/wykgroup/khs/./calculation/no_transfer_pubchem_sampling_1_b3lyp/10045908/"
 Entering Link 1 = /home/wykgroup/appl/g16/l1.exe PID=     13823.
  
 Copyright (c) 1988-2017, Gaussian, Inc.  All Rights Reserved.
  
 This is part of the Gaussian(R) 16 program.  It is based on
 the Gaussian(R) 09 system (copyright 2009, Gaussian, Inc.),
 the Gaussian(R) 03 system (copyright 2003, Gaussian, Inc.),
 the Gaussian(R) 98 system (copyright 1998, Gaussian, Inc.),
 the Gaussian(R) 94 system (copyright 1995, Gaussian, Inc.),
 the Gaussian 92(TM) system (copyright 1992, Gaussian, Inc.),
 the Gaussian 90(TM) system (copyright 1990, Gaussian, Inc.),
 the Gaussian 88(TM) system (copyright 1988, Gaussian, Inc.),
 the Gaussian 86(TM) system (copyright 1986, Carnegie Mellon
 University), and the Gaussian 82(TM) system (copyright 1983,
 Carnegie Mellon University). Gaussian is a federally registered
 trademark of Gaussian, Inc.
  
 This software contains proprietary and confidential information,
 including trade secrets, belonging to Gaussian, Inc.
  
 This software is provided under written license and may be
 used, copied, transmitted, or stored only in accord with that
 written license.
  
 The following legend is applicable only to US Government
 contracts under FAR:
  
                    RESTRICTED RIGHTS LEGEND
  
 Use, reproduction and disclosure by the US Government is
 subject to restrictions as set forth in subparagraphs (a)
 and (c) of the Commercial Computer Software - Restricted
 Rights clause in FAR 52.227-19.
  
 Gaussian, Inc.
 340 Quinnipiac St., Bldg. 40, Wallingford CT 06492
  
  
 ---------------------------------------------------------------
 Warning -- This program may not be used in any manner that
 competes with the business of Gaussian, Inc. or will provide
 assistance to any competitor of Gaussian, Inc.  The licensee
 of this program is prohibited from giving any competitor of
 Gaussian, Inc. access to this program.  By using this program,
 the user acknowledges that Gaussian, Inc. is engaged in the
 business of creating and licensing software in the field of
 computational chemistry and represents and warrants to the
 licensee that it is not a competitor of Gaussian, Inc. and that
 it will not use this program in any manner prohibited above.
 ---------------------------------------------------------------
  

 Cite this work as:
 Gaussian 16, Revision B.01,
 M. J. Frisch, G. W. Trucks, H. B. Schlegel, G. E. Scuseria, 
 M. A. Robb, J. R. Cheeseman, G. Scalmani, V. Barone, 
 G. A. Petersson, H. Nakatsuji, X. Li, M. Caricato, A. V. Marenich, 
 J. Bloino, B. G. Janesko, R. Gomperts, B. Mennucci, H. P. Hratchian, 
 J. V. Ortiz, A. F. Izmaylov, J. L. Sonnenberg, D. Williams-Young, 
 F. Ding, F. Lipparini, F. Egidi, J. Goings, B. Peng, A. Petrone, 
 T. Henderson, D. Ranasinghe, V. G. Zakrzewski, J. Gao, N. Rega, 
 G. Zheng, W. Liang, M. Hada, M. Ehara, K. Toyota, R. Fukuda, 
 J. Hasegawa, M. Ishida, T. Nakajima, Y. Honda, O. Kitao, H. Nakai, 
 T. Vreven, K. Throssell, J. A. Montgomery, Jr., J. E. Peralta, 
 F. Ogliaro, M. J. Bearpark, J. J. Heyd, E. N. Brothers, K. N. Kudin, 
 V. N. Staroverov, T. A. Keith, R. Kobayashi, J. Normand, 
 K. Raghavachari, A. P. Rendell, J. C. Burant, S. S. Iyengar, 
 J. Tomasi, M. Cossi, J. M. Millam, M. Klene, C. Adamo, R. Cammi, 
 J. W. Ochterski, R. L. Martin, K. Morokuma, O. Farkas, 
 J. B. Foresman, and D. J. Fox, Gaussian, Inc., Wallingford CT, 2016.
 
 ******************************************
 Gaussian 16:  ES64L-G16RevB.01 20-Dec-2017
                 4-Nov-2022 
 ******************************************
 %chk=./calculation/no_transfer_pubchem_sampling_1_b3lyp/10045908.chk
 %nprocshared=7
 Will use up to    7 processors via shared memory.
 %mem=6GB
 -----------------------------
 #p b3lyp/6-31g(d) opt SCF=XQC
 -----------------------------
 1/18=20,19=15,26=3,38=1/1,3;
 2/9=110,12=2,17=6,18=5,40=1/2;
 3/5=1,6=6,7=1,11=2,25=1,30=1,71=1,74=-5/1,2,3;
 4//1;
 5/5=2,8=3,13=1,38=5/2,8;
 6/7=2,8=2,9=2,10=2,28=1/1;
 7//1,2,3,16;
 1/18=20,19=15,26=3/3(2);
 2/9=110/2;
 99//99;
 2/9=110/2;
 3/5=1,6=6,7=1,11=2,25=1,30=1,71=1,74=-5/1,2,3;
 4/5=5,16=3,69=1/1;
 5/5=2,8=3,13=1,38=5/2,8;
 7//1,2,3,16;
 1/18=20,19=15,26=3/3(-5);
 2/9=110/2;
 6/7=2,8=2,9=2,10=2,19=2,28=1/1;
 99/9=1/99;
 Leave Link    1 at Fri Nov  4 18:29:25 2022, MaxMem=   805306368 cpu:               1.0 elap:               0.2
 (Enter /home/wykgroup/appl/g16/l101.exe)
 ------------------------------
 Gaussian input prepared by ASE
 ------------------------------
 Symbolic Z-matrix:
 Charge =  0 Multiplicity = 1
 C                    -7.15645   1.91749  -1.73586 
 C                    -6.82127   1.61235  -0.28207 
 O                    -5.414     1.57721  -0.07241 
 C                    -4.78426   0.44542  -0.35784 
 O                    -5.33967  -0.5615   -0.74949 
 C                    -3.3233    0.51634  -0.13206 
 C                    -2.64186  -0.65038  -0.31082 
 N                    -1.31667  -0.83194  -0.16466 
 C                    -0.69541  -2.16303  -0.35694 
 C                    -0.06192  -2.59412   0.96943 
 C                     0.34346  -2.06506  -1.47833 
 C                    -1.71579  -3.23106  -0.75831 
 C                    -0.55851   0.27068   0.1938 
 N                     0.75967   0.11723   0.32641 
 C                     1.54943   1.13695   0.6651 
 N                     2.86564   0.87452   0.74989 
 C                     3.39501  -0.45638   0.54046 
 C                     4.82493  -0.38053   1.07477 
 C                     5.75195  -1.42799   0.47661 
 C                     5.22007   1.08827   0.7728 
 N                     5.66919   1.36497  -0.57418 
 C                     3.90986   1.83965   1.03582 
 C                     0.97546   2.40976   0.91451 
 F                     1.74469   3.45887   1.30024 
 C                    -0.36883   2.58561   0.77749 
 C                    -1.18523   1.50885   0.39949 
 C                    -2.62924   1.73742   0.25045 
 O                    -3.13419   2.83209   0.43202 
 H                    -8.2322    2.01654  -1.85153 
 H                    -6.80473   1.11016  -2.37375 
 H                    -6.67602   2.84412  -2.03991 
 H                    -7.18524   2.40208   0.37816 
 H                    -7.2514    0.64787   0.0108 
 H                    -3.2376   -1.5018   -0.59689 
 H                     0.6641   -1.85882   1.29666 
 H                    -0.83031  -2.69235   1.73321 
 H                     0.4331   -3.55357   0.84849 
 H                     1.10569  -1.33906  -1.22141 
 H                     0.81023  -3.03385  -1.63268 
 H                    -0.13911  -1.75972  -2.40413 
 H                    -1.18362  -4.17137  -0.88261 
 H                    -2.47221  -3.38038   0.00814 
 H                    -2.1971   -2.99674  -1.70455 
 H                     3.38668  -0.70861  -0.52813 
 H                     2.78466  -1.19424   1.0625 
 H                     4.80432  -0.50023   2.16204 
 H                     6.76317  -1.2988    0.85644 
 H                     5.77519  -1.35874  -0.60937 
 H                     5.41026  -2.42518   0.74316 
 H                     6.01027   1.42875   1.44741 
 H                     6.55234   0.90934  -0.76738 
 H                     4.98683   1.05142  -1.25506 
 H                     3.84148   2.71074   0.38144 
 H                     3.84927   2.17643   2.07582 
 H                    -0.83081   3.54432   0.95682 
 
 ITRead=  0  0  0  0  0  0  0  0  0  0  0  0  0  0  0  0  0  0  0  0
 ITRead=  0  0  0  0  0  0  0  0  0  0  0  0  0  0  0  0  0  0  0  0
 ITRead=  0  0  0  0  0  0  0  0  0  0  0  0  0  0  0
 MicOpt= -1 -1 -1 -1 -1 -1 -1 -1 -1 -1 -1 -1 -1 -1 -1 -1 -1 -1 -1 -1
 MicOpt= -1 -1 -1 -1 -1 -1 -1 -1 -1 -1 -1 -1 -1 -1 -1 -1 -1 -1 -1 -1
 MicOpt= -1 -1 -1 -1 -1 -1 -1 -1 -1 -1 -1 -1 -1 -1 -1
 NAtoms=     55 NQM=       55 NQMF=       0 NMMI=      0 NMMIF=      0
                NMic=       0 NMicF=      0.
                    Isotopes and Nuclear Properties:
 (Nuclear quadrupole moments (NQMom) in fm**2, nuclear magnetic moments (NMagM)
  in nuclear magnetons)

  Atom         1           2           3           4           5           6           7           8           9          10
 IAtWgt=          12          12          16          12          16          12          12          14          12          12
 AtmWgt=  12.0000000  12.0000000  15.9949146  12.0000000  15.9949146  12.0000000  12.0000000  14.0030740  12.0000000  12.0000000
 NucSpn=           0           0           0           0           0           0           0           2           0           0
 AtZEff=  -0.0000000  -0.0000000  -0.0000000  -0.0000000  -0.0000000  -0.0000000  -0.0000000  -0.0000000  -0.0000000  -0.0000000
 NQMom=    0.0000000   0.0000000   0.0000000   0.0000000   0.0000000   0.0000000   0.0000000   2.0440000   0.0000000   0.0000000
 NMagM=    0.0000000   0.0000000   0.0000000   0.0000000   0.0000000   0.0000000   0.0000000   0.4037610   0.0000000   0.0000000
 AtZNuc=   6.0000000   6.0000000   8.0000000   6.0000000   8.0000000   6.0000000   6.0000000   7.0000000   6.0000000   6.0000000

  Atom        11          12          13          14          15          16          17          18          19          20
 IAtWgt=          12          12          12          14          12          14          12          12          12          12
 AtmWgt=  12.0000000  12.0000000  12.0000000  14.0030740  12.0000000  14.0030740  12.0000000  12.0000000  12.0000000  12.0000000
 NucSpn=           0           0           0           2           0           2           0           0           0           0
 AtZEff=  -0.0000000  -0.0000000  -0.0000000  -0.0000000  -0.0000000  -0.0000000  -0.0000000  -0.0000000  -0.0000000  -0.0000000
 NQMom=    0.0000000   0.0000000   0.0000000   2.0440000   0.0000000   2.0440000   0.0000000   0.0000000   0.0000000   0.0000000
 NMagM=    0.0000000   0.0000000   0.0000000   0.4037610   0.0000000   0.4037610   0.0000000   0.0000000   0.0000000   0.0000000
 AtZNuc=   6.0000000   6.0000000   6.0000000   7.0000000   6.0000000   7.0000000   6.0000000   6.0000000   6.0000000   6.0000000

  Atom        21          22          23          24          25          26          27          28          29          30
 IAtWgt=          14          12          12          19          12          12          12          16           1           1
 AtmWgt=  14.0030740  12.0000000  12.0000000  18.9984032  12.0000000  12.0000000  12.0000000  15.9949146   1.0078250   1.0078250
 NucSpn=           2           0           0           1           0           0           0           0           1           1
 AtZEff=  -0.0000000  -0.0000000  -0.0000000  -0.0000000  -0.0000000  -0.0000000  -0.0000000  -0.0000000  -0.0000000  -0.0000000
 NQMom=    2.0440000   0.0000000   0.0000000   0.0000000   0.0000000   0.0000000   0.0000000   0.0000000   0.0000000   0.0000000
 NMagM=    0.4037610   0.0000000   0.0000000   2.6288670   0.0000000   0.0000000   0.0000000   0.0000000   2.7928460   2.7928460
 AtZNuc=   7.0000000   6.0000000   6.0000000   9.0000000   6.0000000   6.0000000   6.0000000   8.0000000   1.0000000   1.0000000

  Atom        31          32          33          34          35          36          37          38          39          40
 IAtWgt=           1           1           1           1           1           1           1           1           1           1
 AtmWgt=   1.0078250   1.0078250   1.0078250   1.0078250   1.0078250   1.0078250   1.0078250   1.0078250   1.0078250   1.0078250
 NucSpn=           1           1           1           1           1           1           1           1           1           1
 AtZEff=  -0.0000000  -0.0000000  -0.0000000  -0.0000000  -0.0000000  -0.0000000  -0.0000000  -0.0000000  -0.0000000  -0.0000000
 NQMom=    0.0000000   0.0000000   0.0000000   0.0000000   0.0000000   0.0000000   0.0000000   0.0000000   0.0000000   0.0000000
 NMagM=    2.7928460   2.7928460   2.7928460   2.7928460   2.7928460   2.7928460   2.7928460   2.7928460   2.7928460   2.7928460
 AtZNuc=   1.0000000   1.0000000   1.0000000   1.0000000   1.0000000   1.0000000   1.0000000   1.0000000   1.0000000   1.0000000

  Atom        41          42          43          44          45          46          47          48          49          50
 IAtWgt=           1           1           1           1           1           1           1           1           1           1
 AtmWgt=   1.0078250   1.0078250   1.0078250   1.0078250   1.0078250   1.0078250   1.0078250   1.0078250   1.0078250   1.0078250
 NucSpn=           1           1           1           1           1           1           1           1           1           1
 AtZEff=  -0.0000000  -0.0000000  -0.0000000  -0.0000000  -0.0000000  -0.0000000  -0.0000000  -0.0000000  -0.0000000  -0.0000000
 NQMom=    0.0000000   0.0000000   0.0000000   0.0000000   0.0000000   0.0000000   0.0000000   0.0000000   0.0000000   0.0000000
 NMagM=    2.7928460   2.7928460   2.7928460   2.7928460   2.7928460   2.7928460   2.7928460   2.7928460   2.7928460   2.7928460
 AtZNuc=   1.0000000   1.0000000   1.0000000   1.0000000   1.0000000   1.0000000   1.0000000   1.0000000   1.0000000   1.0000000

  Atom        51          52          53          54          55
 IAtWgt=           1           1           1           1           1
 AtmWgt=   1.0078250   1.0078250   1.0078250   1.0078250   1.0078250
 NucSpn=           1           1           1           1           1
 AtZEff=  -0.0000000  -0.0000000  -0.0000000  -0.0000000  -0.0000000
 NQMom=    0.0000000   0.0000000   0.0000000   0.0000000   0.0000000
 NMagM=    2.7928460   2.7928460   2.7928460   2.7928460   2.7928460
 AtZNuc=   1.0000000   1.0000000   1.0000000   1.0000000   1.0000000
 Leave Link  101 at Fri Nov  4 18:29:26 2022, MaxMem=   805306368 cpu:               1.8 elap:               0.3
 (Enter /home/wykgroup/appl/g16/l103.exe)

 GradGradGradGradGradGradGradGradGradGradGradGradGradGradGradGradGradGrad
 Berny optimization.
 Initialization pass.
                           ----------------------------
                           !    Initial Parameters    !
                           ! (Angstroms and Degrees)  !
 --------------------------                            --------------------------
 ! Name  Definition              Value          Derivative Info.                !
 --------------------------------------------------------------------------------
 ! R1    R(1,2)                  1.5228         estimate D2E/DX2                !
 ! R2    R(1,29)                 1.0865         estimate D2E/DX2                !
 ! R3    R(1,30)                 1.0874         estimate D2E/DX2                !
 ! R4    R(1,31)                 1.0872         estimate D2E/DX2                !
 ! R5    R(2,3)                  1.4232         estimate D2E/DX2                !
 ! R6    R(2,32)                 1.0918         estimate D2E/DX2                !
 ! R7    R(2,33)                 1.0959         estimate D2E/DX2                !
 ! R8    R(3,4)                  1.3263         estimate D2E/DX2                !
 ! R9    R(4,5)                  1.2148         estimate D2E/DX2                !
 ! R10   R(4,6)                  1.48           estimate D2E/DX2                !
 ! R11   R(6,7)                  1.3629         estimate D2E/DX2                !
 ! R12   R(6,27)                 1.4557         estimate D2E/DX2                !
 ! R13   R(7,8)                  1.3455         estimate D2E/DX2                !
 ! R14   R(7,34)                 1.0778         estimate D2E/DX2                !
 ! R15   R(8,9)                  1.4815         estimate D2E/DX2                !
 ! R16   R(8,13)                 1.3853         estimate D2E/DX2                !
 ! R17   R(9,10)                 1.5318         estimate D2E/DX2                !
 ! R18   R(9,11)                 1.5318         estimate D2E/DX2                !
 ! R19   R(9,12)                 1.5307         estimate D2E/DX2                !
 ! R20   R(10,35)                1.0839         estimate D2E/DX2                !
 ! R21   R(10,36)                1.0879         estimate D2E/DX2                !
 ! R22   R(10,37)                1.0864         estimate D2E/DX2                !
 ! R23   R(11,38)                1.0836         estimate D2E/DX2                !
 ! R24   R(11,39)                1.0864         estimate D2E/DX2                !
 ! R25   R(11,40)                1.0878         estimate D2E/DX2                !
 ! R26   R(12,41)                1.0876         estimate D2E/DX2                !
 ! R27   R(12,42)                1.0872         estimate D2E/DX2                !
 ! R28   R(12,43)                1.0872         estimate D2E/DX2                !
 ! R29   R(13,14)                1.3337         estimate D2E/DX2                !
 ! R30   R(13,26)                1.4029         estimate D2E/DX2                !
 ! R31   R(14,15)                1.3335         estimate D2E/DX2                !
 ! R32   R(15,16)                1.3448         estimate D2E/DX2                !
 ! R33   R(15,23)                1.4183         estimate D2E/DX2                !
 ! R34   R(16,17)                1.4475         estimate D2E/DX2                !
 ! R35   R(16,22)                1.4504         estimate D2E/DX2                !
 ! R36   R(17,18)                1.5284         estimate D2E/DX2                !
 ! R37   R(17,44)                1.098          estimate D2E/DX2                !
 ! R38   R(17,45)                1.0906         estimate D2E/DX2                !
 ! R39   R(18,19)                1.5213         estimate D2E/DX2                !
 ! R40   R(18,20)                1.5507         estimate D2E/DX2                !
 ! R41   R(18,46)                1.094          estimate D2E/DX2                !
 ! R42   R(19,47)                1.0879         estimate D2E/DX2                !
 ! R43   R(19,48)                1.0884         estimate D2E/DX2                !
 ! R44   R(19,49)                1.0873         estimate D2E/DX2                !
 ! R45   R(20,21)                1.4466         estimate D2E/DX2                !
 ! R46   R(20,22)                1.5331         estimate D2E/DX2                !
 ! R47   R(20,50)                1.0934         estimate D2E/DX2                !
 ! R48   R(21,51)                1.0124         estimate D2E/DX2                !
 ! R49   R(21,52)                1.0137         estimate D2E/DX2                !
 ! R50   R(22,53)                1.0916         estimate D2E/DX2                !
 ! R51   R(22,54)                1.0948         estimate D2E/DX2                !
 ! R52   R(23,24)                1.3569         estimate D2E/DX2                !
 ! R53   R(23,25)                1.3627         estimate D2E/DX2                !
 ! R54   R(25,26)                1.4031         estimate D2E/DX2                !
 ! R55   R(25,55)                1.0792         estimate D2E/DX2                !
 ! R56   R(26,27)                1.4696         estimate D2E/DX2                !
 ! R57   R(27,28)                1.2191         estimate D2E/DX2                !
 ! A1    A(2,1,29)             109.7454         estimate D2E/DX2                !
 ! A2    A(2,1,30)             109.8811         estimate D2E/DX2                !
 ! A3    A(2,1,31)             109.9091         estimate D2E/DX2                !
 ! A4    A(29,1,30)            108.9954         estimate D2E/DX2                !
 ! A5    A(29,1,31)            109.2732         estimate D2E/DX2                !
 ! A6    A(30,1,31)            109.0153         estimate D2E/DX2                !
 ! A7    A(1,2,3)              111.298          estimate D2E/DX2                !
 ! A8    A(1,2,32)             111.0379         estimate D2E/DX2                !
 ! A9    A(1,2,33)             110.1872         estimate D2E/DX2                !
 ! A10   A(3,2,32)             104.9749         estimate D2E/DX2                !
 ! A11   A(3,2,33)             109.0865         estimate D2E/DX2                !
 ! A12   A(32,2,33)            110.129          estimate D2E/DX2                !
 ! A13   A(2,3,4)              117.3132         estimate D2E/DX2                !
 ! A14   A(3,4,5)              124.0301         estimate D2E/DX2                !
 ! A15   A(3,4,6)              113.2652         estimate D2E/DX2                !
 ! A16   A(5,4,6)              122.6983         estimate D2E/DX2                !
 ! A17   A(4,6,7)              115.6281         estimate D2E/DX2                !
 ! A18   A(4,6,27)             123.431          estimate D2E/DX2                !
 ! A19   A(7,6,27)             120.9404         estimate D2E/DX2                !
 ! A20   A(6,7,8)              126.4195         estimate D2E/DX2                !
 ! A21   A(6,7,34)             115.7661         estimate D2E/DX2                !
 ! A22   A(8,7,34)             117.8144         estimate D2E/DX2                !
 ! A23   A(7,8,9)              121.3427         estimate D2E/DX2                !
 ! A24   A(7,8,13)             117.3689         estimate D2E/DX2                !
 ! A25   A(9,8,13)             121.2806         estimate D2E/DX2                !
 ! A26   A(8,9,10)             108.2946         estimate D2E/DX2                !
 ! A27   A(8,9,11)             108.7814         estimate D2E/DX2                !
 ! A28   A(8,9,12)             112.421          estimate D2E/DX2                !
 ! A29   A(10,9,11)            111.8035         estimate D2E/DX2                !
 ! A30   A(10,9,12)            107.841          estimate D2E/DX2                !
 ! A31   A(11,9,12)            107.7443         estimate D2E/DX2                !
 ! A32   A(9,10,35)            110.3355         estimate D2E/DX2                !
 ! A33   A(9,10,36)            109.953          estimate D2E/DX2                !
 ! A34   A(9,10,37)            109.913          estimate D2E/DX2                !
 ! A35   A(35,10,36)           108.8083         estimate D2E/DX2                !
 ! A36   A(35,10,37)           109.1179         estimate D2E/DX2                !
 ! A37   A(36,10,37)           108.6785         estimate D2E/DX2                !
 ! A38   A(9,11,38)            110.2652         estimate D2E/DX2                !
 ! A39   A(9,11,39)            109.7778         estimate D2E/DX2                !
 ! A40   A(9,11,40)            109.8866         estimate D2E/DX2                !
 ! A41   A(38,11,39)           109.2043         estimate D2E/DX2                !
 ! A42   A(38,11,40)           109.0138         estimate D2E/DX2                !
 ! A43   A(39,11,40)           108.6631         estimate D2E/DX2                !
 ! A44   A(9,12,41)            107.8811         estimate D2E/DX2                !
 ! A45   A(9,12,42)            112.0113         estimate D2E/DX2                !
 ! A46   A(9,12,43)            111.8986         estimate D2E/DX2                !
 ! A47   A(41,12,42)           107.5944         estimate D2E/DX2                !
 ! A48   A(41,12,43)           107.6683         estimate D2E/DX2                !
 ! A49   A(42,12,43)           109.5838         estimate D2E/DX2                !
 ! A50   A(8,13,14)            118.364          estimate D2E/DX2                !
 ! A51   A(8,13,26)            119.7311         estimate D2E/DX2                !
 ! A52   A(14,13,26)           121.9041         estimate D2E/DX2                !
 ! A53   A(13,14,15)           121.5083         estimate D2E/DX2                !
 ! A54   A(14,15,16)           116.5153         estimate D2E/DX2                !
 ! A55   A(14,15,23)           119.421          estimate D2E/DX2                !
 ! A56   A(16,15,23)           124.0635         estimate D2E/DX2                !
 ! A57   A(15,16,17)           121.886          estimate D2E/DX2                !
 ! A58   A(15,16,22)           125.9606         estimate D2E/DX2                !
 ! A59   A(17,16,22)           112.1503         estimate D2E/DX2                !
 ! A60   A(16,17,18)           104.2373         estimate D2E/DX2                !
 ! A61   A(16,17,44)           110.4407         estimate D2E/DX2                !
 ! A62   A(16,17,45)           110.372          estimate D2E/DX2                !
 ! A63   A(18,17,44)           111.0224         estimate D2E/DX2                !
 ! A64   A(18,17,45)           112.9433         estimate D2E/DX2                !
 ! A65   A(44,17,45)           107.8293         estimate D2E/DX2                !
 ! A66   A(17,18,19)           113.4831         estimate D2E/DX2                !
 ! A67   A(17,18,20)           102.5521         estimate D2E/DX2                !
 ! A68   A(17,18,46)           108.9278         estimate D2E/DX2                !
 ! A69   A(19,18,20)           114.8554         estimate D2E/DX2                !
 ! A70   A(19,18,46)           109.0808         estimate D2E/DX2                !
 ! A71   A(20,18,46)           107.5758         estimate D2E/DX2                !
 ! A72   A(18,19,47)           110.3263         estimate D2E/DX2                !
 ! A73   A(18,19,48)           111.1932         estimate D2E/DX2                !
 ! A74   A(18,19,49)           110.0959         estimate D2E/DX2                !
 ! A75   A(47,19,48)           108.7199         estimate D2E/DX2                !
 ! A76   A(47,19,49)           108.387          estimate D2E/DX2                !
 ! A77   A(48,19,49)           108.0387         estimate D2E/DX2                !
 ! A78   A(18,20,21)           116.2062         estimate D2E/DX2                !
 ! A79   A(18,20,22)           102.3008         estimate D2E/DX2                !
 ! A80   A(18,20,50)           111.0366         estimate D2E/DX2                !
 ! A81   A(21,20,22)           109.3497         estimate D2E/DX2                !
 ! A82   A(21,20,50)           106.8921         estimate D2E/DX2                !
 ! A83   A(22,20,50)           111.0499         estimate D2E/DX2                !
 ! A84   A(20,21,51)           111.2512         estimate D2E/DX2                !
 ! A85   A(20,21,52)           110.9337         estimate D2E/DX2                !
 ! A86   A(51,21,52)           108.6534         estimate D2E/DX2                !
 ! A87   A(16,22,20)           104.7935         estimate D2E/DX2                !
 ! A88   A(16,22,53)           111.5748         estimate D2E/DX2                !
 ! A89   A(16,22,54)           110.6166         estimate D2E/DX2                !
 ! A90   A(20,22,53)           109.9851         estimate D2E/DX2                !
 ! A91   A(20,22,54)           111.1628         estimate D2E/DX2                !
 ! A92   A(53,22,54)           108.6924         estimate D2E/DX2                !
 ! A93   A(15,23,24)           120.9586         estimate D2E/DX2                !
 ! A94   A(15,23,25)           119.8252         estimate D2E/DX2                !
 ! A95   A(24,23,25)           119.2139         estimate D2E/DX2                !
 ! A96   A(23,25,26)           120.1355         estimate D2E/DX2                !
 ! A97   A(23,25,55)           121.3483         estimate D2E/DX2                !
 ! A98   A(26,25,55)           118.5159         estimate D2E/DX2                !
 ! A99   A(13,26,25)           117.1847         estimate D2E/DX2                !
 ! A100  A(13,26,27)           124.1498         estimate D2E/DX2                !
 ! A101  A(25,26,27)           118.6647         estimate D2E/DX2                !
 ! A102  A(6,27,26)            111.388          estimate D2E/DX2                !
 ! A103  A(6,27,28)            126.5018         estimate D2E/DX2                !
 ! A104  A(26,27,28)           122.1099         estimate D2E/DX2                !
 ! D1    D(29,1,2,3)          -175.5213         estimate D2E/DX2                !
 ! D2    D(29,1,2,32)          -58.9644         estimate D2E/DX2                !
 ! D3    D(29,1,2,33)           63.3293         estimate D2E/DX2                !
 ! D4    D(30,1,2,3)            64.641          estimate D2E/DX2                !
 ! D5    D(30,1,2,32)         -178.8021         estimate D2E/DX2                !
 ! D6    D(30,1,2,33)          -56.5084         estimate D2E/DX2                !
 ! D7    D(31,1,2,3)           -55.3235         estimate D2E/DX2                !
 ! D8    D(31,1,2,32)           61.2333         estimate D2E/DX2                !
 ! D9    D(31,1,2,33)         -176.4729         estimate D2E/DX2                !
 ! D10   D(1,2,3,4)            -83.2982         estimate D2E/DX2                !
 ! D11   D(32,2,3,4)           156.4953         estimate D2E/DX2                !
 ! D12   D(33,2,3,4)            38.4929         estimate D2E/DX2                !
 ! D13   D(2,3,4,5)             -2.0237         estimate D2E/DX2                !
 ! D14   D(2,3,4,6)            178.8802         estimate D2E/DX2                !
 ! D15   D(3,4,6,7)            175.1202         estimate D2E/DX2                !
 ! D16   D(3,4,6,27)            -5.1472         estimate D2E/DX2                !
 ! D17   D(5,4,6,7)             -3.9896         estimate D2E/DX2                !
 ! D18   D(5,4,6,27)           175.743          estimate D2E/DX2                !
 ! D19   D(4,6,7,8)            179.9792         estimate D2E/DX2                !
 ! D20   D(4,6,7,34)            -0.042          estimate D2E/DX2                !
 ! D21   D(27,6,7,8)             0.2393         estimate D2E/DX2                !
 ! D22   D(27,6,7,34)         -179.7819         estimate D2E/DX2                !
 ! D23   D(4,6,27,26)         -179.8029         estimate D2E/DX2                !
 ! D24   D(4,6,27,28)            0.0091         estimate D2E/DX2                !
 ! D25   D(7,6,27,26)           -0.084          estimate D2E/DX2                !
 ! D26   D(7,6,27,28)          179.728          estimate D2E/DX2                !
 ! D27   D(6,7,8,9)            178.5176         estimate D2E/DX2                !
 ! D28   D(6,7,8,13)            -0.4754         estimate D2E/DX2                !
 ! D29   D(34,7,8,9)            -1.4608         estimate D2E/DX2                !
 ! D30   D(34,7,8,13)          179.5462         estimate D2E/DX2                !
 ! D31   D(7,8,9,10)          -117.6301         estimate D2E/DX2                !
 ! D32   D(7,8,9,11)           120.6593         estimate D2E/DX2                !
 ! D33   D(7,8,9,12)             1.4142         estimate D2E/DX2                !
 ! D34   D(13,8,9,10)           61.3235         estimate D2E/DX2                !
 ! D35   D(13,8,9,11)          -60.3871         estimate D2E/DX2                !
 ! D36   D(13,8,9,12)         -179.6322         estimate D2E/DX2                !
 ! D37   D(7,8,13,14)         -179.1055         estimate D2E/DX2                !
 ! D38   D(7,8,13,26)            0.5602         estimate D2E/DX2                !
 ! D39   D(9,8,13,14)            1.9009         estimate D2E/DX2                !
 ! D40   D(9,8,13,26)         -178.4334         estimate D2E/DX2                !
 ! D41   D(8,9,10,35)          -57.6107         estimate D2E/DX2                !
 ! D42   D(8,9,10,36)           62.4117         estimate D2E/DX2                !
 ! D43   D(8,9,10,37)         -177.9919         estimate D2E/DX2                !
 ! D44   D(11,9,10,35)          62.223          estimate D2E/DX2                !
 ! D45   D(11,9,10,36)        -177.7546         estimate D2E/DX2                !
 ! D46   D(11,9,10,37)         -58.1581         estimate D2E/DX2                !
 ! D47   D(12,9,10,35)        -179.5094         estimate D2E/DX2                !
 ! D48   D(12,9,10,36)         -59.487          estimate D2E/DX2                !
 ! D49   D(12,9,10,37)          60.1095         estimate D2E/DX2                !
 ! D50   D(8,9,11,38)           59.6095         estimate D2E/DX2                !
 ! D51   D(8,9,11,39)          179.9667         estimate D2E/DX2                !
 ! D52   D(8,9,11,40)          -60.5809         estimate D2E/DX2                !
 ! D53   D(10,9,11,38)         -59.9379         estimate D2E/DX2                !
 ! D54   D(10,9,11,39)          60.4193         estimate D2E/DX2                !
 ! D55   D(10,9,11,40)         179.8716         estimate D2E/DX2                !
 ! D56   D(12,9,11,38)        -178.2632         estimate D2E/DX2                !
 ! D57   D(12,9,11,39)         -57.9059         estimate D2E/DX2                !
 ! D58   D(12,9,11,40)          61.5464         estimate D2E/DX2                !
 ! D59   D(8,9,12,41)          179.8054         estimate D2E/DX2                !
 ! D60   D(8,9,12,42)          -61.9645         estimate D2E/DX2                !
 ! D61   D(8,9,12,43)           61.5503         estimate D2E/DX2                !
 ! D62   D(10,9,12,41)         -60.8853         estimate D2E/DX2                !
 ! D63   D(10,9,12,42)          57.3449         estimate D2E/DX2                !
 ! D64   D(10,9,12,43)        -179.1404         estimate D2E/DX2                !
 ! D65   D(11,9,12,41)          59.9566         estimate D2E/DX2                !
 ! D66   D(11,9,12,42)         178.1867         estimate D2E/DX2                !
 ! D67   D(11,9,12,43)         -58.2985         estimate D2E/DX2                !
 ! D68   D(8,13,14,15)         179.797          estimate D2E/DX2                !
 ! D69   D(26,13,14,15)          0.139          estimate D2E/DX2                !
 ! D70   D(8,13,26,25)         179.21           estimate D2E/DX2                !
 ! D71   D(8,13,26,27)          -0.4609         estimate D2E/DX2                !
 ! D72   D(14,13,26,25)         -1.1364         estimate D2E/DX2                !
 ! D73   D(14,13,26,27)        179.1926         estimate D2E/DX2                !
 ! D74   D(13,14,15,16)       -178.9802         estimate D2E/DX2                !
 ! D75   D(13,14,15,23)          1.1612         estimate D2E/DX2                !
 ! D76   D(14,15,16,17)         -2.5246         estimate D2E/DX2                !
 ! D77   D(14,15,16,22)        176.784          estimate D2E/DX2                !
 ! D78   D(23,15,16,17)        177.3267         estimate D2E/DX2                !
 ! D79   D(23,15,16,22)         -3.3648         estimate D2E/DX2                !
 ! D80   D(14,15,23,24)        177.9986         estimate D2E/DX2                !
 ! D81   D(14,15,23,25)         -1.4457         estimate D2E/DX2                !
 ! D82   D(16,15,23,24)         -1.8486         estimate D2E/DX2                !
 ! D83   D(16,15,23,25)        178.7071         estimate D2E/DX2                !
 ! D84   D(15,16,17,18)       -165.8767         estimate D2E/DX2                !
 ! D85   D(15,16,17,44)         74.8131         estimate D2E/DX2                !
 ! D86   D(15,16,17,45)        -44.3277         estimate D2E/DX2                !
 ! D87   D(22,16,17,18)         14.7276         estimate D2E/DX2                !
 ! D88   D(22,16,17,44)       -104.5826         estimate D2E/DX2                !
 ! D89   D(22,16,17,45)        136.2766         estimate D2E/DX2                !
 ! D90   D(15,16,22,20)       -170.2709         estimate D2E/DX2                !
 ! D91   D(15,16,22,53)        -51.2878         estimate D2E/DX2                !
 ! D92   D(15,16,22,54)         69.8417         estimate D2E/DX2                !
 ! D93   D(17,16,22,20)          9.0951         estimate D2E/DX2                !
 ! D94   D(17,16,22,53)        128.0783         estimate D2E/DX2                !
 ! D95   D(17,16,22,54)       -110.7923         estimate D2E/DX2                !
 ! D96   D(16,17,18,19)       -156.4208         estimate D2E/DX2                !
 ! D97   D(16,17,18,20)        -31.9323         estimate D2E/DX2                !
 ! D98   D(16,17,18,46)         81.8584         estimate D2E/DX2                !
 ! D99   D(44,17,18,19)        -37.506          estimate D2E/DX2                !
 ! D100  D(44,17,18,20)         86.9825         estimate D2E/DX2                !
 ! D101  D(44,17,18,46)       -159.2268         estimate D2E/DX2                !
 ! D102  D(45,17,18,19)         83.7509         estimate D2E/DX2                !
 ! D103  D(45,17,18,20)       -151.7606         estimate D2E/DX2                !
 ! D104  D(45,17,18,46)        -37.97           estimate D2E/DX2                !
 ! D105  D(17,18,19,47)        177.393          estimate D2E/DX2                !
 ! D106  D(17,18,19,48)         56.6817         estimate D2E/DX2                !
 ! D107  D(17,18,19,49)        -63.0218         estimate D2E/DX2                !
 ! D108  D(20,18,19,47)         59.8508         estimate D2E/DX2                !
 ! D109  D(20,18,19,48)        -60.8605         estimate D2E/DX2                !
 ! D110  D(20,18,19,49)        179.436          estimate D2E/DX2                !
 ! D111  D(46,18,19,47)        -60.9716         estimate D2E/DX2                !
 ! D112  D(46,18,19,48)        178.3171         estimate D2E/DX2                !
 ! D113  D(46,18,19,49)         58.6136         estimate D2E/DX2                !
 ! D114  D(17,18,20,21)        -82.0231         estimate D2E/DX2                !
 ! D115  D(17,18,20,22)         37.0085         estimate D2E/DX2                !
 ! D116  D(17,18,20,50)        155.546          estimate D2E/DX2                !
 ! D117  D(19,18,20,21)         41.5535         estimate D2E/DX2                !
 ! D118  D(19,18,20,22)        160.5851         estimate D2E/DX2                !
 ! D119  D(19,18,20,50)        -80.8775         estimate D2E/DX2                !
 ! D120  D(46,18,20,21)        163.198          estimate D2E/DX2                !
 ! D121  D(46,18,20,22)        -77.7704         estimate D2E/DX2                !
 ! D122  D(46,18,20,50)         40.7671         estimate D2E/DX2                !
 ! D123  D(18,20,21,51)        -66.9872         estimate D2E/DX2                !
 ! D124  D(18,20,21,52)         54.0905         estimate D2E/DX2                !
 ! D125  D(22,20,21,51)        177.8931         estimate D2E/DX2                !
 ! D126  D(22,20,21,52)        -61.0292         estimate D2E/DX2                !
 ! D127  D(50,20,21,51)         57.5956         estimate D2E/DX2                !
 ! D128  D(50,20,21,52)        178.6733         estimate D2E/DX2                !
 ! D129  D(18,20,22,16)        -28.5556         estimate D2E/DX2                !
 ! D130  D(18,20,22,53)       -148.6042         estimate D2E/DX2                !
 ! D131  D(18,20,22,54)         90.9665         estimate D2E/DX2                !
 ! D132  D(21,20,22,16)         95.1972         estimate D2E/DX2                !
 ! D133  D(21,20,22,53)        -24.8515         estimate D2E/DX2                !
 ! D134  D(21,20,22,54)       -145.2808         estimate D2E/DX2                !
 ! D135  D(50,20,22,16)       -147.0836         estimate D2E/DX2                !
 ! D136  D(50,20,22,53)         92.8677         estimate D2E/DX2                !
 ! D137  D(50,20,22,54)        -27.5616         estimate D2E/DX2                !
 ! D138  D(15,23,25,26)          0.4304         estimate D2E/DX2                !
 ! D139  D(15,23,25,55)       -179.7307         estimate D2E/DX2                !
 ! D140  D(24,23,25,26)       -179.0236         estimate D2E/DX2                !
 ! D141  D(24,23,25,55)          0.8153         estimate D2E/DX2                !
 ! D142  D(23,25,26,13)          0.8121         estimate D2E/DX2                !
 ! D143  D(23,25,26,27)       -179.4982         estimate D2E/DX2                !
 ! D144  D(55,25,26,13)       -179.0312         estimate D2E/DX2                !
 ! D145  D(55,25,26,27)          0.6584         estimate D2E/DX2                !
 ! D146  D(13,26,27,6)           0.207          estimate D2E/DX2                !
 ! D147  D(13,26,27,28)       -179.6146         estimate D2E/DX2                !
 ! D148  D(25,26,27,6)        -179.4594         estimate D2E/DX2                !
 ! D149  D(25,26,27,28)          0.719          estimate D2E/DX2                !
 --------------------------------------------------------------------------------
 Trust Radius=3.00D-01 FncErr=1.00D-07 GrdErr=1.00D-06 EigMax=2.50D+02 EigMin=1.00D-04
 Number of steps in this run=    320 maximum allowed number of steps=    330.
 GradGradGradGradGradGradGradGradGradGradGradGradGradGradGradGradGradGrad

 Leave Link  103 at Fri Nov  4 18:29:26 2022, MaxMem=   805306368 cpu:               0.1 elap:               0.0
 (Enter /home/wykgroup/appl/g16/l202.exe)
 Stoichiometry    C20H27FN4O3
 Framework group  C1[X(C20H27FN4O3)]
 Deg. of freedom   159
 Full point group                 C1      NOp   1
 Largest Abelian subgroup         C1      NOp   1
 Largest concise Abelian subgroup C1      NOp   1
                         Standard orientation:                         
 ---------------------------------------------------------------------
 Center     Atomic      Atomic             Coordinates (Angstroms)
 Number     Number       Type             X           Y           Z
 ---------------------------------------------------------------------
      1          6           0       -7.077826   -0.931373    1.247659
      2          6           0       -6.564271   -0.914252   -0.185843
      3          8           0       -5.142398   -0.961747   -0.226175
      4          6           0       -4.490776    0.183826   -0.077747
      5          8           0       -5.033596    1.262677    0.053393
      6          6           0       -3.019355    0.027559   -0.107949
      7          6           0       -2.302496    1.185873   -0.063698
      8          7           0       -0.961600    1.296531   -0.078739
      9          6           0       -0.297382    2.620598   -0.058576
     10          6           0        0.504261    2.776181   -1.354546
     11          6           0        0.600910    2.702915    1.179428
     12          6           0       -1.299432    3.775379    0.014519
     13          6           0       -0.226404    0.123789   -0.135447
     14          7           0        1.104527    0.209595   -0.132983
     15          6           0        1.873172   -0.879014   -0.181696
     16          7           0        3.202415   -0.677188   -0.152683
     17          6           0        3.773512    0.652686   -0.126896
     18          6           0        5.248904    0.434723   -0.461007
     19          6           0        6.155561    1.547055    0.043987
     20          6           0        5.529795   -0.962824    0.149446
     21          7           0        5.808002   -0.995824    1.568651
     22          6           0        4.220396   -1.710043   -0.129017
     23          6           0        1.265409   -2.157987   -0.262495
     24          9           0        2.017489   -3.283640   -0.354237
     25          6           0       -0.093099   -2.264177   -0.259733
     26          6           0       -0.889653   -1.111391   -0.186309
     27          6           0       -2.351215   -1.264052   -0.174296
     28          8           0       -2.888885   -2.357517   -0.213024
     29          1           0       -8.163455   -0.974300    1.248143
     30          1           0       -6.759030   -0.029899    1.765461
     31          1           0       -6.684172   -1.798799    1.771599
     32          1           0       -6.891763   -1.802257   -0.730138
     33          1           0       -6.907311   -0.009094   -0.699673
     34          1           0       -2.881475    2.093500   -0.012108
     35          1           0        1.223261    1.970911   -1.451687
     36          1           0       -0.166251    2.752891   -2.210880
     37          1           0        1.031880    3.725828   -1.351513
     38          1           0        1.348334    1.918840    1.153600
     39          1           0        1.097196    3.668843    1.209938
     40          1           0        0.001049    2.591178    2.079932
     41          1           0       -0.736337    4.705724    0.028822
     42          1           0       -1.955094    3.801387   -0.852279
     43          1           0       -1.896648    3.737164    0.922163
     44          1           0        3.657141    1.100742    0.868738
     45          1           0        3.265824    1.297885   -0.844851
     46          1           0        5.358145    0.349227   -1.546207
     47          1           0        7.195209    1.318367   -0.180433
     48          1           0        6.051721    1.681772    1.119049
     49          1           0        5.898993    2.486573   -0.439403
     50          1           0        6.372565   -1.447464   -0.350862
     51          1           0        6.686140   -0.539097    1.781149
     52          1           0        5.070109   -0.539726    2.093065
     53          1           0        4.032681   -2.440660    0.660060
     54          1           0        4.260718   -2.233666   -1.089683
     55          1           0       -0.581271   -3.225034   -0.315865
 ---------------------------------------------------------------------
 Rotational constants (GHZ):           0.3646115           0.0891845           0.0747249
 Leave Link  202 at Fri Nov  4 18:29:26 2022, MaxMem=   805306368 cpu:               0.5 elap:               0.1
 (Enter /home/wykgroup/appl/g16/l301.exe)
 Standard basis: 6-31G(d) (6D, 7F)
 Ernie: Thresh=  0.10000D-02 Tol=  0.10000D-05 Strict=F.
 There are   474 symmetry adapted cartesian basis functions of A   symmetry.
 There are   474 symmetry adapted basis functions of A   symmetry.
   474 basis functions,   892 primitive gaussians,   474 cartesian basis functions
   104 alpha electrons      104 beta electrons
       nuclear repulsion energy      2760.1957681732 Hartrees.
 IExCor=  402 DFT=T Ex+Corr=B3LYP ExCW=0 ScaHFX=  0.200000
 ScaDFX=  0.800000  0.720000  1.000000  0.810000 ScalE2=  1.000000  1.000000
 IRadAn=      5 IRanWt=     -1 IRanGd=            0 ICorTp=0 IEmpDi=  4
 NAtoms=   55 NActive=   55 NUniq=   55 SFac= 1.00D+00 NAtFMM=   60 NAOKFM=F Big=F
 Integral buffers will be    131072 words long.
 Raffenetti 2 integral format.
 Two-electron integral symmetry is turned on.
 Leave Link  301 at Fri Nov  4 18:29:26 2022, MaxMem=   805306368 cpu:               0.5 elap:               0.1
 (Enter /home/wykgroup/appl/g16/l302.exe)
 NPDir=0 NMtPBC=     1 NCelOv=     1 NCel=       1 NClECP=     1 NCelD=      1
         NCelK=      1 NCelE2=     1 NClLst=     1 CellRange=     0.0.
 One-electron integrals computed using PRISM.
 One-electron integral symmetry used in STVInt
 NBasis=   474 RedAO= T EigKep=  4.33D-04  NBF=   474
 NBsUse=   474 1.00D-06 EigRej= -1.00D+00 NBFU=   474
 Precomputing XC quadrature grid using
 IXCGrd= 4 IRadAn=           5 IRanWt=          -1 IRanGd=           0 AccXCQ= 0.00D+00.
 Generated NRdTot=       0 NPtTot=           0 NUsed=           0 NTot=          32
 NSgBfM=   465   465   465   465   465 MxSgAt=    55 MxSgA2=    55.
 Leave Link  302 at Fri Nov  4 18:29:27 2022, MaxMem=   805306368 cpu:               6.1 elap:               0.9
 (Enter /home/wykgroup/appl/g16/l303.exe)
 DipDrv:  MaxL=1.
 Leave Link  303 at Fri Nov  4 18:29:27 2022, MaxMem=   805306368 cpu:               0.6 elap:               0.1
 (Enter /home/wykgroup/appl/g16/l401.exe)
 ExpMin= 1.61D-01 ExpMax= 7.00D+03 ExpMxC= 1.05D+03 IAcc=3 IRadAn=         5 AccDes= 0.00D+00
 Harris functional with IExCor=  402 and IRadAn=       5 diagonalized for initial guess.
 HarFok:  IExCor=  402 AccDes= 0.00D+00 IRadAn=         5 IDoV= 1 UseB2=F ITyADJ=14
 ICtDFT=  3500011 ScaDFX=  1.000000  1.000000  1.000000  1.000000
 FoFCou: FMM=F IPFlag=           0 FMFlag=      100000 FMFlg1=           0
         NFxFlg=           0 DoJE=T BraDBF=F KetDBF=T FulRan=T
         wScrn=  0.000000 ICntrl=       500 IOpCl=  0 I1Cent=   200000004 NGrid=           0
         NMat0=    1 NMatS0=      1 NMatT0=    0 NMatD0=    1 NMtDS0=    0 NMtDT0=    0
 Petite list used in FoFCou.
 Harris En= -1322.94056838613    
 JPrj=0 DoOrth=F DoCkMO=F.
 Leave Link  401 at Fri Nov  4 18:29:31 2022, MaxMem=   805306368 cpu:              29.1 elap:               4.2
 (Enter /home/wykgroup/appl/g16/l502.exe)
 Integral symmetry usage will be decided dynamically.
 Closed shell SCF:
 Using DIIS extrapolation, IDIIS=  1040.
 NGot=   805306368 LenX=   804848343 LenY=   804623193
 Requested convergence on RMS density matrix=1.00D-08 within  32 cycles.
 Requested convergence on MAX density matrix=1.00D-06.
 Requested convergence on             energy=1.00D-06.
 No special actions if energy rises.
 Fock matrices will be formed incrementally for  20 cycles.
 Integral accuracy reduced to 1.0D-05 until final iterations.

 Cycle   1  Pass 0  IDiag  1:
 FoFJK:  IHMeth= 1 ICntrl=       0 DoSepK=F KAlg= 0 I1Cent=           0 FoldK=F
 IRaf= 670000000 NMat=       1 IRICut=       1 DoRegI=T DoRafI=F ISym2E= 0 IDoP0=0 IntGTp=1.
 FoFCou: FMM=F IPFlag=           0 FMFlag=      100000 FMFlg1=           0
         NFxFlg=           0 DoJE=F BraDBF=F KetDBF=F FulRan=T
         wScrn=  0.000000 ICntrl=         0 IOpCl=  0 I1Cent=           0 NGrid=           0
         NMat0=    1 NMatS0=      1 NMatT0=    0 NMatD0=    1 NMtDS0=    0 NMtDT0=    0
 Symmetry not used in FoFCou.
 E= -1322.17509732385    
 DIIS: error= 2.67D-02 at cycle   1 NSaved=   1.
 NSaved= 1 IEnMin= 1 EnMin= -1322.17509732385     IErMin= 1 ErrMin= 2.67D-02
 ErrMax= 2.67D-02  0.00D+00 EMaxC= 1.00D-01 BMatC= 7.92D-01 BMatP= 7.92D-01
 IDIUse=3 WtCom= 7.33D-01 WtEn= 2.67D-01
 Coeff-Com:  0.100D+01
 Coeff-En:   0.100D+01
 Coeff:      0.100D+01
 Gap=     0.173 Goal=   None    Shift=    0.000
 GapD=    0.173 DampG=1.000 DampE=0.500 DampFc=0.5000 IDamp=-1.
 Damping current iteration by 5.00D-01
 RMSDP=5.14D-03 MaxDP=2.68D-01              OVMax= 4.17D-01

 Cycle   2  Pass 0  IDiag  1:
 RMSU=  2.55D-03    CP:  9.81D-01
 E= -1322.40862296649     Delta-E=       -0.233525642636 Rises=F Damp=T
 DIIS: error= 9.85D-03 at cycle   2 NSaved=   2.
 NSaved= 2 IEnMin= 2 EnMin= -1322.40862296649     IErMin= 2 ErrMin= 9.85D-03
 ErrMax= 9.85D-03  0.00D+00 EMaxC= 1.00D-01 BMatC= 1.14D-01 BMatP= 7.92D-01
 IDIUse=3 WtCom= 9.02D-01 WtEn= 9.85D-02
 Coeff-Com:  0.187D+00 0.813D+00
 Coeff-En:   0.303D+00 0.697D+00
 Coeff:      0.198D+00 0.802D+00
 Gap=     0.251 Goal=   None    Shift=    0.000
 RMSDP=1.88D-03 MaxDP=1.28D-01 DE=-2.34D-01 OVMax= 3.60D-01

 Cycle   3  Pass 0  IDiag  1:
 RMSU=  1.57D-03    CP:  9.68D-01  6.03D-01
 E= -1322.79587422133     Delta-E=       -0.387251254846 Rises=F Damp=F
 DIIS: error= 2.34D-02 at cycle   3 NSaved=   3.
 NSaved= 3 IEnMin= 3 EnMin= -1322.79587422133     IErMin= 2 ErrMin= 9.85D-03
 ErrMax= 2.34D-02  0.00D+00 EMaxC= 1.00D-01 BMatC= 1.38D-01 BMatP= 1.14D-01
 IDIUse=2 WtCom= 0.00D+00 WtEn= 1.00D+00
 Coeff-En:   0.000D+00 0.000D+00 0.100D+01
 Coeff:      0.000D+00 0.000D+00 0.100D+01
 Gap=     0.199 Goal=   None    Shift=    0.000
 RMSDP=4.11D-03 MaxDP=3.77D-01 DE=-3.87D-01 OVMax= 9.53D-01

 Cycle   4  Pass 0  IDiag  1:
 RMSU=  3.57D-03    CP:  9.64D-01  1.00D+00 -1.27D-01
 E= -1320.01014290569     Delta-E=        2.785731315642 Rises=F Damp=F
 DIIS: error= 5.35D-02 at cycle   4 NSaved=   4.
 NSaved= 4 IEnMin= 3 EnMin= -1322.79587422133     IErMin= 2 ErrMin= 9.85D-03
 ErrMax= 5.35D-02  0.00D+00 EMaxC= 1.00D-01 BMatC= 2.07D+00 BMatP= 1.14D-01
 IDIUse=2 WtCom= 0.00D+00 WtEn= 1.00D+00
 Coeff-En:   0.000D+00 0.000D+00 0.930D+00 0.700D-01
 Coeff:      0.000D+00 0.000D+00 0.930D+00 0.700D-01
 Gap=    -0.073 Goal=   None    Shift=    0.000
 RMSDP=3.47D-03 MaxDP=2.90D-01 DE= 2.79D+00 OVMax= 9.95D-01

 Cycle   5  Pass 0  IDiag  1:
 RMSU=  1.00D-03    CP:  9.77D-01  1.04D+00  3.90D-02  7.48D-02
 E= -1322.67760445936     Delta-E=       -2.667461553672 Rises=F Damp=F
 DIIS: error= 2.49D-02 at cycle   5 NSaved=   5.
 NSaved= 5 IEnMin= 3 EnMin= -1322.79587422133     IErMin= 2 ErrMin= 9.85D-03
 ErrMax= 2.49D-02  0.00D+00 EMaxC= 1.00D-01 BMatC= 2.79D-01 BMatP= 1.14D-01
 IDIUse=2 WtCom= 0.00D+00 WtEn= 1.00D+00
 Coeff-En:   0.000D+00 0.000D+00 0.619D+00 0.000D+00 0.381D+00
 Coeff:      0.000D+00 0.000D+00 0.619D+00 0.000D+00 0.381D+00
 Gap=     0.154 Goal=   None    Shift=    0.000
 RMSDP=1.15D-03 MaxDP=7.77D-02 DE=-2.67D+00 OVMax= 1.47D-01

 Cycle   6  Pass 0  IDiag  1:
 RMSU=  2.98D-04    CP:  9.74D-01  7.82D-01  5.02D-01  2.65D-02  5.27D-01
 E= -1322.91703765271     Delta-E=       -0.239433193350 Rises=F Damp=F
 DIIS: error= 3.67D-03 at cycle   6 NSaved=   6.
 NSaved= 6 IEnMin= 6 EnMin= -1322.91703765271     IErMin= 6 ErrMin= 3.67D-03
 ErrMax= 3.67D-03  0.00D+00 EMaxC= 1.00D-01 BMatC= 8.30D-03 BMatP= 1.14D-01
 IDIUse=3 WtCom= 9.63D-01 WtEn= 3.67D-02
 Coeff-Com:  0.454D-02 0.132D-01 0.321D+00-0.117D-01 0.196D+00 0.477D+00
 Coeff-En:   0.000D+00 0.000D+00 0.000D+00 0.000D+00 0.000D+00 0.100D+01
 Coeff:      0.437D-02 0.127D-01 0.309D+00-0.112D-01 0.189D+00 0.496D+00
 Gap=     0.177 Goal=   None    Shift=    0.000
 RMSDP=2.54D-04 MaxDP=1.75D-02 DE=-2.39D-01 OVMax= 3.17D-02

 Cycle   7  Pass 0  IDiag  1:
 RMSU=  1.22D-04    CP:  9.73D-01  7.60D-01  5.89D-01  2.79D-02  4.89D-01
                    CP:  4.63D-01
 E= -1322.92414363076     Delta-E=       -0.007105978047 Rises=F Damp=F
 DIIS: error= 1.68D-03 at cycle   7 NSaved=   7.
 NSaved= 7 IEnMin= 7 EnMin= -1322.92414363076     IErMin= 7 ErrMin= 1.68D-03
 ErrMax= 1.68D-03  0.00D+00 EMaxC= 1.00D-01 BMatC= 8.17D-04 BMatP= 8.30D-03
 IDIUse=3 WtCom= 9.83D-01 WtEn= 1.68D-02
 Coeff-Com: -0.212D-02 0.774D-03 0.691D-01-0.233D-02 0.121D-01 0.269D+00
 Coeff-Com:  0.654D+00
 Coeff-En:   0.000D+00 0.000D+00 0.000D+00 0.000D+00 0.000D+00 0.000D+00
 Coeff-En:   0.100D+01
 Coeff:     -0.209D-02 0.761D-03 0.680D-01-0.229D-02 0.119D-01 0.264D+00
 Coeff:      0.660D+00
 Gap=     0.163 Goal=   None    Shift=    0.000
 RMSDP=7.07D-05 MaxDP=6.60D-03 DE=-7.11D-03 OVMax= 8.19D-03

 Cycle   8  Pass 0  IDiag  1:
 RMSU=  4.73D-05    CP:  9.73D-01  7.57D-01  5.95D-01  2.71D-02  4.79D-01
                    CP:  5.67D-01  6.77D-01
 E= -1322.92462976491     Delta-E=       -0.000486134150 Rises=F Damp=F
 DIIS: error= 5.54D-04 at cycle   8 NSaved=   8.
 NSaved= 8 IEnMin= 8 EnMin= -1322.92462976491     IErMin= 8 ErrMin= 5.54D-04
 ErrMax= 5.54D-04  0.00D+00 EMaxC= 1.00D-01 BMatC= 1.89D-04 BMatP= 8.17D-04
 IDIUse=3 WtCom= 9.94D-01 WtEn= 5.54D-03
 Coeff-Com: -0.138D-02 0.233D-03 0.119D-01-0.204D-03-0.137D-01 0.114D+00
 Coeff-Com:  0.426D+00 0.463D+00
 Coeff-En:   0.000D+00 0.000D+00 0.000D+00 0.000D+00 0.000D+00 0.000D+00
 Coeff-En:   0.189D+00 0.811D+00
 Coeff:     -0.137D-02 0.232D-03 0.118D-01-0.203D-03-0.136D-01 0.113D+00
 Coeff:      0.425D+00 0.465D+00
 Gap=     0.162 Goal=   None    Shift=    0.000
 RMSDP=3.03D-05 MaxDP=1.76D-03 DE=-4.86D-04 OVMax= 3.77D-03

 Cycle   9  Pass 0  IDiag  1:
 RMSU=  1.25D-05    CP:  9.73D-01  7.56D-01  5.97D-01  2.63D-02  4.76D-01
                    CP:  5.69D-01  7.60D-01  4.70D-01
 E= -1322.92478782120     Delta-E=       -0.000158056290 Rises=F Damp=F
 DIIS: error= 8.96D-05 at cycle   9 NSaved=   9.
 NSaved= 9 IEnMin= 9 EnMin= -1322.92478782120     IErMin= 9 ErrMin= 8.96D-05
 ErrMax= 8.96D-05  0.00D+00 EMaxC= 1.00D-01 BMatC= 6.42D-06 BMatP= 1.89D-04
 IDIUse=1 WtCom= 1.00D+00 WtEn= 0.00D+00
 Coeff-Com: -0.689D-03 0.415D-03 0.489D-02-0.234D-05-0.829D-02 0.566D-01
 Coeff-Com:  0.222D+00 0.276D+00 0.448D+00
 Coeff:     -0.689D-03 0.415D-03 0.489D-02-0.234D-05-0.829D-02 0.566D-01
 Coeff:      0.222D+00 0.276D+00 0.448D+00
 Gap=     0.162 Goal=   None    Shift=    0.000
 RMSDP=6.82D-06 MaxDP=4.59D-04 DE=-1.58D-04 OVMax= 8.72D-04

 Initial convergence to 1.0D-05 achieved.  Increase integral accuracy.
 Cycle  10  Pass 1  IDiag  1:
 E= -1322.92481176982     Delta-E=       -0.000023948618 Rises=F Damp=F
 DIIS: error= 9.34D-05 at cycle   1 NSaved=   1.
 NSaved= 1 IEnMin= 1 EnMin= -1322.92481176982     IErMin= 1 ErrMin= 9.34D-05
 ErrMax= 9.34D-05  0.00D+00 EMaxC= 1.00D-01 BMatC= 2.43D-06 BMatP= 2.43D-06
 IDIUse=1 WtCom= 1.00D+00 WtEn= 0.00D+00
 Coeff-Com:  0.100D+01
 Coeff:      0.100D+01
 Gap=     0.162 Goal=   None    Shift=    0.000
 RMSDP=6.82D-06 MaxDP=4.59D-04 DE=-2.39D-05 OVMax= 6.42D-04

 Cycle  11  Pass 1  IDiag  1:
 RMSU=  4.19D-05    CP:  1.00D+00
 E= -1322.92481173807     Delta-E=        0.000000031753 Rises=F Damp=F
 DIIS: error= 5.66D-05 at cycle   2 NSaved=   2.
 NSaved= 2 IEnMin= 1 EnMin= -1322.92481176982     IErMin= 2 ErrMin= 5.66D-05
 ErrMax= 5.66D-05  0.00D+00 EMaxC= 1.00D-01 BMatC= 2.26D-06 BMatP= 2.43D-06
 IDIUse=1 WtCom= 1.00D+00 WtEn= 0.00D+00
 Coeff-Com:  0.487D+00 0.513D+00
 Coeff:      0.487D+00 0.513D+00
 Gap=     0.162 Goal=   None    Shift=    0.000
 RMSDP=5.39D-06 MaxDP=3.30D-04 DE= 3.18D-08 OVMax= 6.65D-04

 Cycle  12  Pass 1  IDiag  1:
 RMSU=  5.38D-06    CP:  1.00D+00  9.92D-01
 E= -1322.92481302685     Delta-E=       -0.000001288779 Rises=F Damp=F
 DIIS: error= 3.04D-05 at cycle   3 NSaved=   3.
 NSaved= 3 IEnMin= 3 EnMin= -1322.92481302685     IErMin= 3 ErrMin= 3.04D-05
 ErrMax= 3.04D-05  0.00D+00 EMaxC= 1.00D-01 BMatC= 8.23D-07 BMatP= 2.26D-06
 IDIUse=1 WtCom= 1.00D+00 WtEn= 0.00D+00
 Coeff-Com:  0.181D-01 0.373D+00 0.609D+00
 Coeff:      0.181D-01 0.373D+00 0.609D+00
 Gap=     0.162 Goal=   None    Shift=    0.000
 RMSDP=2.31D-06 MaxDP=1.50D-04 DE=-1.29D-06 OVMax= 3.23D-04

 Cycle  13  Pass 1  IDiag  1:
 RMSU=  7.28D-07    CP:  1.00D+00  1.00D+00  6.01D-01
 E= -1322.92481374944     Delta-E=       -0.000000722595 Rises=F Damp=F
 DIIS: error= 7.13D-06 at cycle   4 NSaved=   4.
 NSaved= 4 IEnMin= 4 EnMin= -1322.92481374944     IErMin= 4 ErrMin= 7.13D-06
 ErrMax= 7.13D-06  0.00D+00 EMaxC= 1.00D-01 BMatC= 4.64D-08 BMatP= 8.23D-07
 IDIUse=1 WtCom= 1.00D+00 WtEn= 0.00D+00
 Coeff-Com: -0.218D-02 0.225D+00 0.390D+00 0.387D+00
 Coeff:     -0.218D-02 0.225D+00 0.390D+00 0.387D+00
 Gap=     0.162 Goal=   None    Shift=    0.000
 RMSDP=4.66D-07 MaxDP=2.56D-05 DE=-7.23D-07 OVMax= 5.20D-05

 Cycle  14  Pass 1  IDiag  1:
 RMSU=  1.87D-07    CP:  1.00D+00  1.00D+00  6.25D-01  4.41D-01
 E= -1322.92481378963     Delta-E=       -0.000000040186 Rises=F Damp=F
 DIIS: error= 1.57D-06 at cycle   5 NSaved=   5.
 NSaved= 5 IEnMin= 5 EnMin= -1322.92481378963     IErMin= 5 ErrMin= 1.57D-06
 ErrMax= 1.57D-06  0.00D+00 EMaxC= 1.00D-01 BMatC= 1.62D-09 BMatP= 4.64D-08
 IDIUse=1 WtCom= 1.00D+00 WtEn= 0.00D+00
 Coeff-Com: -0.228D-02 0.129D+00 0.226D+00 0.243D+00 0.404D+00
 Coeff:     -0.228D-02 0.129D+00 0.226D+00 0.243D+00 0.404D+00
 Gap=     0.162 Goal=   None    Shift=    0.000
 RMSDP=1.15D-07 MaxDP=8.34D-06 DE=-4.02D-08 OVMax= 1.36D-05

 Cycle  15  Pass 1  IDiag  1:
 RMSU=  7.53D-08    CP:  1.00D+00  1.00D+00  6.25D-01  4.55D-01  5.36D-01
 E= -1322.92481379092     Delta-E=       -0.000000001289 Rises=F Damp=F
 DIIS: error= 4.22D-07 at cycle   6 NSaved=   6.
 NSaved= 6 IEnMin= 6 EnMin= -1322.92481379092     IErMin= 6 ErrMin= 4.22D-07
 ErrMax= 4.22D-07  0.00D+00 EMaxC= 1.00D-01 BMatC= 8.52D-11 BMatP= 1.62D-09
 IDIUse=1 WtCom= 1.00D+00 WtEn= 0.00D+00
 Coeff-Com: -0.863D-03 0.385D-01 0.680D-01 0.737D-01 0.219D+00 0.602D+00
 Coeff:     -0.863D-03 0.385D-01 0.680D-01 0.737D-01 0.219D+00 0.602D+00
 Gap=     0.162 Goal=   None    Shift=    0.000
 RMSDP=3.33D-08 MaxDP=2.23D-06 DE=-1.29D-09 OVMax= 4.14D-06

 Cycle  16  Pass 1  IDiag  1:
 RMSU=  2.34D-08    CP:  1.00D+00  1.00D+00  6.25D-01  4.51D-01  6.25D-01
                    CP:  7.81D-01
 E= -1322.92481379100     Delta-E=       -0.000000000082 Rises=F Damp=F
 DIIS: error= 1.66D-07 at cycle   7 NSaved=   7.
 NSaved= 7 IEnMin= 7 EnMin= -1322.92481379100     IErMin= 7 ErrMin= 1.66D-07
 ErrMax= 1.66D-07  0.00D+00 EMaxC= 1.00D-01 BMatC= 1.75D-11 BMatP= 8.52D-11
 IDIUse=1 WtCom= 1.00D+00 WtEn= 0.00D+00
 Coeff-Com: -0.237D-03 0.797D-02 0.143D-01 0.152D-01 0.770D-01 0.362D+00
 Coeff-Com:  0.524D+00
 Coeff:     -0.237D-03 0.797D-02 0.143D-01 0.152D-01 0.770D-01 0.362D+00
 Coeff:      0.524D+00
 Gap=     0.162 Goal=   None    Shift=    0.000
 RMSDP=1.27D-08 MaxDP=6.91D-07 DE=-8.19D-11 OVMax= 1.41D-06

 Cycle  17  Pass 1  IDiag  1:
 RMSU=  9.21D-09    CP:  1.00D+00  1.00D+00  6.26D-01  4.51D-01  6.31D-01
                    CP:  8.33D-01  6.72D-01
 E= -1322.92481379099     Delta-E=        0.000000000007 Rises=F Damp=F
 DIIS: error= 6.01D-08 at cycle   8 NSaved=   8.
 NSaved= 8 IEnMin= 7 EnMin= -1322.92481379100     IErMin= 8 ErrMin= 6.01D-08
 ErrMax= 6.01D-08  0.00D+00 EMaxC= 1.00D-01 BMatC= 3.23D-12 BMatP= 1.75D-11
 IDIUse=1 WtCom= 1.00D+00 WtEn= 0.00D+00
 Coeff-Com:  0.405D-04-0.371D-02-0.639D-02-0.710D-02-0.524D-02 0.951D-01
 Coeff-Com:  0.329D+00 0.598D+00
 Coeff:      0.405D-04-0.371D-02-0.639D-02-0.710D-02-0.524D-02 0.951D-01
 Coeff:      0.329D+00 0.598D+00
 Gap=     0.162 Goal=   None    Shift=    0.000
 RMSDP=5.38D-09 MaxDP=3.59D-07 DE= 6.82D-12 OVMax= 6.31D-07

 SCF Done:  E(RB3LYP) =  -1322.92481379     A.U. after   17 cycles
            NFock= 17  Conv=0.54D-08     -V/T= 2.0084
 KE= 1.311844911499D+03 PE=-8.602953431619D+03 EE= 3.207987938156D+03
 Leave Link  502 at Fri Nov  4 18:31:17 2022, MaxMem=   805306368 cpu:             729.0 elap:             105.5
 (Enter /home/wykgroup/appl/g16/l508.exe)
 QCSCF skips out because SCF is already converged.
 Leave Link  508 at Fri Nov  4 18:31:17 2022, MaxMem=   805306368 cpu:               0.2 elap:               0.1
 (Enter /home/wykgroup/appl/g16/l601.exe)
 Copying SCF densities to generalized density rwf, IOpCl= 0 IROHF=0.

 **********************************************************************

            Population analysis using the SCF Density.

 **********************************************************************

 Orbital symmetries:
       Occupied  (A) (A) (A) (A) (A) (A) (A) (A) (A) (A) (A) (A)
                 (A) (A) (A) (A) (A) (A) (A) (A) (A) (A) (A) (A)
                 (A) (A) (A) (A) (A) (A) (A) (A) (A) (A) (A) (A)
                 (A) (A) (A) (A) (A) (A) (A) (A) (A) (A) (A) (A)
                 (A) (A) (A) (A) (A) (A) (A) (A) (A) (A) (A) (A)
                 (A) (A) (A) (A) (A) (A) (A) (A) (A) (A) (A) (A)
                 (A) (A) (A) (A) (A) (A) (A) (A) (A) (A) (A) (A)
                 (A) (A) (A) (A) (A) (A) (A) (A) (A) (A) (A) (A)
                 (A) (A) (A) (A) (A) (A) (A) (A)
       Virtual   (A) (A) (A) (A) (A) (A) (A) (A) (A) (A) (A) (A)
                 (A) (A) (A) (A) (A) (A) (A) (A) (A) (A) (A) (A)
                 (A) (A) (A) (A) (A) (A) (A) (A) (A) (A) (A) (A)
                 (A) (A) (A) (A) (A) (A) (A) (A) (A) (A) (A) (A)
                 (A) (A) (A) (A) (A) (A) (A) (A) (A) (A) (A) (A)
                 (A) (A) (A) (A) (A) (A) (A) (A) (A) (A) (A) (A)
                 (A) (A) (A) (A) (A) (A) (A) (A) (A) (A) (A) (A)
                 (A) (A) (A) (A) (A) (A) (A) (A) (A) (A) (A) (A)
                 (A) (A) (A) (A) (A) (A) (A) (A) (A) (A) (A) (A)
                 (A) (A) (A) (A) (A) (A) (A) (A) (A) (A) (A) (A)
                 (A) (A) (A) (A) (A) (A) (A) (A) (A) (A) (A) (A)
                 (A) (A) (A) (A) (A) (A) (A) (A) (A) (A) (A) (A)
                 (A) (A) (A) (A) (A) (A) (A) (A) (A) (A) (A) (A)
                 (A) (A) (A) (A) (A) (A) (A) (A) (A) (A) (A) (A)
                 (A) (A) (A) (A) (A) (A) (A) (A) (A) (A) (A) (A)
                 (A) (A) (A) (A) (A) (A) (A) (A) (A) (A) (A) (A)
                 (A) (A) (A) (A) (A) (A) (A) (A) (A) (A) (A) (A)
                 (A) (A) (A) (A) (A) (A) (A) (A) (A) (A) (A) (A)
                 (A) (A) (A) (A) (A) (A) (A) (A) (A) (A) (A) (A)
                 (A) (A) (A) (A) (A) (A) (A) (A) (A) (A) (A) (A)
                 (A) (A) (A) (A) (A) (A) (A) (A) (A) (A) (A) (A)
                 (A) (A) (A) (A) (A) (A) (A) (A) (A) (A) (A) (A)
                 (A) (A) (A) (A) (A) (A) (A) (A) (A) (A) (A) (A)
                 (A) (A) (A) (A) (A) (A) (A) (A) (A) (A) (A) (A)
                 (A) (A) (A) (A) (A) (A) (A) (A) (A) (A) (A) (A)
                 (A) (A) (A) (A) (A) (A) (A) (A) (A) (A) (A) (A)
                 (A) (A) (A) (A) (A) (A) (A) (A) (A) (A) (A) (A)
                 (A) (A) (A) (A) (A) (A) (A) (A) (A) (A) (A) (A)
                 (A) (A) (A) (A) (A) (A) (A) (A) (A) (A) (A) (A)
                 (A) (A) (A) (A) (A) (A) (A) (A) (A) (A) (A) (A)
                 (A) (A) (A) (A) (A) (A) (A) (A) (A) (A)
 The electronic state is 1-A.
 Alpha  occ. eigenvalues --  -24.71214 -19.16922 -19.11050 -19.09099 -14.40256
 Alpha  occ. eigenvalues --  -14.37012 -14.33055 -14.32635 -10.29652 -10.27820
 Alpha  occ. eigenvalues --  -10.27372 -10.27161 -10.25120 -10.24460 -10.24006
 Alpha  occ. eigenvalues --  -10.22802 -10.22774 -10.22469 -10.22341 -10.20372
 Alpha  occ. eigenvalues --  -10.20267 -10.19253 -10.19157 -10.19045 -10.18285
 Alpha  occ. eigenvalues --  -10.17862 -10.17623 -10.16494  -1.22177  -1.09062
 Alpha  occ. eigenvalues --   -1.02046  -1.00091  -0.99666  -0.99297  -0.93634
 Alpha  occ. eigenvalues --   -0.89911  -0.84001  -0.81350  -0.80949  -0.78680
 Alpha  occ. eigenvalues --   -0.76973  -0.75239  -0.74360  -0.71399  -0.70669
 Alpha  occ. eigenvalues --   -0.70250  -0.67092  -0.65799  -0.64813  -0.62407
 Alpha  occ. eigenvalues --   -0.61314  -0.59781  -0.57808  -0.56712  -0.55422
 Alpha  occ. eigenvalues --   -0.53969  -0.53140  -0.52491  -0.50969  -0.50759
 Alpha  occ. eigenvalues --   -0.49386  -0.48587  -0.47931  -0.47147  -0.46407
 Alpha  occ. eigenvalues --   -0.46322  -0.45512  -0.45043  -0.44757  -0.44553
 Alpha  occ. eigenvalues --   -0.44131  -0.43503  -0.43044  -0.42457  -0.42225
 Alpha  occ. eigenvalues --   -0.40904  -0.40266  -0.40041  -0.39802  -0.39461
 Alpha  occ. eigenvalues --   -0.39231  -0.39162  -0.38414  -0.38196  -0.37455
 Alpha  occ. eigenvalues --   -0.37192  -0.36906  -0.36263  -0.35866  -0.35594
 Alpha  occ. eigenvalues --   -0.35108  -0.35048  -0.34227  -0.33883  -0.32201
 Alpha  occ. eigenvalues --   -0.29890  -0.28082  -0.27528  -0.27353  -0.25783
 Alpha  occ. eigenvalues --   -0.24624  -0.22389  -0.21641  -0.20353
 Alpha virt. eigenvalues --   -0.04126  -0.02523   0.00983   0.04865   0.05337
 Alpha virt. eigenvalues --    0.07888   0.08759   0.09595   0.10225   0.11357
 Alpha virt. eigenvalues --    0.11964   0.12323   0.12456   0.13103   0.13455
 Alpha virt. eigenvalues --    0.14045   0.14255   0.14867   0.15051   0.15357
 Alpha virt. eigenvalues --    0.15413   0.16115   0.16259   0.17080   0.17447
 Alpha virt. eigenvalues --    0.17482   0.17703   0.18112   0.18339   0.18629
 Alpha virt. eigenvalues --    0.19507   0.19558   0.20029   0.20404   0.20642
 Alpha virt. eigenvalues --    0.20788   0.21082   0.21323   0.22043   0.23884
 Alpha virt. eigenvalues --    0.24275   0.24426   0.24471   0.24797   0.26627
 Alpha virt. eigenvalues --    0.27022   0.27388   0.28290   0.29411   0.29614
 Alpha virt. eigenvalues --    0.30244   0.31460   0.32054   0.35602   0.36669
 Alpha virt. eigenvalues --    0.38147   0.39073   0.41041   0.42674   0.44070
 Alpha virt. eigenvalues --    0.46129   0.47247   0.47863   0.48370   0.48622
 Alpha virt. eigenvalues --    0.49478   0.49854   0.50978   0.51416   0.51604
 Alpha virt. eigenvalues --    0.52682   0.53092   0.53518   0.54696   0.54991
 Alpha virt. eigenvalues --    0.55705   0.55955   0.56127   0.56717   0.57636
 Alpha virt. eigenvalues --    0.58605   0.58945   0.59550   0.60055   0.60294
 Alpha virt. eigenvalues --    0.60623   0.60813   0.62223   0.62644   0.63154
 Alpha virt. eigenvalues --    0.63553   0.64994   0.66022   0.66262   0.66626
 Alpha virt. eigenvalues --    0.67427   0.67597   0.69026   0.69747   0.70624
 Alpha virt. eigenvalues --    0.71428   0.71569   0.71835   0.73007   0.73937
 Alpha virt. eigenvalues --    0.74651   0.75463   0.75972   0.77785   0.78182
 Alpha virt. eigenvalues --    0.79621   0.79691   0.80576   0.81207   0.81667
 Alpha virt. eigenvalues --    0.81896   0.82539   0.83991   0.84308   0.84981
 Alpha virt. eigenvalues --    0.85277   0.85542   0.86188   0.86578   0.87057
 Alpha virt. eigenvalues --    0.87672   0.88556   0.88826   0.88981   0.89587
 Alpha virt. eigenvalues --    0.90355   0.90718   0.90805   0.90948   0.91245
 Alpha virt. eigenvalues --    0.91444   0.92143   0.92402   0.92702   0.93386
 Alpha virt. eigenvalues --    0.93921   0.94061   0.94736   0.95355   0.96226
 Alpha virt. eigenvalues --    0.97107   0.97666   0.98270   0.98408   0.98842
 Alpha virt. eigenvalues --    1.00928   1.01226   1.01443   1.02966   1.03206
 Alpha virt. eigenvalues --    1.03451   1.05069   1.05734   1.07401   1.08967
 Alpha virt. eigenvalues --    1.09863   1.10518   1.11785   1.12554   1.14170
 Alpha virt. eigenvalues --    1.16241   1.16953   1.19290   1.20377   1.21000
 Alpha virt. eigenvalues --    1.21447   1.24158   1.24544   1.25477   1.26648
 Alpha virt. eigenvalues --    1.27223   1.28375   1.29152   1.30659   1.31369
 Alpha virt. eigenvalues --    1.32796   1.34164   1.34411   1.35882   1.37556
 Alpha virt. eigenvalues --    1.38737   1.39322   1.40059   1.41020   1.43141
 Alpha virt. eigenvalues --    1.43762   1.44671   1.45330   1.47212   1.48660
 Alpha virt. eigenvalues --    1.49565   1.50399   1.51098   1.51388   1.52785
 Alpha virt. eigenvalues --    1.54990   1.56394   1.59807   1.61003   1.61965
 Alpha virt. eigenvalues --    1.64394   1.65486   1.66731   1.66865   1.67593
 Alpha virt. eigenvalues --    1.69506   1.70134   1.70485   1.71743   1.71992
 Alpha virt. eigenvalues --    1.73783   1.74654   1.75217   1.75833   1.76665
 Alpha virt. eigenvalues --    1.77876   1.79548   1.80403   1.81148   1.81520
 Alpha virt. eigenvalues --    1.82419   1.82911   1.83471   1.83755   1.84457
 Alpha virt. eigenvalues --    1.85207   1.85767   1.86018   1.86854   1.88164
 Alpha virt. eigenvalues --    1.88690   1.89084   1.90156   1.90925   1.91665
 Alpha virt. eigenvalues --    1.93484   1.94029   1.94554   1.95319   1.96757
 Alpha virt. eigenvalues --    1.97547   1.98777   2.00610   2.01227   2.02888
 Alpha virt. eigenvalues --    2.03024   2.04232   2.05341   2.06382   2.07011
 Alpha virt. eigenvalues --    2.07348   2.07885   2.08507   2.09410   2.10095
 Alpha virt. eigenvalues --    2.11109   2.11909   2.13434   2.14595   2.15492
 Alpha virt. eigenvalues --    2.16486   2.17004   2.17736   2.18811   2.19198
 Alpha virt. eigenvalues --    2.19900   2.20558   2.22009   2.22069   2.23357
 Alpha virt. eigenvalues --    2.23861   2.24336   2.25009   2.26929   2.27709
 Alpha virt. eigenvalues --    2.28326   2.29857   2.30969   2.31566   2.32204
 Alpha virt. eigenvalues --    2.32636   2.34046   2.34575   2.35684   2.36666
 Alpha virt. eigenvalues --    2.37791   2.39356   2.41376   2.41993   2.42531
 Alpha virt. eigenvalues --    2.43463   2.44248   2.46866   2.46975   2.48621
 Alpha virt. eigenvalues --    2.49324   2.52936   2.55037   2.55909   2.57230
 Alpha virt. eigenvalues --    2.58926   2.59503   2.60745   2.62566   2.63722
 Alpha virt. eigenvalues --    2.64180   2.65841   2.66347   2.68205   2.68750
 Alpha virt. eigenvalues --    2.69836   2.71533   2.73282   2.74706   2.76593
 Alpha virt. eigenvalues --    2.77049   2.77664   2.78003   2.79942   2.82876
 Alpha virt. eigenvalues --    2.83862   2.87167   2.89541   2.91360   2.91648
 Alpha virt. eigenvalues --    2.97703   3.00634   3.01956   3.04824   3.05067
 Alpha virt. eigenvalues --    3.08493   3.10677   3.19328   3.29166   3.33466
 Alpha virt. eigenvalues --    3.51001   3.54783   3.79776   3.97462   4.03610
 Alpha virt. eigenvalues --    4.06788   4.10701   4.12697   4.17913   4.20965
 Alpha virt. eigenvalues --    4.21617   4.24005   4.28451   4.29135   4.32632
 Alpha virt. eigenvalues --    4.33588   4.37527   4.38037   4.39333   4.45157
 Alpha virt. eigenvalues --    4.51897   4.53280   4.55441   4.60170   4.62504
 Alpha virt. eigenvalues --    4.66257   4.70793   4.77554   4.96121   5.75721
          Condensed to atoms (all electrons):
 Mulliken charges:
               1
     1  C   -0.465096
     2  C   -0.042238
     3  O   -0.428676
     4  C    0.605796
     5  O   -0.528378
     6  C   -0.067565
     7  C    0.035766
     8  N   -0.521453
     9  C    0.197755
    10  C   -0.461167
    11  C   -0.461922
    12  C   -0.479298
    13  C    0.504184
    14  N   -0.652331
    15  C    0.497766
    16  N   -0.502594
    17  C   -0.117475
    18  C   -0.113728
    19  C   -0.457757
    20  C   -0.025783
    21  N   -0.709581
    22  C   -0.119122
    23  C    0.331396
    24  F   -0.299168
    25  C   -0.227541
    26  C    0.014270
    27  C    0.385107
    28  O   -0.515648
    29  H    0.144453
    30  H    0.172150
    31  H    0.162782
    32  H    0.152275
    33  H    0.159355
    34  H    0.204859
    35  H    0.195245
    36  H    0.148355
    37  H    0.141622
    38  H    0.198841
    39  H    0.139312
    40  H    0.147021
    41  H    0.159920
    42  H    0.165803
    43  H    0.166911
    44  H    0.140588
    45  H    0.172172
    46  H    0.138588
    47  H    0.149777
    48  H    0.138200
    49  H    0.154359
    50  H    0.142410
    51  H    0.306161
    52  H    0.302315
    53  H    0.179744
    54  H    0.156643
    55  H    0.184620
 Sum of Mulliken charges =  -0.00000
 Mulliken charges with hydrogens summed into heavy atoms:
               1
     1  C    0.014289
     2  C    0.269392
     3  O   -0.428676
     4  C    0.605796
     5  O   -0.528378
     6  C   -0.067565
     7  C    0.240625
     8  N   -0.521453
     9  C    0.197755
    10  C    0.024054
    11  C    0.023252
    12  C    0.013336
    13  C    0.504184
    14  N   -0.652331
    15  C    0.497766
    16  N   -0.502594
    17  C    0.195286
    18  C    0.024859
    19  C   -0.015420
    20  C    0.116627
    21  N   -0.101104
    22  C    0.217264
    23  C    0.331396
    24  F   -0.299168
    25  C   -0.042921
    26  C    0.014270
    27  C    0.385107
    28  O   -0.515648
 Electronic spatial extent (au):  <R**2>=          14064.5522
 Charge=             -0.0000 electrons
 Dipole moment (field-independent basis, Debye):
    X=              6.4169    Y=              4.4427    Z=             -0.1056  Tot=              7.8055
 Quadrupole moment (field-independent basis, Debye-Ang):
   XX=           -151.3083   YY=           -169.0773   ZZ=           -162.2367
   XY=              6.0391   XZ=             -1.9144   YZ=              1.3718
 Traceless Quadrupole moment (field-independent basis, Debye-Ang):
   XX=              9.5658   YY=             -8.2032   ZZ=             -1.3626
   XY=              6.0391   XZ=             -1.9144   YZ=              1.3718
 Octapole moment (field-independent basis, Debye-Ang**2):
  XXX=             86.2357  YYY=             23.7101  ZZZ=              1.3380  XYY=              8.2302
  XXY=             -9.6007  XXZ=            -10.0865  XZZ=             -3.7054  YZZ=             -4.1214
  YYZ=             -5.6617  XYZ=             19.8117
 Hexadecapole moment (field-independent basis, Debye-Ang**3):
 XXXX=         -12936.9763 YYYY=          -3280.1404 ZZZZ=           -582.0632 XXXY=            478.2054
 XXXZ=             12.5090 YYYX=            -35.5788 YYYZ=              8.7673 ZZZX=             29.0979
 ZZZY=             20.7024 XXYY=          -3176.9424 XXZZ=          -2464.6335 YYZZ=           -660.2718
 XXYZ=             91.2079 YYXZ=            -38.6357 ZZXY=             13.3869
 N-N= 2.760195768173D+03 E-N=-8.602953439763D+03  KE= 1.311844911499D+03
 No NMR shielding tensors so no spin-rotation constants.
 Leave Link  601 at Fri Nov  4 18:31:17 2022, MaxMem=   805306368 cpu:               3.2 elap:               0.6
 (Enter /home/wykgroup/appl/g16/l701.exe)
 ... and contract with generalized density number  0.
 Compute integral first derivatives.
 Leave Link  701 at Fri Nov  4 18:31:18 2022, MaxMem=   805306368 cpu:               2.6 elap:               0.5
 (Enter /home/wykgroup/appl/g16/l702.exe)
 L702 exits ... SP integral derivatives will be done elsewhere.
 Leave Link  702 at Fri Nov  4 18:31:18 2022, MaxMem=   805306368 cpu:               0.2 elap:               0.1
 (Enter /home/wykgroup/appl/g16/l703.exe)
 Integral derivatives from FoFJK, PRISM(SPDF).
 Compute integral first derivatives, UseDBF=F ICtDFT=           0.
 Calling FoFJK, ICntrl=      2127 FMM=F ISym2X=0 I1Cent= 0 IOpClX= 0 NMat=1 NMatS=1 NMatT=0.
 FoFJK:  IHMeth= 1 ICntrl=    2127 DoSepK=F KAlg= 0 I1Cent=           0 FoldK=F
 IRaf=         0 NMat=       1 IRICut=       1 DoRegI=T DoRafI=F ISym2E= 0 IDoP0=0 IntGTp=1.
 FoFCou: FMM=F IPFlag=           0 FMFlag=      100000 FMFlg1=         800
         NFxFlg=           0 DoJE=F BraDBF=F KetDBF=F FulRan=T
         wScrn=  0.000000 ICntrl=      2127 IOpCl=  0 I1Cent=           0 NGrid=           0
         NMat0=    1 NMatS0=      1 NMatT0=    0 NMatD0=    1 NMtDS0=    0 NMtDT0=    0
 Symmetry not used in FoFCou.
 Leave Link  703 at Fri Nov  4 18:31:51 2022, MaxMem=   805306368 cpu:             228.4 elap:              32.8
 (Enter /home/wykgroup/appl/g16/l716.exe)
 Dipole        = 2.52459410D+00 1.74790182D+00-4.15430481D-02
 ***** Axes restored to original set *****
 -------------------------------------------------------------------
 Center     Atomic                   Forces (Hartrees/Bohr)
 Number     Number              X              Y              Z
 -------------------------------------------------------------------
      1        6           0.004067582   -0.001417739    0.005350574
      2        6          -0.011048533   -0.004038069   -0.002912305
      3        8           0.001733510    0.011569759    0.004009893
      4        6           0.011548253   -0.003661676    0.001525666
      5        8          -0.009939151   -0.013523531   -0.005815639
      6        6          -0.006273957    0.007998874    0.001067205
      7        6          -0.012907037   -0.002844802   -0.002508236
      8        7          -0.004803648   -0.001751334   -0.001442049
      9        6           0.008263326   -0.012059774   -0.001285526
     10        6           0.000639295    0.000461572    0.001282703
     11        6           0.001372975    0.000478528   -0.000828146
     12        6          -0.000298026    0.003470025    0.000810638
     13        6           0.006944614    0.016231703    0.004570385
     14        7           0.001691531   -0.002288034   -0.000550076
     15        6          -0.008576122    0.002129612   -0.000533990
     16        7           0.006310879    0.000341833    0.001268067
     17        6           0.000061971   -0.007547594    0.001690709
     18        6           0.002554935    0.000984063   -0.002879469
     19        6          -0.003314332    0.002024998    0.003907603
     20        6          -0.001703232   -0.001102461    0.005085613
     21        7           0.002806558    0.008064582   -0.005041118
     22        6           0.007827804    0.011441894    0.004380198
     23        6          -0.002730131    0.006099244    0.001470694
     24        9           0.001474601   -0.000400258    0.000138688
     25        6           0.002136911   -0.001964276   -0.000476248
     26        6          -0.000458875    0.003451553    0.000920466
     27        6           0.007005106   -0.014983945   -0.002153770
     28        8          -0.004797207    0.019364032    0.003628802
     29        1          -0.005999862    0.000938165   -0.001668160
     30        1           0.000466042   -0.002825524   -0.003234178
     31        1           0.001141092    0.004672008   -0.002498259
     32        1           0.000122993   -0.000186119    0.001278825
     33        1          -0.000412301    0.001972982    0.001321699
     34        1           0.000768156   -0.001934329   -0.000451095
     35        1           0.002306299   -0.000751391    0.002472553
     36        1          -0.003413480   -0.001591582    0.004299211
     37        1           0.002280020   -0.005671269   -0.000243080
[...]
     24          9           0        2.089667   -3.280882   -0.415928
     25          6           0       -0.044847   -2.296884   -0.288521
     26          6           0       -0.857222   -1.150338   -0.211965
     27          6           0       -2.327385   -1.323262   -0.197539
     28          8           0       -2.834160   -2.444872   -0.239769
     29          1           0       -8.248693   -0.850996    1.310053
     30          1           0       -6.823266    0.096338    1.782845
     31          1           0       -6.794831   -1.680120    1.907359
     32          1           0       -6.966913   -1.841089   -0.604911
     33          1           0       -6.944209   -0.058878   -0.705800
     34          1           0       -2.907588    2.034511   -0.040230
     35          1           0        1.275739    2.170971   -1.449504
     36          1           0       -0.182633    2.818640   -2.230138
     37          1           0        0.895575    3.901464   -1.331467
     38          1           0        1.334029    2.079209    1.214619
     39          1           0        0.931140    3.808727    1.255246
     40          1           0       -0.099541    2.641061    2.101586
     41          1           0       -0.916671    4.719648    0.025197
     42          1           0       -2.082729    3.757213   -0.880651
     43          1           0       -2.048565    3.689963    0.900063
     44          1           0        3.630434    1.212624    0.650287
     45          1           0        3.421407    1.229940   -1.100100
     46          1           0        5.546833    0.194690   -1.500599
     47          1           0        7.300810    1.325770   -0.139723
     48          1           0        6.087396    1.798483    1.064894
     49          1           0        6.020776    2.466162   -0.570561
     50          1           0        6.463071   -1.454794   -0.030028
     51          1           0        6.461762   -0.314631    2.061002
     52          1           0        4.834030   -0.406065    2.174440
     53          1           0        4.041276   -2.460788    0.692618
     54          1           0        4.455608   -2.270322   -1.021080
     55          1           0       -0.525373   -3.267949   -0.345973
 ---------------------------------------------------------------------
 Rotational constants (GHZ):           0.3537371           0.0876400           0.0735732
 Leave Link  202 at Fri Nov  4 19:01:44 2022, MaxMem=   805306368 cpu:               0.3 elap:               0.1
 (Enter /home/wykgroup/appl/g16/l601.exe)
 Copying SCF densities to generalized density rwf, IOpCl= 0 IROHF=0.

 **********************************************************************

            Population analysis using the SCF Density.

 **********************************************************************

 Orbital symmetries:
       Occupied  (A) (A) (A) (A) (A) (A) (A) (A) (A) (A) (A) (A)
                 (A) (A) (A) (A) (A) (A) (A) (A) (A) (A) (A) (A)
                 (A) (A) (A) (A) (A) (A) (A) (A) (A) (A) (A) (A)
                 (A) (A) (A) (A) (A) (A) (A) (A) (A) (A) (A) (A)
                 (A) (A) (A) (A) (A) (A) (A) (A) (A) (A) (A) (A)
                 (A) (A) (A) (A) (A) (A) (A) (A) (A) (A) (A) (A)
                 (A) (A) (A) (A) (A) (A) (A) (A) (A) (A) (A) (A)
                 (A) (A) (A) (A) (A) (A) (A) (A) (A) (A) (A) (A)
                 (A) (A) (A) (A) (A) (A) (A) (A)
       Virtual   (A) (A) (A) (A) (A) (A) (A) (A) (A) (A) (A) (A)
                 (A) (A) (A) (A) (A) (A) (A) (A) (A) (A) (A) (A)
                 (A) (A) (A) (A) (A) (A) (A) (A) (A) (A) (A) (A)
                 (A) (A) (A) (A) (A) (A) (A) (A) (A) (A) (A) (A)
                 (A) (A) (A) (A) (A) (A) (A) (A) (A) (A) (A) (A)
                 (A) (A) (A) (A) (A) (A) (A) (A) (A) (A) (A) (A)
                 (A) (A) (A) (A) (A) (A) (A) (A) (A) (A) (A) (A)
                 (A) (A) (A) (A) (A) (A) (A) (A) (A) (A) (A) (A)
                 (A) (A) (A) (A) (A) (A) (A) (A) (A) (A) (A) (A)
                 (A) (A) (A) (A) (A) (A) (A) (A) (A) (A) (A) (A)
                 (A) (A) (A) (A) (A) (A) (A) (A) (A) (A) (A) (A)
                 (A) (A) (A) (A) (A) (A) (A) (A) (A) (A) (A) (A)
                 (A) (A) (A) (A) (A) (A) (A) (A) (A) (A) (A) (A)
                 (A) (A) (A) (A) (A) (A) (A) (A) (A) (A) (A) (A)
                 (A) (A) (A) (A) (A) (A) (A) (A) (A) (A) (A) (A)
                 (A) (A) (A) (A) (A) (A) (A) (A) (A) (A) (A) (A)
                 (A) (A) (A) (A) (A) (A) (A) (A) (A) (A) (A) (A)
                 (A) (A) (A) (A) (A) (A) (A) (A) (A) (A) (A) (A)
                 (A) (A) (A) (A) (A) (A) (A) (A) (A) (A) (A) (A)
                 (A) (A) (A) (A) (A) (A) (A) (A) (A) (A) (A) (A)
                 (A) (A) (A) (A) (A) (A) (A) (A) (A) (A) (A) (A)
                 (A) (A) (A) (A) (A) (A) (A) (A) (A) (A) (A) (A)
                 (A) (A) (A) (A) (A) (A) (A) (A) (A) (A) (A) (A)
                 (A) (A) (A) (A) (A) (A) (A) (A) (A) (A) (A) (A)
                 (A) (A) (A) (A) (A) (A) (A) (A) (A) (A) (A) (A)
                 (A) (A) (A) (A) (A) (A) (A) (A) (A) (A) (A) (A)
                 (A) (A) (A) (A) (A) (A) (A) (A) (A) (A) (A) (A)
                 (A) (A) (A) (A) (A) (A) (A) (A) (A) (A) (A) (A)
                 (A) (A) (A) (A) (A) (A) (A) (A) (A) (A) (A) (A)
                 (A) (A) (A) (A) (A) (A) (A) (A) (A) (A) (A) (A)
                 (A) (A) (A) (A) (A) (A) (A) (A) (A) (A)
 The electronic state is 1-A.
 Alpha  occ. eigenvalues --  -24.71313 -19.16926 -19.11296 -19.09305 -14.40349
 Alpha  occ. eigenvalues --  -14.37191 -14.33517 -14.32836 -10.30015 -10.28094
 Alpha  occ. eigenvalues --  -10.27539 -10.27535 -10.25906 -10.24937 -10.24208
 Alpha  occ. eigenvalues --  -10.23081 -10.23035 -10.22768 -10.22637 -10.20740
 Alpha  occ. eigenvalues --  -10.20460 -10.19632 -10.19537 -10.19458 -10.18791
 Alpha  occ. eigenvalues --  -10.18479 -10.18442 -10.16885  -1.22262  -1.08110
 Alpha  occ. eigenvalues --   -1.00778  -0.99454  -0.99050  -0.98103  -0.93031
 Alpha  occ. eigenvalues --   -0.89235  -0.83445  -0.81079  -0.80738  -0.78358
 Alpha  occ. eigenvalues --   -0.76595  -0.75027  -0.74177  -0.71038  -0.70393
 Alpha  occ. eigenvalues --   -0.70181  -0.66672  -0.65570  -0.64330  -0.61958
 Alpha  occ. eigenvalues --   -0.61034  -0.59460  -0.57737  -0.56550  -0.55074
 Alpha  occ. eigenvalues --   -0.53868  -0.52792  -0.52232  -0.50767  -0.50336
 Alpha  occ. eigenvalues --   -0.48991  -0.48357  -0.47492  -0.46737  -0.46130
 Alpha  occ. eigenvalues --   -0.46009  -0.45387  -0.44725  -0.44320  -0.44306
 Alpha  occ. eigenvalues --   -0.43802  -0.43283  -0.42699  -0.42394  -0.42129
 Alpha  occ. eigenvalues --   -0.40731  -0.40228  -0.39964  -0.39519  -0.39300
 Alpha  occ. eigenvalues --   -0.39089  -0.39005  -0.38330  -0.38186  -0.37559
 Alpha  occ. eigenvalues --   -0.37049  -0.36795  -0.36182  -0.35744  -0.35499
 Alpha  occ. eigenvalues --   -0.35169  -0.34923  -0.34446  -0.33990  -0.32308
 Alpha  occ. eigenvalues --   -0.29790  -0.28076  -0.27834  -0.27544  -0.25871
 Alpha  occ. eigenvalues --   -0.24868  -0.22438  -0.21882  -0.20429
 Alpha virt. eigenvalues --   -0.04206  -0.02800   0.00658   0.04433   0.05198
 Alpha virt. eigenvalues --    0.07543   0.08501   0.08967   0.09931   0.10969
 Alpha virt. eigenvalues --    0.11637   0.12085   0.12263   0.12765   0.13208
 Alpha virt. eigenvalues --    0.13654   0.13759   0.14208   0.14485   0.14746
 Alpha virt. eigenvalues --    0.15211   0.15794   0.15961   0.16765   0.16865
 Alpha virt. eigenvalues --    0.17102   0.17107   0.17555   0.17881   0.18185
 Alpha virt. eigenvalues --    0.19146   0.19166   0.19463   0.19841   0.20129
 Alpha virt. eigenvalues --    0.20344   0.20551   0.20785   0.21848   0.23391
 Alpha virt. eigenvalues --    0.23704   0.23881   0.24160   0.24475   0.25627
 Alpha virt. eigenvalues --    0.26235   0.26660   0.27674   0.28678   0.28917
 Alpha virt. eigenvalues --    0.29788   0.30330   0.31351   0.34832   0.35957
 Alpha virt. eigenvalues --    0.37482   0.38542   0.40815   0.41955   0.43660
 Alpha virt. eigenvalues --    0.45996   0.46963   0.47743   0.47913   0.48324
 Alpha virt. eigenvalues --    0.49037   0.49808   0.50626   0.51068   0.51234
 Alpha virt. eigenvalues --    0.52329   0.52843   0.53396   0.54316   0.54722
 Alpha virt. eigenvalues --    0.55670   0.55756   0.55997   0.56361   0.57282
 Alpha virt. eigenvalues --    0.57524   0.58587   0.58779   0.59627   0.59725
 Alpha virt. eigenvalues --    0.60518   0.60810   0.61716   0.61994   0.62914
 Alpha virt. eigenvalues --    0.63024   0.64655   0.65246   0.66004   0.66321
 Alpha virt. eigenvalues --    0.66889   0.67624   0.68447   0.68728   0.68901
 Alpha virt. eigenvalues --    0.70526   0.70986   0.71705   0.71780   0.74160
 Alpha virt. eigenvalues --    0.74693   0.75366   0.75767   0.77793   0.78159
 Alpha virt. eigenvalues --    0.79312   0.79611   0.80272   0.81026   0.81610
 Alpha virt. eigenvalues --    0.81978   0.82445   0.83251   0.83822   0.84327
 Alpha virt. eigenvalues --    0.84848   0.85409   0.85603   0.86155   0.86587
 Alpha virt. eigenvalues --    0.87066   0.88062   0.88185   0.88465   0.89081
 Alpha virt. eigenvalues --    0.89443   0.90055   0.90121   0.90365   0.90623
 Alpha virt. eigenvalues --    0.91397   0.91735   0.91969   0.92205   0.93040
 Alpha virt. eigenvalues --    0.93295   0.93912   0.94154   0.94908   0.95516
 Alpha virt. eigenvalues --    0.95798   0.96636   0.97294   0.97551   0.98159
 Alpha virt. eigenvalues --    1.00252   1.00459   1.00986   1.01820   1.02684
 Alpha virt. eigenvalues --    1.03102   1.04221   1.05214   1.06253   1.08508
 Alpha virt. eigenvalues --    1.09330   1.11386   1.11778   1.12990   1.14595
 Alpha virt. eigenvalues --    1.15129   1.16090   1.18110   1.19739   1.20743
 Alpha virt. eigenvalues --    1.21052   1.21817   1.24309   1.25071   1.26300
 Alpha virt. eigenvalues --    1.26829   1.27938   1.28632   1.30541   1.31176
 Alpha virt. eigenvalues --    1.32563   1.33182   1.34544   1.35673   1.36880
 Alpha virt. eigenvalues --    1.37707   1.38784   1.40045   1.40076   1.42256
 Alpha virt. eigenvalues --    1.42764   1.43231   1.45376   1.46138   1.48039
 Alpha virt. eigenvalues --    1.48638   1.48831   1.49778   1.50578   1.51783
 Alpha virt. eigenvalues --    1.54308   1.55516   1.58651   1.59790   1.60982
 Alpha virt. eigenvalues --    1.63585   1.64473   1.64654   1.65455   1.67221
 Alpha virt. eigenvalues --    1.69205   1.69773   1.69806   1.70876   1.71286
 Alpha virt. eigenvalues --    1.73457   1.73931   1.74986   1.75051   1.75488
 Alpha virt. eigenvalues --    1.76227   1.77716   1.79451   1.79771   1.80359
 Alpha virt. eigenvalues --    1.81430   1.82014   1.82707   1.83237   1.83781
 Alpha virt. eigenvalues --    1.83882   1.84132   1.85150   1.85498   1.86825
 Alpha virt. eigenvalues --    1.87271   1.87802   1.89093   1.89710   1.90831
 Alpha virt. eigenvalues --    1.91988   1.92870   1.93418   1.94063   1.95392
 Alpha virt. eigenvalues --    1.97011   1.97840   1.99172   1.99868   2.00962
 Alpha virt. eigenvalues --    2.01806   2.03359   2.04003   2.05041   2.05763
 Alpha virt. eigenvalues --    2.06086   2.06173   2.06841   2.07834   2.08928
 Alpha virt. eigenvalues --    2.09773   2.10282   2.12167   2.13129   2.13946
 Alpha virt. eigenvalues --    2.14385   2.15198   2.16701   2.17833   2.18005
 Alpha virt. eigenvalues --    2.19100   2.19286   2.20344   2.20606   2.21991
 Alpha virt. eigenvalues --    2.22060   2.23296   2.23603   2.25822   2.25889
 Alpha virt. eigenvalues --    2.27048   2.27987   2.29391   2.29779   2.31201
 Alpha virt. eigenvalues --    2.32349   2.32603   2.33004   2.34477   2.35934
 Alpha virt. eigenvalues --    2.36521   2.38603   2.39624   2.40576   2.41184
 Alpha virt. eigenvalues --    2.42454   2.43759   2.45297   2.45748   2.47540
 Alpha virt. eigenvalues --    2.48178   2.51201   2.53142   2.54431   2.55424
 Alpha virt. eigenvalues --    2.57230   2.58057   2.58689   2.61327   2.61800
 Alpha virt. eigenvalues --    2.63010   2.64997   2.65346   2.66701   2.67564
 Alpha virt. eigenvalues --    2.68641   2.69719   2.71353   2.72861   2.74593
 Alpha virt. eigenvalues --    2.75015   2.75747   2.76339   2.78932   2.81364
 Alpha virt. eigenvalues --    2.81888   2.85159   2.87204   2.89779   2.89966
 Alpha virt. eigenvalues --    2.95679   2.98973   2.99969   3.03060   3.03438
 Alpha virt. eigenvalues --    3.06120   3.08716   3.16079   3.26333   3.29621
 Alpha virt. eigenvalues --    3.46602   3.51299   3.78534   3.96506   4.02679
 Alpha virt. eigenvalues --    4.04018   4.09329   4.10520   4.16124   4.19291
 Alpha virt. eigenvalues --    4.20260   4.22594   4.27000   4.28166   4.31605
 Alpha virt. eigenvalues --    4.32082   4.36434   4.37372   4.38042   4.44555
 Alpha virt. eigenvalues --    4.50001   4.51667   4.53204   4.58345   4.60591
 Alpha virt. eigenvalues --    4.65030   4.68416   4.74224   4.92791   5.72743
          Condensed to atoms (all electrons):
 Mulliken charges:
               1
     1  C   -0.462651
     2  C   -0.039100
     3  O   -0.445318
     4  C    0.611973
     5  O   -0.531070
     6  C   -0.060578
     7  C    0.044516
     8  N   -0.544491
     9  C    0.212137
    10  C   -0.458792
    11  C   -0.456555
    12  C   -0.484834
    13  C    0.497344
    14  N   -0.640538
    15  C    0.490586
    16  N   -0.512846
    17  C   -0.111701
    18  C   -0.113195
    19  C   -0.460111
    20  C   -0.020944
    21  N   -0.711278
    22  C   -0.118551
    23  C    0.333295
    24  F   -0.298577
    25  C   -0.225442
    26  C    0.014126
    27  C    0.384559
    28  O   -0.522323
    29  H    0.143437
    30  H    0.171671
    31  H    0.161517
    32  H    0.153785
    33  H    0.163273
    34  H    0.206299
    35  H    0.190724
    36  H    0.151226
    37  H    0.142141
    38  H    0.189197
    39  H    0.141457
    40  H    0.150438
    41  H    0.158944
    42  H    0.169063
    43  H    0.168804
    44  H    0.144082
    45  H    0.166184
    46  H    0.138967
    47  H    0.151086
    48  H    0.137054
    49  H    0.154336
    50  H    0.143217
    51  H    0.304065
    52  H    0.301957
    53  H    0.182406
    54  H    0.157492
    55  H    0.187537
 Sum of Mulliken charges =  -0.00000
 Mulliken charges with hydrogens summed into heavy atoms:
               1
     1  C    0.013974
     2  C    0.277958
     3  O   -0.445318
     4  C    0.611973
     5  O   -0.531070
     6  C   -0.060578
     7  C    0.250814
     8  N   -0.544491
     9  C    0.212137
    10  C    0.025299
    11  C    0.024537
    12  C    0.011977
    13  C    0.497344
    14  N   -0.640538
    15  C    0.490586
    16  N   -0.512846
    17  C    0.198565
    18  C    0.025773
    19  C   -0.017634
    20  C    0.122273
    21  N   -0.105257
    22  C    0.221347
    23  C    0.333295
    24  F   -0.298577
    25  C   -0.037905
    26  C    0.014126
    27  C    0.384559
    28  O   -0.522323
 Electronic spatial extent (au):  <R**2>=          14314.1872
 Charge=             -0.0000 electrons
 Dipole moment (field-independent basis, Debye):
    X=              6.2396    Y=              4.8035    Z=             -0.0366  Tot=              7.8745
 Quadrupole moment (field-independent basis, Debye-Ang):
   XX=           -150.7902   YY=           -168.1361   ZZ=           -163.0130
   XY=              5.2646   XZ=             -3.4825   YZ=              1.9553
 Traceless Quadrupole moment (field-independent basis, Debye-Ang):
   XX=              9.8562   YY=             -7.4897   ZZ=             -2.3666
   XY=              5.2646   XZ=             -3.4825   YZ=              1.9553
 Octapole moment (field-independent basis, Debye-Ang**2):
  XXX=             72.0738  YYY=             26.7354  ZZZ=             -0.7879  XYY=             14.2203
  XXY=             -6.7699  XXZ=             -9.7224  XZZ=             -8.5379  YZZ=             -0.6666
  YYZ=             -4.3249  XYZ=             21.0734
 Hexadecapole moment (field-independent basis, Debye-Ang**3):
 XXXX=         -13128.4527 YYYY=          -3335.2603 ZZZZ=           -633.8111 XXXY=            478.6384
 XXXZ=            -47.0548 YYYX=            -59.7289 YYYZ=              7.0572 ZZZX=             16.3096
 ZZZY=             27.9258 XXYY=          -3201.4619 XXZZ=          -2531.5799 YYZZ=           -679.6893
 XXYZ=            108.0344 YYXZ=            -38.9579 ZZXY=             29.5239
 N-N= 2.732928747322D+03 E-N=-8.547712600374D+03  KE= 1.310828383830D+03
 No NMR shielding tensors so no spin-rotation constants.
 Leave Link  601 at Fri Nov  4 19:01:44 2022, MaxMem=   805306368 cpu:               1.6 elap:               0.3
 (Enter /home/wykgroup/appl/g16/l9999.exe)
 1\1\GINC-NODE57\FOpt\RB3LYP\6-31G(d)\C20H27F1N4O3\WYKGROUP\04-Nov-2022
 \0\\#p b3lyp/6-31g(d) opt SCF=XQC\\Gaussian input prepared by ASE\\0,1
 \C,-7.2152015446,1.8381023269,-1.8228157365\C,-6.8755345055,1.61617136
 78,-0.355912365\O,-5.4477860649,1.6347686888,-0.1372744065\C,-4.793634
 7068,0.4796863801,-0.3391153637\O,-5.346802197,-0.5560265105,-0.685431
 2279\C,-3.3302416899,0.5804228946,-0.09477729\C,-2.6476728015,-0.59496
 12136,-0.2888382473\N,-1.3122249728,-0.8035086592,-0.1415512763\C,-0.7
 192013477,-2.1837756528,-0.3929197619\C,-0.0787789462,-2.7064944014,0.
 9079659722\C,0.2926472695,-2.1035637931,-1.5531740796\C,-1.8113705558,
 -3.1890966723,-0.8041725087\C,-0.524005373,0.3033247072,0.2493266495\N
 ,0.7984094958,0.1261780824,0.3883660716\C,1.5883444651,1.1463870548,0.
 7572634554\N,2.9244067026,0.8940104032,0.871146592\C,3.4609488144,-0.4
 618659662,0.7173940852\C,4.9404007825,-0.3164903683,1.1078752432\C,5.8
 475527038,-1.4081497793,0.5453045678\C,5.2713585053,1.1380851066,0.667
 2952714\N,5.546300331,1.3520831266,-0.7565906827\C,3.994658492,1.89214
 92838,1.067063257\C,1.0090460095,2.4209019784,1.0237346581\F,1.7899761
 833,3.4449162322,1.4500925778\C,-0.3336200591,2.6096744826,0.872732884
 4\C,-1.1560610699,1.5417616615,0.4683392007\C,-2.6083687059,1.78442573
 34,0.3153435298\O,-3.0905075574,2.8980745469,0.5249647958\H,-8.3023301
 984,1.907009931,-1.9477375282\H,-6.8509196335,1.0057276278,-2.43138586
 12\H,-6.766213659,2.7678754476,-2.1868894925\H,-7.2491493282,2.4326018
 351,0.2669629386\H,-7.280296862,0.6670824795,0.0043955806\H,-3.2412273
 272,-1.4427199085,-0.5907682838\H,0.727386487,-2.058082639,1.246711607
 6\H,-0.8320873584,-2.7777007031,1.7004780752\H,0.3254005117,-3.7099887
 481,0.7341905865\H,1.1223728273,-1.4397061722,-1.3166771758\H,0.688134
 7545,-3.1050074923,-1.756465227\H,-0.2007963554,-1.7439173462,-2.46305
 84157\H,-1.3201578289,-4.1532283403,-0.9657728275\H,-2.5684456298,-3.3
 359862348,-0.0274627685\H,-2.30905643,-2.9166395699,-1.7402085555\H,3.
 3488799482,-0.8142941512,-0.319461477\H,2.921025485,-1.1703289588,1.35
 32685638\H,5.002440101,-0.338957937,2.2053912967\H,6.8871732983,-1.258
 7130327,0.8601803132\H,5.8243532246,-1.422888144,-0.5506330738\H,5.537
 2378055,-2.3993648991,0.8947065627\H,6.134036043,1.524790033,1.2211147
 415\H,6.3695111575,0.8259969984,-1.0435317828\H,4.7715070447,1.0162131
 118,-1.3280325484\H,3.8461333389,2.7697235193,0.4369120732\H,4.0371551
 246,2.2216284581,2.1125648166\H,-0.7951011981,3.5716847942,1.069568995
 7\\Version=ES64L-G16RevB.01\State=1-A\HF=-1322.9334635\RMSD=6.779e-09\
 RMSF=3.456e-06\Dipole=2.3894349,-1.9703146,-0.0803338\Quadrupole=6.344
 4701,-5.5375474,-0.8069227,-4.9954038,2.700325,-0.0856592\PG=C01 [X(C2
 0H27F1N4O3)]\\@


 ... FOR AFTERWARDS A MAN FINDS PLEASURE IN HIS PAINS,
 WHEN HE HAS SUFFERED LONG AND WANDERED FAR.

                                    -- HOMER
 Job cpu time:       0 days  3 hours 42 minutes 20.0 seconds.
 Elapsed time:       0 days  0 hours 32 minutes 16.5 seconds.
 File lengths (MBytes):  RWF=    145 Int=      0 D2E=      0 Chk=     20 Scr=      1
 Normal termination of Gaussian 16 at Fri Nov  4 19:01:44 2022.
