 Entering Gaussian System, Link 0=/home/wykgroup/appl/g16/g16
 Input=calculation/no_transfer_pubchem_sampling_1_b3lyp/114739510_rwf.com
 Output=calculation/no_transfer_pubchem_sampling_1_b3lyp/114739510_rwf.log
 Initial command:
 /home/wykgroup/appl/g16/l1.exe "/userdata/scratch/wykgroup/khs/calculation/no_transfer_pubchem_sampling_1_b3lyp/114739510_rwf/Gau-31805.inp" -scrdir="/userdata/scratch/wykgroup/khs/calculation/no_transfer_pubchem_sampling_1_b3lyp/114739510_rwf/"
 Entering Link 1 = /home/wykgroup/appl/g16/l1.exe PID=     31806.
  
 Copyright (c) 1988-2017, Gaussian, Inc.  All Rights Reserved.
  
 This is part of the Gaussian(R) 16 program.  It is based on
 the Gaussian(R) 09 system (copyright 2009, Gaussian, Inc.),
 the Gaussian(R) 03 system (copyright 2003, Gaussian, Inc.),
 the Gaussian(R) 98 system (copyright 1998, Gaussian, Inc.),
 the Gaussian(R) 94 system (copyright 1995, Gaussian, Inc.),
 the Gaussian 92(TM) system (copyright 1992, Gaussian, Inc.),
 the Gaussian 90(TM) system (copyright 1990, Gaussian, Inc.),
 the Gaussian 88(TM) system (copyright 1988, Gaussian, Inc.),
 the Gaussian 86(TM) system (copyright 1986, Carnegie Mellon
 University), and the Gaussian 82(TM) system (copyright 1983,
 Carnegie Mellon University). Gaussian is a federally registered
 trademark of Gaussian, Inc.
  
 This software contains proprietary and confidential information,
 including trade secrets, belonging to Gaussian, Inc.
  
 This software is provided under written license and may be
 used, copied, transmitted, or stored only in accord with that
 written license.
  
 The following legend is applicable only to US Government
 contracts under FAR:
  
                    RESTRICTED RIGHTS LEGEND
  
 Use, reproduction and disclosure by the US Government is
 subject to restrictions as set forth in subparagraphs (a)
 and (c) of the Commercial Computer Software - Restricted
 Rights clause in FAR 52.227-19.
  
 Gaussian, Inc.
 340 Quinnipiac St., Bldg. 40, Wallingford CT 06492
  
  
 ---------------------------------------------------------------
 Warning -- This program may not be used in any manner that
 competes with the business of Gaussian, Inc. or will provide
 assistance to any competitor of Gaussian, Inc.  The licensee
 of this program is prohibited from giving any competitor of
 Gaussian, Inc. access to this program.  By using this program,
 the user acknowledges that Gaussian, Inc. is engaged in the
 business of creating and licensing software in the field of
 computational chemistry and represents and warrants to the
 licensee that it is not a competitor of Gaussian, Inc. and that
 it will not use this program in any manner prohibited above.
 ---------------------------------------------------------------
  

 Cite this work as:
 Gaussian 16, Revision B.01,
 M. J. Frisch, G. W. Trucks, H. B. Schlegel, G. E. Scuseria, 
 M. A. Robb, J. R. Cheeseman, G. Scalmani, V. Barone, 
 G. A. Petersson, H. Nakatsuji, X. Li, M. Caricato, A. V. Marenich, 
 J. Bloino, B. G. Janesko, R. Gomperts, B. Mennucci, H. P. Hratchian, 
 J. V. Ortiz, A. F. Izmaylov, J. L. Sonnenberg, D. Williams-Young, 
 F. Ding, F. Lipparini, F. Egidi, J. Goings, B. Peng, A. Petrone, 
 T. Henderson, D. Ranasinghe, V. G. Zakrzewski, J. Gao, N. Rega, 
 G. Zheng, W. Liang, M. Hada, M. Ehara, K. Toyota, R. Fukuda, 
 J. Hasegawa, M. Ishida, T. Nakajima, Y. Honda, O. Kitao, H. Nakai, 
 T. Vreven, K. Throssell, J. A. Montgomery, Jr., J. E. Peralta, 
 F. Ogliaro, M. J. Bearpark, J. J. Heyd, E. N. Brothers, K. N. Kudin, 
 V. N. Staroverov, T. A. Keith, R. Kobayashi, J. Normand, 
 K. Raghavachari, A. P. Rendell, J. C. Burant, S. S. Iyengar, 
 J. Tomasi, M. Cossi, J. M. Millam, M. Klene, C. Adamo, R. Cammi, 
 J. W. Ochterski, R. L. Martin, K. Morokuma, O. Farkas, 
 J. B. Foresman, and D. J. Fox, Gaussian, Inc., Wallingford CT, 2016.
 
 ******************************************
 Gaussian 16:  ES64L-G16RevB.01 20-Dec-2017
                 5-Nov-2022 
 ******************************************
 %chk=calculation/no_transfer_pubchem_sampling_1_b3lyp/114739510_rwf.chk
 %rwf=calculation/no_transfer_pubchem_sampling_1_b3lyp/114739510_rwf.rwf
 %nprocshared=14
 Will use up to   14 processors via shared memory.
 %mem=3GB
 -------------------------------------------------------------------
 #p b3lyp/6-31g(d) 6D 10F nosymm GFInput td=(50-50,nstate=2) SCF=XQC
 -------------------------------------------------------------------
 1/38=1,172=1/1;
 2/12=2,15=1,17=6,18=5,40=1/2;
 3/5=1,6=6,7=1,8=22,11=9,24=10,25=1,30=1,74=-5/1,2,3,8;
 4//1;
 5/5=2,8=3,13=1,38=5/2,8;
 8/6=1,10=2,108=2/1;
 9/41=2,42=1,48=2,70=2/14;
 6/7=2,8=2,9=2,10=2/1;
 99/5=1,9=1/99;
 Leave Link    1 at Sat Nov  5 11:23:49 2022, MaxMem=   402653184 cpu:               2.5 elap:               0.2
 (Enter /home/wykgroup/appl/g16/l101.exe)
 ------------------------------
 Gaussian input prepared by ASE
 ------------------------------
 Symbolic Z-matrix:
 Charge =  0 Multiplicity = 1
 C                    -4.34705  -3.31454  -1.92368 
 C                    -3.49977  -2.07264  -1.63358 
 C                    -2.97233  -2.03849  -0.18375 
 C                    -2.08936  -0.83858   0.07442 
 N                    -0.81052  -0.96829  -0.31492 
 C                     0.00768   0.07524  -0.11639 
 C                     1.4409   -0.06609  -0.58538 
 C                     1.73516   0.8732   -1.77511 
 C                     3.12895   0.58428  -2.38207 
 C                     4.13118   0.04365  -1.33594 
 C                     3.85286   0.63995   0.0536 
 C                     4.97141   0.36827   1.0822 
 C                     5.34261  -1.10426   1.30393 
 C                     2.4576    0.19188   0.56037 
 N                    -0.3457    1.23688   0.44937 
 C                    -1.62346   1.37152   0.82959 
 C                    -2.56778   0.35012   0.64923 
 C                    -4.01318   0.54084   1.097 
 N                    -4.39278   1.92155   1.40105 
 C                    -3.36223   2.60132   2.19034 
 C                    -2.01276   2.69034   1.46152 
 H                    -5.2262   -3.36027  -1.26909 
 H                    -4.70286  -3.31767  -2.96014 
 H                    -3.7684   -4.23273  -1.76634 
 H                    -2.63957  -2.0362   -2.31302 
 H                    -4.08979  -1.16687  -1.83127 
 H                    -3.81592  -2.06238   0.51634 
 H                    -2.37235  -2.93806  -0.00567 
 H                     1.54022  -1.09949  -0.93583 
 H                     1.67392   1.90804  -1.41709 
 H                     0.96042   0.7658   -2.54399 
 H                     3.03573  -0.13853  -3.20231 
 H                     3.52115   1.50672  -2.82928 
 H                     5.15937   0.26459  -1.6517 
 H                     4.05666  -1.05071  -1.28302 
 H                     3.81867   1.73273  -0.07367 
 H                     5.87245   0.91143   0.76372 
 H                     4.6749    0.81232   2.04327 
 H                     6.1176   -1.19218   2.07406 
 H                     4.48503  -1.70128   1.63475 
 H                     5.73419  -1.56526   0.3902 
 H                     2.05328   0.96399   1.22424 
 H                     2.54603  -0.72449   1.15786 
 H                    -4.70435   0.16211   0.33578 
 H                    -4.1954   -0.06445   1.99831 
 H                    -4.52407   2.42933   0.52646 
 H                    -3.72268   3.60056   2.45851 
 H                    -3.24616   2.04268   3.12871 
 H                    -1.20601   3.01219   2.13093 
 H                    -2.06733   3.45197   0.66902 
 
 ITRead=  0  0  0  0  0  0  0  0  0  0  0  0  0  0  0  0  0  0  0  0
 ITRead=  0  0  0  0  0  0  0  0  0  0  0  0  0  0  0  0  0  0  0  0
 ITRead=  0  0  0  0  0  0  0  0  0  0
 MicOpt= -1 -1 -1 -1 -1 -1 -1 -1 -1 -1 -1 -1 -1 -1 -1 -1 -1 -1 -1 -1
 MicOpt= -1 -1 -1 -1 -1 -1 -1 -1 -1 -1 -1 -1 -1 -1 -1 -1 -1 -1 -1 -1
 MicOpt= -1 -1 -1 -1 -1 -1 -1 -1 -1 -1
 NAtoms=     50 NQM=       50 NQMF=       0 NMMI=      0 NMMIF=      0
                NMic=       0 NMicF=      0.
                    Isotopes and Nuclear Properties:
 (Nuclear quadrupole moments (NQMom) in fm**2, nuclear magnetic moments (NMagM)
  in nuclear magnetons)

  Atom         1           2           3           4           5           6           7           8           9          10
 IAtWgt=          12          12          12          12          14          12          12          12          12          12
 AtmWgt=  12.0000000  12.0000000  12.0000000  12.0000000  14.0030740  12.0000000  12.0000000  12.0000000  12.0000000  12.0000000
 NucSpn=           0           0           0           0           2           0           0           0           0           0
 AtZEff=  -0.0000000  -0.0000000  -0.0000000  -0.0000000  -0.0000000  -0.0000000  -0.0000000  -0.0000000  -0.0000000  -0.0000000
 NQMom=    0.0000000   0.0000000   0.0000000   0.0000000   2.0440000   0.0000000   0.0000000   0.0000000   0.0000000   0.0000000
 NMagM=    0.0000000   0.0000000   0.0000000   0.0000000   0.4037610   0.0000000   0.0000000   0.0000000   0.0000000   0.0000000
 AtZNuc=   6.0000000   6.0000000   6.0000000   6.0000000   7.0000000   6.0000000   6.0000000   6.0000000   6.0000000   6.0000000

  Atom        11          12          13          14          15          16          17          18          19          20
 IAtWgt=          12          12          12          12          14          12          12          12          14          12
 AtmWgt=  12.0000000  12.0000000  12.0000000  12.0000000  14.0030740  12.0000000  12.0000000  12.0000000  14.0030740  12.0000000
 NucSpn=           0           0           0           0           2           0           0           0           2           0
 AtZEff=  -0.0000000  -0.0000000  -0.0000000  -0.0000000  -0.0000000  -0.0000000  -0.0000000  -0.0000000  -0.0000000  -0.0000000
 NQMom=    0.0000000   0.0000000   0.0000000   0.0000000   2.0440000   0.0000000   0.0000000   0.0000000   2.0440000   0.0000000
 NMagM=    0.0000000   0.0000000   0.0000000   0.0000000   0.4037610   0.0000000   0.0000000   0.0000000   0.4037610   0.0000000
 AtZNuc=   6.0000000   6.0000000   6.0000000   6.0000000   7.0000000   6.0000000   6.0000000   6.0000000   7.0000000   6.0000000

  Atom        21          22          23          24          25          26          27          28          29          30
 IAtWgt=          12           1           1           1           1           1           1           1           1           1
 AtmWgt=  12.0000000   1.0078250   1.0078250   1.0078250   1.0078250   1.0078250   1.0078250   1.0078250   1.0078250   1.0078250
 NucSpn=           0           1           1           1           1           1           1           1           1           1
 AtZEff=  -0.0000000  -0.0000000  -0.0000000  -0.0000000  -0.0000000  -0.0000000  -0.0000000  -0.0000000  -0.0000000  -0.0000000
 NQMom=    0.0000000   0.0000000   0.0000000   0.0000000   0.0000000   0.0000000   0.0000000   0.0000000   0.0000000   0.0000000
 NMagM=    0.0000000   2.7928460   2.7928460   2.7928460   2.7928460   2.7928460   2.7928460   2.7928460   2.7928460   2.7928460
 AtZNuc=   6.0000000   1.0000000   1.0000000   1.0000000   1.0000000   1.0000000   1.0000000   1.0000000   1.0000000   1.0000000

  Atom        31          32          33          34          35          36          37          38          39          40
 IAtWgt=           1           1           1           1           1           1           1           1           1           1
 AtmWgt=   1.0078250   1.0078250   1.0078250   1.0078250   1.0078250   1.0078250   1.0078250   1.0078250   1.0078250   1.0078250
 NucSpn=           1           1           1           1           1           1           1           1           1           1
 AtZEff=  -0.0000000  -0.0000000  -0.0000000  -0.0000000  -0.0000000  -0.0000000  -0.0000000  -0.0000000  -0.0000000  -0.0000000
 NQMom=    0.0000000   0.0000000   0.0000000   0.0000000   0.0000000   0.0000000   0.0000000   0.0000000   0.0000000   0.0000000
 NMagM=    2.7928460   2.7928460   2.7928460   2.7928460   2.7928460   2.7928460   2.7928460   2.7928460   2.7928460   2.7928460
 AtZNuc=   1.0000000   1.0000000   1.0000000   1.0000000   1.0000000   1.0000000   1.0000000   1.0000000   1.0000000   1.0000000

  Atom        41          42          43          44          45          46          47          48          49          50
 IAtWgt=           1           1           1           1           1           1           1           1           1           1
 AtmWgt=   1.0078250   1.0078250   1.0078250   1.0078250   1.0078250   1.0078250   1.0078250   1.0078250   1.0078250   1.0078250
 NucSpn=           1           1           1           1           1           1           1           1           1           1
 AtZEff=  -0.0000000  -0.0000000  -0.0000000  -0.0000000  -0.0000000  -0.0000000  -0.0000000  -0.0000000  -0.0000000  -0.0000000
 NQMom=    0.0000000   0.0000000   0.0000000   0.0000000   0.0000000   0.0000000   0.0000000   0.0000000   0.0000000   0.0000000
 NMagM=    2.7928460   2.7928460   2.7928460   2.7928460   2.7928460   2.7928460   2.7928460   2.7928460   2.7928460   2.7928460
 AtZNuc=   1.0000000   1.0000000   1.0000000   1.0000000   1.0000000   1.0000000   1.0000000   1.0000000   1.0000000   1.0000000
 Leave Link  101 at Sat Nov  5 11:23:49 2022, MaxMem=   402653184 cpu:               1.3 elap:               0.1
 (Enter /home/wykgroup/appl/g16/l202.exe)
                          Input orientation:                          
 ---------------------------------------------------------------------
 Center     Atomic      Atomic             Coordinates (Angstroms)
 Number     Number       Type             X           Y           Z
 ---------------------------------------------------------------------
      1          6           0       -4.347045   -3.314540   -1.923677
      2          6           0       -3.499765   -2.072640   -1.633578
      3          6           0       -2.972326   -2.038487   -0.183755
      4          6           0       -2.089362   -0.838582    0.074424
      5          7           0       -0.810518   -0.968289   -0.314921
      6          6           0        0.007684    0.075244   -0.116389
      7          6           0        1.440897   -0.066089   -0.585378
      8          6           0        1.735164    0.873197   -1.775109
      9          6           0        3.128952    0.584279   -2.382069
     10          6           0        4.131181    0.043646   -1.335942
     11          6           0        3.852864    0.639950    0.053600
     12          6           0        4.971411    0.368270    1.082198
     13          6           0        5.342609   -1.104264    1.303926
     14          6           0        2.457603    0.191878    0.560373
     15          7           0       -0.345704    1.236878    0.449375
     16          6           0       -1.623464    1.371518    0.829589
     17          6           0       -2.567776    0.350119    0.649230
     18          6           0       -4.013175    0.540837    1.096998
     19          7           0       -4.392785    1.921547    1.401052
     20          6           0       -3.362226    2.601317    2.190336
     21          6           0       -2.012758    2.690340    1.461517
     22          1           0       -5.226201   -3.360273   -1.269086
     23          1           0       -4.702864   -3.317669   -2.960142
     24          1           0       -3.768400   -4.232725   -1.766338
     25          1           0       -2.639565   -2.036196   -2.313022
     26          1           0       -4.089789   -1.166875   -1.831266
     27          1           0       -3.815921   -2.062377    0.516335
     28          1           0       -2.372346   -2.938057   -0.005665
     29          1           0        1.540218   -1.099492   -0.935826
     30          1           0        1.673921    1.908039   -1.417090
     31          1           0        0.960420    0.765799   -2.543988
     32          1           0        3.035735   -0.138534   -3.202312
     33          1           0        3.521153    1.506717   -2.829276
     34          1           0        5.159365    0.264586   -1.651701
     35          1           0        4.056664   -1.050710   -1.283016
     36          1           0        3.818672    1.732729   -0.073668
     37          1           0        5.872449    0.911430    0.763724
     38          1           0        4.674899    0.812317    2.043268
     39          1           0        6.117599   -1.192184    2.074063
     40          1           0        4.485027   -1.701284    1.634755
     41          1           0        5.734188   -1.565264    0.390200
     42          1           0        2.053279    0.963991    1.224240
     43          1           0        2.546034   -0.724487    1.157857
     44          1           0       -4.704352    0.162108    0.335782
     45          1           0       -4.195401   -0.064450    1.998315
     46          1           0       -4.524073    2.429332    0.526463
     47          1           0       -3.722675    3.600564    2.458514
     48          1           0       -3.246158    2.042682    3.128713
     49          1           0       -1.206012    3.012185    2.130928
     50          1           0       -2.067326    3.451966    0.669022
 ---------------------------------------------------------------------
                    Distance matrix (angstroms):
                    1          2          3          4          5
     1  C    0.000000
     2  C    1.531129   0.000000
     3  C    2.558416   1.543161   0.000000
     4  C    3.901270   2.535628   1.511970   0.000000
     5  N    4.538724   3.192257   2.415770   1.343077   0.000000
     6  C    5.806943   4.383774   3.654156   2.295449   1.340831
     7  C    6.770802   5.434622   4.850587   3.673528   2.440487
     8  C    7.385965   6.008533   5.759407   4.580170   3.464638
     9  C    8.444018   7.180484   6.995504   5.940512   4.712004
    10  C    9.138006   7.924556   7.491503   6.439146   5.146540
    11  C    9.315908   8.016601   7.335774   6.123442   4.946653
    12  C   10.460975   9.224658   8.396313   7.233713   6.096640
    13  C   10.449505   9.367725   8.498477   7.537669   6.363971
    14  C    8.047901   6.740305   5.917127   4.687525   3.576694
    15  N    6.508264   5.023913   4.245940   2.736506   2.379697
    16  C    6.079269   4.631407   3.804527   2.381571   2.728641
    17  C    4.818234   3.456817   2.561828   1.404384   2.399114
    18  C    4.909162   3.814433   3.062124   2.578665   3.811560
    19  N    6.202622   5.095096   4.495685   3.831973   4.912062
    20  C    7.272712   6.040457   5.226482   4.234404   5.052684
    21  C    7.277844   5.871694   5.097989   3.792518   4.241070
    22  H    1.097039   2.184361   2.829314   4.243077   5.111779
    23  H    1.095845   2.181126   3.512747   4.710079   5.259956
    24  H    1.096654   2.180770   2.820104   4.210437   4.638127
    25  H    2.168234   1.096775   2.155113   2.727067   2.911743
    26  H    2.164991   1.098918   2.173183   2.782290   3.618337
    27  H    2.793504   2.173060   1.096517   2.161936   3.304613
    28  H    2.778479   2.161046   1.095864   2.119974   2.532772
    29  H    6.367273   5.180281   4.670158   3.776577   2.434892
    30  H    7.986489   6.531440   6.219630   4.891916   3.957332
    31  H    6.723328   5.364591   5.375984   4.327966   3.333470
    32  H    8.138019   6.993887   6.987009   6.123208   4.880489
    33  H    9.272172   7.970871   7.857005   6.738678   5.586681
    34  H   10.161494   8.969030   8.578077   7.532631   6.240710
    35  H    8.726838   7.633273   7.182672   6.297720   4.963210
    36  H    9.776318   8.394861   7.768645   6.445032   5.364988
    37  H   11.380642  10.123742   9.371754   8.180961   7.025586
    38  H   10.684713   9.416333   8.459714   7.235817   6.230683
    39  H   11.401539  10.344830   9.404292   8.454454   7.331860
    40  H    9.657667   8.635787   7.683280   6.811863   5.690458
    41  H   10.490246   9.466732   8.738235   7.863569   6.609595
    42  H    8.317413   6.944390   6.021132   4.661847   3.782070
    43  H    7.982404   6.794212   5.829135   4.761695   3.673548
    44  H    4.161719   3.213022   2.848236   2.812092   4.106477
    45  H    5.095891   4.208014   3.186560   2.955679   4.198264
    46  H    6.247126   5.097327   4.782649   4.100173   5.103161
    47  H    8.210487   6.998582   6.272440   5.296944   6.086626
    48  H    7.445698   6.299175   5.263398   4.355289   5.182365
    49  H    8.144530   6.729656   5.829829   4.453979   4.688579
    50  H    7.596368   6.154277   5.629505   4.331609   4.699613
                    6          7          8          9         10
     6  C    0.000000
     7  C    1.514604   0.000000
     8  C    2.524336   1.544122   0.000000
     9  C    3.890339   2.549629   1.547423   0.000000
    10  C    4.300178   2.795177   2.573309   1.546327   0.000000
    11  C    3.890142   2.593139   2.807711   2.541580   1.537486
    12  C    5.114788   3.928613   4.346545   3.929689   2.580458
    13  C    5.645349   4.457649   5.138529   4.619309   3.123165
    14  C    2.544350   1.553378   2.537832   3.043460   2.533543
    15  N    1.339539   2.441388   3.067671   4.529481   4.965245
    16  C    2.288196   3.668671   4.279387   5.789641   6.290365
    17  C    2.700875   4.215086   4.966520   6.457268   6.993630
    18  C    4.225682   5.739830   6.434506   7.944543   8.514513
    19  N    5.007553   6.475217   6.981317   8.525070   9.147439
    20  C    4.801907   6.155455   6.685397   8.192113   8.667609
    21  C    3.662062   4.869847   5.274910   6.756169   7.251120
    22  H    6.365928   7.467885   8.163267   9.306277   9.957496
    23  H    6.464367   7.345616   7.772763   8.769076   9.590454
    24  H    5.961521   6.774386   7.507312   8.435408   8.993106
    25  H    4.036248   4.849355   5.281304   6.336201   7.150065
    26  H    4.612260   5.775158   6.172124   7.448499   8.324365
    27  H    4.426027   5.730015   6.684524   7.977267   8.427496
    28  H    3.841456   4.808855   5.876072   6.951145   7.277091
    29  H    2.097652   1.095720   2.152650   2.729610   2.860060
    30  H    2.797733   2.154815   1.096734   2.191036   3.085558
    31  H    2.697742   2.181525   1.096785   2.182132   3.469093
    32  H    4.328708   3.065469   2.179907   1.097245   2.171757
    33  H    4.664048   3.440387   2.168496   1.097592   2.177787
    34  H    5.378927   3.882448   3.480057   2.181334   1.098036
    35  H    4.361540   2.880697   3.054986   2.177557   1.098167
    36  H    4.156046   3.025129   2.823952   2.668964   2.131666
    37  H    5.989097   4.734372   4.854304   4.186863   2.862457
    38  H    5.195218   4.259125   4.819311   4.693140   3.507926
    39  H    6.613283   5.496567   6.187703   5.651985   4.135367
    40  H    5.125345   4.107260   5.081031   4.816389   3.463384
    41  H    5.978357   4.650982   5.160122   4.369584   2.852682
    42  H    2.602233   2.170436   3.017538   3.782422   3.423337
    43  H    2.950677   2.166491   3.436917   3.818866   3.053155
    44  H    4.734478   6.218094   6.813873   8.302143   8.993071
    45  H    4.707165   6.200268   7.091509   8.558899   8.970001
    46  H    5.147019   6.560806   6.848126   8.392411   9.169158
    47  H    5.742263   7.026528   7.426311   8.914820   9.419799
    48  H    4.998898   6.341125   7.087223   8.552057   8.851803
    49  H    3.892187   4.884692   5.336939   6.712212   7.022609
    50  H    4.040395   5.124242   5.204109   6.673387   7.352415
                   11         12         13         14         15
    11  C    0.000000
    12  C    1.543687   0.000000
    13  C    2.612458   1.534701   0.000000
    14  C    1.550594   2.573449   3.249017   0.000000
    15  N    4.259218   5.424634   6.210323   2.993807   0.000000
    16  C    5.579204   6.675529   7.408148   4.256658   1.339910
    17  C    6.454720   7.551631   8.069576   5.028656   2.400810
    18  C    7.935558   8.986255   9.501572   6.502362   3.788698
    19  N    8.452742   9.497499  10.195237   7.115217   4.213469
    20  C    7.776254   8.698504   9.502168   6.506350   3.740594
    21  C    6.371173   7.369837   8.277999   5.199856   2.432293
    22  H   10.009032  11.109539  11.108993   8.660575   6.921427
    23  H    9.896760  11.113876  11.135212   8.716836   7.166138
    24  H    9.227069  10.279475  10.110602   7.984599   6.822081
    25  H    7.410418   8.673865   8.812827   6.261137   4.858564
    26  H    8.360806   9.641073   9.939994   7.101725   4.999752
    27  H    8.144137   9.134848   9.242129   6.666387   4.788734
    28  H    7.180452   8.126870   8.037311   5.783192   4.663091
    29  H    3.058260   4.242620   4.413014   2.178955   3.306677
    30  H    2.918694   4.414835   5.471487   2.733080   2.830731
    31  H    3.889671   5.421743   6.124309   3.493995   3.299712
    32  H    3.445969   4.728712   5.153687   3.821153   5.163401
    33  H    3.028579   4.324227   5.217115   3.788094   5.076904
    34  H    2.180802   2.742313   3.262370   3.492574   5.972074
    35  H    2.164812   2.905943   2.889428   2.738449   5.255005
    36  H    1.100696   2.127576   3.502668   2.151450   4.226284
    37  H    2.157939   1.099235   2.153037   3.495751   6.234594
    38  H    2.159683   1.099433   2.160033   2.738672   5.284620
    39  H    3.545139   2.175445   1.096106   4.195527   7.093253
    40  H    2.895006   2.196575   1.096051   2.974695   5.777014
    41  H    2.918159   2.190718   1.095788   3.721897   6.694819
    42  H    2.171153   2.981703   3.886351   1.095607   2.535745
    43  H    2.188351   2.661258   2.826022   1.097513   3.565256
    44  H    8.575191   9.706700  10.172631   7.165538   4.490639
    45  H    8.309794   9.222633   9.619617   6.811450   4.348889
    46  H    8.578961   9.732473  10.509147   7.331518   4.345878
    47  H    8.481606   9.377052  10.278514   7.308756   4.585584
    48  H    7.862576   8.632515   9.327381   6.523400   4.029988
    49  H    5.961126   6.800785   7.779044   4.882915   2.592194
    50  H    6.582920   7.695694   8.721782   5.578079   2.814044
                   16         17         18         19         20
    16  C    0.000000
    17  C    1.402680   0.000000
    18  C    2.544064   1.525138   0.000000
    19  N    2.880667   2.522950   1.463869   0.000000
    20  C    2.527317   2.841487   2.421715   1.465302   0.000000
    21  C    1.513332   2.538600   2.958870   2.501845   1.536283
    22  H    6.306663   4.951179   4.721064   5.976776   7.140208
    23  H    6.770024   5.571250   5.641287   6.823895   7.959844
    24  H    6.538129   5.317794   5.571849   6.949625   7.907236
    25  H    4.745627   3.804549   4.489558   5.703670   6.504537
    26  H    4.427906   3.281868   3.390705   4.480852   5.558948
    27  H    4.086151   2.719497   2.674472   4.121547   4.975758
    28  H    4.453191   3.358450   4.001360   5.447639   6.040443
    29  H    4.385369   4.635666   6.137038   7.056076   6.892230
    30  H    4.025937   4.968782   6.366549   6.689322   6.233533
    31  H    4.292362   4.776777   6.167985   6.749511   6.668449
    32  H    6.343864   6.817074   8.284488   8.978741   8.804620
    33  H    6.314479   7.107235   8.550711   8.983216   8.589270
    34  H    7.306769   8.062898   9.579518  10.164074   9.635304
    35  H    6.526418   7.041243   8.562698   9.350493   8.968913
    36  H    5.528398   6.574262   8.008052   8.344967   7.579278
    37  H    7.510308   8.459645   9.898181  10.334484   9.495797
    38  H    6.438563   7.390082   8.743670   9.157823   8.235140
    39  H    8.248959   8.935580  10.324272  10.982551  10.211329
    40  H    6.885061   7.410908   8.805438   9.591406   8.966629
    41  H    7.934280   8.523990   9.997316  10.758032  10.165906
    42  H    3.720250   4.696981   6.082526   6.519196   5.739501
    43  H    4.678216   5.250194   6.680417   7.430198   6.858172
    44  H    3.346399   2.167614   1.095723   2.080264   3.345208
    45  H    3.169035   2.154311   1.100886   2.083234   2.799530
    46  H    3.102320   2.857498   2.037877   1.019798   2.036650
    47  H    3.468246   3.895214   3.361554   2.094366   1.095599
    48  H    2.893021   3.077792   2.640401   2.077074   1.098224
    49  H    2.135308   3.337128   3.880302   3.446408   2.195814
    50  H    2.133322   3.142021   3.527629   2.878508   2.171351
                   21         22         23         24         25
    21  C    0.000000
    22  H    7.375116   0.000000
    23  H    7.929937   1.770696   0.000000
    24  H    7.837740   1.770202   1.770796   0.000000
    25  H    6.081132   3.087664   2.513590   2.529401   0.000000
    26  H    5.480382   2.533471   2.505221   3.083334   1.758111
    27  H    5.170405   2.619381   3.801094   3.150122   3.064271
    28  H    5.827588   3.149442   3.782108   2.593280   2.491717
    29  H    5.721339   7.141893   6.927787   6.219994   4.499408
    30  H    4.742360   8.682667   8.387635   8.212784   5.913193
    31  H    5.346748   7.544808   6.994331   6.924718   4.567758
    32  H    7.432436   9.076153   8.369674   8.069738   6.049875
    33  H    7.101833  10.131041   9.535527   9.338555   7.125532
    34  H    8.186315  11.006634  10.573936   9.997196   8.158079
    35  H    7.639751   9.565869   9.202237   8.461113   6.846282
    36  H    6.105684  10.448801  10.317695   9.798747   7.805660
    37  H    8.113441  12.064817  11.982892  11.216484   9.518890
    38  H    6.970664  11.243398  11.403215  10.547741   8.977342
    39  H    9.030609  12.023271  12.122017  11.032975   9.830910
    40  H    7.844589  10.270954  10.399188   9.278722   8.152111
    41  H    8.903542  11.229667  11.100800  10.102732   8.811863
    42  H    4.423713   8.826481   9.027022   8.357114   6.598191
    43  H    5.704019   8.558333   8.730923   7.792992   6.376364
    44  H    3.860559   3.905778   4.792907   4.960794   4.013981
    45  H    3.555411   4.754042   5.952079   5.632891   4.989592
    46  H    2.692426   6.102173   6.724313   7.085971   5.617382
    47  H    2.178607   8.037963   8.842202   8.900106   7.464164
    48  H    2.172621   7.242453   8.241935   7.975901   6.827713
    49  H    1.096601   8.266211   8.843869   8.616452   6.876767
    50  H    1.100500   7.755086   8.120643   8.238878   6.272158
                   26         27         28         29         30
    26  H    0.000000
    27  H    2.527481   0.000000
    28  H    3.069123   1.767260   0.000000
    29  H    5.701170   5.632420   4.421955   0.000000
    30  H    6.545761   7.045616   6.469084   3.048727   0.000000
    31  H    5.454155   6.338580   5.591866   2.530151   1.756045
    32  H    7.328734   8.029614   6.877733   2.880445   3.038094
    33  H    8.128380   8.818401   7.903298   3.781743   2.359575
    34  H    9.360992   9.522127   8.348235   3.933371   3.860609
    35  H    8.165706   8.138718   6.820988   2.540751   3.801268
    36  H    8.604686   8.546224   7.755616   3.735793   2.536824
    37  H   10.502358  10.137517   9.131657   5.069566   4.834958
    38  H    9.785141   9.093372   8.241790   4.728239   4.709624
    39  H   10.928998  10.092500   8.913614   5.479091   6.445603
    40  H    9.264252   8.383734   7.158502   3.954989   5.499390
    41  H   10.079889   9.563871   8.231475   4.423197   5.640559
    42  H    7.184288   6.641351   6.027006   3.031019   2.830506
    43  H    7.291414   6.532685   5.517621   2.352829   3.784327
    44  H    2.615336   2.402133   3.894337   6.496405   6.841287
    45  H    3.986500   2.516343   3.949314   6.525169   7.071396
    46  H    4.322059   4.547201   5.807060   7.167044   6.516462
    47  H    6.423820   5.987458   7.116820   7.830078   6.856252
    48  H    5.967777   4.899046   5.949423   7.021619   6.699973
    49  H    6.440473   5.930406   6.428900   5.818304   4.701233
    50  H    5.628098   5.786958   6.432778   6.025420   4.553296
                   31         32         33         34         35
    31  H    0.000000
    32  H    2.357571   0.000000
    33  H    2.680989   1.755460   0.000000
    34  H    4.321867   2.660208   2.369243   0.000000
    35  H    3.804797   2.357553   3.036137   1.755529   0.000000
    36  H    3.899621   3.728677   2.780823   2.538325   3.044126
    37  H    5.923698   4.987867   4.335045   2.600226   3.366930
    38  H    5.902748   5.577373   5.055196   3.766632   3.862286
    39  H    7.194205   6.200661   6.169954   4.113600   3.941757
    40  H    5.997604   5.285816   5.581030   3.888466   3.019955
    41  H    6.068952   4.714165   4.969871   2.801452   2.424564
    42  H    3.928506   4.666384   4.345135   4.290452   3.789315
    43  H    4.294041   4.426537   4.671869   3.962497   2.888994
    44  H    6.383350   8.515717   8.915408  10.062480   8.991486
    45  H    6.921294   8.907375   9.236850  10.047016   8.935123
    46  H    6.501898   8.811832   8.765721  10.158716   9.434720
    47  H    7.415679   9.576111   9.209667  10.339887   9.805688
    48  H    7.176717   9.181599   9.032242   9.831928   9.075441
    49  H    5.620901   7.507523   7.015423   7.897824   7.473814
    50  H    5.167801   7.343034   6.874095   8.232267   7.847790
                   36         37         38         39         40
    36  H    0.000000
    37  H    2.365113   0.000000
    38  H    2.462052   1.755330   0.000000
    39  H    4.295687   2.490437   2.469889   0.000000
    40  H    3.892966   3.083814   2.553650   1.765634   0.000000
    41  H    3.842023   2.508515   3.083443   1.766801   1.768565
    42  H    2.322097   3.847194   2.750764   4.678673   3.631200
    43  H    3.028890   3.727815   2.770882   3.716752   2.222894
    44  H    8.676199  10.611943   9.555555  11.044018   9.465952
    45  H    8.470439  10.190101   8.913639  10.374753   8.840885
    46  H    8.393260  10.509424   9.462374  11.347053   9.972672
    47  H    8.171454  10.107926   8.858104  10.952134   9.805843
    48  H    7.762934   9.487988   8.089199   9.962760   8.718969
    49  H    5.634244   7.509131   6.279508   8.444835   7.406140
    50  H    6.176758   8.336866   7.369797   9.515002   8.391779
                   41         42         43         44         45
    41  H    0.000000
    42  H    4.543330   0.000000
    43  H    3.385341   1.760163   0.000000
    44  H   10.580638   6.862794   7.350507   0.000000
    45  H   10.170311   6.379881   6.825611   1.753389   0.000000
    46  H   11.009418   6.774635   7.767345   2.282359   2.914330
    47  H   10.972510   6.468122   7.726221   4.158444   3.723920
    48  H   10.058000   5.733640   6.714982   3.669243   2.572715
    49  H    8.494090   3.954765   5.383999   4.856323   4.291819
    50  H    9.279761   4.845376   6.242180   4.229435   4.319827
                   46         47         48         49         50
    46  H    0.000000
    47  H    2.397258   0.000000
    48  H    2.924768   1.761600   0.000000
    49  H    3.731428   2.605205   2.469354   0.000000
    50  H    2.664903   2.442241   3.070148   1.752837   0.000000
 Symmetry turned off by external request.
 Stoichiometry    C18H29N3
 Framework group  C1[X(C18H29N3)]
 Deg. of freedom   144
 Full point group                 C1      NOp   1
 Rotational constants (GHZ):           0.4385113           0.1547626           0.1290902
 Leave Link  202 at Sat Nov  5 11:23:49 2022, MaxMem=   402653184 cpu:               0.1 elap:               0.0
 (Enter /home/wykgroup/appl/g16/l301.exe)
 Standard basis: 6-31G(d) (6D, 10F)
 Ernie: Thresh=  0.10000D-02 Tol=  0.10000D-05 Strict=F.
 AO basis set in the form of general basis input (Overlap normalization):
      1 0
 S   6 1.00       0.000000000000
      0.3047524880D+04  0.1834737132D-02
      0.4573695180D+03  0.1403732281D-01
      0.1039486850D+03  0.6884262226D-01
      0.2921015530D+02  0.2321844432D+00
      0.9286662960D+01  0.4679413484D+00
      0.3163926960D+01  0.3623119853D+00
 SP   3 1.00       0.000000000000
      0.7868272350D+01 -0.1193324198D+00  0.6899906659D-01
      0.1881288540D+01 -0.1608541517D+00  0.3164239610D+00
      0.5442492580D+00  0.1143456438D+01  0.7443082909D+00
 SP   1 1.00       0.000000000000
      0.1687144782D+00  0.1000000000D+01  0.1000000000D+01
 D   1 1.00       0.000000000000
      0.8000000000D+00  0.1000000000D+01
 ****
      2 0
 S   6 1.00       0.000000000000
      0.3047524880D+04  0.1834737132D-02
      0.4573695180D+03  0.1403732281D-01
      0.1039486850D+03  0.6884262226D-01
      0.2921015530D+02  0.2321844432D+00
      0.9286662960D+01  0.4679413484D+00
      0.3163926960D+01  0.3623119853D+00
 SP   3 1.00       0.000000000000
      0.7868272350D+01 -0.1193324198D+00  0.6899906659D-01
      0.1881288540D+01 -0.1608541517D+00  0.3164239610D+00
      0.5442492580D+00  0.1143456438D+01  0.7443082909D+00
 SP   1 1.00       0.000000000000
      0.1687144782D+00  0.1000000000D+01  0.1000000000D+01
 D   1 1.00       0.000000000000
      0.8000000000D+00  0.1000000000D+01
 ****
      3 0
 S   6 1.00       0.000000000000
      0.3047524880D+04  0.1834737132D-02
      0.4573695180D+03  0.1403732281D-01
      0.1039486850D+03  0.6884262226D-01
      0.2921015530D+02  0.2321844432D+00
      0.9286662960D+01  0.4679413484D+00
      0.3163926960D+01  0.3623119853D+00
 SP   3 1.00       0.000000000000
      0.7868272350D+01 -0.1193324198D+00  0.6899906659D-01
      0.1881288540D+01 -0.1608541517D+00  0.3164239610D+00
      0.5442492580D+00  0.1143456438D+01  0.7443082909D+00
 SP   1 1.00       0.000000000000
      0.1687144782D+00  0.1000000000D+01  0.1000000000D+01
 D   1 1.00       0.000000000000
      0.8000000000D+00  0.1000000000D+01
 ****
      4 0
 S   6 1.00       0.000000000000
      0.3047524880D+04  0.1834737132D-02
      0.4573695180D+03  0.1403732281D-01
      0.1039486850D+03  0.6884262226D-01
      0.2921015530D+02  0.2321844432D+00
      0.9286662960D+01  0.4679413484D+00
      0.3163926960D+01  0.3623119853D+00
 SP   3 1.00       0.000000000000
      0.7868272350D+01 -0.1193324198D+00  0.6899906659D-01
      0.1881288540D+01 -0.1608541517D+00  0.3164239610D+00
      0.5442492580D+00  0.1143456438D+01  0.7443082909D+00
 SP   1 1.00       0.000000000000
      0.1687144782D+00  0.1000000000D+01  0.1000000000D+01
 D   1 1.00       0.000000000000
      0.8000000000D+00  0.1000000000D+01
 ****
      5 0
 S   6 1.00       0.000000000000
      0.4173511460D+04  0.1834772160D-02
      0.6274579110D+03  0.1399462700D-01
      0.1429020930D+03  0.6858655181D-01
      0.4023432930D+02  0.2322408730D+00
      0.1282021290D+02  0.4690699481D+00
      0.4390437010D+01  0.3604551991D+00
 SP   3 1.00       0.000000000000
      0.1162636186D+02 -0.1149611817D+00  0.6757974388D-01
      0.2716279807D+01 -0.1691174786D+00  0.3239072959D+00
      0.7722183966D+00  0.1145851947D+01  0.7408951398D+00
 SP   1 1.00       0.000000000000
      0.2120314975D+00  0.1000000000D+01  0.1000000000D+01
 D   1 1.00       0.000000000000
      0.8000000000D+00  0.1000000000D+01
 ****
      6 0
 S   6 1.00       0.000000000000
      0.3047524880D+04  0.1834737132D-02
      0.4573695180D+03  0.1403732281D-01
      0.1039486850D+03  0.6884262226D-01
      0.2921015530D+02  0.2321844432D+00
      0.9286662960D+01  0.4679413484D+00
      0.3163926960D+01  0.3623119853D+00
 SP   3 1.00       0.000000000000
      0.7868272350D+01 -0.1193324198D+00  0.6899906659D-01
      0.1881288540D+01 -0.1608541517D+00  0.3164239610D+00
      0.5442492580D+00  0.1143456438D+01  0.7443082909D+00
 SP   1 1.00       0.000000000000
      0.1687144782D+00  0.1000000000D+01  0.1000000000D+01
 D   1 1.00       0.000000000000
      0.8000000000D+00  0.1000000000D+01
 ****
      7 0
 S   6 1.00       0.000000000000
      0.3047524880D+04  0.1834737132D-02
      0.4573695180D+03  0.1403732281D-01
      0.1039486850D+03  0.6884262226D-01
      0.2921015530D+02  0.2321844432D+00
      0.9286662960D+01  0.4679413484D+00
      0.3163926960D+01  0.3623119853D+00
 SP   3 1.00       0.000000000000
      0.7868272350D+01 -0.1193324198D+00  0.6899906659D-01
      0.1881288540D+01 -0.1608541517D+00  0.3164239610D+00
      0.5442492580D+00  0.1143456438D+01  0.7443082909D+00
 SP   1 1.00       0.000000000000
      0.1687144782D+00  0.1000000000D+01  0.1000000000D+01
 D   1 1.00       0.000000000000
      0.8000000000D+00  0.1000000000D+01
 ****
      8 0
 S   6 1.00       0.000000000000
      0.3047524880D+04  0.1834737132D-02
      0.4573695180D+03  0.1403732281D-01
      0.1039486850D+03  0.6884262226D-01
      0.2921015530D+02  0.2321844432D+00
      0.9286662960D+01  0.4679413484D+00
      0.3163926960D+01  0.3623119853D+00
 SP   3 1.00       0.000000000000
      0.7868272350D+01 -0.1193324198D+00  0.6899906659D-01
      0.1881288540D+01 -0.1608541517D+00  0.3164239610D+00
      0.5442492580D+00  0.1143456438D+01  0.7443082909D+00
 SP   1 1.00       0.000000000000
      0.1687144782D+00  0.1000000000D+01  0.1000000000D+01
 D   1 1.00       0.000000000000
      0.8000000000D+00  0.1000000000D+01
 ****
      9 0
 S   6 1.00       0.000000000000
      0.3047524880D+04  0.1834737132D-02
      0.4573695180D+03  0.1403732281D-01
      0.1039486850D+03  0.6884262226D-01
      0.2921015530D+02  0.2321844432D+00
      0.9286662960D+01  0.4679413484D+00
      0.3163926960D+01  0.3623119853D+00
 SP   3 1.00       0.000000000000
      0.7868272350D+01 -0.1193324198D+00  0.6899906659D-01
      0.1881288540D+01 -0.1608541517D+00  0.3164239610D+00
      0.5442492580D+00  0.1143456438D+01  0.7443082909D+00
 SP   1 1.00       0.000000000000
      0.1687144782D+00  0.1000000000D+01  0.1000000000D+01
 D   1 1.00       0.000000000000
      0.8000000000D+00  0.1000000000D+01
 ****
     10 0
 S   6 1.00       0.000000000000
      0.3047524880D+04  0.1834737132D-02
      0.4573695180D+03  0.1403732281D-01
      0.1039486850D+03  0.6884262226D-01
      0.2921015530D+02  0.2321844432D+00
      0.9286662960D+01  0.4679413484D+00
      0.3163926960D+01  0.3623119853D+00
 SP   3 1.00       0.000000000000
      0.7868272350D+01 -0.1193324198D+00  0.6899906659D-01
      0.1881288540D+01 -0.1608541517D+00  0.3164239610D+00
      0.5442492580D+00  0.1143456438D+01  0.7443082909D+00
 SP   1 1.00       0.000000000000
      0.1687144782D+00  0.1000000000D+01  0.1000000000D+01
 D   1 1.00       0.000000000000
      0.8000000000D+00  0.1000000000D+01
 ****
     11 0
 S   6 1.00       0.000000000000
      0.3047524880D+04  0.1834737132D-02
      0.4573695180D+03  0.1403732281D-01
      0.1039486850D+03  0.6884262226D-01
      0.2921015530D+02  0.2321844432D+00
      0.9286662960D+01  0.4679413484D+00
      0.3163926960D+01  0.3623119853D+00
 SP   3 1.00       0.000000000000
      0.7868272350D+01 -0.1193324198D+00  0.6899906659D-01
      0.1881288540D+01 -0.1608541517D+00  0.3164239610D+00
      0.5442492580D+00  0.1143456438D+01  0.7443082909D+00
 SP   1 1.00       0.000000000000
      0.1687144782D+00  0.1000000000D+01  0.1000000000D+01
 D   1 1.00       0.000000000000
      0.8000000000D+00  0.1000000000D+01
 ****
     12 0
 S   6 1.00       0.000000000000
      0.3047524880D+04  0.1834737132D-02
      0.4573695180D+03  0.1403732281D-01
      0.1039486850D+03  0.6884262226D-01
      0.2921015530D+02  0.2321844432D+00
      0.9286662960D+01  0.4679413484D+00
      0.3163926960D+01  0.3623119853D+00
 SP   3 1.00       0.000000000000
      0.7868272350D+01 -0.1193324198D+00  0.6899906659D-01
      0.1881288540D+01 -0.1608541517D+00  0.3164239610D+00
      0.5442492580D+00  0.1143456438D+01  0.7443082909D+00
 SP   1 1.00       0.000000000000
      0.1687144782D+00  0.1000000000D+01  0.1000000000D+01
 D   1 1.00       0.000000000000
      0.8000000000D+00  0.1000000000D+01
 ****
     13 0
 S   6 1.00       0.000000000000
      0.3047524880D+04  0.1834737132D-02
      0.4573695180D+03  0.1403732281D-01
      0.1039486850D+03  0.6884262226D-01
      0.2921015530D+02  0.2321844432D+00
      0.9286662960D+01  0.4679413484D+00
      0.3163926960D+01  0.3623119853D+00
 SP   3 1.00       0.000000000000
      0.7868272350D+01 -0.1193324198D+00  0.6899906659D-01
      0.1881288540D+01 -0.1608541517D+00  0.3164239610D+00
      0.5442492580D+00  0.1143456438D+01  0.7443082909D+00
 SP   1 1.00       0.000000000000
      0.1687144782D+00  0.1000000000D+01  0.1000000000D+01
 D   1 1.00       0.000000000000
      0.8000000000D+00  0.1000000000D+01
 ****
     14 0
 S   6 1.00       0.000000000000
      0.3047524880D+04  0.1834737132D-02
      0.4573695180D+03  0.1403732281D-01
      0.1039486850D+03  0.6884262226D-01
      0.2921015530D+02  0.2321844432D+00
      0.9286662960D+01  0.4679413484D+00
      0.3163926960D+01  0.3623119853D+00
 SP   3 1.00       0.000000000000
      0.7868272350D+01 -0.1193324198D+00  0.6899906659D-01
      0.1881288540D+01 -0.1608541517D+00  0.3164239610D+00
      0.5442492580D+00  0.1143456438D+01  0.7443082909D+00
 SP   1 1.00       0.000000000000
      0.1687144782D+00  0.1000000000D+01  0.1000000000D+01
 D   1 1.00       0.000000000000
      0.8000000000D+00  0.1000000000D+01
 ****
     15 0
 S   6 1.00       0.000000000000
      0.4173511460D+04  0.1834772160D-02
      0.6274579110D+03  0.1399462700D-01
      0.1429020930D+03  0.6858655181D-01
      0.4023432930D+02  0.2322408730D+00
      0.1282021290D+02  0.4690699481D+00
      0.4390437010D+01  0.3604551991D+00
 SP   3 1.00       0.000000000000
      0.1162636186D+02 -0.1149611817D+00  0.6757974388D-01
      0.2716279807D+01 -0.1691174786D+00  0.3239072959D+00
      0.7722183966D+00  0.1145851947D+01  0.7408951398D+00
 SP   1 1.00       0.000000000000
      0.2120314975D+00  0.1000000000D+01  0.1000000000D+01
 D   1 1.00       0.000000000000
      0.8000000000D+00  0.1000000000D+01
 ****
     16 0
 S   6 1.00       0.000000000000
      0.3047524880D+04  0.1834737132D-02
      0.4573695180D+03  0.1403732281D-01
      0.1039486850D+03  0.6884262226D-01
      0.2921015530D+02  0.2321844432D+00
      0.9286662960D+01  0.4679413484D+00
      0.3163926960D+01  0.3623119853D+00
 SP   3 1.00       0.000000000000
      0.7868272350D+01 -0.1193324198D+00  0.6899906659D-01
      0.1881288540D+01 -0.1608541517D+00  0.3164239610D+00
      0.5442492580D+00  0.1143456438D+01  0.7443082909D+00
 SP   1 1.00       0.000000000000
      0.1687144782D+00  0.1000000000D+01  0.1000000000D+01
 D   1 1.00       0.000000000000
      0.8000000000D+00  0.1000000000D+01
 ****
     17 0
 S   6 1.00       0.000000000000
      0.3047524880D+04  0.1834737132D-02
      0.4573695180D+03  0.1403732281D-01
      0.1039486850D+03  0.6884262226D-01
      0.2921015530D+02  0.2321844432D+00
      0.9286662960D+01  0.4679413484D+00
      0.3163926960D+01  0.3623119853D+00
 SP   3 1.00       0.000000000000
      0.7868272350D+01 -0.1193324198D+00  0.6899906659D-01
      0.1881288540D+01 -0.1608541517D+00  0.3164239610D+00
      0.5442492580D+00  0.1143456438D+01  0.7443082909D+00
 SP   1 1.00       0.000000000000
      0.1687144782D+00  0.1000000000D+01  0.1000000000D+01
 D   1 1.00       0.000000000000
      0.8000000000D+00  0.1000000000D+01
 ****
     18 0
 S   6 1.00       0.000000000000
      0.3047524880D+04  0.1834737132D-02
      0.4573695180D+03  0.1403732281D-01
      0.1039486850D+03  0.6884262226D-01
      0.2921015530D+02  0.2321844432D+00
      0.9286662960D+01  0.4679413484D+00
      0.3163926960D+01  0.3623119853D+00
 SP   3 1.00       0.000000000000
      0.7868272350D+01 -0.1193324198D+00  0.6899906659D-01
      0.1881288540D+01 -0.1608541517D+00  0.3164239610D+00
      0.5442492580D+00  0.1143456438D+01  0.7443082909D+00
 SP   1 1.00       0.000000000000
      0.1687144782D+00  0.1000000000D+01  0.1000000000D+01
 D   1 1.00       0.000000000000
      0.8000000000D+00  0.1000000000D+01
 ****
     19 0
 S   6 1.00       0.000000000000
      0.4173511460D+04  0.1834772160D-02
      0.6274579110D+03  0.1399462700D-01
      0.1429020930D+03  0.6858655181D-01
      0.4023432930D+02  0.2322408730D+00
      0.1282021290D+02  0.4690699481D+00
      0.4390437010D+01  0.3604551991D+00
 SP   3 1.00       0.000000000000
      0.1162636186D+02 -0.1149611817D+00  0.6757974388D-01
      0.2716279807D+01 -0.1691174786D+00  0.3239072959D+00
      0.7722183966D+00  0.1145851947D+01  0.7408951398D+00
 SP   1 1.00       0.000000000000
      0.2120314975D+00  0.1000000000D+01  0.1000000000D+01
 D   1 1.00       0.000000000000
      0.8000000000D+00  0.1000000000D+01
 ****
     20 0
 S   6 1.00       0.000000000000
      0.3047524880D+04  0.1834737132D-02
      0.4573695180D+03  0.1403732281D-01
      0.1039486850D+03  0.6884262226D-01
      0.2921015530D+02  0.2321844432D+00
      0.9286662960D+01  0.4679413484D+00
      0.3163926960D+01  0.3623119853D+00
 SP   3 1.00       0.000000000000
      0.7868272350D+01 -0.1193324198D+00  0.6899906659D-01
      0.1881288540D+01 -0.1608541517D+00  0.3164239610D+00
      0.5442492580D+00  0.1143456438D+01  0.7443082909D+00
 SP   1 1.00       0.000000000000
      0.1687144782D+00  0.1000000000D+01  0.1000000000D+01
 D   1 1.00       0.000000000000
      0.8000000000D+00  0.1000000000D+01
 ****
     21 0
 S   6 1.00       0.000000000000
      0.3047524880D+04  0.1834737132D-02
      0.4573695180D+03  0.1403732281D-01
      0.1039486850D+03  0.6884262226D-01
      0.2921015530D+02  0.2321844432D+00
      0.9286662960D+01  0.4679413484D+00
      0.3163926960D+01  0.3623119853D+00
 SP   3 1.00       0.000000000000
      0.7868272350D+01 -0.1193324198D+00  0.6899906659D-01
      0.1881288540D+01 -0.1608541517D+00  0.3164239610D+00
      0.5442492580D+00  0.1143456438D+01  0.7443082909D+00
 SP   1 1.00       0.000000000000
      0.1687144782D+00  0.1000000000D+01  0.1000000000D+01
 D   1 1.00       0.000000000000
      0.8000000000D+00  0.1000000000D+01
 ****
     22 0
 S   3 1.00       0.000000000000
      0.1873113696D+02  0.3349460434D-01
      0.2825394365D+01  0.2347269535D+00
      0.6401216923D+00  0.8137573261D+00
 S   1 1.00       0.000000000000
      0.1612777588D+00  0.1000000000D+01
 ****
     23 0
 S   3 1.00       0.000000000000
      0.1873113696D+02  0.3349460434D-01
      0.2825394365D+01  0.2347269535D+00
      0.6401216923D+00  0.8137573261D+00
 S   1 1.00       0.000000000000
      0.1612777588D+00  0.1000000000D+01
 ****
     24 0
 S   3 1.00       0.000000000000
      0.1873113696D+02  0.3349460434D-01
      0.2825394365D+01  0.2347269535D+00
      0.6401216923D+00  0.8137573261D+00
 S   1 1.00       0.000000000000
      0.1612777588D+00  0.1000000000D+01
 ****
     25 0
 S   3 1.00       0.000000000000
      0.1873113696D+02  0.3349460434D-01
      0.2825394365D+01  0.2347269535D+00
      0.6401216923D+00  0.8137573261D+00
 S   1 1.00       0.000000000000
      0.1612777588D+00  0.1000000000D+01
 ****
     26 0
 S   3 1.00       0.000000000000
      0.1873113696D+02  0.3349460434D-01
      0.2825394365D+01  0.2347269535D+00
      0.6401216923D+00  0.8137573261D+00
 S   1 1.00       0.000000000000
      0.1612777588D+00  0.1000000000D+01
 ****
     27 0
 S   3 1.00       0.000000000000
      0.1873113696D+02  0.3349460434D-01
      0.2825394365D+01  0.2347269535D+00
      0.6401216923D+00  0.8137573261D+00
 S   1 1.00       0.000000000000
      0.1612777588D+00  0.1000000000D+01
 ****
     28 0
 S   3 1.00       0.000000000000
      0.1873113696D+02  0.3349460434D-01
      0.2825394365D+01  0.2347269535D+00
      0.6401216923D+00  0.8137573261D+00
 S   1 1.00       0.000000000000
      0.1612777588D+00  0.1000000000D+01
 ****
     29 0
 S   3 1.00       0.000000000000
      0.1873113696D+02  0.3349460434D-01
      0.2825394365D+01  0.2347269535D+00
      0.6401216923D+00  0.8137573261D+00
 S   1 1.00       0.000000000000
      0.1612777588D+00  0.1000000000D+01
 ****
     30 0
 S   3 1.00       0.000000000000
      0.1873113696D+02  0.3349460434D-01
      0.2825394365D+01  0.2347269535D+00
      0.6401216923D+00  0.8137573261D+00
 S   1 1.00       0.000000000000
      0.1612777588D+00  0.1000000000D+01
 ****
     31 0
 S   3 1.00       0.000000000000
      0.1873113696D+02  0.3349460434D-01
      0.2825394365D+01  0.2347269535D+00
      0.6401216923D+00  0.8137573261D+00
 S   1 1.00       0.000000000000
      0.1612777588D+00  0.1000000000D+01
 ****
     32 0
 S   3 1.00       0.000000000000
      0.1873113696D+02  0.3349460434D-01
      0.2825394365D+01  0.2347269535D+00
      0.6401216923D+00  0.8137573261D+00
 S   1 1.00       0.000000000000
      0.1612777588D+00  0.1000000000D+01
 ****
     33 0
 S   3 1.00       0.000000000000
      0.1873113696D+02  0.3349460434D-01
      0.2825394365D+01  0.2347269535D+00
      0.6401216923D+00  0.8137573261D+00
 S   1 1.00       0.000000000000
      0.1612777588D+00  0.1000000000D+01
 ****
     34 0
 S   3 1.00       0.000000000000
      0.1873113696D+02  0.3349460434D-01
      0.2825394365D+01  0.2347269535D+00
      0.6401216923D+00  0.8137573261D+00
 S   1 1.00       0.000000000000
      0.1612777588D+00  0.1000000000D+01
 ****
     35 0
 S   3 1.00       0.000000000000
      0.1873113696D+02  0.3349460434D-01
      0.2825394365D+01  0.2347269535D+00
      0.6401216923D+00  0.8137573261D+00
 S   1 1.00       0.000000000000
      0.1612777588D+00  0.1000000000D+01
 ****
     36 0
 S   3 1.00       0.000000000000
      0.1873113696D+02  0.3349460434D-01
      0.2825394365D+01  0.2347269535D+00
      0.6401216923D+00  0.8137573261D+00
 S   1 1.00       0.000000000000
      0.1612777588D+00  0.1000000000D+01
 ****
     37 0
 S   3 1.00       0.000000000000
      0.1873113696D+02  0.3349460434D-01
      0.2825394365D+01  0.2347269535D+00
      0.6401216923D+00  0.8137573261D+00
 S   1 1.00       0.000000000000
      0.1612777588D+00  0.1000000000D+01
 ****
     38 0
 S   3 1.00       0.000000000000
      0.1873113696D+02  0.3349460434D-01
      0.2825394365D+01  0.2347269535D+00
      0.6401216923D+00  0.8137573261D+00
 S   1 1.00       0.000000000000
      0.1612777588D+00  0.1000000000D+01
 ****
     39 0
 S   3 1.00       0.000000000000
      0.1873113696D+02  0.3349460434D-01
      0.2825394365D+01  0.2347269535D+00
      0.6401216923D+00  0.8137573261D+00
 S   1 1.00       0.000000000000
      0.1612777588D+00  0.1000000000D+01
 ****
     40 0
 S   3 1.00       0.000000000000
      0.1873113696D+02  0.3349460434D-01
      0.2825394365D+01  0.2347269535D+00
      0.6401216923D+00  0.8137573261D+00
 S   1 1.00       0.000000000000
      0.1612777588D+00  0.1000000000D+01
 ****
     41 0
 S   3 1.00       0.000000000000
      0.1873113696D+02  0.3349460434D-01
      0.2825394365D+01  0.2347269535D+00
      0.6401216923D+00  0.8137573261D+00
 S   1 1.00       0.000000000000
      0.1612777588D+00  0.1000000000D+01
 ****
     42 0
 S   3 1.00       0.000000000000
      0.1873113696D+02  0.3349460434D-01
      0.2825394365D+01  0.2347269535D+00
      0.6401216923D+00  0.8137573261D+00
 S   1 1.00       0.000000000000
      0.1612777588D+00  0.1000000000D+01
 ****
     43 0
 S   3 1.00       0.000000000000
      0.1873113696D+02  0.3349460434D-01
      0.2825394365D+01  0.2347269535D+00
      0.6401216923D+00  0.8137573261D+00
 S   1 1.00       0.000000000000
      0.1612777588D+00  0.1000000000D+01
 ****
     44 0
 S   3 1.00       0.000000000000
      0.1873113696D+02  0.3349460434D-01
      0.2825394365D+01  0.2347269535D+00
      0.6401216923D+00  0.8137573261D+00
 S   1 1.00       0.000000000000
      0.1612777588D+00  0.1000000000D+01
 ****
     45 0
 S   3 1.00       0.000000000000
      0.1873113696D+02  0.3349460434D-01
      0.2825394365D+01  0.2347269535D+00
      0.6401216923D+00  0.8137573261D+00
 S   1 1.00       0.000000000000
      0.1612777588D+00  0.1000000000D+01
 ****
     46 0
 S   3 1.00       0.000000000000
      0.1873113696D+02  0.3349460434D-01
      0.2825394365D+01  0.2347269535D+00
      0.6401216923D+00  0.8137573261D+00
 S   1 1.00       0.000000000000
      0.1612777588D+00  0.1000000000D+01
 ****
     47 0
 S   3 1.00       0.000000000000
      0.1873113696D+02  0.3349460434D-01
      0.2825394365D+01  0.2347269535D+00
      0.6401216923D+00  0.8137573261D+00
 S   1 1.00       0.000000000000
      0.1612777588D+00  0.1000000000D+01
 ****
     48 0
 S   3 1.00       0.000000000000
      0.1873113696D+02  0.3349460434D-01
      0.2825394365D+01  0.2347269535D+00
      0.6401216923D+00  0.8137573261D+00
 S   1 1.00       0.000000000000
      0.1612777588D+00  0.1000000000D+01
 ****
     49 0
 S   3 1.00       0.000000000000
      0.1873113696D+02  0.3349460434D-01
      0.2825394365D+01  0.2347269535D+00
      0.6401216923D+00  0.8137573261D+00
 S   1 1.00       0.000000000000
      0.1612777588D+00  0.1000000000D+01
 ****
     50 0
 S   3 1.00       0.000000000000
      0.1873113696D+02  0.3349460434D-01
      0.2825394365D+01  0.2347269535D+00
      0.6401216923D+00  0.8137573261D+00
 S   1 1.00       0.000000000000
      0.1612777588D+00  0.1000000000D+01
 ****

   373 basis functions,   704 primitive gaussians,   373 cartesian basis functions
    79 alpha electrons       79 beta electrons
       nuclear repulsion energy      1707.2611001918 Hartrees.
 IExCor=  402 DFT=T Ex+Corr=B3LYP ExCW=0 ScaHFX=  0.200000
 ScaDFX=  0.800000  0.720000  1.000000  0.810000 ScalE2=  1.000000  1.000000
 IRadAn=      5 IRanWt=     -1 IRanGd=            0 ICorTp=0 IEmpDi=  4
 NAtoms=   50 NActive=   50 NUniq=   50 SFac= 1.00D+00 NAtFMM=   60 NAOKFM=F Big=F
 Integral buffers will be    131072 words long.
 Regular integral format.
 Two-electron integral symmetry is turned off.
 Leave Link  301 at Sat Nov  5 11:23:49 2022, MaxMem=   402653184 cpu:               0.6 elap:               0.1
 (Enter /home/wykgroup/appl/g16/l302.exe)
 NPDir=0 NMtPBC=     1 NCelOv=     1 NCel=       1 NClECP=     1 NCelD=      1
         NCelK=      1 NCelE2=     1 NClLst=     1 CellRange=     0.0.
 One-electron integrals computed using PRISM.
 NBasis=   373 RedAO= T EigKep=  8.82D-04  NBF=   373
 NBsUse=   373 1.00D-06 EigRej= -1.00D+00 NBFU=   373
 Precomputing XC quadrature grid using
 IXCGrd= 4 IRadAn=           5 IRanWt=          -1 IRanGd=           0 AccXCQ= 0.00D+00.
 Generated NRdTot=       0 NPtTot=           0 NUsed=           0 NTot=          32
 NSgBfM=   370   370   370   370   370 MxSgAt=    50 MxSgA2=    50.
 Leave Link  302 at Sat Nov  5 11:23:50 2022, MaxMem=   402653184 cpu:               6.8 elap:               0.5
 (Enter /home/wykgroup/appl/g16/l303.exe)
 DipDrv:  MaxL=1.
 Leave Link  303 at Sat Nov  5 11:23:50 2022, MaxMem=   402653184 cpu:               0.6 elap:               0.1
 (Enter /home/wykgroup/appl/g16/l308.exe)
 Leave Link  308 at Sat Nov  5 11:23:50 2022, MaxMem=   402653184 cpu:               0.6 elap:               0.1
 (Enter /home/wykgroup/appl/g16/l401.exe)
 ExpMin= 1.61D-01 ExpMax= 4.17D+03 ExpMxC= 6.27D+02 IAcc=3 IRadAn=         5 AccDes= 0.00D+00
 Harris functional with IExCor=  402 and IRadAn=       5 diagonalized for initial guess.
 HarFok:  IExCor=  402 AccDes= 0.00D+00 IRadAn=         5 IDoV= 1 UseB2=F ITyADJ=14
 ICtDFT=  3500011 ScaDFX=  1.000000  1.000000  1.000000  1.000000
 FoFCou: FMM=F IPFlag=           0 FMFlag=      100000 FMFlg1=           0
         NFxFlg=           0 DoJE=T BraDBF=F KetDBF=T FulRan=T
         wScrn=  0.000000 ICntrl=       500 IOpCl=  0 I1Cent=   200000004 NGrid=           0
         NMat0=    1 NMatS0=      1 NMatT0=    0 NMatD0=    1 NMtDS0=    0 NMtDT0=    0
 Symmetry not used in FoFCou.
 Harris En= -867.696247604529    
 JPrj=0 DoOrth=F DoCkMO=F.
 Leave Link  401 at Sat Nov  5 11:23:51 2022, MaxMem=   402653184 cpu:              21.3 elap:               1.5
 (Enter /home/wykgroup/appl/g16/l502.exe)
 Two-electron integral symmetry not used.
 Closed shell SCF:
 Using DIIS extrapolation, IDIIS=  1040.
 NGot=   402653184 LenX=   402366123 LenY=   402226553
 Requested convergence on RMS density matrix=1.00D-08 within  32 cycles.
 Requested convergence on MAX density matrix=1.00D-06.
 Requested convergence on             energy=1.00D-06.
 No special actions if energy rises.
 Fock matrices will be formed incrementally for  20 cycles.
 Integral accuracy reduced to 1.0D-05 until final iterations.

 Cycle   1  Pass 0  IDiag  1:
 FoFJK:  IHMeth= 1 ICntrl=       0 DoSepK=F KAlg= 0 I1Cent=           0 FoldK=F
 IRaf= 740000000 NMat=       1 IRICut=       1 DoRegI=T DoRafI=F ISym2E= 0 IDoP0=0 IntGTp=1.
 FoFCou: FMM=F IPFlag=           0 FMFlag=      100000 FMFlg1=           0
         NFxFlg=           0 DoJE=F BraDBF=F KetDBF=F FulRan=T
         wScrn=  0.000000 ICntrl=         0 IOpCl=  0 I1Cent=           0 NGrid=           0
         NMat0=    1 NMatS0=      1 NMatT0=    0 NMatD0=    1 NMtDS0=    0 NMtDT0=    0
 Symmetry not used in FoFCou.
 E= -867.072259945068    
 DIIS: error= 3.45D-02 at cycle   1 NSaved=   1.
 NSaved= 1 IEnMin= 1 EnMin= -867.072259945068     IErMin= 1 ErrMin= 3.45D-02
 ErrMax= 3.45D-02  0.00D+00 EMaxC= 1.00D-01 BMatC= 5.50D-01 BMatP= 5.50D-01
 IDIUse=3 WtCom= 6.55D-01 WtEn= 3.45D-01
 Coeff-Com:  0.100D+01
 Coeff-En:   0.100D+01
 Coeff:      0.100D+01
 Gap=     0.152 Goal=   None    Shift=    0.000
 GapD=    0.152 DampG=1.000 DampE=0.500 DampFc=0.5000 IDamp=-1.
 Damping current iteration by 5.00D-01
 RMSDP=4.79D-03 MaxDP=1.53D-01              OVMax= 1.64D-01

 Cycle   2  Pass 0  IDiag  1:
 RMSU=  2.35D-03    CP:  9.72D-01
 E= -867.332005285730     Delta-E=       -0.259745340662 Rises=F Damp=T
 DIIS: error= 6.30D-03 at cycle   2 NSaved=   2.
 NSaved= 2 IEnMin= 2 EnMin= -867.332005285730     IErMin= 2 ErrMin= 6.30D-03
 ErrMax= 6.30D-03  0.00D+00 EMaxC= 1.00D-01 BMatC= 3.40D-02 BMatP= 5.50D-01
 IDIUse=3 WtCom= 9.37D-01 WtEn= 6.30D-02
 Coeff-Com:  0.681D-01 0.932D+00
 Coeff-En:   0.113D+00 0.887D+00
 Coeff:      0.710D-01 0.929D+00
 Gap=     0.209 Goal=   None    Shift=    0.000
 RMSDP=1.06D-03 MaxDP=3.32D-02 DE=-2.60D-01 OVMax= 9.98D-02

 Cycle   3  Pass 0  IDiag  1:
 RMSU=  1.03D-03    CP:  9.67D-01  8.93D-01
 E= -867.650271802579     Delta-E=       -0.318266516850 Rises=F Damp=F
 DIIS: error= 3.44D-03 at cycle   3 NSaved=   3.
 NSaved= 3 IEnMin= 3 EnMin= -867.650271802579     IErMin= 3 ErrMin= 3.44D-03
 ErrMax= 3.44D-03  0.00D+00 EMaxC= 1.00D-01 BMatC= 1.05D-02 BMatP= 3.40D-02
 IDIUse=3 WtCom= 9.66D-01 WtEn= 3.44D-02
 Coeff-Com: -0.159D-01 0.328D+00 0.688D+00
 Coeff-En:   0.000D+00 0.000D+00 0.100D+01
 Coeff:     -0.154D-01 0.316D+00 0.699D+00
 Gap=     0.197 Goal=   None    Shift=    0.000
 RMSDP=5.05D-04 MaxDP=1.68D-02 DE=-3.18D-01 OVMax= 1.99D-02

 Cycle   4  Pass 0  IDiag  1:
 RMSU=  3.79D-04    CP:  9.67D-01  9.38D-01  6.93D-01
 E= -867.658372724718     Delta-E=       -0.008100922139 Rises=F Damp=F
 DIIS: error= 1.32D-03 at cycle   4 NSaved=   4.
 NSaved= 4 IEnMin= 4 EnMin= -867.658372724718     IErMin= 4 ErrMin= 1.32D-03
 ErrMax= 1.32D-03  0.00D+00 EMaxC= 1.00D-01 BMatC= 2.06D-03 BMatP= 1.05D-02
 IDIUse=3 WtCom= 9.87D-01 WtEn= 1.32D-02
 Coeff-Com: -0.105D-01 0.679D-01 0.336D+00 0.606D+00
 Coeff-En:   0.000D+00 0.000D+00 0.128D+00 0.872D+00
 Coeff:     -0.103D-01 0.670D-01 0.333D+00 0.610D+00
 Gap=     0.198 Goal=   None    Shift=    0.000
 RMSDP=1.86D-04 MaxDP=6.43D-03 DE=-8.10D-03 OVMax= 1.04D-02

 Cycle   5  Pass 0  IDiag  1:
 RMSU=  8.17D-05    CP:  9.67D-01  9.32D-01  7.60D-01  6.00D-01
 E= -867.660311061697     Delta-E=       -0.001938336979 Rises=F Damp=F
 DIIS: error= 4.63D-04 at cycle   5 NSaved=   5.
 NSaved= 5 IEnMin= 5 EnMin= -867.660311061697     IErMin= 5 ErrMin= 4.63D-04
 ErrMax= 4.63D-04  0.00D+00 EMaxC= 1.00D-01 BMatC= 1.52D-04 BMatP= 2.06D-03
 IDIUse=3 WtCom= 9.95D-01 WtEn= 4.63D-03
 Coeff-Com: -0.369D-02 0.110D-01 0.114D+00 0.299D+00 0.579D+00
 Coeff-En:   0.000D+00 0.000D+00 0.000D+00 0.000D+00 0.100D+01
 Coeff:     -0.367D-02 0.110D-01 0.114D+00 0.298D+00 0.581D+00
 Gap=     0.196 Goal=   None    Shift=    0.000
 RMSDP=4.44D-05 MaxDP=2.02D-03 DE=-1.94D-03 OVMax= 5.34D-03

 Cycle   6  Pass 0  IDiag  1:
 RMSU=  3.01D-05    CP:  9.67D-01  9.32D-01  7.64D-01  6.25D-01  6.23D-01
 E= -867.660428979346     Delta-E=       -0.000117917649 Rises=F Damp=F
 DIIS: error= 3.03D-04 at cycle   6 NSaved=   6.
 NSaved= 6 IEnMin= 6 EnMin= -867.660428979346     IErMin= 6 ErrMin= 3.03D-04
 ErrMax= 3.03D-04  0.00D+00 EMaxC= 1.00D-01 BMatC= 2.97D-05 BMatP= 1.52D-04
 IDIUse=3 WtCom= 9.97D-01 WtEn= 3.03D-03
 Coeff-Com: -0.168D-02 0.275D-02 0.531D-01 0.158D+00 0.380D+00 0.408D+00
 Coeff-En:   0.000D+00 0.000D+00 0.000D+00 0.000D+00 0.126D+00 0.874D+00
 Coeff:     -0.168D-02 0.275D-02 0.530D-01 0.158D+00 0.379D+00 0.409D+00
 Gap=     0.196 Goal=   None    Shift=    0.000
 RMSDP=1.92D-05 MaxDP=9.34D-04 DE=-1.18D-04 OVMax= 2.40D-03

 Cycle   7  Pass 0  IDiag  1:
 RMSU=  7.30D-06    CP:  9.67D-01  9.33D-01  7.65D-01  6.36D-01  6.59D-01
                    CP:  4.35D-01
 E= -867.660458223061     Delta-E=       -0.000029243715 Rises=F Damp=F
 DIIS: error= 4.45D-05 at cycle   7 NSaved=   7.
 NSaved= 7 IEnMin= 7 EnMin= -867.660458223061     IErMin= 7 ErrMin= 4.45D-05
 ErrMax= 4.45D-05  0.00D+00 EMaxC= 1.00D-01 BMatC= 1.32D-06 BMatP= 2.97D-05
 IDIUse=1 WtCom= 1.00D+00 WtEn= 0.00D+00
 Coeff-Com: -0.594D-03 0.504D-03 0.197D-01 0.634D-01 0.165D+00 0.230D+00
 Coeff-Com:  0.522D+00
 Coeff:     -0.594D-03 0.504D-03 0.197D-01 0.634D-01 0.165D+00 0.230D+00
 Coeff:      0.522D+00
 Gap=     0.196 Goal=   None    Shift=    0.000
 RMSDP=4.34D-06 MaxDP=2.78D-04 DE=-2.92D-05 OVMax= 4.29D-04

 Initial convergence to 1.0D-05 achieved.  Increase integral accuracy.
 Cycle   8  Pass 1  IDiag  1:
 E= -867.660456671795     Delta-E=        0.000001551266 Rises=F Damp=F
 DIIS: error= 5.78D-05 at cycle   1 NSaved=   1.
 NSaved= 1 IEnMin= 1 EnMin= -867.660456671795     IErMin= 1 ErrMin= 5.78D-05
 ErrMax= 5.78D-05  0.00D+00 EMaxC= 1.00D-01 BMatC= 7.18D-07 BMatP= 7.18D-07
 IDIUse=1 WtCom= 1.00D+00 WtEn= 0.00D+00
 Coeff-Com:  0.100D+01
 Coeff:      0.100D+01
 Gap=     0.196 Goal=   None    Shift=    0.000
 RMSDP=4.34D-06 MaxDP=2.78D-04 DE= 1.55D-06 OVMax= 2.25D-04

 Cycle   9  Pass 1  IDiag  1:
 RMSU=  2.07D-05    CP:  1.00D+00
 E= -867.660457044917     Delta-E=       -0.000000373122 Rises=F Damp=F
 DIIS: error= 1.96D-05 at cycle   2 NSaved=   2.
 NSaved= 2 IEnMin= 2 EnMin= -867.660457044917     IErMin= 2 ErrMin= 1.96D-05
 ErrMax= 1.96D-05  0.00D+00 EMaxC= 1.00D-01 BMatC= 3.09D-07 BMatP= 7.18D-07
 IDIUse=1 WtCom= 1.00D+00 WtEn= 0.00D+00
 Coeff-Com:  0.351D+00 0.649D+00
 Coeff:      0.351D+00 0.649D+00
 Gap=     0.196 Goal=   None    Shift=    0.000
 RMSDP=2.94D-06 MaxDP=1.99D-04 DE=-3.73D-07 OVMax= 3.04D-04

 Cycle  10  Pass 1  IDiag  1:
 RMSU=  2.94D-06    CP:  1.00D+00  9.98D-01
 E= -867.660457094358     Delta-E=       -0.000000049441 Rises=F Damp=F
 DIIS: error= 2.07D-05 at cycle   3 NSaved=   3.
 NSaved= 3 IEnMin= 3 EnMin= -867.660457094358     IErMin= 2 ErrMin= 1.96D-05
 ErrMax= 2.07D-05  0.00D+00 EMaxC= 1.00D-01 BMatC= 2.49D-07 BMatP= 3.09D-07
 IDIUse=1 WtCom= 1.00D+00 WtEn= 0.00D+00
 Coeff-Com:  0.184D-01 0.469D+00 0.512D+00
 Coeff:      0.184D-01 0.469D+00 0.512D+00
 Gap=     0.196 Goal=   None    Shift=    0.000
 RMSDP=1.57D-06 MaxDP=9.78D-05 DE=-4.94D-08 OVMax= 1.94D-04

 Cycle  11  Pass 1  IDiag  1:
 RMSU=  6.42D-07    CP:  1.00D+00  1.01D+00  5.18D-01
 E= -867.660457316037     Delta-E=       -0.000000221679 Rises=F Damp=F
 DIIS: error= 5.79D-06 at cycle   4 NSaved=   4.
 NSaved= 4 IEnMin= 4 EnMin= -867.660457316037     IErMin= 4 ErrMin= 5.79D-06
 ErrMax= 5.79D-06  0.00D+00 EMaxC= 1.00D-01 BMatC= 1.46D-08 BMatP= 2.49D-07
 IDIUse=1 WtCom= 1.00D+00 WtEn= 0.00D+00
 Coeff-Com: -0.271D-02 0.275D+00 0.330D+00 0.398D+00
 Coeff:     -0.271D-02 0.275D+00 0.330D+00 0.398D+00
 Gap=     0.196 Goal=   None    Shift=    0.000
 RMSDP=3.80D-07 MaxDP=2.09D-05 DE=-2.22D-07 OVMax= 4.45D-05

 Cycle  12  Pass 1  IDiag  1:
 RMSU=  1.02D-07    CP:  1.00D+00  1.01D+00  5.43D-01  4.42D-01
 E= -867.660457330259     Delta-E=       -0.000000014222 Rises=F Damp=F
 DIIS: error= 4.24D-07 at cycle   5 NSaved=   5.
 NSaved= 5 IEnMin= 5 EnMin= -867.660457330259     IErMin= 5 ErrMin= 4.24D-07
 ErrMax= 4.24D-07  0.00D+00 EMaxC= 1.00D-01 BMatC= 2.04D-10 BMatP= 1.46D-08
 IDIUse=1 WtCom= 1.00D+00 WtEn= 0.00D+00
 Coeff-Com: -0.202D-02 0.135D+00 0.165D+00 0.217D+00 0.485D+00
 Coeff:     -0.202D-02 0.135D+00 0.165D+00 0.217D+00 0.485D+00
 Gap=     0.196 Goal=   None    Shift=    0.000
 RMSDP=4.88D-08 MaxDP=2.50D-06 DE=-1.42D-08 OVMax= 4.66D-06

 Cycle  13  Pass 1  IDiag  1:
 RMSU=  3.14D-08    CP:  1.00D+00  1.01D+00  5.40D-01  4.40D-01  6.44D-01
 E= -867.660457330448     Delta-E=       -0.000000000189 Rises=F Damp=F
 DIIS: error= 6.36D-08 at cycle   6 NSaved=   6.
 NSaved= 6 IEnMin= 6 EnMin= -867.660457330448     IErMin= 6 ErrMin= 6.36D-08
 ErrMax= 6.36D-08  0.00D+00 EMaxC= 1.00D-01 BMatC= 6.99D-12 BMatP= 2.04D-10
 IDIUse=1 WtCom= 1.00D+00 WtEn= 0.00D+00
 Coeff-Com: -0.744D-03 0.446D-01 0.548D-01 0.746D-01 0.220D+00 0.606D+00
 Coeff:     -0.744D-03 0.446D-01 0.548D-01 0.746D-01 0.220D+00 0.606D+00
 Gap=     0.196 Goal=   None    Shift=    0.000
 RMSDP=9.95D-09 MaxDP=4.12D-07 DE=-1.89D-10 OVMax= 8.73D-07

 SCF Done:  E(RB3LYP) =  -867.660457330     A.U. after   13 cycles
            NFock= 13  Conv=0.99D-08     -V/T= 2.0098
 KE= 8.592011553782D+02 PE=-5.424190956513D+03 EE= 1.990068243612D+03
 Leave Link  502 at Sat Nov  5 11:24:16 2022, MaxMem=   402653184 cpu:             350.0 elap:              25.0
 (Enter /home/wykgroup/appl/g16/l508.exe)
 QCSCF skips out because SCF is already converged.
 Leave Link  508 at Sat Nov  5 11:24:17 2022, MaxMem=   402653184 cpu:               0.0 elap:               0.0
 (Enter /home/wykgroup/appl/g16/l801.exe)
 DoSCS=F DFT=T ScalE2(SS,OS)=  1.000000  1.000000
 ExpMin= 1.61D-01 ExpMax= 4.17D+03 ExpMxC= 6.27D+02 IAcc=3 IRadAn=         5 AccDes= 0.00D+00
 HarFok:  IExCor=  205 AccDes= 0.00D+00 IRadAn=         5 IDoV=-2 UseB2=F ITyADJ=14
 ICtDFT= 12500011 ScaDFX=  1.000000  1.000000  1.000000  1.000000
 GSVD:  LWork=        -609 too small for GESVD, short by        2520 words or        2520 for optimal perf.
 Largest valence mixing into a core orbital is  5.67D-05
 Largest core mixing into a valence orbital is  1.40D-05
 Range of M.O.s used for correlation:    22   373
 NBasis=   373 NAE=    79 NBE=    79 NFC=    21 NFV=     0
 NROrb=    352 NOA=    58 NOB=    58 NVA=   294 NVB=   294
 Leave Link  801 at Sat Nov  5 11:24:17 2022, MaxMem=   402653184 cpu:               1.9 elap:               0.2
 (Enter /home/wykgroup/appl/g16/l914.exe)
 RHF ground state
 Two-electron integral symmetry not used.
 MDV=   402653184 DFT=T DoStab=F Mixed=T DoRPA=T DoScal=F NonHer=T
 Making orbital integer symmetry assigments:
    16 initial guesses have been made.
 Convergence on wavefunction:    0.001000000000000
 Davidson Disk Diagonalization:  ConvIn= 1.00D-03 SkipCon=T Conv= 1.00D-03.
 Max sub-space:  2000 roots to seek:    16 dimension of matrix:        34104
 Iteration     1 Dimension    16 NMult     0 NNew     16
 CISAX will form    16 AO SS matrices at one time.
 NMat=    16 NSing=     8 JSym2X= 0.
 FoFJK:  IHMeth= 1 ICntrl=       0 DoSepK=F KAlg= 0 I1Cent=           0 FoldK=F
 IRaf= 740000000 NMat=      32 IRICut=       1 DoRegI=T DoRafI=F ISym2E= 0 IDoP0=0 IntGTp=1.
 FoFCou: FMM=F IPFlag=           0 FMFlag=      100000 FMFlg1=           0
         NFxFlg=           0 DoJE=F BraDBF=F KetDBF=F FulRan=T
         wScrn=  0.000000 ICntrl=         0 IOpCl=  0 I1Cent=           0 NGrid=           0
         NMat0=   32 NMatS0=      8 NMatT0=    8 NMatD0=   32 NMtDS0=    0 NMtDT0=    0
 Symmetry not used in FoFCou.
 New state      1 was old state      4
 New state      2 was old state      1
 New state      3 was old state      8
 New state      4 was old state      6
 New state      5 was old state      2
 New state      6 was old state     12
 New state      7 was old state      3
 New state      8 was old state      5
 Excitation Energies [eV] at current iteration:
 Root      1 :     3.910211269893578
 Root      2 :     4.281601845141707
 Root      3 :     4.357509136998353
 Root      4 :     4.495522482914734
 Root      5 :     4.592726699171911
 Root      6 :     4.619529147035257
 Root      7 :     4.696866703813356
 Root      8 :     4.711416507382162
 Root      9 :     5.058989543688519
 Root     10 :     5.153249537562556
 Root     11 :     5.508084577313810
 Root     12 :     5.877656900611357
 Root     13 :     5.981421559628219
 Root     14 :     6.460297628979295
 Root     15 :     6.824104260991908
 Root     16 :     7.693924970937337
 Vector   4 SDiff=1.05D+00 TDiff=4.31D+00 assumed to be singlet.
 Vector   8 SDiff=1.06D+00 TDiff=3.99D+00 assumed to be singlet.
 Iteration     2 Dimension    24 NMult    16 NNew      8
 CISAX will form     8 AO SS matrices at one time.
 NMat=     8 NSing=     4 JSym2X= 0.
 Root      1 not converged, maximum delta is    0.035583379560158
 New state      2 was old state      3
 Root      2 not converged, maximum delta is    0.218450632576844
 New state      3 was old state      2
 Root      3 not converged, maximum delta is    0.025638161667877
 New state      4 was old state      7
 Root      4 not converged, maximum delta is    0.027688856183752
 Excitation Energies [eV] at current iteration:
 Root      1 :     3.769162732050277   Change is   -0.141048537843300
 Root      2 :     4.144039531358980   Change is   -0.213469605639373
 Root      3 :     4.214597584154599   Change is   -0.067004260987108
 Root      4 :     4.663883037233869   Change is   -0.032983666579488
 Iteration     3 Dimension    32 NMult    24 NNew      8
 CISAX will form     8 AO SS matrices at one time.
 NMat=     8 NSing=     4 JSym2X= 0.
 Root      1 not converged, maximum delta is    0.012453395178175
 Root      2 not converged, maximum delta is    0.286655494333879
 Root      3 not converged, maximum delta is    0.005664505676698
 Root      4 not converged, maximum delta is    0.030436476642684
 Excitation Energies [eV] at current iteration:
 Root      1 :     3.763006307434222   Change is   -0.006156424616055
 Root      2 :     3.984914121871324   Change is   -0.159125409487656
 Root      3 :     4.209312730198727   Change is   -0.005284853955872
 Root      4 :     4.647387337775530   Change is   -0.016495699458338
 Iteration     4 Dimension    40 NMult    32 NNew      8
 CISAX will form     8 AO SS matrices at one time.
 NMat=     8 NSing=     4 JSym2X= 0.
 Root      1 not converged, maximum delta is    0.003422960703455
 Root      2 not converged, maximum delta is    0.040125848475379
 Root      3 not converged, maximum delta is    0.001321516207085
 Root      4 not converged, maximum delta is    0.018913793753615
 Excitation Energies [eV] at current iteration:
 Root      1 :     3.762687996297908   Change is   -0.000318311136314
 Root      2 :     3.961595948654416   Change is   -0.023318173216908
 Root      3 :     4.208786161757318   Change is   -0.000526568441409
 Root      4 :     4.646410577841127   Change is   -0.000976759934404
 Iteration     5 Dimension    48 NMult    40 NNew      8
 CISAX will form     8 AO SS matrices at one time.
 NMat=     8 NSing=     4 JSym2X= 0.
 Root      1 has converged.
 Root      2 not converged, maximum delta is    0.004476464004266
 Root      3 has converged.
 Root      4 not converged, maximum delta is    0.012791196882023
 Excitation Energies [eV] at current iteration:
 Root      1 :     3.762666289838907   Change is   -0.000021706459000
 Root      2 :     3.959421015375105   Change is   -0.002174933279311
 Root      3 :     4.208726396553380   Change is   -0.000059765203938
 Root      4 :     4.646234929321514   Change is   -0.000175648519613
 Iteration     6 Dimension    52 NMult    48 NNew      4
 CISAX will form     4 AO SS matrices at one time.
 NMat=     4 NSing=     2 JSym2X= 0.
 Root      1 has converged.
 Root      2 has converged.
 Root      3 has converged.
 Root      4 not converged, maximum delta is    0.011215853964415
 Excitation Energies [eV] at current iteration:
 Root      1 :     3.762666063577482   Change is   -0.000000226261425
 Root      2 :     3.959262433491038   Change is   -0.000158581884067
 Root      3 :     4.208726014592746   Change is   -0.000000381960633
 Root      4 :     4.646192343064393   Change is   -0.000042586257121
 Iteration     7 Dimension    54 NMult    52 NNew      2
 CISAX will form     2 AO SS matrices at one time.
 NMat=     2 NSing=     2 JSym2X= 0.
 Root      1 has converged.
 Root      2 has converged.
 Root      3 has converged.
 Root      4 not converged, maximum delta is    0.008014861991158
 Excitation Energies [eV] at current iteration:
 Root      1 :     3.762666063577438   Change is   -0.000000000000044
 Root      2 :     3.959262433490955   Change is   -0.000000000000083
 Root      3 :     4.208725996616158   Change is   -0.000000017976588
 Root      4 :     4.646175488243013   Change is   -0.000016854821380
 Iteration     8 Dimension    56 NMult    54 NNew      2
 CISAX will form     2 AO SS matrices at one time.
 NMat=     2 NSing=     2 JSym2X= 0.
 Root      1 has converged.
 Root      2 has converged.
 Root      3 has converged.
 Root      4 not converged, maximum delta is    0.002347923800081
 Excitation Energies [eV] at current iteration:
 Root      1 :     3.762666063577482   Change is    0.000000000000044
 Root      2 :     3.959262433491080   Change is    0.000000000000125
 Root      3 :     4.208725953465359   Change is   -0.000000043150798
 Root      4 :     4.646172101846149   Change is   -0.000003386396863
 Convergence on energies, max DE= 3.39D-06.
 Convergence on expansion vectors.
 ***********************************************************************
 Excited states from <AA,BB:AA,BB> singles matrix:
 ***********************************************************************
 
 1PDM for each excited state written to RWF  633
 Ground to excited state transition densities written to RWF  633
 Ground to excited state transition electric dipole moments (Au):
       state          X           Y           Z        Dip. S.      Osc.
         1        -0.0000      0.0000      0.0000      0.0000      0.0000
         2        -0.0000     -0.0000     -0.0000      0.0000      0.0000
         3         0.0092      0.0168      0.1763      0.0314      0.0032
         4        -0.1609      0.1444     -0.0387      0.0482      0.0055
 Ground to excited state transition velocity dipole moments (Au):
       state          X           Y           Z        Dip. S.      Osc.
         1         0.0000     -0.0000      0.0000      0.0000      0.0000
         2         0.0000      0.0000      0.0000      0.0000      0.0000
         3        -0.0083      0.0024     -0.0370      0.0014      0.0062
         4         0.0241     -0.0259      0.0136      0.0014      0.0056
 Ground to excited state transition magnetic dipole moments (Au):
       state          X           Y           Z
         1         0.0000     -0.0000     -0.0000
         2         0.0000     -0.0000     -0.0000
         3         0.0642      0.2154      0.1021
         4         0.0265     -0.1902     -0.0044
 Ground to excited state transition velocity quadrupole moments (Au):
       state          XX          YY          ZZ          XY          XZ          YZ
         1        -0.0000     -0.0000     -0.0000      0.0000     -0.0000     -0.0000
         2        -0.0000     -0.0000      0.0000     -0.0000     -0.0000      0.0000
         3         0.0336      0.0151     -0.0036      0.0837      0.0930     -0.0021
         4        -0.0806     -0.0718     -0.0142      0.1419      0.0438     -0.0431
 <0|del|b> * <b|rxdel|0> + <0|del|b> * <b|delr+rdel|0>
 Rotatory Strengths (R) in cgs (10**-40 erg-esu-cm/Gauss)
       state          XX          YY          ZZ    R(velocity)    E-M Angle
         1         0.0000     -0.0000      0.0000      0.0000       90.00
         2        -0.0000     -0.0000     -0.0000     -0.0000       90.00
[...]
    12  C   -0.000003  -0.000135  -0.000123  -0.002280  -0.006035  -0.043203
    13  C    0.000001  -0.000000   0.000004  -0.001057   0.003627   0.005383
    14  C    0.005511   0.000038   0.000188   0.005589  -0.006345  -0.044004
    15  N    0.000260  -0.000002  -0.000003   0.000000  -0.000002   0.000027
    16  C    0.000038   0.000000  -0.000000  -0.000000  -0.000000  -0.000002
    17  C   -0.000049   0.000000  -0.000000   0.000000   0.000000   0.000000
    18  C   -0.000000   0.000000  -0.000000  -0.000000   0.000000  -0.000000
    19  N    0.000000   0.000000   0.000000   0.000000  -0.000000  -0.000000
    20  C    0.000000  -0.000000  -0.000000   0.000000  -0.000000   0.000000
    21  C    0.000001   0.000000   0.000000  -0.000000  -0.000000  -0.000000
    22  H    0.000000  -0.000000   0.000000   0.000000   0.000000  -0.000000
    23  H   -0.000000  -0.000000  -0.000000  -0.000000  -0.000000  -0.000000
    24  H    0.000000   0.000000  -0.000000   0.000000  -0.000000   0.000000
    25  H    0.000012  -0.000000  -0.000000  -0.000000  -0.000000  -0.000000
    26  H    0.000000   0.000000   0.000000   0.000000  -0.000000   0.000000
    27  H    0.000000   0.000000  -0.000000   0.000000  -0.000000  -0.000000
    28  H    0.000000   0.000000   0.000000   0.000000  -0.000000   0.000000
    29  H   -0.002875   0.002343   0.000028  -0.000049   0.000452  -0.000124
    30  H   -0.036902   0.004957  -0.008113  -0.000065  -0.000116   0.000310
    31  H    0.605103  -0.008584   0.001936  -0.000106  -0.000055  -0.000030
    32  H   -0.008584   0.609286  -0.037980   0.001585  -0.007834   0.000070
    33  H    0.001936  -0.037980   0.608886  -0.008365   0.005375   0.003188
    34  H   -0.000106   0.001585  -0.008365   0.613300  -0.039825  -0.003347
    35  H   -0.000055  -0.007834   0.005375  -0.039825   0.611230   0.006690
    36  H   -0.000030   0.000070   0.003188  -0.003347   0.006690   0.650461
    37  H   -0.000000  -0.000001  -0.000013   0.004556  -0.000142  -0.004793
    38  H   -0.000000   0.000003   0.000000  -0.000026  -0.000107  -0.002763
    39  H   -0.000000  -0.000000   0.000000  -0.000050  -0.000037  -0.000142
    40  H   -0.000000   0.000000  -0.000000   0.000121   0.000383   0.000005
    41  H   -0.000000   0.000008  -0.000000   0.000901   0.000971   0.000021
    42  H   -0.000094   0.000011   0.000037  -0.000164   0.000043  -0.008439
    43  H   -0.000173   0.000037   0.000014  -0.000101   0.002648   0.006133
    44  H    0.000000  -0.000000  -0.000000   0.000000   0.000000   0.000000
    45  H   -0.000000   0.000000   0.000000   0.000000   0.000000   0.000000
    46  H   -0.000000   0.000000   0.000000   0.000000   0.000000   0.000000
    47  H    0.000000   0.000000  -0.000000   0.000000  -0.000000  -0.000000
    48  H    0.000000   0.000000   0.000000   0.000000   0.000000   0.000000
    49  H   -0.000000  -0.000000   0.000000  -0.000000   0.000000  -0.000000
    50  H    0.000001   0.000000  -0.000000   0.000000   0.000000   0.000000
              37         38         39         40         41         42
     1  C    0.000000  -0.000000   0.000000   0.000000  -0.000000   0.000000
     2  C    0.000000   0.000000  -0.000000  -0.000000   0.000000  -0.000000
     3  C   -0.000000   0.000000   0.000000  -0.000000  -0.000000   0.000001
     4  C    0.000000   0.000000  -0.000000   0.000000  -0.000000   0.000044
     5  N   -0.000000  -0.000000  -0.000000  -0.000000  -0.000000   0.000419
     6  C    0.000001  -0.000007   0.000000   0.000007   0.000000  -0.009231
     7  C   -0.000147   0.000090   0.000002  -0.000269  -0.000006  -0.039962
     8  C    0.000017   0.000003   0.000000   0.000007   0.000005  -0.002797
     9  C   -0.000073  -0.000157  -0.000002  -0.000025  -0.000054   0.000083
    10  C   -0.004517   0.005365   0.000130  -0.000593   0.004322   0.004893
    11  C   -0.032823  -0.037287   0.004219  -0.003849  -0.006253  -0.029087
    12  C    0.367767   0.370529  -0.028635  -0.036036  -0.033996  -0.000671
    13  C   -0.041449  -0.040593   0.372591   0.376209   0.377536  -0.000035
    14  C    0.005046  -0.004724   0.000124   0.001984   0.000086   0.362297
    15  N    0.000000  -0.000001   0.000000   0.000000   0.000000   0.014910
    16  C    0.000000   0.000000   0.000000   0.000000  -0.000000  -0.000024
    17  C    0.000000  -0.000000  -0.000000   0.000000   0.000000   0.000014
    18  C    0.000000   0.000000  -0.000000   0.000000   0.000000  -0.000001
    19  N   -0.000000   0.000000   0.000000  -0.000000   0.000000   0.000000
    20  C    0.000000  -0.000000   0.000000  -0.000000   0.000000   0.000001
    21  C   -0.000000   0.000000  -0.000000  -0.000000  -0.000000  -0.000053
    22  H    0.000000  -0.000000  -0.000000   0.000000   0.000000   0.000000
    23  H    0.000000   0.000000  -0.000000  -0.000000   0.000000  -0.000000
    24  H   -0.000000  -0.000000   0.000000  -0.000000   0.000000  -0.000000
    25  H   -0.000000   0.000000   0.000000  -0.000000  -0.000000  -0.000000
    26  H    0.000000  -0.000000  -0.000000   0.000000   0.000000  -0.000000
    27  H    0.000000  -0.000000  -0.000000   0.000000   0.000000  -0.000000
    28  H   -0.000000   0.000000   0.000000   0.000000   0.000000  -0.000000
    29  H    0.000000   0.000009  -0.000001   0.000002  -0.000014   0.005293
    30  H   -0.000001   0.000007  -0.000000  -0.000000  -0.000000   0.003141
    31  H   -0.000000  -0.000000  -0.000000  -0.000000  -0.000000  -0.000094
    32  H   -0.000001   0.000003  -0.000000   0.000000   0.000008   0.000011
    33  H   -0.000013   0.000000   0.000000  -0.000000  -0.000000   0.000037
    34  H    0.004556  -0.000026  -0.000050   0.000121   0.000901  -0.000164
    35  H   -0.000142  -0.000107  -0.000037   0.000383   0.000971   0.000043
    36  H   -0.004793  -0.002763  -0.000142   0.000005   0.000021  -0.008439
    37  H    0.620584  -0.038212  -0.002764   0.005355  -0.004554  -0.000142
    38  H   -0.038212   0.619065  -0.003567  -0.003813   0.005229   0.002892
    39  H   -0.002764  -0.003567   0.580690  -0.031228  -0.031511  -0.000007
    40  H    0.005355  -0.003813  -0.031228   0.572560  -0.032429  -0.000030
    41  H   -0.004554   0.005229  -0.031511  -0.032429   0.573645   0.000001
    42  H   -0.000142   0.002892  -0.000007  -0.000030   0.000001   0.576876
    43  H    0.000185  -0.000005  -0.000193   0.006006   0.000037  -0.033523
    44  H   -0.000000  -0.000000   0.000000  -0.000000  -0.000000   0.000000
    45  H    0.000000  -0.000000  -0.000000   0.000000   0.000000   0.000000
    46  H    0.000000  -0.000000  -0.000000   0.000000   0.000000   0.000000
    47  H   -0.000000   0.000000   0.000000  -0.000000  -0.000000   0.000000
    48  H    0.000000  -0.000000   0.000000   0.000000   0.000000   0.000000
    49  H    0.000000  -0.000000   0.000000  -0.000000   0.000000   0.000147
    50  H   -0.000000  -0.000000   0.000000   0.000000  -0.000000   0.000004
              43         44         45         46         47         48
     1  C    0.000000  -0.000109   0.000008   0.000000  -0.000000   0.000000
     2  C    0.000000   0.001277  -0.000067   0.000003   0.000000   0.000000
     3  C   -0.000000   0.002302  -0.000687  -0.000026  -0.000000  -0.000003
     4  C   -0.000014  -0.006376   0.002838   0.000183   0.000012  -0.000120
     5  N    0.000321  -0.000043  -0.000097   0.000001  -0.000000  -0.000002
     6  C    0.001107   0.000001   0.000028  -0.000006   0.000002  -0.000002
     7  C   -0.036325  -0.000000  -0.000000  -0.000000  -0.000000  -0.000000
     8  C    0.004915  -0.000000   0.000000   0.000000  -0.000000  -0.000000
     9  C    0.000140   0.000000  -0.000000  -0.000000  -0.000000  -0.000000
    10  C   -0.003341  -0.000000  -0.000000  -0.000000   0.000000  -0.000000
    11  C   -0.040426  -0.000000   0.000000   0.000000  -0.000000   0.000000
    12  C   -0.008358   0.000000  -0.000000  -0.000000   0.000000   0.000000
    13  C    0.002555   0.000000  -0.000000  -0.000000   0.000000  -0.000000
    14  C    0.362527   0.000000  -0.000000  -0.000000   0.000000   0.000000
    15  N    0.000460  -0.000093  -0.000149  -0.000075  -0.000078  -0.000036
    16  C   -0.000022   0.002029  -0.004483  -0.001962   0.003288  -0.004159
    17  C   -0.000001  -0.034862  -0.048295   0.000222   0.000165  -0.001369
    18  C   -0.000000   0.368685   0.365746  -0.045507   0.004935  -0.002925
    19  N    0.000000  -0.031946  -0.041877   0.311054  -0.035048  -0.045190
    20  C    0.000000   0.006274  -0.006562  -0.049954   0.376814   0.378343
    21  C   -0.000001  -0.000255   0.000219  -0.001200  -0.039369  -0.049089
    22  H    0.000000   0.000014  -0.000002  -0.000000  -0.000000  -0.000000
    23  H   -0.000000  -0.000001  -0.000000  -0.000000   0.000000  -0.000000
    24  H   -0.000000   0.000002   0.000000   0.000000   0.000000   0.000000
    25  H   -0.000000  -0.000056  -0.000001  -0.000000   0.000000  -0.000000
    26  H   -0.000000   0.002599   0.000024   0.000008  -0.000000   0.000000
    27  H   -0.000000  -0.001302   0.002697   0.000010  -0.000000   0.000001
    28  H    0.000000  -0.000019   0.000065   0.000000  -0.000000  -0.000000
    29  H   -0.006988   0.000000   0.000000  -0.000000   0.000000  -0.000000
    30  H    0.000052   0.000000   0.000000   0.000000   0.000000  -0.000000
    31  H   -0.000173   0.000000  -0.000000  -0.000000   0.000000   0.000000
    32  H    0.000037  -0.000000   0.000000   0.000000   0.000000   0.000000
    33  H    0.000014  -0.000000   0.000000   0.000000  -0.000000   0.000000
    34  H   -0.000101   0.000000   0.000000   0.000000   0.000000   0.000000
    35  H    0.002648   0.000000   0.000000   0.000000  -0.000000   0.000000
    36  H    0.006133   0.000000   0.000000   0.000000  -0.000000   0.000000
    37  H    0.000185  -0.000000   0.000000   0.000000  -0.000000   0.000000
    38  H   -0.000005  -0.000000  -0.000000  -0.000000   0.000000  -0.000000
    39  H   -0.000193   0.000000  -0.000000  -0.000000   0.000000   0.000000
    40  H    0.006006  -0.000000   0.000000   0.000000  -0.000000   0.000000
    41  H    0.000037  -0.000000   0.000000   0.000000  -0.000000   0.000000
    42  H   -0.033523   0.000000   0.000000   0.000000   0.000000   0.000000
    43  H    0.610061  -0.000000   0.000000   0.000000  -0.000000   0.000000
    44  H   -0.000000   0.577102  -0.035415  -0.006704  -0.000207   0.000091
    45  H    0.000000  -0.035415   0.589472   0.007099  -0.000008   0.005961
    46  H    0.000000  -0.006704   0.007099   0.485107  -0.003484   0.007323
    47  H   -0.000000  -0.000207  -0.000008  -0.003484   0.581768  -0.031057
    48  H    0.000000   0.000091   0.005961   0.007323  -0.031057   0.588366
    49  H    0.000001   0.000003   0.000132   0.000119   0.000726  -0.001743
    50  H   -0.000000   0.000083  -0.000017   0.003610  -0.005396   0.005203
              49         50
     1  C    0.000000   0.000000
     2  C   -0.000000   0.000000
     3  C    0.000003   0.000002
     4  C   -0.000024  -0.000242
     5  N    0.000020   0.000029
     6  C    0.000178  -0.000051
     7  C   -0.000017   0.000005
     8  C    0.000002  -0.000004
     9  C   -0.000000   0.000000
    10  C    0.000000  -0.000000
    11  C   -0.000000  -0.000000
    12  C   -0.000000   0.000000
    13  C   -0.000000  -0.000000
    14  C   -0.000021   0.000000
    15  N    0.002264  -0.000958
    16  C   -0.029247  -0.028587
    17  C    0.004387   0.000108
    18  C   -0.000089   0.000591
    19  N    0.004920  -0.001733
    20  C   -0.023804  -0.033398
    21  C    0.337827   0.352565
    22  H    0.000000  -0.000000
    23  H   -0.000000  -0.000000
    24  H   -0.000000   0.000000
    25  H   -0.000000  -0.000000
    26  H   -0.000000  -0.000000
    27  H    0.000000  -0.000000
    28  H   -0.000000  -0.000000
    29  H    0.000000  -0.000000
    30  H    0.000010   0.000010
    31  H   -0.000000   0.000001
    32  H   -0.000000   0.000000
    33  H    0.000000  -0.000000
    34  H   -0.000000   0.000000
    35  H    0.000000   0.000000
    36  H   -0.000000   0.000000
    37  H    0.000000  -0.000000
    38  H   -0.000000  -0.000000
    39  H    0.000000   0.000000
    40  H   -0.000000   0.000000
    41  H    0.000000  -0.000000
    42  H    0.000147   0.000004
    43  H    0.000001  -0.000000
    44  H    0.000003   0.000083
    45  H    0.000132  -0.000017
    46  H    0.000119   0.003610
    47  H    0.000726  -0.005396
    48  H   -0.001743   0.005203
    49  H    0.569334  -0.027686
    50  H   -0.027686   0.579175
 Mulliken charges:
               1
     1  C   -0.441956
     2  C   -0.255218
     3  C   -0.318714
     4  C    0.256236
     5  N   -0.505442
     6  C    0.418856
     7  C   -0.140373
     8  C   -0.272224
     9  C   -0.269607
    10  C   -0.267978
    11  C   -0.072495
    12  C   -0.258896
    13  C   -0.449612
    14  C   -0.284658
    15  N   -0.505085
    16  C    0.265204
    17  C    0.069063
    18  C   -0.234393
    19  N   -0.528680
    20  C   -0.159700
    21  C   -0.338151
    22  H    0.142196
    23  H    0.146580
    24  H    0.147966
    25  H    0.157649
    26  H    0.132136
    27  H    0.138469
    28  H    0.160522
    29  H    0.141064
    30  H    0.149186
    31  H    0.133054
    32  H    0.131579
    33  H    0.131222
    34  H    0.125648
    35  H    0.134006
    36  H    0.119798
    37  H    0.126116
    38  H    0.128069
    39  H    0.140381
    40  H    0.145634
    41  H    0.146057
    42  H    0.153153
    43  H    0.132272
    44  H    0.156927
    45  H    0.163371
    46  H    0.294180
    47  H    0.146936
    48  H    0.150408
    49  H    0.162561
    50  H    0.156683
 Sum of Mulliken charges =  -0.00000
 Mulliken charges with hydrogens summed into heavy atoms:
               1
     1  C   -0.005215
     2  C    0.034567
     3  C   -0.019724
     4  C    0.256236
     5  N   -0.505442
     6  C    0.418856
     7  C    0.000692
     8  C    0.010016
     9  C   -0.006806
    10  C   -0.008324
    11  C    0.047303
    12  C   -0.004711
    13  C   -0.017540
    14  C    0.000767
    15  N   -0.505085
    16  C    0.265204
    17  C    0.069063
    18  C    0.085906
    19  N   -0.234500
    20  C    0.137645
    21  C   -0.018907
 Electronic spatial extent (au):  <R**2>=           8928.5979
 Charge=             -0.0000 electrons
 Dipole moment (field-independent basis, Debye):
    X=             -1.2984    Y=              0.4829    Z=             -0.2353  Tot=              1.4051
 Quadrupole moment (field-independent basis, Debye-Ang):
   XX=           -127.9484   YY=           -126.3571   ZZ=           -128.5448
   XY=              0.4845   XZ=              2.9124   YZ=             -0.3489
 Traceless Quadrupole moment (field-independent basis, Debye-Ang):
   XX=             -0.3316   YY=              1.2596   ZZ=             -0.9280
   XY=              0.4845   XZ=              2.9124   YZ=             -0.3489
 Octapole moment (field-independent basis, Debye-Ang**2):
  XXX=             92.0384  YYY=            -23.8980  ZZZ=             -4.5459  XYY=              5.3754
  XXY=            -23.5795  XXZ=            -32.8391  XZZ=             23.5370  YZZ=            -12.6929
  YYZ=             -0.1553  XYZ=              5.5967
 Hexadecapole moment (field-independent basis, Debye-Ang**3):
 XXXX=          -8890.1914 YYYY=          -2022.1060 ZZZZ=          -1526.1542 XXXY=             -3.2677
 XXXZ=            346.7281 YYYX=           -180.8216 YYYZ=           -405.7813 ZZZX=            187.8933
 ZZZY=           -408.5482 XXYY=          -1761.1807 XXZZ=          -1732.5458 YYZZ=           -594.7807
 XXYZ=           -198.2293 YYXZ=             55.4001 ZZXY=            -29.1899
 N-N= 1.707261100192D+03 E-N=-5.424190958472D+03  KE= 8.592011553782D+02
 Leave Link  601 at Sat Nov  5 11:27:47 2022, MaxMem=   402653184 cpu:               1.5 elap:               0.2
 (Enter /home/wykgroup/appl/g16/l9999.exe)
 Electronic transition elements 
                 1             2             3             4 
      1  -0.867522D+03 -0.867515D+03 -0.867506D+03 -0.867490D+03
      2   0.000000D+00  0.000000D+00  0.915789D-02 -0.160859D+00
      3   0.000000D+00  0.000000D+00  0.167888D-01  0.144404D+00
      4   0.000000D+00  0.000000D+00  0.176263D+00 -0.386601D-01
      5   0.000000D+00  0.000000D+00 -0.830999D-02  0.240812D-01
      6   0.000000D+00  0.000000D+00  0.244719D-02 -0.259129D-01
      7   0.000000D+00  0.000000D+00 -0.369826D-01  0.135742D-01
      8   0.000000D+00  0.000000D+00  0.642224D-01  0.265143D-01
      9   0.000000D+00  0.000000D+00  0.215372D+00 -0.190238D+00
     10   0.000000D+00  0.000000D+00  0.102052D+00 -0.440181D-02
     11   0.000000D+00  0.000000D+00  0.336125D-01 -0.805971D-01
     12   0.000000D+00  0.000000D+00  0.150945D-01 -0.718091D-01
     13   0.000000D+00  0.000000D+00 -0.355962D-02 -0.141541D-01
     14   0.000000D+00  0.000000D+00  0.837221D-01  0.141861D+00
     15   0.000000D+00  0.000000D+00  0.929533D-01  0.437553D-01
     16   0.000000D+00  0.000000D+00 -0.213820D-02 -0.431443D-01
 1\1\GINC-NODE69\SP\RB3LYP TD-FC\6-31G(d)\C18H29N3\WYKGROUP\05-Nov-2022
 \0\\#p b3lyp/6-31g(d) 6D 10F nosymm GFInput td=(50-50,nstate=2) SCF=XQ
 C\\Gaussian input prepared by ASE\\0,1\C,0,-4.3470453567,-3.3145398497
 ,-1.9236769347\C,0,-3.4997654749,-2.0726403699,-1.6335783791\C,0,-2.97
 23259292,-2.0384867618,-0.1837549911\C,0,-2.0893618927,-0.8385823653,0
 .0744236286\N,0,-0.8105175202,-0.9682889344,-0.3149207911\C,0,0.007683
 613,0.0752439134,-0.1163887695\C,0,1.440896796,-0.0660886468,-0.585377
 5\C,0,1.7351635098,0.873197185,-1.7751093429\C,0,3.1289517089,0.584278
 5701,-2.3820686835\C,0,4.1311805315,0.0436463819,-1.3359416498\C,0,3.8
 528643565,0.6399504498,0.0535999174\C,0,4.9714106828,0.3682699907,1.08
 21976922\C,0,5.3426089746,-1.1042637875,1.3039263601\C,0,2.4576034449,
 0.1918784182,0.5603730166\N,0,-0.3457044118,1.2368775769,0.4493749703\
 C,0,-1.6234636353,1.3715177954,0.8295888616\C,0,-2.567776455,0.3501194
 797,0.6492303432\C,0,-4.0131752378,0.5408365834,1.0969980179\N,0,-4.39
 27848476,1.9215469686,1.4010522055\C,0,-3.362225711,2.6013172361,2.190
 3361774\C,0,-2.0127576717,2.69034004,1.4615170234\H,0,-5.226201186,-3.
 3602733328,-1.2690863202\H,0,-4.7028635519,-3.3176686538,-2.9601415006
 \H,0,-3.7683997504,-4.2327252835,-1.7663381103\H,0,-2.639565411,-2.036
 1959767,-2.3130215529\H,0,-4.0897890022,-1.1668747336,-1.8312663208\H,
 0,-3.8159209617,-2.0623772096,0.5163354446\H,0,-2.3723463407,-2.938056
 8814,-0.005665413\H,0,1.5402184129,-1.099491928,-0.9358263482\H,0,1.67
 3921096,1.9080393078,-1.417090224\H,0,0.9604197814,0.7657992102,-2.543
 9880629\H,0,3.0357346438,-0.1385342324,-3.202312038\H,0,3.5211529314,1
 .506717158,-2.8292759621\H,0,5.1593653271,0.264585572,-1.6517011595\H,
 0,4.0566635925,-1.0507103865,-1.2830163773\H,0,3.8186719837,1.73272944
 43,-0.0736676683\H,0,5.8724493472,0.9114298101,0.7637242087\H,0,4.6748
 992182,0.8123169732,2.0432679036\H,0,6.1175988511,-1.1921837675,2.0740
 625839\H,0,4.4850271561,-1.7012842848,1.6347546266\H,0,5.7341884549,-1
 .5652641486,0.3901999973\H,0,2.053278995,0.9639911711,1.2242397275\H,0
 ,2.546033893,-0.7244872635,1.1578574889\H,0,-4.704351648,0.1621079266,
 0.3357823244\H,0,-4.1954011553,-0.06444957,1.9983145589\H,0,-4.5240730
 122,2.4293319066,0.5264628974\H,0,-3.7226751835,3.6005641867,2.4585137
 793\H,0,-3.2461584652,2.0426815414,3.1287128433\H,0,-1.2060124098,3.01
 21853529,2.1309284581\H,0,-2.0673260808,3.4519662181,0.6690220429\\Ver
 sion=ES64L-G16RevB.01\HF=-867.6604573\RMSD=9.950e-09\PG=C01 [X(C18H29N
 3)]\\@


 OLD AGE AND TREACHERY WILL ALWAYS PREVAIL OVER YOUTH AND SKILL.
 Job cpu time:       0 days  0 hours 54 minutes 13.3 seconds.
 Elapsed time:       0 days  0 hours  3 minutes 58.6 seconds.
 File lengths (MBytes):  RWF=    884 Int=      0 D2E=      0 Chk=     30 Scr=      1
 Normal termination of Gaussian 16 at Sat Nov  5 11:27:48 2022.
