 Entering Gaussian System, Link 0=/home/wykgroup/appl/g16/g16
 Input=calculation/no_transfer_pubchem_sampling_1_b3lyp/115550172_rwf.com
 Output=calculation/no_transfer_pubchem_sampling_1_b3lyp/115550172_rwf.log
 Initial command:
 /home/wykgroup/appl/g16/l1.exe "/userdata/scratch/wykgroup/khs/calculation/no_transfer_pubchem_sampling_1_b3lyp/115550172_rwf/Gau-20551.inp" -scrdir="/userdata/scratch/wykgroup/khs/calculation/no_transfer_pubchem_sampling_1_b3lyp/115550172_rwf/"
 Entering Link 1 = /home/wykgroup/appl/g16/l1.exe PID=     20552.
  
 Copyright (c) 1988-2017, Gaussian, Inc.  All Rights Reserved.
  
 This is part of the Gaussian(R) 16 program.  It is based on
 the Gaussian(R) 09 system (copyright 2009, Gaussian, Inc.),
 the Gaussian(R) 03 system (copyright 2003, Gaussian, Inc.),
 the Gaussian(R) 98 system (copyright 1998, Gaussian, Inc.),
 the Gaussian(R) 94 system (copyright 1995, Gaussian, Inc.),
 the Gaussian 92(TM) system (copyright 1992, Gaussian, Inc.),
 the Gaussian 90(TM) system (copyright 1990, Gaussian, Inc.),
 the Gaussian 88(TM) system (copyright 1988, Gaussian, Inc.),
 the Gaussian 86(TM) system (copyright 1986, Carnegie Mellon
 University), and the Gaussian 82(TM) system (copyright 1983,
 Carnegie Mellon University). Gaussian is a federally registered
 trademark of Gaussian, Inc.
  
 This software contains proprietary and confidential information,
 including trade secrets, belonging to Gaussian, Inc.
  
 This software is provided under written license and may be
 used, copied, transmitted, or stored only in accord with that
 written license.
  
 The following legend is applicable only to US Government
 contracts under FAR:
  
                    RESTRICTED RIGHTS LEGEND
  
 Use, reproduction and disclosure by the US Government is
 subject to restrictions as set forth in subparagraphs (a)
 and (c) of the Commercial Computer Software - Restricted
 Rights clause in FAR 52.227-19.
  
 Gaussian, Inc.
 340 Quinnipiac St., Bldg. 40, Wallingford CT 06492
  
  
 ---------------------------------------------------------------
 Warning -- This program may not be used in any manner that
 competes with the business of Gaussian, Inc. or will provide
 assistance to any competitor of Gaussian, Inc.  The licensee
 of this program is prohibited from giving any competitor of
 Gaussian, Inc. access to this program.  By using this program,
 the user acknowledges that Gaussian, Inc. is engaged in the
 business of creating and licensing software in the field of
 computational chemistry and represents and warrants to the
 licensee that it is not a competitor of Gaussian, Inc. and that
 it will not use this program in any manner prohibited above.
 ---------------------------------------------------------------
  

 Cite this work as:
 Gaussian 16, Revision B.01,
 M. J. Frisch, G. W. Trucks, H. B. Schlegel, G. E. Scuseria, 
 M. A. Robb, J. R. Cheeseman, G. Scalmani, V. Barone, 
 G. A. Petersson, H. Nakatsuji, X. Li, M. Caricato, A. V. Marenich, 
 J. Bloino, B. G. Janesko, R. Gomperts, B. Mennucci, H. P. Hratchian, 
 J. V. Ortiz, A. F. Izmaylov, J. L. Sonnenberg, D. Williams-Young, 
 F. Ding, F. Lipparini, F. Egidi, J. Goings, B. Peng, A. Petrone, 
 T. Henderson, D. Ranasinghe, V. G. Zakrzewski, J. Gao, N. Rega, 
 G. Zheng, W. Liang, M. Hada, M. Ehara, K. Toyota, R. Fukuda, 
 J. Hasegawa, M. Ishida, T. Nakajima, Y. Honda, O. Kitao, H. Nakai, 
 T. Vreven, K. Throssell, J. A. Montgomery, Jr., J. E. Peralta, 
 F. Ogliaro, M. J. Bearpark, J. J. Heyd, E. N. Brothers, K. N. Kudin, 
 V. N. Staroverov, T. A. Keith, R. Kobayashi, J. Normand, 
 K. Raghavachari, A. P. Rendell, J. C. Burant, S. S. Iyengar, 
 J. Tomasi, M. Cossi, J. M. Millam, M. Klene, C. Adamo, R. Cammi, 
 J. W. Ochterski, R. L. Martin, K. Morokuma, O. Farkas, 
 J. B. Foresman, and D. J. Fox, Gaussian, Inc., Wallingford CT, 2016.
 
 ******************************************
 Gaussian 16:  ES64L-G16RevB.01 20-Dec-2017
                 5-Nov-2022 
 ******************************************
 %chk=calculation/no_transfer_pubchem_sampling_1_b3lyp/115550172_rwf.chk
 %rwf=calculation/no_transfer_pubchem_sampling_1_b3lyp/115550172_rwf.rwf
 %nprocshared=14
 Will use up to   14 processors via shared memory.
 %mem=3GB
 -------------------------------------------------------------------
 #p b3lyp/6-31g(d) 6D 10F nosymm GFInput td=(50-50,nstate=2) SCF=XQC
 -------------------------------------------------------------------
 1/38=1,172=1/1;
 2/12=2,15=1,17=6,18=5,40=1/2;
 3/5=1,6=6,7=1,8=22,11=9,24=10,25=1,30=1,74=-5/1,2,3,8;
 4//1;
 5/5=2,8=3,13=1,38=5/2,8;
 8/6=1,10=2,108=2/1;
 9/41=2,42=1,48=2,70=2/14;
 6/7=2,8=2,9=2,10=2/1;
 99/5=1,9=1/99;
 Leave Link    1 at Sat Nov  5 11:27:54 2022, MaxMem=   402653184 cpu:               2.4 elap:               0.4
 (Enter /home/wykgroup/appl/g16/l101.exe)
 ------------------------------
 Gaussian input prepared by ASE
 ------------------------------
 Symbolic Z-matrix:
 Charge =  0 Multiplicity = 1
 C                     0.89945   2.23593   0.79644 
 C                     1.52677   1.07586   0.05544 
 C                     2.83268   1.21226  -0.43547 
 C                     3.45857   0.15896  -1.09998 
 C                     2.79654  -1.04999  -1.28257 
 C                     1.48589  -1.21075  -0.8098 
 N                     0.81886  -2.429    -0.93465 
 C                     0.83577  -0.13563  -0.14915 
 N                    -0.49981  -0.38737   0.29529 
 C                    -0.68706  -0.91264   1.66128 
 C                    -2.1874   -0.68224   1.96509 
 C                    -2.79868  -0.27948   0.61056 
 C                    -1.6463    0.44298  -0.10249 
 C                    -1.79539   0.53556  -1.61875 
 H                     0.33465   1.90586   1.67424 
 H                     0.20611   2.80483   0.16312 
 H                     1.67191   2.93273   1.13717 
 H                     3.36279   2.14848  -0.27936 
 H                     4.4734    0.27778  -1.4714 
 H                     3.28707  -1.87798  -1.78968 
 H                     1.09469  -2.98655  -1.73358 
 H                    -0.18677  -2.31269  -0.85566 
 H                    -0.40655  -1.97344   1.69287 
 H                    -0.05019  -0.39367   2.39403 
 H                    -2.30304   0.13531   2.6858 
 H                    -2.66642  -1.56518   2.39944 
 H                    -3.68833   0.35105   0.71285 
 H                    -3.07992  -1.16913   0.03256 
 H                    -1.58392   1.47015   0.29993 
 H                    -0.91481   0.99907  -2.07641 
 H                    -2.6707    1.14118  -1.88076 
 H                    -1.91987  -0.46224  -2.0564 
 
 ITRead=  0  0  0  0  0  0  0  0  0  0  0  0  0  0  0  0  0  0  0  0
 ITRead=  0  0  0  0  0  0  0  0  0  0  0  0
 MicOpt= -1 -1 -1 -1 -1 -1 -1 -1 -1 -1 -1 -1 -1 -1 -1 -1 -1 -1 -1 -1
 MicOpt= -1 -1 -1 -1 -1 -1 -1 -1 -1 -1 -1 -1
 NAtoms=     32 NQM=       32 NQMF=       0 NMMI=      0 NMMIF=      0
                NMic=       0 NMicF=      0.
                    Isotopes and Nuclear Properties:
 (Nuclear quadrupole moments (NQMom) in fm**2, nuclear magnetic moments (NMagM)
  in nuclear magnetons)

  Atom         1           2           3           4           5           6           7           8           9          10
 IAtWgt=          12          12          12          12          12          12          14          12          14          12
 AtmWgt=  12.0000000  12.0000000  12.0000000  12.0000000  12.0000000  12.0000000  14.0030740  12.0000000  14.0030740  12.0000000
 NucSpn=           0           0           0           0           0           0           2           0           2           0
 AtZEff=  -0.0000000  -0.0000000  -0.0000000  -0.0000000  -0.0000000  -0.0000000  -0.0000000  -0.0000000  -0.0000000  -0.0000000
 NQMom=    0.0000000   0.0000000   0.0000000   0.0000000   0.0000000   0.0000000   2.0440000   0.0000000   2.0440000   0.0000000
 NMagM=    0.0000000   0.0000000   0.0000000   0.0000000   0.0000000   0.0000000   0.4037610   0.0000000   0.4037610   0.0000000
 AtZNuc=   6.0000000   6.0000000   6.0000000   6.0000000   6.0000000   6.0000000   7.0000000   6.0000000   7.0000000   6.0000000

  Atom        11          12          13          14          15          16          17          18          19          20
 IAtWgt=          12          12          12          12           1           1           1           1           1           1
 AtmWgt=  12.0000000  12.0000000  12.0000000  12.0000000   1.0078250   1.0078250   1.0078250   1.0078250   1.0078250   1.0078250
 NucSpn=           0           0           0           0           1           1           1           1           1           1
 AtZEff=  -0.0000000  -0.0000000  -0.0000000  -0.0000000  -0.0000000  -0.0000000  -0.0000000  -0.0000000  -0.0000000  -0.0000000
 NQMom=    0.0000000   0.0000000   0.0000000   0.0000000   0.0000000   0.0000000   0.0000000   0.0000000   0.0000000   0.0000000
 NMagM=    0.0000000   0.0000000   0.0000000   0.0000000   2.7928460   2.7928460   2.7928460   2.7928460   2.7928460   2.7928460
 AtZNuc=   6.0000000   6.0000000   6.0000000   6.0000000   1.0000000   1.0000000   1.0000000   1.0000000   1.0000000   1.0000000

  Atom        21          22          23          24          25          26          27          28          29          30
 IAtWgt=           1           1           1           1           1           1           1           1           1           1
 AtmWgt=   1.0078250   1.0078250   1.0078250   1.0078250   1.0078250   1.0078250   1.0078250   1.0078250   1.0078250   1.0078250
 NucSpn=           1           1           1           1           1           1           1           1           1           1
 AtZEff=  -0.0000000  -0.0000000  -0.0000000  -0.0000000  -0.0000000  -0.0000000  -0.0000000  -0.0000000  -0.0000000  -0.0000000
 NQMom=    0.0000000   0.0000000   0.0000000   0.0000000   0.0000000   0.0000000   0.0000000   0.0000000   0.0000000   0.0000000
 NMagM=    2.7928460   2.7928460   2.7928460   2.7928460   2.7928460   2.7928460   2.7928460   2.7928460   2.7928460   2.7928460
 AtZNuc=   1.0000000   1.0000000   1.0000000   1.0000000   1.0000000   1.0000000   1.0000000   1.0000000   1.0000000   1.0000000

  Atom        31          32
 IAtWgt=           1           1
 AtmWgt=   1.0078250   1.0078250
 NucSpn=           1           1
 AtZEff=  -0.0000000  -0.0000000
 NQMom=    0.0000000   0.0000000
 NMagM=    2.7928460   2.7928460
 AtZNuc=   1.0000000   1.0000000
 Leave Link  101 at Sat Nov  5 11:27:55 2022, MaxMem=   402653184 cpu:               2.0 elap:               0.4
 (Enter /home/wykgroup/appl/g16/l202.exe)
                          Input orientation:                          
 ---------------------------------------------------------------------
 Center     Atomic      Atomic             Coordinates (Angstroms)
 Number     Number       Type             X           Y           Z
 ---------------------------------------------------------------------
      1          6           0        0.899447    2.235929    0.796443
      2          6           0        1.526774    1.075860    0.055443
      3          6           0        2.832682    1.212255   -0.435466
      4          6           0        3.458566    0.158956   -1.099979
      5          6           0        2.796538   -1.049987   -1.282566
      6          6           0        1.485887   -1.210752   -0.809800
      7          7           0        0.818863   -2.428996   -0.934650
      8          6           0        0.835767   -0.135630   -0.149152
      9          7           0       -0.499815   -0.387371    0.295293
     10          6           0       -0.687058   -0.912644    1.661278
     11          6           0       -2.187402   -0.682241    1.965091
     12          6           0       -2.798684   -0.279475    0.610561
     13          6           0       -1.646300    0.442982   -0.102488
     14          6           0       -1.795386    0.535563   -1.618750
     15          1           0        0.334654    1.905858    1.674237
     16          1           0        0.206115    2.804834    0.163117
     17          1           0        1.671911    2.932725    1.137168
     18          1           0        3.362789    2.148484   -0.279364
     19          1           0        4.473403    0.277778   -1.471399
     20          1           0        3.287075   -1.877985   -1.789680
     21          1           0        1.094692   -2.986552   -1.733578
     22          1           0       -0.186767   -2.312687   -0.855657
     23          1           0       -0.406554   -1.973439    1.692867
     24          1           0       -0.050187   -0.393671    2.394032
     25          1           0       -2.303043    0.135313    2.685795
     26          1           0       -2.666418   -1.565184    2.399443
     27          1           0       -3.688329    0.351045    0.712846
     28          1           0       -3.079924   -1.169125    0.032557
     29          1           0       -1.583918    1.470149    0.299928
     30          1           0       -0.914809    0.999066   -2.076409
     31          1           0       -2.670697    1.141184   -1.880759
     32          1           0       -1.919871   -0.462241   -2.056401
 ---------------------------------------------------------------------
                    Distance matrix (angstroms):
                    1          2          3          4          5
     1  C    0.000000
     2  C    1.512740   0.000000
     3  C    2.510559   1.401781   0.000000
     4  C    3.802542   2.430542   1.393825   0.000000
     5  C    4.326486   2.814568   2.415911   1.390382   0.000000
     6  C    3.847537   2.445182   2.797311   2.419042   1.402554
     7  N    4.976415   3.710181   4.190867   3.700387   2.435961
     8  C    2.553918   1.409631   2.426199   2.805339   2.442396
     9  N    3.015093   2.511102   3.768069   4.232497   3.714113
    10  C    3.630213   3.381406   4.615203   5.095003   4.562950
    11  C    4.405689   4.531312   5.878184   6.479138   5.960048
    12  C    4.476381   4.566693   5.918760   6.501642   5.956855
    13  C    3.240920   3.239426   4.556747   5.209157   4.833255
    14  C    3.998315   3.759201   4.824633   5.292916   4.869574
    15  H    1.094742   2.174981   3.342465   4.528440   4.851863
    16  H    1.097936   2.178322   3.129451   4.378872   4.864148
    17  H    1.094677   2.153867   2.603955   3.986322   4.793944
    18  H    2.689435   2.152572   1.087155   2.154253   3.399599
    19  H    4.663757   3.413328   2.153688   1.087183   2.147207
    20  H    5.414156   3.902350   3.404402   2.157365   1.087829
    21  H    5.806328   4.459875   4.726065   3.985419   2.617245
    22  H    4.959759   3.904943   4.660349   4.411028   3.267533
    23  H    4.497554   3.964485   5.017081   5.223624   4.468306
    24  H    3.220077   3.180461   4.346952   4.982455   4.695952
    25  H    4.270619   4.740346   6.105551   6.894112   6.569517
    26  H    5.452840   5.481999   6.781665   7.261821   6.608063
    27  H    4.960591   5.306114   6.677117   7.375727   6.928064
    28  H    5.292761   5.124662   6.391317   6.767444   6.023002
    29  H    2.645760   3.145098   4.484826   5.394961   5.295636
    30  H    3.615885   3.242224   4.096563   4.559123   4.313108
    31  H    4.594759   4.622977   5.690440   6.256377   5.920281
    32  H    4.833984   4.324928   5.293216   5.498019   4.815473
                    6          7          8          9         10
     6  C    0.000000
     7  N    1.394499   0.000000
     8  C    1.419507   2.424216   0.000000
     9  N    2.417064   2.723950   1.429924   0.000000
    10  C    3.304056   3.362434   2.490060   1.475428   0.000000
    11  C    4.633832   4.527393   3.729392   2.392306   1.548038
    12  C    4.608932   4.482718   3.715789   2.322894   2.442104
    13  C    3.611887   3.875278   2.549045   1.470423   2.422548
    14  C    3.804046   4.011346   3.087586   2.488749   3.752902
    15  H    4.148377   5.082490   2.782720   2.802984   2.998002
    16  H    4.325427   5.382707   3.023293   3.271999   4.106322
    17  H    4.581888   5.811039   3.430533   4.055636   4.541617
    18  H    3.884404   5.277716   3.408808   4.656232   5.434874
    19  H    3.402748   4.579344   3.892511   5.319448   6.153140
    20  H    2.156303   2.669599   3.425791   4.572699   5.351142
    21  H    2.039575   1.012540   3.271881   3.662583   4.358988
    22  H    2.003531   1.015411   2.506851   2.264846   2.923247
    23  H    3.228988   2.934795   2.883389   2.116016   1.097710
    24  H    3.645777   3.997239   2.705418   2.146372   1.100848
    25  H    5.327952   5.424906   4.238215   3.039627   2.181572
    26  H    5.259895   4.899952   4.561169   3.241737   2.211010
    27  H    5.615174   5.545959   4.631128   3.299430   3.391764
    28  H    4.643052   4.209906   4.053859   2.708715   2.905912
    29  H    4.224030   4.743508   2.938549   2.150739   2.887098
    30  H    3.500134   4.007598   2.840136   2.778380   4.204379
    31  H    4.894461   5.081175   4.113880   3.432843   4.549622
    32  H    3.703170   3.553465   3.367168   2.748205   3.942566
                   11         12         13         14         15
    11  C    0.000000
    12  C    1.539688   0.000000
    13  C    2.415327   1.535700   0.000000
    14  C    3.805344   2.576960   1.526384   0.000000
    15  H    3.625413   3.965463   3.036599   4.154340   0.000000
    16  H    4.597361   4.329202   3.013359   3.511502   1.762998
    17  H    5.352358   5.530078   4.329676   5.036231   1.769507
    18  H    6.622326   6.682118   5.294431   5.567965   3.611789
    19  H    7.556285   7.584745   6.273116   6.275817   5.447469
    20  H    6.745221   6.734453   5.707161   5.629017   5.918866
    21  H    5.455470   5.289767   4.683503   4.557525   6.010536
    22  H    3.823286   3.620201   3.207992   3.358942   4.946551
    23  H    2.216465   3.124610   3.255666   4.380725   3.949516
    24  H    2.198852   3.278421   3.078990   4.473435   2.440090
    25  H    1.095984   2.173547   2.881058   4.352818   3.333996
    26  H    1.094397   2.206952   3.366457   4.617110   4.645481
    27  H    2.211013   1.095211   2.200706   3.008924   4.418836
    28  H    2.183653   1.097571   2.161575   2.698670   4.879547
    29  H    2.787427   2.152519   1.104944   2.144643   2.399892
    30  H    4.558510   3.521855   2.177308   1.095309   4.055955
    31  H    4.283575   2.870772   2.167746   1.096173   4.717506
    32  H    4.036382   2.813966   2.170725   1.096653   4.960689
                   16         17         18         19         20
    16  H    0.000000
    17  H    1.764565   0.000000
    18  H    3.254408   2.341082   0.000000
    19  H    5.221820   4.658511   2.480717   0.000000
    20  H    5.935867   5.858167   4.301075   2.481127   0.000000
    21  H    6.158505   6.603954   5.798931   4.705346   2.457358
    22  H    5.232712   5.911039   5.730053   5.367200   3.623388
    23  H    5.054442   5.357169   5.923503   6.236549   5.077414
    24  H    3.908082   3.950979   5.025734   5.987928   5.553733
    25  H    4.448159   5.101374   6.704228   7.951276   7.438593
    26  H    5.687676   6.375392   7.570910   8.328084   7.286335
    27  H    4.635728   5.964670   7.343946   8.449271   7.738700
    28  H    5.158241   6.373796   7.253439   7.836337   6.660459
    29  H    2.237033   3.666131   5.026492   6.422654   6.269213
    30  H    3.087514   4.556010   4.779997   5.469838   5.100535
    31  H    3.901437   5.583525   6.323138   7.207720   6.679725
    32  H    4.485517   5.884350   6.154693   6.462493   5.402569
                   21         22         23         24         25
    21  H    0.000000
    22  H    1.693215   0.000000
    23  H    3.875650   2.580381   0.000000
    24  H    5.007090   3.776474   1.764737   0.000000
    25  H    6.389171   4.797209   3.004898   2.332447   0.000000
    26  H    5.766117   4.159700   2.402688   2.866555   1.762308
    27  H    6.324702   4.670826   4.139290   4.076404   2.420348
    28  H    4.883616   3.235277   3.248147   3.918827   3.056922
    29  H    5.583215   4.194908   3.896763   3.195533   2.826888
    30  H    4.476693   3.603886   4.827168   4.761526   5.035062
    31  H    5.589099   4.376068   5.253382   5.243729   4.690455
    32  H    3.945118   2.805278   4.316348   4.827710   4.795031
                   26         27         28         29         30
    26  H    0.000000
    27  H    2.749699   0.000000
    28  H    2.435158   1.773096   0.000000
    29  H    3.846169   2.418976   3.045537   0.000000
    30  H    5.447638   3.986514   3.719747   2.513285   0.000000
    31  H    5.064047   2.895977   3.027503   2.458598   1.772462
    32  H    4.650630   3.384910   2.491818   3.065825   1.773688
                   31         32
    31  H    0.000000
    32  H    1.779203   0.000000
 Symmetry turned off by external request.
 Stoichiometry    C12H18N2
 Framework group  C1[X(C12H18N2)]
 Deg. of freedom    90
 Full point group                 C1      NOp   1
 Rotational constants (GHZ):           1.1268321           0.5346935           0.4657960
 Leave Link  202 at Sat Nov  5 11:27:55 2022, MaxMem=   402653184 cpu:               1.2 elap:               0.3
 (Enter /home/wykgroup/appl/g16/l301.exe)
 Standard basis: 6-31G(d) (6D, 10F)
 Ernie: Thresh=  0.10000D-02 Tol=  0.10000D-05 Strict=F.
 AO basis set in the form of general basis input (Overlap normalization):
      1 0
 S   6 1.00       0.000000000000
      0.3047524880D+04  0.1834737132D-02
      0.4573695180D+03  0.1403732281D-01
      0.1039486850D+03  0.6884262226D-01
      0.2921015530D+02  0.2321844432D+00
      0.9286662960D+01  0.4679413484D+00
      0.3163926960D+01  0.3623119853D+00
 SP   3 1.00       0.000000000000
      0.7868272350D+01 -0.1193324198D+00  0.6899906659D-01
      0.1881288540D+01 -0.1608541517D+00  0.3164239610D+00
      0.5442492580D+00  0.1143456438D+01  0.7443082909D+00
 SP   1 1.00       0.000000000000
      0.1687144782D+00  0.1000000000D+01  0.1000000000D+01
 D   1 1.00       0.000000000000
      0.8000000000D+00  0.1000000000D+01
 ****
      2 0
 S   6 1.00       0.000000000000
      0.3047524880D+04  0.1834737132D-02
      0.4573695180D+03  0.1403732281D-01
      0.1039486850D+03  0.6884262226D-01
      0.2921015530D+02  0.2321844432D+00
      0.9286662960D+01  0.4679413484D+00
      0.3163926960D+01  0.3623119853D+00
 SP   3 1.00       0.000000000000
      0.7868272350D+01 -0.1193324198D+00  0.6899906659D-01
      0.1881288540D+01 -0.1608541517D+00  0.3164239610D+00
      0.5442492580D+00  0.1143456438D+01  0.7443082909D+00
 SP   1 1.00       0.000000000000
      0.1687144782D+00  0.1000000000D+01  0.1000000000D+01
 D   1 1.00       0.000000000000
      0.8000000000D+00  0.1000000000D+01
 ****
      3 0
 S   6 1.00       0.000000000000
      0.3047524880D+04  0.1834737132D-02
      0.4573695180D+03  0.1403732281D-01
      0.1039486850D+03  0.6884262226D-01
      0.2921015530D+02  0.2321844432D+00
      0.9286662960D+01  0.4679413484D+00
      0.3163926960D+01  0.3623119853D+00
 SP   3 1.00       0.000000000000
      0.7868272350D+01 -0.1193324198D+00  0.6899906659D-01
      0.1881288540D+01 -0.1608541517D+00  0.3164239610D+00
      0.5442492580D+00  0.1143456438D+01  0.7443082909D+00
 SP   1 1.00       0.000000000000
      0.1687144782D+00  0.1000000000D+01  0.1000000000D+01
 D   1 1.00       0.000000000000
      0.8000000000D+00  0.1000000000D+01
 ****
      4 0
 S   6 1.00       0.000000000000
      0.3047524880D+04  0.1834737132D-02
      0.4573695180D+03  0.1403732281D-01
      0.1039486850D+03  0.6884262226D-01
      0.2921015530D+02  0.2321844432D+00
      0.9286662960D+01  0.4679413484D+00
      0.3163926960D+01  0.3623119853D+00
 SP   3 1.00       0.000000000000
      0.7868272350D+01 -0.1193324198D+00  0.6899906659D-01
      0.1881288540D+01 -0.1608541517D+00  0.3164239610D+00
      0.5442492580D+00  0.1143456438D+01  0.7443082909D+00
 SP   1 1.00       0.000000000000
      0.1687144782D+00  0.1000000000D+01  0.1000000000D+01
 D   1 1.00       0.000000000000
      0.8000000000D+00  0.1000000000D+01
 ****
      5 0
 S   6 1.00       0.000000000000
      0.3047524880D+04  0.1834737132D-02
      0.4573695180D+03  0.1403732281D-01
      0.1039486850D+03  0.6884262226D-01
      0.2921015530D+02  0.2321844432D+00
      0.9286662960D+01  0.4679413484D+00
      0.3163926960D+01  0.3623119853D+00
 SP   3 1.00       0.000000000000
      0.7868272350D+01 -0.1193324198D+00  0.6899906659D-01
      0.1881288540D+01 -0.1608541517D+00  0.3164239610D+00
      0.5442492580D+00  0.1143456438D+01  0.7443082909D+00
 SP   1 1.00       0.000000000000
      0.1687144782D+00  0.1000000000D+01  0.1000000000D+01
 D   1 1.00       0.000000000000
      0.8000000000D+00  0.1000000000D+01
 ****
      6 0
 S   6 1.00       0.000000000000
      0.3047524880D+04  0.1834737132D-02
      0.4573695180D+03  0.1403732281D-01
      0.1039486850D+03  0.6884262226D-01
      0.2921015530D+02  0.2321844432D+00
      0.9286662960D+01  0.4679413484D+00
      0.3163926960D+01  0.3623119853D+00
 SP   3 1.00       0.000000000000
      0.7868272350D+01 -0.1193324198D+00  0.6899906659D-01
      0.1881288540D+01 -0.1608541517D+00  0.3164239610D+00
      0.5442492580D+00  0.1143456438D+01  0.7443082909D+00
 SP   1 1.00       0.000000000000
      0.1687144782D+00  0.1000000000D+01  0.1000000000D+01
 D   1 1.00       0.000000000000
      0.8000000000D+00  0.1000000000D+01
 ****
      7 0
 S   6 1.00       0.000000000000
      0.4173511460D+04  0.1834772160D-02
      0.6274579110D+03  0.1399462700D-01
      0.1429020930D+03  0.6858655181D-01
      0.4023432930D+02  0.2322408730D+00
      0.1282021290D+02  0.4690699481D+00
      0.4390437010D+01  0.3604551991D+00
 SP   3 1.00       0.000000000000
      0.1162636186D+02 -0.1149611817D+00  0.6757974388D-01
      0.2716279807D+01 -0.1691174786D+00  0.3239072959D+00
      0.7722183966D+00  0.1145851947D+01  0.7408951398D+00
 SP   1 1.00       0.000000000000
      0.2120314975D+00  0.1000000000D+01  0.1000000000D+01
 D   1 1.00       0.000000000000
      0.8000000000D+00  0.1000000000D+01
 ****
      8 0
 S   6 1.00       0.000000000000
      0.3047524880D+04  0.1834737132D-02
      0.4573695180D+03  0.1403732281D-01
      0.1039486850D+03  0.6884262226D-01
      0.2921015530D+02  0.2321844432D+00
      0.9286662960D+01  0.4679413484D+00
      0.3163926960D+01  0.3623119853D+00
 SP   3 1.00       0.000000000000
      0.7868272350D+01 -0.1193324198D+00  0.6899906659D-01
      0.1881288540D+01 -0.1608541517D+00  0.3164239610D+00
      0.5442492580D+00  0.1143456438D+01  0.7443082909D+00
 SP   1 1.00       0.000000000000
      0.1687144782D+00  0.1000000000D+01  0.1000000000D+01
 D   1 1.00       0.000000000000
      0.8000000000D+00  0.1000000000D+01
 ****
      9 0
 S   6 1.00       0.000000000000
      0.4173511460D+04  0.1834772160D-02
      0.6274579110D+03  0.1399462700D-01
      0.1429020930D+03  0.6858655181D-01
      0.4023432930D+02  0.2322408730D+00
      0.1282021290D+02  0.4690699481D+00
      0.4390437010D+01  0.3604551991D+00
 SP   3 1.00       0.000000000000
      0.1162636186D+02 -0.1149611817D+00  0.6757974388D-01
      0.2716279807D+01 -0.1691174786D+00  0.3239072959D+00
      0.7722183966D+00  0.1145851947D+01  0.7408951398D+00
 SP   1 1.00       0.000000000000
      0.2120314975D+00  0.1000000000D+01  0.1000000000D+01
 D   1 1.00       0.000000000000
      0.8000000000D+00  0.1000000000D+01
 ****
     10 0
 S   6 1.00       0.000000000000
      0.3047524880D+04  0.1834737132D-02
      0.4573695180D+03  0.1403732281D-01
      0.1039486850D+03  0.6884262226D-01
      0.2921015530D+02  0.2321844432D+00
      0.9286662960D+01  0.4679413484D+00
      0.3163926960D+01  0.3623119853D+00
 SP   3 1.00       0.000000000000
      0.7868272350D+01 -0.1193324198D+00  0.6899906659D-01
      0.1881288540D+01 -0.1608541517D+00  0.3164239610D+00
      0.5442492580D+00  0.1143456438D+01  0.7443082909D+00
 SP   1 1.00       0.000000000000
      0.1687144782D+00  0.1000000000D+01  0.1000000000D+01
 D   1 1.00       0.000000000000
      0.8000000000D+00  0.1000000000D+01
 ****
     11 0
 S   6 1.00       0.000000000000
      0.3047524880D+04  0.1834737132D-02
      0.4573695180D+03  0.1403732281D-01
      0.1039486850D+03  0.6884262226D-01
      0.2921015530D+02  0.2321844432D+00
      0.9286662960D+01  0.4679413484D+00
      0.3163926960D+01  0.3623119853D+00
 SP   3 1.00       0.000000000000
      0.7868272350D+01 -0.1193324198D+00  0.6899906659D-01
      0.1881288540D+01 -0.1608541517D+00  0.3164239610D+00
      0.5442492580D+00  0.1143456438D+01  0.7443082909D+00
 SP   1 1.00       0.000000000000
      0.1687144782D+00  0.1000000000D+01  0.1000000000D+01
 D   1 1.00       0.000000000000
      0.8000000000D+00  0.1000000000D+01
 ****
     12 0
 S   6 1.00       0.000000000000
      0.3047524880D+04  0.1834737132D-02
      0.4573695180D+03  0.1403732281D-01
      0.1039486850D+03  0.6884262226D-01
      0.2921015530D+02  0.2321844432D+00
      0.9286662960D+01  0.4679413484D+00
      0.3163926960D+01  0.3623119853D+00
 SP   3 1.00       0.000000000000
      0.7868272350D+01 -0.1193324198D+00  0.6899906659D-01
      0.1881288540D+01 -0.1608541517D+00  0.3164239610D+00
      0.5442492580D+00  0.1143456438D+01  0.7443082909D+00
 SP   1 1.00       0.000000000000
      0.1687144782D+00  0.1000000000D+01  0.1000000000D+01
 D   1 1.00       0.000000000000
      0.8000000000D+00  0.1000000000D+01
 ****
     13 0
 S   6 1.00       0.000000000000
      0.3047524880D+04  0.1834737132D-02
      0.4573695180D+03  0.1403732281D-01
      0.1039486850D+03  0.6884262226D-01
      0.2921015530D+02  0.2321844432D+00
      0.9286662960D+01  0.4679413484D+00
      0.3163926960D+01  0.3623119853D+00
 SP   3 1.00       0.000000000000
      0.7868272350D+01 -0.1193324198D+00  0.6899906659D-01
      0.1881288540D+01 -0.1608541517D+00  0.3164239610D+00
      0.5442492580D+00  0.1143456438D+01  0.7443082909D+00
 SP   1 1.00       0.000000000000
      0.1687144782D+00  0.1000000000D+01  0.1000000000D+01
 D   1 1.00       0.000000000000
      0.8000000000D+00  0.1000000000D+01
 ****
     14 0
 S   6 1.00       0.000000000000
      0.3047524880D+04  0.1834737132D-02
      0.4573695180D+03  0.1403732281D-01
      0.1039486850D+03  0.6884262226D-01
      0.2921015530D+02  0.2321844432D+00
      0.9286662960D+01  0.4679413484D+00
      0.3163926960D+01  0.3623119853D+00
 SP   3 1.00       0.000000000000
      0.7868272350D+01 -0.1193324198D+00  0.6899906659D-01
      0.1881288540D+01 -0.1608541517D+00  0.3164239610D+00
      0.5442492580D+00  0.1143456438D+01  0.7443082909D+00
 SP   1 1.00       0.000000000000
      0.1687144782D+00  0.1000000000D+01  0.1000000000D+01
 D   1 1.00       0.000000000000
      0.8000000000D+00  0.1000000000D+01
 ****
     15 0
 S   3 1.00       0.000000000000
      0.1873113696D+02  0.3349460434D-01
      0.2825394365D+01  0.2347269535D+00
      0.6401216923D+00  0.8137573261D+00
 S   1 1.00       0.000000000000
      0.1612777588D+00  0.1000000000D+01
 ****
     16 0
 S   3 1.00       0.000000000000
      0.1873113696D+02  0.3349460434D-01
      0.2825394365D+01  0.2347269535D+00
      0.6401216923D+00  0.8137573261D+00
 S   1 1.00       0.000000000000
      0.1612777588D+00  0.1000000000D+01
 ****
     17 0
 S   3 1.00       0.000000000000
      0.1873113696D+02  0.3349460434D-01
      0.2825394365D+01  0.2347269535D+00
      0.6401216923D+00  0.8137573261D+00
 S   1 1.00       0.000000000000
      0.1612777588D+00  0.1000000000D+01
 ****
     18 0
 S   3 1.00       0.000000000000
      0.1873113696D+02  0.3349460434D-01
      0.2825394365D+01  0.2347269535D+00
      0.6401216923D+00  0.8137573261D+00
 S   1 1.00       0.000000000000
      0.1612777588D+00  0.1000000000D+01
 ****
     19 0
 S   3 1.00       0.000000000000
      0.1873113696D+02  0.3349460434D-01
      0.2825394365D+01  0.2347269535D+00
      0.6401216923D+00  0.8137573261D+00
 S   1 1.00       0.000000000000
      0.1612777588D+00  0.1000000000D+01
 ****
     20 0
 S   3 1.00       0.000000000000
      0.1873113696D+02  0.3349460434D-01
      0.2825394365D+01  0.2347269535D+00
      0.6401216923D+00  0.8137573261D+00
 S   1 1.00       0.000000000000
      0.1612777588D+00  0.1000000000D+01
 ****
     21 0
 S   3 1.00       0.000000000000
      0.1873113696D+02  0.3349460434D-01
      0.2825394365D+01  0.2347269535D+00
      0.6401216923D+00  0.8137573261D+00
 S   1 1.00       0.000000000000
      0.1612777588D+00  0.1000000000D+01
 ****
     22 0
 S   3 1.00       0.000000000000
      0.1873113696D+02  0.3349460434D-01
      0.2825394365D+01  0.2347269535D+00
      0.6401216923D+00  0.8137573261D+00
 S   1 1.00       0.000000000000
      0.1612777588D+00  0.1000000000D+01
 ****
     23 0
 S   3 1.00       0.000000000000
      0.1873113696D+02  0.3349460434D-01
      0.2825394365D+01  0.2347269535D+00
      0.6401216923D+00  0.8137573261D+00
 S   1 1.00       0.000000000000
      0.1612777588D+00  0.1000000000D+01
 ****
     24 0
 S   3 1.00       0.000000000000
      0.1873113696D+02  0.3349460434D-01
      0.2825394365D+01  0.2347269535D+00
      0.6401216923D+00  0.8137573261D+00
 S   1 1.00       0.000000000000
      0.1612777588D+00  0.1000000000D+01
 ****
     25 0
 S   3 1.00       0.000000000000
      0.1873113696D+02  0.3349460434D-01
      0.2825394365D+01  0.2347269535D+00
      0.6401216923D+00  0.8137573261D+00
 S   1 1.00       0.000000000000
      0.1612777588D+00  0.1000000000D+01
 ****
     26 0
 S   3 1.00       0.000000000000
      0.1873113696D+02  0.3349460434D-01
      0.2825394365D+01  0.2347269535D+00
      0.6401216923D+00  0.8137573261D+00
 S   1 1.00       0.000000000000
      0.1612777588D+00  0.1000000000D+01
 ****
     27 0
 S   3 1.00       0.000000000000
      0.1873113696D+02  0.3349460434D-01
      0.2825394365D+01  0.2347269535D+00
      0.6401216923D+00  0.8137573261D+00
 S   1 1.00       0.000000000000
      0.1612777588D+00  0.1000000000D+01
 ****
     28 0
 S   3 1.00       0.000000000000
      0.1873113696D+02  0.3349460434D-01
      0.2825394365D+01  0.2347269535D+00
      0.6401216923D+00  0.8137573261D+00
 S   1 1.00       0.000000000000
      0.1612777588D+00  0.1000000000D+01
 ****
     29 0
 S   3 1.00       0.000000000000
      0.1873113696D+02  0.3349460434D-01
      0.2825394365D+01  0.2347269535D+00
      0.6401216923D+00  0.8137573261D+00
 S   1 1.00       0.000000000000
      0.1612777588D+00  0.1000000000D+01
 ****
     30 0
 S   3 1.00       0.000000000000
      0.1873113696D+02  0.3349460434D-01
      0.2825394365D+01  0.2347269535D+00
      0.6401216923D+00  0.8137573261D+00
 S   1 1.00       0.000000000000
      0.1612777588D+00  0.1000000000D+01
 ****
     31 0
 S   3 1.00       0.000000000000
      0.1873113696D+02  0.3349460434D-01
      0.2825394365D+01  0.2347269535D+00
      0.6401216923D+00  0.8137573261D+00
 S   1 1.00       0.000000000000
      0.1612777588D+00  0.1000000000D+01
 ****
     32 0
 S   3 1.00       0.000000000000
      0.1873113696D+02  0.3349460434D-01
      0.2825394365D+01  0.2347269535D+00
      0.6401216923D+00  0.8137573261D+00
 S   1 1.00       0.000000000000
      0.1612777588D+00  0.1000000000D+01
 ****

   246 basis functions,   464 primitive gaussians,   246 cartesian basis functions
    52 alpha electrons       52 beta electrons
       nuclear repulsion energy       931.5446776636 Hartrees.
 IExCor=  402 DFT=T Ex+Corr=B3LYP ExCW=0 ScaHFX=  0.200000
 ScaDFX=  0.800000  0.720000  1.000000  0.810000 ScalE2=  1.000000  1.000000
 IRadAn=      5 IRanWt=     -1 IRanGd=            0 ICorTp=0 IEmpDi=  4
 NAtoms=   32 NActive=   32 NUniq=   32 SFac= 1.00D+00 NAtFMM=   60 NAOKFM=F Big=F
 Integral buffers will be    131072 words long.
 Regular integral format.
 Two-electron integral symmetry is turned off.
 Leave Link  301 at Sat Nov  5 11:27:56 2022, MaxMem=   402653184 cpu:               0.9 elap:               0.2
 (Enter /home/wykgroup/appl/g16/l302.exe)
 NPDir=0 NMtPBC=     1 NCelOv=     1 NCel=       1 NClECP=     1 NCelD=      1
         NCelK=      1 NCelE2=     1 NClLst=     1 CellRange=     0.0.
 One-electron integrals computed using PRISM.
 NBasis=   246 RedAO= T EigKep=  3.10D-04  NBF=   246
 NBsUse=   246 1.00D-06 EigRej= -1.00D+00 NBFU=   246
 Precomputing XC quadrature grid using
 IXCGrd= 4 IRadAn=           5 IRanWt=          -1 IRanGd=           0 AccXCQ= 0.00D+00.
 Generated NRdTot=       0 NPtTot=           0 NUsed=           0 NTot=          32
 NSgBfM=   246   246   246   246   246 MxSgAt=    32 MxSgA2=    32.
 Leave Link  302 at Sat Nov  5 11:27:58 2022, MaxMem=   402653184 cpu:              18.7 elap:               2.7
 (Enter /home/wykgroup/appl/g16/l303.exe)
 DipDrv:  MaxL=1.
 Leave Link  303 at Sat Nov  5 11:27:59 2022, MaxMem=   402653184 cpu:               1.7 elap:               0.3
 (Enter /home/wykgroup/appl/g16/l308.exe)
 Leave Link  308 at Sat Nov  5 11:27:59 2022, MaxMem=   402653184 cpu:               1.4 elap:               0.3
 (Enter /home/wykgroup/appl/g16/l401.exe)
 ExpMin= 1.61D-01 ExpMax= 4.17D+03 ExpMxC= 6.27D+02 IAcc=3 IRadAn=         5 AccDes= 0.00D+00
 Harris functional with IExCor=  402 and IRadAn=       5 diagonalized for initial guess.
 HarFok:  IExCor=  402 AccDes= 0.00D+00 IRadAn=         5 IDoV= 1 UseB2=F ITyADJ=14
 ICtDFT=  3500011 ScaDFX=  1.000000  1.000000  1.000000  1.000000
 FoFCou: FMM=F IPFlag=           0 FMFlag=      100000 FMFlg1=           0
         NFxFlg=           0 DoJE=T BraDBF=F KetDBF=T FulRan=T
         wScrn=  0.000000 ICntrl=       500 IOpCl=  0 I1Cent=   200000004 NGrid=           0
         NMat0=    1 NMatS0=      1 NMatT0=    0 NMatD0=    1 NMtDS0=    0 NMtDT0=    0
 Symmetry not used in FoFCou.
 Harris En= -577.650045126358    
 JPrj=0 DoOrth=F DoCkMO=F.
 Leave Link  401 at Sat Nov  5 11:28:01 2022, MaxMem=   402653184 cpu:              14.3 elap:               2.3
 (Enter /home/wykgroup/appl/g16/l502.exe)
 Two-electron integral symmetry not used.
 Closed shell SCF:
 Using DIIS extrapolation, IDIIS=  1040.
 NGot=   402653184 LenX=   402526320 LenY=   402465363
 Requested convergence on RMS density matrix=1.00D-08 within  32 cycles.
 Requested convergence on MAX density matrix=1.00D-06.
 Requested convergence on             energy=1.00D-06.
 No special actions if energy rises.
 Fock matrices will be formed incrementally for  20 cycles.
 Integral accuracy reduced to 1.0D-05 until final iterations.

 Cycle   1  Pass 0  IDiag  1:
 FoFJK:  IHMeth= 1 ICntrl=       0 DoSepK=F KAlg= 0 I1Cent=           0 FoldK=F
 IRaf= 920000000 NMat=       1 IRICut=       1 DoRegI=T DoRafI=F ISym2E= 0 IDoP0=0 IntGTp=1.
 FoFCou: FMM=F IPFlag=           0 FMFlag=      100000 FMFlg1=           0
         NFxFlg=           0 DoJE=F BraDBF=F KetDBF=F FulRan=T
         wScrn=  0.000000 ICntrl=         0 IOpCl=  0 I1Cent=           0 NGrid=           0
         NMat0=    1 NMatS0=      1 NMatT0=    0 NMatD0=    1 NMtDS0=    0 NMtDT0=    0
 Symmetry not used in FoFCou.
 E= -577.223870865250    
 DIIS: error= 2.91D-02 at cycle   1 NSaved=   1.
 NSaved= 1 IEnMin= 1 EnMin= -577.223870865250     IErMin= 1 ErrMin= 2.91D-02
 ErrMax= 2.91D-02  0.00D+00 EMaxC= 1.00D-01 BMatC= 3.67D-01 BMatP= 3.67D-01
 IDIUse=3 WtCom= 7.09D-01 WtEn= 2.91D-01
 Coeff-Com:  0.100D+01
 Coeff-En:   0.100D+01
 Coeff:      0.100D+01
 Gap=     0.225 Goal=   None    Shift=    0.000
 GapD=    0.225 DampG=1.000 DampE=0.500 DampFc=0.5000 IDamp=-1.
 Damping current iteration by 5.00D-01
 RMSDP=5.90D-03 MaxDP=1.41D-01              OVMax= 1.73D-01

 Cycle   2  Pass 0  IDiag  1:
 RMSU=  2.90D-03    CP:  9.73D-01
 E= -577.407420524495     Delta-E=       -0.183549659245 Rises=F Damp=T
 DIIS: error= 5.68D-03 at cycle   2 NSaved=   2.
 NSaved= 2 IEnMin= 2 EnMin= -577.407420524495     IErMin= 2 ErrMin= 5.68D-03
 ErrMax= 5.68D-03  0.00D+00 EMaxC= 1.00D-01 BMatC= 1.77D-02 BMatP= 3.67D-01
 IDIUse=3 WtCom= 9.43D-01 WtEn= 5.68D-02
 Coeff-Com:  0.358D-01 0.964D+00
 Coeff-En:   0.596D-01 0.940D+00
 Coeff:      0.371D-01 0.963D+00
 Gap=     0.242 Goal=   None    Shift=    0.000
 RMSDP=1.34D-03 MaxDP=3.18D-02 DE=-1.84D-01 OVMax= 1.05D-01

 Cycle   3  Pass 0  IDiag  1:
 RMSU=  1.28D-03    CP:  9.64D-01  8.88D-01
 E= -577.612929325894     Delta-E=       -0.205508801400 Rises=F Damp=F
 DIIS: error= 3.57D-03 at cycle   3 NSaved=   3.
 NSaved= 3 IEnMin= 3 EnMin= -577.612929325894     IErMin= 3 ErrMin= 3.57D-03
 ErrMax= 3.57D-03  0.00D+00 EMaxC= 1.00D-01 BMatC= 5.93D-03 BMatP= 1.77D-02
 IDIUse=3 WtCom= 9.64D-01 WtEn= 3.57D-02
 Coeff-Com: -0.196D-01 0.330D+00 0.689D+00
 Coeff-En:   0.000D+00 0.000D+00 0.100D+01
 Coeff:     -0.189D-01 0.319D+00 0.700D+00
 Gap=     0.200 Goal=   None    Shift=    0.000
 RMSDP=6.05D-04 MaxDP=2.08D-02 DE=-2.06D-01 OVMax= 4.76D-02

 Cycle   4  Pass 0  IDiag  1:
 RMSU=  5.21D-04    CP:  9.64D-01  9.22D-01  7.73D-01
 E= -577.614770053843     Delta-E=       -0.001840727949 Rises=F Damp=F
 DIIS: error= 3.21D-03 at cycle   4 NSaved=   4.
 NSaved= 4 IEnMin= 4 EnMin= -577.614770053843     IErMin= 4 ErrMin= 3.21D-03
 ErrMax= 3.21D-03  0.00D+00 EMaxC= 1.00D-01 BMatC= 3.81D-03 BMatP= 5.93D-03
 IDIUse=3 WtCom= 9.68D-01 WtEn= 3.21D-02
 Coeff-Com: -0.149D-01 0.853D-01 0.456D+00 0.474D+00
 Coeff-En:   0.000D+00 0.000D+00 0.422D+00 0.578D+00
 Coeff:     -0.144D-01 0.826D-01 0.455D+00 0.477D+00
 Gap=     0.198 Goal=   None    Shift=    0.000
 RMSDP=3.38D-04 MaxDP=1.03D-02 DE=-1.84D-03 OVMax= 2.80D-02

 Cycle   5  Pass 0  IDiag  1:
 RMSU=  1.45D-04    CP:  9.64D-01  9.26D-01  8.32D-01  4.34D-01
 E= -577.618684702739     Delta-E=       -0.003914648895 Rises=F Damp=F
 DIIS: error= 5.84D-04 at cycle   5 NSaved=   5.
 NSaved= 5 IEnMin= 5 EnMin= -577.618684702739     IErMin= 5 ErrMin= 5.84D-04
 ErrMax= 5.84D-04  0.00D+00 EMaxC= 1.00D-01 BMatC= 1.59D-04 BMatP= 3.81D-03
 IDIUse=3 WtCom= 9.94D-01 WtEn= 5.84D-03
 Coeff-Com: -0.558D-02 0.201D-01 0.185D+00 0.250D+00 0.550D+00
 Coeff-En:   0.000D+00 0.000D+00 0.000D+00 0.000D+00 0.100D+01
 Coeff:     -0.555D-02 0.200D-01 0.184D+00 0.249D+00 0.553D+00
 Gap=     0.199 Goal=   None    Shift=    0.000
 RMSDP=9.12D-05 MaxDP=1.94D-03 DE=-3.91D-03 OVMax= 6.29D-03

 Cycle   6  Pass 0  IDiag  1:
 RMSU=  5.04D-05    CP:  9.64D-01  9.24D-01  8.41D-01  4.87D-01  5.20D-01
 E= -577.618837812769     Delta-E=       -0.000153110030 Rises=F Damp=F
 DIIS: error= 1.92D-04 at cycle   6 NSaved=   6.
 NSaved= 6 IEnMin= 6 EnMin= -577.618837812769     IErMin= 6 ErrMin= 1.92D-04
 ErrMax= 1.92D-04  0.00D+00 EMaxC= 1.00D-01 BMatC= 2.62D-05 BMatP= 1.59D-04
 IDIUse=3 WtCom= 9.98D-01 WtEn= 1.92D-03
 Coeff-Com: -0.166D-02 0.237D-02 0.610D-01 0.981D-01 0.340D+00 0.500D+00
 Coeff-En:   0.000D+00 0.000D+00 0.000D+00 0.000D+00 0.111D+00 0.889D+00
 Coeff:     -0.165D-02 0.236D-02 0.609D-01 0.979D-01 0.340D+00 0.501D+00
 Gap=     0.199 Goal=   None    Shift=    0.000
 RMSDP=2.67D-05 MaxDP=8.00D-04 DE=-1.53D-04 OVMax= 1.35D-03

 Cycle   7  Pass 0  IDiag  1:
 RMSU=  7.78D-06    CP:  9.64D-01  9.24D-01  8.42D-01  4.90D-01  6.11D-01
                    CP:  5.67D-01
 E= -577.618863208012     Delta-E=       -0.000025395243 Rises=F Damp=F
 DIIS: error= 2.00D-05 at cycle   7 NSaved=   7.
 NSaved= 7 IEnMin= 7 EnMin= -577.618863208012     IErMin= 7 ErrMin= 2.00D-05
 ErrMax= 2.00D-05  0.00D+00 EMaxC= 1.00D-01 BMatC= 3.42D-07 BMatP= 2.62D-05
 IDIUse=1 WtCom= 1.00D+00 WtEn= 0.00D+00
 Coeff-Com: -0.469D-03 0.335D-03 0.196D-01 0.325D-01 0.127D+00 0.207D+00
 Coeff-Com:  0.614D+00
 Coeff:     -0.469D-03 0.335D-03 0.196D-01 0.325D-01 0.127D+00 0.207D+00
 Coeff:      0.614D+00
 Gap=     0.199 Goal=   None    Shift=    0.000
 RMSDP=3.75D-06 MaxDP=1.39D-04 DE=-2.54D-05 OVMax= 1.96D-04

 Initial convergence to 1.0D-05 achieved.  Increase integral accuracy.
 Cycle   8  Pass 1  IDiag  1:
 E= -577.618810442633     Delta-E=        0.000052765378 Rises=F Damp=F
 DIIS: error= 6.46D-05 at cycle   1 NSaved=   1.
 NSaved= 1 IEnMin= 1 EnMin= -577.618810442633     IErMin= 1 ErrMin= 6.46D-05
 ErrMax= 6.46D-05  0.00D+00 EMaxC= 1.00D-01 BMatC= 4.48D-07 BMatP= 4.48D-07
 IDIUse=1 WtCom= 1.00D+00 WtEn= 0.00D+00
 Coeff-Com:  0.100D+01
 Coeff:      0.100D+01
 Gap=     0.199 Goal=   None    Shift=    0.000
 RMSDP=3.75D-06 MaxDP=1.39D-04 DE= 5.28D-05 OVMax= 1.97D-04

 Cycle   9  Pass 1  IDiag  1:
 RMSU=  4.57D-05    CP:  1.00D+00
 E= -577.618810622808     Delta-E=       -0.000000180174 Rises=F Damp=F
 DIIS: error= 1.86D-05 at cycle   2 NSaved=   2.
 NSaved= 2 IEnMin= 2 EnMin= -577.618810622808     IErMin= 2 ErrMin= 1.86D-05
 ErrMax= 1.86D-05  0.00D+00 EMaxC= 1.00D-01 BMatC= 2.09D-07 BMatP= 4.48D-07
 IDIUse=1 WtCom= 1.00D+00 WtEn= 0.00D+00
 Coeff-Com:  0.367D+00 0.633D+00
 Coeff:      0.367D+00 0.633D+00
 Gap=     0.199 Goal=   None    Shift=    0.000
 RMSDP=3.86D-06 MaxDP=1.11D-04 DE=-1.80D-07 OVMax= 2.88D-04

 Cycle  10  Pass 1  IDiag  1:
 RMSU=  3.85D-06    CP:  1.00D+00  1.01D+00
 E= -577.618810698777     Delta-E=       -0.000000075969 Rises=F Damp=F
 DIIS: error= 1.57D-05 at cycle   3 NSaved=   3.
 NSaved= 3 IEnMin= 3 EnMin= -577.618810698777     IErMin= 3 ErrMin= 1.57D-05
 ErrMax= 1.57D-05  0.00D+00 EMaxC= 1.00D-01 BMatC= 1.29D-07 BMatP= 2.09D-07
 IDIUse=1 WtCom= 1.00D+00 WtEn= 0.00D+00
 Coeff-Com:  0.112D-01 0.437D+00 0.552D+00
 Coeff:      0.112D-01 0.437D+00 0.552D+00
 Gap=     0.199 Goal=   None    Shift=    0.000
 RMSDP=1.87D-06 MaxDP=5.44D-05 DE=-7.60D-08 OVMax= 1.59D-04

 Cycle  11  Pass 1  IDiag  1:
 RMSU=  5.45D-07    CP:  1.00D+00  1.01D+00  5.38D-01
 E= -577.618810822938     Delta-E=       -0.000000124161 Rises=F Damp=F
 DIIS: error= 3.17D-06 at cycle   4 NSaved=   4.
 NSaved= 4 IEnMin= 4 EnMin= -577.618810822938     IErMin= 4 ErrMin= 3.17D-06
 ErrMax= 3.17D-06  0.00D+00 EMaxC= 1.00D-01 BMatC= 5.79D-09 BMatP= 1.29D-07
 IDIUse=1 WtCom= 1.00D+00 WtEn= 0.00D+00
 Coeff-Com: -0.359D-02 0.255D+00 0.343D+00 0.405D+00
 Coeff:     -0.359D-02 0.255D+00 0.343D+00 0.405D+00
 Gap=     0.199 Goal=   None    Shift=    0.000
 RMSDP=3.63D-07 MaxDP=1.07D-05 DE=-1.24D-07 OVMax= 2.91D-05

 Cycle  12  Pass 1  IDiag  1:
 RMSU=  1.31D-07    CP:  1.00D+00  1.01D+00  5.74D-01  4.34D-01
 E= -577.618810829106     Delta-E=       -0.000000006168 Rises=F Damp=F
 DIIS: error= 3.80D-07 at cycle   5 NSaved=   5.
 NSaved= 5 IEnMin= 5 EnMin= -577.618810829106     IErMin= 5 ErrMin= 3.80D-07
 ErrMax= 3.80D-07  0.00D+00 EMaxC= 1.00D-01 BMatC= 5.91D-11 BMatP= 5.79D-09
 IDIUse=1 WtCom= 1.00D+00 WtEn= 0.00D+00
 Coeff-Com: -0.191D-02 0.113D+00 0.151D+00 0.199D+00 0.538D+00
 Coeff:     -0.191D-02 0.113D+00 0.151D+00 0.199D+00 0.538D+00
 Gap=     0.199 Goal=   None    Shift=    0.000
 RMSDP=4.94D-08 MaxDP=1.14D-06 DE=-6.17D-09 OVMax= 3.04D-06

 Cycle  13  Pass 1  IDiag  1:
 RMSU=  3.71D-08    CP:  1.00D+00  1.01D+00  5.71D-01  4.47D-01  7.74D-01
 E= -577.618810829169     Delta-E=       -0.000000000063 Rises=F Damp=F
 DIIS: error= 9.65D-08 at cycle   6 NSaved=   6.
 NSaved= 6 IEnMin= 6 EnMin= -577.618810829169     IErMin= 6 ErrMin= 9.65D-08
 ErrMax= 9.65D-08  0.00D+00 EMaxC= 1.00D-01 BMatC= 6.65D-12 BMatP= 5.91D-11
 IDIUse=1 WtCom= 1.00D+00 WtEn= 0.00D+00
 Coeff-Com: -0.606D-03 0.313D-01 0.408D-01 0.614D-01 0.285D+00 0.582D+00
 Coeff:     -0.606D-03 0.313D-01 0.408D-01 0.614D-01 0.285D+00 0.582D+00
 Gap=     0.199 Goal=   None    Shift=    0.000
 RMSDP=1.52D-08 MaxDP=3.63D-07 DE=-6.28D-11 OVMax= 1.05D-06

 Cycle  14  Pass 1  IDiag  1:
 RMSU=  1.11D-08    CP:  1.00D+00  1.01D+00  5.71D-01  4.53D-01  8.07D-01
                    CP:  7.72D-01
 E= -577.618810829174     Delta-E=       -0.000000000005 Rises=F Damp=F
 DIIS: error= 3.10D-08 at cycle   7 NSaved=   7.
 NSaved= 7 IEnMin= 7 EnMin= -577.618810829174     IErMin= 7 ErrMin= 3.10D-08
 ErrMax= 3.10D-08  0.00D+00 EMaxC= 1.00D-01 BMatC= 5.01D-13 BMatP= 6.65D-12
 IDIUse=1 WtCom= 1.00D+00 WtEn= 0.00D+00
 Coeff-Com: -0.627D-04 0.133D-02 0.103D-02 0.544D-02 0.705D-01 0.261D+00
 Coeff-Com:  0.661D+00
 Coeff:     -0.627D-04 0.133D-02 0.103D-02 0.544D-02 0.705D-01 0.261D+00
 Coeff:      0.661D+00
 Gap=     0.199 Goal=   None    Shift=    0.000
 RMSDP=5.02D-09 MaxDP=1.27D-07 DE=-4.77D-12 OVMax= 4.06D-07

 SCF Done:  E(RB3LYP) =  -577.618810829     A.U. after   14 cycles
            NFock= 14  Conv=0.50D-08     -V/T= 2.0099
 KE= 5.719568426813D+02 PE=-3.201518164875D+03 EE= 1.120397833701D+03
 Leave Link  502 at Sat Nov  5 11:28:51 2022, MaxMem=   402653184 cpu:             344.2 elap:              50.2
 (Enter /home/wykgroup/appl/g16/l508.exe)
 QCSCF skips out because SCF is already converged.
 Leave Link  508 at Sat Nov  5 11:28:52 2022, MaxMem=   402653184 cpu:               0.4 elap:               0.1
 (Enter /home/wykgroup/appl/g16/l801.exe)
 DoSCS=F DFT=T ScalE2(SS,OS)=  1.000000  1.000000
 ExpMin= 1.61D-01 ExpMax= 4.17D+03 ExpMxC= 6.27D+02 IAcc=3 IRadAn=         5 AccDes= 0.00D+00
 HarFok:  IExCor=  205 AccDes= 0.00D+00 IRadAn=         5 IDoV=-2 UseB2=F ITyADJ=14
 ICtDFT= 12500011 ScaDFX=  1.000000  1.000000  1.000000  1.000000
 Largest valence mixing into a core orbital is  5.77D-05
 Largest core mixing into a valence orbital is  1.41D-05
 Range of M.O.s used for correlation:    15   246
 NBasis=   246 NAE=    52 NBE=    52 NFC=    14 NFV=     0
 NROrb=    232 NOA=    38 NOB=    38 NVA=   194 NVB=   194
 Leave Link  801 at Sat Nov  5 11:28:53 2022, MaxMem=   402653184 cpu:              11.8 elap:               1.9
 (Enter /home/wykgroup/appl/g16/l914.exe)
 RHF ground state
 Two-electron integral symmetry not used.
 MDV=   402653184 DFT=T DoStab=F Mixed=T DoRPA=T DoScal=F NonHer=T
 Making orbital integer symmetry assigments:
    16 initial guesses have been made.
 Convergence on wavefunction:    0.001000000000000
 Davidson Disk Diagonalization:  ConvIn= 1.00D-03 SkipCon=T Conv= 1.00D-03.
 Max sub-space:  2000 roots to seek:    16 dimension of matrix:        14744
 Iteration     1 Dimension    16 NMult     0 NNew     16
 CISAX will form    16 AO SS matrices at one time.
 NMat=    16 NSing=     8 JSym2X= 0.
 FoFJK:  IHMeth= 1 ICntrl=       0 DoSepK=F KAlg= 0 I1Cent=           0 FoldK=F
 IRaf= 920000000 NMat=      32 IRICut=      40 DoRegI=T DoRafI=T ISym2E= 0 IDoP0=0 IntGTp=1.
 FoFCou: FMM=F IPFlag=           0 FMFlag=      100000 FMFlg1=           0
         NFxFlg=           0 DoJE=F BraDBF=F KetDBF=F FulRan=T
         wScrn=  0.000000 ICntrl=         0 IOpCl=  0 I1Cent=           0 NGrid=           0
         NMat0=   32 NMatS0=      8 NMatT0=    8 NMatD0=   32 NMtDS0=    0 NMtDT0=    0
 Symmetry not used in FoFCou.
 Raff kept on since  89.06% of shell-pairs survive, threshold=   0.20 IRatSp=89.
 New state      1 was old state      2
 New state      2 was old state      6
 New state      3 was old state      4
 New state      4 was old state      1
 New state      5 was old state     10
 New state      6 was old state      3
 New state      7 was old state      8
 New state      8 was old state      7
 Excitation Energies [eV] at current iteration:
 Root      1 :     3.918575437111636
 Root      2 :     4.018689184582876
 Root      3 :     4.416681966636113
 Root      4 :     4.834102995084248
 Root      5 :     4.932451661219133
 Root      6 :     4.990421464568302
 Root      7 :     5.150024470295417
 Root      8 :     5.472834862472527
 Root      9 :     5.635044357276301
 Root     10 :     6.198266452674762
 Root     11 :     6.321418161390932
 Root     12 :     6.347533795505860
 Root     13 :     6.494335298593207
 Root     14 :     6.736204150927326
 Root     15 :     7.734341203177059
 Root     16 :     7.791226996018826
 Vector   3 SDiff=5.27D-01 TDiff=5.96D+00 assumed to be singlet.
 Vector   7 SDiff=5.31D-01 TDiff=4.93D+00 assumed to be singlet.
 Iteration     2 Dimension    24 NMult    16 NNew      8
 CISAX will form     8 AO SS matrices at one time.
 NMat=     8 NSing=     4 JSym2X= 0.
 New state      1 was old state      2
 Root      1 not converged, maximum delta is    0.438541927266108
 New state      2 was old state      1
 Root      2 not converged, maximum delta is    0.384319327722545
 New state      3 was old state      4
 Root      3 not converged, maximum delta is    0.111670713508371
 New state      4 was old state      6
 Root      4 not converged, maximum delta is    0.083217199366082
 Excitation Energies [eV] at current iteration:
 Root      1 :     3.584269532522883   Change is   -0.434419652059993
 Root      2 :     3.851876049863153   Change is   -0.066699387248483
 Root      3 :     4.681871576145022   Change is   -0.152231418939227
 Root      4 :     4.895566409160624   Change is   -0.094855055407678
 Iteration     3 Dimension    32 NMult    24 NNew      8
 CISAX will form     8 AO SS matrices at one time.
 NMat=     8 NSing=     4 JSym2X= 0.
 Root      1 not converged, maximum delta is    0.011999863328702
 Root      2 not converged, maximum delta is    0.009400831514347
 Root      3 not converged, maximum delta is    0.021193635482018
 Root      4 not converged, maximum delta is    0.017026204241916
 Excitation Energies [eV] at current iteration:
 Root      1 :     3.563730970108798   Change is   -0.020538562414085
 Root      2 :     3.848622819984090   Change is   -0.003253229879063
 Root      3 :     4.659415990062993   Change is   -0.022455586082028
 Root      4 :     4.879152679643926   Change is   -0.016413729516699
 Iteration     4 Dimension    40 NMult    32 NNew      8
 CISAX will form     8 AO SS matrices at one time.
 NMat=     8 NSing=     4 JSym2X= 0.
 Root      1 not converged, maximum delta is    0.002983998169806
 Root      2 has converged.
 Root      3 not converged, maximum delta is    0.002554917376680
 Root      4 not converged, maximum delta is    0.002104222689188
 Excitation Energies [eV] at current iteration:
 Root      1 :     3.562801075138846   Change is   -0.000929894969952
 Root      2 :     3.848414356849466   Change is   -0.000208463134624
 Root      3 :     4.657715816922995   Change is   -0.001700173139998
 Root      4 :     4.878095953166751   Change is   -0.001056726477174
 Iteration     5 Dimension    46 NMult    40 NNew      6
 CISAX will form     6 AO SS matrices at one time.
 NMat=     6 NSing=     4 JSym2X= 0.
 Root      1 has converged.
 Root      2 has converged.
 Root      3 has converged.
 Root      4 has converged.
 Excitation Energies [eV] at current iteration:
 Root      1 :     3.562759667124929   Change is   -0.000041408013917
 Root      2 :     3.848412330788157   Change is   -0.000002026061308
 Root      3 :     4.657570121068153   Change is   -0.000145695854842
 Root      4 :     4.877983702587362   Change is   -0.000112250579389
 Convergence achieved on expansion vectors.
 ***********************************************************************
 Excited states from <AA,BB:AA,BB> singles matrix:
 ***********************************************************************
 
 1PDM for each excited state written to RWF  633
 Ground to excited state transition densities written to RWF  633
 Ground to excited state transition electric dipole moments (Au):
       state          X           Y           Z        Dip. S.      Osc.
         1         0.0000      0.0000     -0.0000      0.0000      0.0000
         2         0.0000     -0.0000     -0.0000      0.0000      0.0000
         3        -0.6731      0.1125      0.3137      0.5640      0.0644
         4        -0.0127     -0.1663     -0.0117      0.0280      0.0033
 Ground to excited state transition velocity dipole moments (Au):
       state          X           Y           Z        Dip. S.      Osc.
         1        -0.0000      0.0000      0.0000      0.0000      0.0000
         2         0.0000      0.0000     -0.0000      0.0000      0.0000
         3         0.1194     -0.0216     -0.0499      0.0172      0.0670
         4        -0.0037      0.0287      0.0056      0.0009      0.0032
 Ground to excited state transition magnetic dipole moments (Au):
       state          X           Y           Z
         1        -0.0000     -0.0000     -0.0000
         2         0.0000     -0.0000      0.0000
         3        -0.3139      0.2738     -0.4287
         4        -0.0146     -0.1042      0.5306
 Ground to excited state transition velocity quadrupole moments (Au):
       state          XX          YY          ZZ          XY          XZ          YZ
         1         0.0000     -0.0000      0.0000     -0.0000     -0.0000      0.0000
         2         0.0000      0.0000     -0.0000      0.0000      0.0000     -0.0000
         3         0.5333      0.0185     -0.0122     -0.1405     -0.2261      0.0693
         4        -0.1758      0.1055     -0.0717      0.1107      0.1106      0.0176
 <0|del|b> * <b|rxdel|0> + <0|del|b> * <b|delr+rdel|0>
 Rotatory Strengths (R) in cgs (10**-40 erg-esu-cm/Gauss)
       state          XX          YY          ZZ    R(velocity)    E-M Angle
         1        -0.0000      0.0000      0.0000     -0.0000       90.00
         2        -0.0000      0.0000      0.0000     -0.0000       90.00
         3        36.3252    -30.6291    -96.6565    -30.3201      106.31
         4        -5.0168      4.6502      0.6002      0.0778       90.00
 1/2[<0|r|b>*<b|rxdel|0> + (<0|rxdel|b>*<b|r|0>)*]
 Rotatory Strengths (R) in cgs (10**-40 erg-esu-cm/Gauss)
       state          XX          YY          ZZ     R(length)
         1         0.0000      0.0000     -0.0000     -0.0000
         2        -0.0000     -0.0000      0.0000     -0.0000
         3      -149.4174    -21.7825     95.1010    -25.3663
         4        -0.1314    -12.2506      4.3971     -2.6617
  1/2[<0|del|b>*<b|r|0> + (<0|r|b>*<b|del|0>)*] (Au)
       state          X           Y           Z        Dip. S.   Osc.(frdel)
         1        -0.0000      0.0000     -0.0000      0.0000      0.0000
         2         0.0000     -0.0000      0.0000     -0.0000     -0.0000
         3        -0.0804     -0.0024     -0.0156      0.0984      0.0656
         4         0.0000     -0.0048     -0.0001      0.0048      0.0032

 Excitation energies and oscillator strengths:
 
 Excited state symmetry could not be determined.
 Excited State   1:      Triplet-?Sym    3.5628 eV  348.00 nm  f=0.0000  <S**2>=2.000
      50 -> 53         0.36275
      51 -> 53        -0.18774
      51 -> 54        -0.13270
      52 -> 53        -0.17081
      52 -> 54         0.52598
 This state for optimization and/or second-order correction.
 Total Energy, E(TD-HF/TD-DFT) =  -577.487881820    
 Copying the excited state density for this state as the 1-particle RhoCI density.
 
 Excited state symmetry could not be determined.
 Excited State   2:      Triplet-?Sym    3.8484 eV  322.17 nm  f=0.0000  <S**2>=2.000
      51 -> 53        -0.15810
      52 -> 53         0.66962
      52 -> 54         0.10924
 
 Excited state symmetry could not be determined.
 Excited State   3:      Singlet-?Sym    4.6576 eV  266.20 nm  f=0.0644  <S**2>=0.000
      50 -> 54        -0.17783
      51 -> 53         0.15837
      51 -> 54         0.11927
      52 -> 53         0.65048
 
 Excited state symmetry could not be determined.
 Excited State   4:      Singlet-?Sym    4.8780 eV  254.17 nm  f=0.0033  <S**2>=0.000
      50 -> 53         0.10958
      51 -> 53         0.65594
      51 -> 54        -0.12889
      52 -> 53        -0.11695
      52 -> 54        -0.12616
 SavETr:  write IOETrn=   770 NScale= 10 NData=  16 NLR=1 NState=    4 LETran=      82.
 Leave Link  914 at Sat Nov  5 11:32:34 2022, MaxMem=   402653184 cpu:            1520.7 elap:             220.4
 (Enter /home/wykgroup/appl/g16/l601.exe)
 Copying SCF densities to generalized density rwf, IOpCl= 0 IROHF=0.

 **********************************************************************

            Population analysis using the SCF Density.

 **********************************************************************

 Alpha  occ. eigenvalues --  -14.32432 -14.31898 -10.21207 -10.21061 -10.20297
 Alpha  occ. eigenvalues --  -10.19778 -10.18442 -10.18254 -10.18016 -10.17611
 Alpha  occ. eigenvalues --  -10.17507 -10.17160 -10.16915 -10.16464  -0.93239
 Alpha  occ. eigenvalues --   -0.89516  -0.82597  -0.77752  -0.75275  -0.74732
 Alpha  occ. eigenvalues --   -0.70011  -0.67400  -0.66266  -0.60083  -0.58257
 Alpha  occ. eigenvalues --   -0.57355  -0.55076  -0.51217  -0.49514  -0.47976
 Alpha  occ. eigenvalues --   -0.47322  -0.44171  -0.43888  -0.43182  -0.42081
 Alpha  occ. eigenvalues --   -0.40600  -0.40088  -0.39314  -0.38148  -0.37495
 Alpha  occ. eigenvalues --   -0.36837  -0.36466  -0.35359  -0.34464  -0.33744
 Alpha  occ. eigenvalues --   -0.33013  -0.32482  -0.31734  -0.29062  -0.22954
 Alpha  occ. eigenvalues --   -0.20315  -0.18747
 Alpha virt. eigenvalues --    0.01104   0.02926   0.07238   0.09414   0.10771
 Alpha virt. eigenvalues --    0.11030   0.12269   0.13267   0.14066   0.14625
 Alpha virt. eigenvalues --    0.15464   0.16868   0.17125   0.17709   0.18012
 Alpha virt. eigenvalues --    0.18323   0.19061   0.19635   0.20219   0.20429
 Alpha virt. eigenvalues --    0.21222   0.23347   0.23866   0.24763   0.26007
 Alpha virt. eigenvalues --    0.26436   0.28229   0.29556   0.30005   0.32232
 Alpha virt. eigenvalues --    0.35865   0.37069   0.37532   0.40842   0.49360
 Alpha virt. eigenvalues --    0.50163   0.51420   0.51882   0.52287   0.52377
 Alpha virt. eigenvalues --    0.54911   0.56373   0.57080   0.57510   0.58418
 Alpha virt. eigenvalues --    0.59355   0.60902   0.62158   0.62354   0.62571
 Alpha virt. eigenvalues --    0.64032   0.64391   0.64655   0.65690   0.66844
 Alpha virt. eigenvalues --    0.68207   0.70270   0.70798   0.72400   0.73656
 Alpha virt. eigenvalues --    0.75718   0.76999   0.79622   0.80440   0.80613
 Alpha virt. eigenvalues --    0.81850   0.83657   0.84562   0.85644   0.86233
 Alpha virt. eigenvalues --    0.86753   0.86922   0.88206   0.88631   0.89848
 Alpha virt. eigenvalues --    0.90352   0.91064   0.91450   0.92262   0.93306
 Alpha virt. eigenvalues --    0.94834   0.95183   0.95268   0.97404   0.98264
 Alpha virt. eigenvalues --    0.99781   1.00473   1.01463   1.03512   1.04691
 Alpha virt. eigenvalues --    1.07293   1.08611   1.09729   1.10882   1.12975
 Alpha virt. eigenvalues --    1.17248   1.20077   1.21915   1.25739   1.27655
 Alpha virt. eigenvalues --    1.28298   1.32278   1.35249   1.37549   1.39308
 Alpha virt. eigenvalues --    1.41350   1.42946   1.44772   1.49279   1.50764
 Alpha virt. eigenvalues --    1.52482   1.56253   1.60477   1.63636   1.68271
 Alpha virt. eigenvalues --    1.71168   1.72648   1.77071   1.78872   1.79573
 Alpha virt. eigenvalues --    1.81386   1.83227   1.85680   1.88442   1.89079
 Alpha virt. eigenvalues --    1.89872   1.90162   1.92548   1.92892   1.93493
 Alpha virt. eigenvalues --    1.95430   1.96426   1.96945   1.98712   2.01567
 Alpha virt. eigenvalues --    2.03845   2.04793   2.06607   2.10486   2.11215
 Alpha virt. eigenvalues --    2.13331   2.14788   2.17679   2.18230   2.19760
 Alpha virt. eigenvalues --    2.21115   2.23098   2.24543   2.27506   2.28632
 Alpha virt. eigenvalues --    2.29429   2.30725   2.33396   2.35494   2.36955
 Alpha virt. eigenvalues --    2.38794   2.40426   2.41326   2.44604   2.48113
 Alpha virt. eigenvalues --    2.50239   2.51801   2.53798   2.56638   2.62136
 Alpha virt. eigenvalues --    2.64614   2.66496   2.67947   2.68390   2.71893
 Alpha virt. eigenvalues --    2.76363   2.78774   2.83243   2.86076   2.86886
 Alpha virt. eigenvalues --    2.87796   2.95654   3.07718   3.20031   3.43984
 Alpha virt. eigenvalues --    3.89979   4.10943   4.14274   4.16202   4.18003
 Alpha virt. eigenvalues --    4.21830   4.24271   4.28787   4.36423   4.42914
 Alpha virt. eigenvalues --    4.43945   4.58584   4.62832   4.79705
          Condensed to atoms (all electrons):
               1          2          3          4          5          6
     1  C    5.257347   0.335274  -0.070454   0.008212   0.000059   0.008786
     2  C    0.335274   4.780017   0.512218  -0.013046  -0.044586  -0.034751
     3  C   -0.070454   0.512218   5.028306   0.511640  -0.035466  -0.052705
     4  C    0.008212  -0.013046   0.511640   4.870648   0.530666  -0.001253
     5  C    0.000059  -0.044586  -0.035466   0.530666   5.038291   0.502439
     6  C    0.008786  -0.034751  -0.052705  -0.001253   0.502439   4.661131
     7  N   -0.000098   0.007273   0.000312   0.005467  -0.084446   0.316767
     8  C   -0.058091   0.499121  -0.001479  -0.051591  -0.031765   0.479252
     9  N   -0.009390  -0.089198   0.007312  -0.000325   0.008381  -0.088309
    10  C   -0.000174  -0.003316  -0.000013   0.000019  -0.000132  -0.002379
    11  C   -0.000166  -0.000050   0.000006  -0.000000   0.000002  -0.000005
    12  C   -0.000142   0.000423   0.000004  -0.000000   0.000006  -0.000319
    13  C    0.000151  -0.010868  -0.000042   0.000024  -0.000200   0.003138
    14  C    0.000055  -0.001272  -0.000038   0.000005   0.000006   0.001077
    15  H    0.361377  -0.026427   0.002398  -0.000191   0.000018   0.000091
    16  H    0.356468  -0.021318  -0.001111  -0.000182   0.000039  -0.000284
    17  H    0.360232  -0.027869  -0.003759   0.000172   0.000012  -0.000137
    18  H   -0.011456  -0.038739   0.351309  -0.045688   0.004676   0.000653
    19  H   -0.000221   0.003058  -0.037577   0.351563  -0.038755   0.002839
    20  H    0.000011   0.000714   0.004501  -0.040754   0.345022  -0.039369
    21  H    0.000003  -0.000019  -0.000016  -0.000046  -0.009502  -0.026803
    22  H   -0.000027   0.000556  -0.000024  -0.000171   0.007316  -0.027498
    23  H    0.000129  -0.001122   0.000031  -0.000001  -0.000162   0.002976
    24  H   -0.000627   0.005858  -0.000252  -0.000016   0.000064  -0.000606
    25  H    0.000028   0.000004   0.000000  -0.000000   0.000000   0.000002
    26  H    0.000001  -0.000003  -0.000000   0.000000  -0.000000   0.000002
    27  H   -0.000000   0.000008  -0.000000   0.000000  -0.000000  -0.000002
    28  H   -0.000003  -0.000015  -0.000000  -0.000000   0.000001   0.000061
    29  H   -0.001725   0.002094  -0.000129  -0.000005   0.000022  -0.000321
    30  H   -0.000052   0.001922   0.000030  -0.000043  -0.000011   0.000395
    31  H   -0.000020   0.000068  -0.000001  -0.000000   0.000000  -0.000021
    32  H   -0.000010  -0.000010   0.000002  -0.000001   0.000020   0.000057
               7          8          9         10         11         12
     1  C   -0.000098  -0.058091  -0.009390  -0.000174  -0.000166  -0.000142
     2  C    0.007273   0.499121  -0.089198  -0.003316  -0.000050   0.000423
     3  C    0.000312  -0.001479   0.007312  -0.000013   0.000006   0.000004
     4  C    0.005467  -0.051591  -0.000325   0.000019  -0.000000  -0.000000
     5  C   -0.084446  -0.031765   0.008381  -0.000132   0.000002   0.000006
     6  C    0.316767   0.479252  -0.088309  -0.002379  -0.000005  -0.000319
     7  N    7.054495  -0.063351  -0.033280  -0.001221   0.000012  -0.000120
     8  C   -0.063351   4.849213   0.268606  -0.036950   0.004868   0.003873
     9  N   -0.033280   0.268606   7.142922   0.323474  -0.053334  -0.056976
    10  C   -0.001221  -0.036950   0.323474   4.903622   0.359167  -0.065698
    11  C    0.000012   0.004868  -0.053334   0.359167   5.062886   0.371527
    12  C   -0.000120   0.003873  -0.056976  -0.065698   0.371527   5.069296
    13  C    0.000627  -0.025915   0.302950  -0.074151  -0.048989   0.374695
    14  C   -0.000088  -0.000590  -0.062158   0.005945   0.004979  -0.031635
    15  H   -0.000001  -0.004046   0.003192   0.001789  -0.000105   0.000024
    16  H    0.000001  -0.003544  -0.000434  -0.000088   0.000008   0.000035
    17  H    0.000001   0.003283   0.000165   0.000020  -0.000001  -0.000004
    18  H    0.000006   0.004488  -0.000115  -0.000001  -0.000000  -0.000000
    19  H   -0.000135   0.001521   0.000006   0.000000   0.000000   0.000000
    20  H   -0.007970   0.004577  -0.000133   0.000001  -0.000000  -0.000000
    21  H    0.309197   0.006183   0.000593   0.000015   0.000000  -0.000003
    22  H    0.283717  -0.019034   0.044350  -0.000875  -0.000238   0.000197
    23  H    0.006215  -0.002552  -0.051234   0.376119  -0.028226  -0.000555
    24  H   -0.000073  -0.001477  -0.049854   0.367248  -0.037397   0.005256
    25  H   -0.000001  -0.000377  -0.000230  -0.032265   0.373342  -0.035765
    26  H    0.000006  -0.000054   0.002873  -0.029674   0.371929  -0.026901
    27  H   -0.000000  -0.000079   0.004951   0.004705  -0.031461   0.361536
    28  H   -0.000117  -0.000507  -0.000924   0.001204  -0.037497   0.366865
    29  H   -0.000047  -0.005089  -0.055050   0.000807  -0.005417  -0.053700
    30  H   -0.000143   0.006587  -0.005498   0.000017  -0.000203   0.004816
    31  H    0.000003   0.000043   0.004509  -0.000155  -0.000025  -0.004476
    32  H    0.000138  -0.001529   0.002491   0.000105  -0.000005  -0.009542
              13         14         15         16         17         18
     1  C    0.000151   0.000055   0.361377   0.356468   0.360232  -0.011456
     2  C   -0.010868  -0.001272  -0.026427  -0.021318  -0.027869  -0.038739
     3  C   -0.000042  -0.000038   0.002398  -0.001111  -0.003759   0.351309
     4  C    0.000024   0.000005  -0.000191  -0.000182   0.000172  -0.045688
     5  C   -0.000200   0.000006   0.000018   0.000039   0.000012   0.004676
     6  C    0.003138   0.001077   0.000091  -0.000284  -0.000137   0.000653
     7  N    0.000627  -0.000088  -0.000001   0.000001   0.000001   0.000006
     8  C   -0.025915  -0.000590  -0.004046  -0.003544   0.003283   0.004488
     9  N    0.302950  -0.062158   0.003192  -0.000434   0.000165  -0.000115
    10  C   -0.074151   0.005945   0.001789  -0.000088   0.000020  -0.000001
    11  C   -0.048989   0.004979  -0.000105   0.000008  -0.000001  -0.000000
    12  C    0.374695  -0.031635   0.000024   0.000035  -0.000004  -0.000000
    13  C    4.797763   0.382298  -0.001210  -0.002303   0.000226  -0.000006
    14  C    0.382298   5.139496   0.000091   0.000495  -0.000010  -0.000000
    15  H   -0.001210   0.000091   0.566684  -0.036627  -0.027661   0.000105
    16  H   -0.002303   0.000495  -0.036627   0.569483  -0.029227   0.000557
    17  H    0.000226  -0.000010  -0.027661  -0.029227   0.564710   0.006973
    18  H   -0.000006  -0.000000   0.000105   0.000557   0.006973   0.622835
    19  H    0.000000   0.000000   0.000003   0.000003  -0.000012  -0.005240
    20  H    0.000003  -0.000001  -0.000000  -0.000000  -0.000000  -0.000210
    21  H    0.000016  -0.000018  -0.000000  -0.000000  -0.000000  -0.000000
    22  H   -0.001980  -0.000867   0.000000   0.000000   0.000000   0.000001
    23  H    0.007063  -0.000035   0.000023  -0.000006  -0.000000  -0.000000
    24  H   -0.002661  -0.000288   0.001304   0.000139  -0.000033   0.000008
    25  H    0.000770  -0.000070   0.000302  -0.000018   0.000001   0.000000
    26  H    0.004363  -0.000127   0.000004  -0.000000  -0.000000   0.000000
    27  H   -0.028181  -0.000928  -0.000022   0.000007  -0.000000   0.000000
    28  H   -0.034828  -0.008865  -0.000002  -0.000001   0.000000   0.000000
    29  H    0.356917  -0.066219  -0.000079   0.005950   0.000087   0.000010
    30  H   -0.026276   0.370410   0.000042   0.000149  -0.000003  -0.000002
    31  H   -0.025885   0.357916  -0.000002   0.000004   0.000000   0.000000
    32  H   -0.030495   0.361467  -0.000002  -0.000008   0.000000   0.000000
              19         20         21         22         23         24
     1  C   -0.000221   0.000011   0.000003  -0.000027   0.000129  -0.000627
     2  C    0.003058   0.000714  -0.000019   0.000556  -0.001122   0.005858
     3  C   -0.037577   0.004501  -0.000016  -0.000024   0.000031  -0.000252
     4  C    0.351563  -0.040754  -0.000046  -0.000171  -0.000001  -0.000016
     5  C   -0.038755   0.345022  -0.009502   0.007316  -0.000162   0.000064
     6  C    0.002839  -0.039369  -0.026803  -0.027498   0.002976  -0.000606
     7  N   -0.000135  -0.007970   0.309197   0.283717   0.006215  -0.000073
     8  C    0.001521   0.004577   0.006183  -0.019034  -0.002552  -0.001477
     9  N    0.000006  -0.000133   0.000593   0.044350  -0.051234  -0.049854
    10  C    0.000000   0.000001   0.000015  -0.000875   0.376119   0.367248
    11  C    0.000000  -0.000000   0.000000  -0.000238  -0.028226  -0.037397
    12  C    0.000000  -0.000000  -0.000003   0.000197  -0.000555   0.005256
    13  C    0.000000   0.000003   0.000016  -0.001980   0.007063  -0.002661
    14  C    0.000000  -0.000001  -0.000018  -0.000867  -0.000035  -0.000288
    15  H    0.000003  -0.000000  -0.000000   0.000000   0.000023   0.001304
    16  H    0.000003  -0.000000  -0.000000   0.000000  -0.000006   0.000139
    17  H   -0.000012  -0.000000  -0.000000   0.000000  -0.000000  -0.000033
    18  H   -0.005240  -0.000210  -0.000000   0.000001  -0.000000   0.000008
    19  H    0.608694  -0.005532  -0.000009   0.000003   0.000000  -0.000000
    20  H   -0.005532   0.622447   0.005018  -0.000233   0.000005  -0.000001
    21  H   -0.000009   0.005018   0.429686  -0.026263  -0.000106   0.000004
    22  H    0.000003  -0.000233  -0.026263   0.414235  -0.004841   0.000603
    23  H    0.000000   0.000005  -0.000106  -0.004841   0.609113  -0.056874
    24  H   -0.000000  -0.000001   0.000004   0.000603  -0.056874   0.642707
    25  H   -0.000000   0.000000   0.000000   0.000004   0.004149  -0.008896
    26  H   -0.000000   0.000000  -0.000000  -0.000035  -0.006046   0.003033
    27  H   -0.000000   0.000000   0.000000   0.000014  -0.000210   0.000010
    28  H   -0.000000  -0.000000   0.000002   0.000921   0.000287   0.000002
    29  H    0.000000  -0.000000   0.000001   0.000306  -0.000597   0.003097
    30  H    0.000000  -0.000000  -0.000012  -0.000140   0.000006  -0.000010
    31  H   -0.000000  -0.000000   0.000000   0.000032  -0.000002   0.000010
    32  H   -0.000000  -0.000001   0.000058   0.003019  -0.000071   0.000015
              25         26         27         28         29         30
     1  C    0.000028   0.000001  -0.000000  -0.000003  -0.001725  -0.000052
     2  C    0.000004  -0.000003   0.000008  -0.000015   0.002094   0.001922
     3  C    0.000000  -0.000000  -0.000000  -0.000000  -0.000129   0.000030
     4  C   -0.000000   0.000000   0.000000  -0.000000  -0.000005  -0.000043
     5  C    0.000000  -0.000000  -0.000000   0.000001   0.000022  -0.000011
     6  C    0.000002   0.000002  -0.000002   0.000061  -0.000321   0.000395
     7  N   -0.000001   0.000006  -0.000000  -0.000117  -0.000047  -0.000143
     8  C   -0.000377  -0.000054  -0.000079  -0.000507  -0.005089   0.006587
     9  N   -0.000230   0.002873   0.004951  -0.000924  -0.055050  -0.005498
    10  C   -0.032265  -0.029674   0.004705   0.001204   0.000807   0.000017
    11  C    0.373342   0.371929  -0.031461  -0.037497  -0.005417  -0.000203
    12  C   -0.035765  -0.026901   0.361536   0.366865  -0.053700   0.004816
    13  C    0.000770   0.004363  -0.028181  -0.034828   0.356917  -0.026276
    14  C   -0.000070  -0.000127  -0.000928  -0.008865  -0.066219   0.370410
    15  H    0.000302   0.000004  -0.000022  -0.000002  -0.000079   0.000042
    16  H   -0.000018  -0.000000   0.000007  -0.000001   0.005950   0.000149
    17  H    0.000001  -0.000000  -0.000000   0.000000   0.000087  -0.000003
    18  H    0.000000   0.000000   0.000000   0.000000   0.000010  -0.000002
    19  H   -0.000000  -0.000000  -0.000000  -0.000000   0.000000   0.000000
    20  H    0.000000   0.000000   0.000000  -0.000000  -0.000000  -0.000000
    21  H    0.000000  -0.000000   0.000000   0.000002   0.000001  -0.000012
    22  H    0.000004  -0.000035   0.000014   0.000921   0.000306  -0.000140
    23  H    0.004149  -0.006046  -0.000210   0.000287  -0.000597   0.000006
    24  H   -0.008896   0.003033   0.000010   0.000002   0.003097  -0.000010
    25  H    0.593926  -0.037045  -0.006894   0.005228   0.002394   0.000006
    26  H   -0.037045   0.580399   0.001310  -0.007291  -0.000162   0.000004
    27  H   -0.006894   0.001310   0.593320  -0.034446  -0.000813  -0.000165
    28  H    0.005228  -0.007291  -0.034446   0.602379   0.006533   0.000029
    29  H    0.002394  -0.000162  -0.000813   0.006533   0.697855  -0.004231
    30  H    0.000006   0.000004  -0.000165   0.000029  -0.004231   0.555448
    31  H   -0.000003   0.000000   0.001796   0.000145   0.001601  -0.030096
    32  H    0.000005  -0.000006   0.000132   0.006980   0.006682  -0.031289
              31         32
     1  C   -0.000020  -0.000010
     2  C    0.000068  -0.000010
     3  C   -0.000001   0.000002
     4  C   -0.000000  -0.000001
     5  C    0.000000   0.000020
     6  C   -0.000021   0.000057
     7  N    0.000003   0.000138
     8  C    0.000043  -0.001529
     9  N    0.004509   0.002491
    10  C   -0.000155   0.000105
    11  C   -0.000025  -0.000005
    12  C   -0.004476  -0.009542
    13  C   -0.025885  -0.030495
    14  C    0.357916   0.361467
    15  H   -0.000002  -0.000002
    16  H    0.000004  -0.000008
    17  H    0.000000   0.000000
    18  H    0.000000   0.000000
    19  H   -0.000000  -0.000000
    20  H   -0.000000  -0.000001
    21  H    0.000000   0.000058
    22  H    0.000032   0.003019
    23  H   -0.000002  -0.000071
    24  H    0.000010   0.000015
    25  H   -0.000003   0.000005
    26  H    0.000000  -0.000006
    27  H    0.001796   0.000132
    28  H    0.000145   0.006980
    29  H    0.001601   0.006682
    30  H   -0.030096  -0.031289
    31  H    0.581205  -0.027215
    32  H   -0.027215   0.582440
 Mulliken charges:
               1
     1  C   -0.535477
     2  C    0.164000
     3  C   -0.215003
     4  C   -0.125103
     5  C   -0.192013
     6  C    0.295098
     7  N   -0.793145
     8  C    0.176404
     9  N   -0.560334
    10  C   -0.097163
    11  C   -0.305605
    12  C   -0.272715
    13  C    0.082986
    14  C   -0.451030
    15  H    0.158929
    16  H    0.161814
    17  H    0.152837
    18  H    0.109838
    19  H    0.119788
    20  H    0.111906
    21  H    0.312020
    22  H    0.326953
    23  H    0.146524
    24  H    0.129707
    25  H    0.141405
    26  H    0.143421
    27  H    0.135415
    28  H    0.133859
    29  H    0.109228
    30  H    0.158316
    31  H    0.140569
    32  H    0.136573
 Sum of Mulliken charges =  -0.00000
 Mulliken charges with hydrogens summed into heavy atoms:
               1
     1  C   -0.061897
     2  C    0.164000
     3  C   -0.105165
     4  C   -0.005315
     5  C   -0.080107
     6  C    0.295098
     7  N   -0.154173
     8  C    0.176404
     9  N   -0.560334
    10  C    0.179068
    11  C   -0.020779
    12  C   -0.003442
    13  C    0.192213
    14  C   -0.015572
 Electronic spatial extent (au):  <R**2>=           2785.5236
 Charge=             -0.0000 electrons
 Dipole moment (field-independent basis, Debye):
    X=             -1.5067    Y=             -0.0575    Z=             -0.4354  Tot=              1.5694
 Quadrupole moment (field-independent basis, Debye-Ang):
   XX=            -83.7940   YY=            -81.6551   ZZ=            -83.3013
   XY=              1.1952   XZ=             -2.5584   YZ=              4.9588
 Traceless Quadrupole moment (field-independent basis, Debye-Ang):
   XX=             -0.8772   YY=              1.2617   ZZ=             -0.3845
   XY=              1.1952   XZ=             -2.5584   YZ=              4.9588
 Octapole moment (field-independent basis, Debye-Ang**2):
  XXX=            -61.7138  YYY=             15.1467  ZZZ=             16.1225  XYY=            -21.2094
  XXY=              8.9760  XXZ=             -3.8622  XZZ=            -22.8632  YZZ=             -5.0901
  YYZ=             -8.0006  XYZ=              8.0424
 Hexadecapole moment (field-independent basis, Debye-Ang**3):
 XXXX=          -2107.4269 YYYY=           -871.5670 ZZZZ=           -764.0001 XXXY=            -41.8315
 XXXZ=            211.2391 YYYX=            -36.3974 YYYZ=              4.6142 ZZZX=            254.6472
 ZZZY=            -20.3425 XXYY=           -488.2794 XXZZ=           -482.7036 YYZZ=           -244.1102
 XXYZ=              1.1142 YYXZ=             70.4879 ZZXY=            -31.0423
 N-N= 9.315446776636D+02 E-N=-3.201518163803D+03  KE= 5.719568426813D+02
 Leave Link  601 at Sat Nov  5 11:32:34 2022, MaxMem=   402653184 cpu:               1.4 elap:               0.3
 (Enter /home/wykgroup/appl/g16/l9999.exe)
 Electronic transition elements 
                 1             2             3             4 
      1  -0.577488D+03 -0.577477D+03 -0.577448D+03 -0.577440D+03
      2   0.000000D+00  0.000000D+00 -0.673050D+00 -0.127453D-01
      3   0.000000D+00  0.000000D+00  0.112491D+00 -0.166311D+00
      4   0.000000D+00  0.000000D+00  0.313678D+00 -0.117183D-01
      5   0.000000D+00  0.000000D+00  0.119389D+00 -0.374245D-02
      6   0.000000D+00  0.000000D+00 -0.216189D-01  0.286929D-01
      7   0.000000D+00  0.000000D+00 -0.498766D-01  0.564137D-02
      8   0.000000D+00  0.000000D+00 -0.313930D+00 -0.145834D-01
      9   0.000000D+00  0.000000D+00  0.273822D+00 -0.104164D+00
     10   0.000000D+00  0.000000D+00 -0.428727D+00  0.530611D+00
     11   0.000000D+00  0.000000D+00  0.533331D+00 -0.175788D+00
     12   0.000000D+00  0.000000D+00  0.185019D-01  0.105530D+00
     13   0.000000D+00  0.000000D+00 -0.122123D-01 -0.716933D-01
     14   0.000000D+00  0.000000D+00 -0.140528D+00  0.110713D+00
     15   0.000000D+00  0.000000D+00 -0.226116D+00  0.110573D+00
     16   0.000000D+00  0.000000D+00  0.693400D-01  0.175778D-01
 1\1\GINC-NODE89\SP\RB3LYP TD-FC\6-31G(d)\C12H18N2\WYKGROUP\05-Nov-2022
 \0\\#p b3lyp/6-31g(d) 6D 10F nosymm GFInput td=(50-50,nstate=2) SCF=XQ
 C\\Gaussian input prepared by ASE\\0,1\C,0,0.8994466483,2.2359294998,0
 .7964426909\C,0,1.5267740934,1.0758602098,0.0554428605\C,0,2.832682159
 3,1.2122554499,-0.4354658658\C,0,3.4585659297,0.1589558175,-1.09997889
 16\C,0,2.7965377869,-1.0499873816,-1.282565569\C,0,1.4858870125,-1.210
 7522506,-0.8097999817\N,0,0.8188630536,-2.4289961625,-0.9346499022\C,0
 ,0.8357670795,-0.1356300458,-0.1491516497\N,0,-0.4998147183,-0.3873706
 569,0.2952928556\C,0,-0.6870577571,-0.9126438042,1.6612777752\C,0,-2.1
 874024413,-0.682241321,1.9650912935\C,0,-2.7986842558,-0.2794754327,0.
 6105610156\C,0,-1.6463002957,0.4429821707,-0.1024882958\C,0,-1.7953856
 765,0.5355625446,-1.6187502522\H,0,0.3346538483,1.9058578489,1.6742366
 982\H,0,0.2061147766,2.8048339478,0.1631171592\H,0,1.6719106397,2.9327
 250193,1.1371681479\H,0,3.3627887394,2.1484844705,-0.2793635535\H,0,4.
 4734034791,0.2777782148,-1.4713992887\H,0,3.2870746476,-1.8779846582,-
 1.7896802127\H,0,1.0946924759,-2.9865523785,-1.7335782243\H,0,-0.18676
 69735,-2.3126872246,-0.8556568842\H,0,-0.4065538271,-1.9734389508,1.69
 28667448\H,0,-0.0501872977,-0.3936709249,2.3940323395\H,0,-2.303043206
 7,0.1353126993,2.6857950637\H,0,-2.666418106,-1.5651842336,2.399442724
 3\H,0,-3.6883294467,0.3510453328,0.7128463889\H,0,-3.079924466,-1.1691
 254442,0.0325572836\H,0,-1.5839176119,1.4701491364,0.2999276211\H,0,-0
 .9148087807,0.9990663069,-2.0764085012\H,0,-2.6706974227,1.1411836308,
 -1.8807592468\H,0,-1.9198710861,-0.4622414296,-2.0564013433\\Version=E
 S64L-G16RevB.01\HF=-577.6188108\RMSD=5.017e-09\PG=C01 [X(C12H18N2)]\\@


 I DO NOT KNOW WHAT I MAY APPEAR TO THE WORLD; BUT TO MYSELF
 I SEEM TO HAVE BEEN ONLY LIKE A BOY PLAYING ON THE SEASHORE,
 AND DIVERTING MYSELF IN NOW AND THEN FINDING A SMOOTHER PEBBLE
 OR A PRETTIER SHELL THAN ORDINARY, WHILST THE GREAT OCEAN OF
 TRUTH LAY ALL UNDISCOVERED BEFORE ME.
                                          -- NEWTON (1642-1726)
 Job cpu time:       0 days  0 hours 32 minutes  2.4 seconds.
 Elapsed time:       0 days  0 hours  4 minutes 40.0 seconds.
 File lengths (MBytes):  RWF=    445 Int=      0 D2E=      0 Chk=     14 Scr=      1
 Normal termination of Gaussian 16 at Sat Nov  5 11:32:35 2022.
