 Entering Gaussian System, Link 0=/home/wykgroup/appl/g16/g16
 Input=./calculation/no_transfer_pubchem_sampling_1_b3lyp/138610823.com
 Output=./calculation/no_transfer_pubchem_sampling_1_b3lyp/138610823.log
 Initial command:
 /home/wykgroup/appl/g16/l1.exe "/userdata/scratch/wykgroup/khs/./calculation/no_transfer_pubchem_sampling_1_b3lyp/138610823/Gau-28963.inp" -scrdir="/userdata/scratch/wykgroup/khs/./calculation/no_transfer_pubchem_sampling_1_b3lyp/138610823/"
 Entering Link 1 = /home/wykgroup/appl/g16/l1.exe PID=     28964.
  
 Copyright (c) 1988-2017, Gaussian, Inc.  All Rights Reserved.
  
 This is part of the Gaussian(R) 16 program.  It is based on
 the Gaussian(R) 09 system (copyright 2009, Gaussian, Inc.),
 the Gaussian(R) 03 system (copyright 2003, Gaussian, Inc.),
 the Gaussian(R) 98 system (copyright 1998, Gaussian, Inc.),
 the Gaussian(R) 94 system (copyright 1995, Gaussian, Inc.),
 the Gaussian 92(TM) system (copyright 1992, Gaussian, Inc.),
 the Gaussian 90(TM) system (copyright 1990, Gaussian, Inc.),
 the Gaussian 88(TM) system (copyright 1988, Gaussian, Inc.),
 the Gaussian 86(TM) system (copyright 1986, Carnegie Mellon
 University), and the Gaussian 82(TM) system (copyright 1983,
 Carnegie Mellon University). Gaussian is a federally registered
 trademark of Gaussian, Inc.
  
 This software contains proprietary and confidential information,
 including trade secrets, belonging to Gaussian, Inc.
  
 This software is provided under written license and may be
 used, copied, transmitted, or stored only in accord with that
 written license.
  
 The following legend is applicable only to US Government
 contracts under FAR:
  
                    RESTRICTED RIGHTS LEGEND
  
 Use, reproduction and disclosure by the US Government is
 subject to restrictions as set forth in subparagraphs (a)
 and (c) of the Commercial Computer Software - Restricted
 Rights clause in FAR 52.227-19.
  
 Gaussian, Inc.
 340 Quinnipiac St., Bldg. 40, Wallingford CT 06492
  
  
 ---------------------------------------------------------------
 Warning -- This program may not be used in any manner that
 competes with the business of Gaussian, Inc. or will provide
 assistance to any competitor of Gaussian, Inc.  The licensee
 of this program is prohibited from giving any competitor of
 Gaussian, Inc. access to this program.  By using this program,
 the user acknowledges that Gaussian, Inc. is engaged in the
 business of creating and licensing software in the field of
 computational chemistry and represents and warrants to the
 licensee that it is not a competitor of Gaussian, Inc. and that
 it will not use this program in any manner prohibited above.
 ---------------------------------------------------------------
  

 Cite this work as:
 Gaussian 16, Revision B.01,
 M. J. Frisch, G. W. Trucks, H. B. Schlegel, G. E. Scuseria, 
 M. A. Robb, J. R. Cheeseman, G. Scalmani, V. Barone, 
 G. A. Petersson, H. Nakatsuji, X. Li, M. Caricato, A. V. Marenich, 
 J. Bloino, B. G. Janesko, R. Gomperts, B. Mennucci, H. P. Hratchian, 
 J. V. Ortiz, A. F. Izmaylov, J. L. Sonnenberg, D. Williams-Young, 
 F. Ding, F. Lipparini, F. Egidi, J. Goings, B. Peng, A. Petrone, 
 T. Henderson, D. Ranasinghe, V. G. Zakrzewski, J. Gao, N. Rega, 
 G. Zheng, W. Liang, M. Hada, M. Ehara, K. Toyota, R. Fukuda, 
 J. Hasegawa, M. Ishida, T. Nakajima, Y. Honda, O. Kitao, H. Nakai, 
 T. Vreven, K. Throssell, J. A. Montgomery, Jr., J. E. Peralta, 
 F. Ogliaro, M. J. Bearpark, J. J. Heyd, E. N. Brothers, K. N. Kudin, 
 V. N. Staroverov, T. A. Keith, R. Kobayashi, J. Normand, 
 K. Raghavachari, A. P. Rendell, J. C. Burant, S. S. Iyengar, 
 J. Tomasi, M. Cossi, J. M. Millam, M. Klene, C. Adamo, R. Cammi, 
 J. W. Ochterski, R. L. Martin, K. Morokuma, O. Farkas, 
 J. B. Foresman, and D. J. Fox, Gaussian, Inc., Wallingford CT, 2016.
 
 ******************************************
 Gaussian 16:  ES64L-G16RevB.01 20-Dec-2017
                 4-Nov-2022 
 ******************************************
 %chk=./calculation/no_transfer_pubchem_sampling_1_b3lyp/138610823.chk
 %nprocshared=7
 Will use up to    7 processors via shared memory.
 %mem=6GB
 -----------------------------
 #p b3lyp/6-31g(d) opt SCF=XQC
 -----------------------------
 1/18=20,19=15,26=3,38=1/1,3;
 2/9=110,12=2,17=6,18=5,40=1/2;
 3/5=1,6=6,7=1,11=2,25=1,30=1,71=1,74=-5/1,2,3;
 4//1;
 5/5=2,8=3,13=1,38=5/2,8;
 6/7=2,8=2,9=2,10=2,28=1/1;
 7//1,2,3,16;
 1/18=20,19=15,26=3/3(2);
 2/9=110/2;
 99//99;
 2/9=110/2;
 3/5=1,6=6,7=1,11=2,25=1,30=1,71=1,74=-5/1,2,3;
 4/5=5,16=3,69=1/1;
 5/5=2,8=3,13=1,38=5/2,8;
 7//1,2,3,16;
 1/18=20,19=15,26=3/3(-5);
 2/9=110/2;
 6/7=2,8=2,9=2,10=2,19=2,28=1/1;
 99/9=1/99;
 Leave Link    1 at Fri Nov  4 18:33:32 2022, MaxMem=   805306368 cpu:               1.4 elap:               0.4
 (Enter /home/wykgroup/appl/g16/l101.exe)
 ------------------------------
 Gaussian input prepared by ASE
 ------------------------------
 Symbolic Z-matrix:
 Charge =  0 Multiplicity = 1
 N                     1.53395   2.81847   1.82152 
 C                     2.34655   2.39177   0.69743 
 C                     1.53759   2.48266  -0.60579 
 C                     0.23528   1.75255  -0.46752 
 C                    -0.93208   2.45697  -0.20636 
 C                    -2.14      1.81618  -0.00037 
 S                    -3.56169   2.90855   0.13554 
 N                    -4.17856   2.54667   1.63445 
 O                    -3.05917   4.25119   0.21774 
 O                    -4.44855   2.60726  -0.9454 
 C                    -2.21255   0.44085  -0.05256 
 S                    -3.67958  -0.52565   0.28969 
 N                    -3.25176  -1.04677   1.82361 
 O                    -3.72834  -1.62867  -0.6261 
 O                    -4.87423   0.23701   0.47544 
 C                    -1.05807  -0.28731  -0.32761 
 C                    -1.09384  -1.73865  -0.49883 
 N                    -0.82823  -2.33246  -1.68313 
 N                    -0.94109  -3.59082  -1.50238 
 N                    -1.246    -3.77766  -0.24621 
 N                    -1.34459  -2.64845   0.43367 
 C                     0.16336   0.36046  -0.54371 
 C                     1.35095  -0.4717   -0.83467 
 C                     1.94048  -0.46015  -2.12396 
 C                     3.01423  -1.25522  -2.40257 
 C                     3.53595  -2.08307  -1.39842 
 N                     4.55271  -2.92392  -1.41571 
 C                     4.60562  -3.4646   -0.18576 
 C                     3.61457  -2.96243   0.62494 
 N                     2.92401  -2.07609  -0.13903 
 C                     1.85446  -1.29472   0.13265 
 H                     2.06642   2.77694   2.68264 
 H                     1.22241   3.77515   1.69276 
 H                     2.63466   1.35178   0.87544 
 H                     3.27106   2.98093   0.56928 
 H                     2.13722   2.0617   -1.41261 
 H                     1.33669   3.5316   -0.82644 
 H                    -0.93528   3.53451  -0.15816 
 H                    -4.67218   3.33504   2.0227 
 H                    -4.76664   1.72466   1.5512 
 H                    -4.05608  -1.26783   2.38823 
 H                    -2.58797  -1.81088   1.79183 
 H                    -1.41805  -4.68276   0.16732 
 H                     1.50375   0.16487  -2.88588 
 H                     3.47642  -1.27914  -3.37481 
 H                     5.35483  -4.19089   0.06114 
 H                     3.36428  -3.162     1.6465 
 H                     1.43709  -1.34594   1.12827 
 
 ITRead=  0  0  0  0  0  0  0  0  0  0  0  0  0  0  0  0  0  0  0  0
 ITRead=  0  0  0  0  0  0  0  0  0  0  0  0  0  0  0  0  0  0  0  0
 ITRead=  0  0  0  0  0  0  0  0
 MicOpt= -1 -1 -1 -1 -1 -1 -1 -1 -1 -1 -1 -1 -1 -1 -1 -1 -1 -1 -1 -1
 MicOpt= -1 -1 -1 -1 -1 -1 -1 -1 -1 -1 -1 -1 -1 -1 -1 -1 -1 -1 -1 -1
 MicOpt= -1 -1 -1 -1 -1 -1 -1 -1
 NAtoms=     48 NQM=       48 NQMF=       0 NMMI=      0 NMMIF=      0
                NMic=       0 NMicF=      0.
                    Isotopes and Nuclear Properties:
 (Nuclear quadrupole moments (NQMom) in fm**2, nuclear magnetic moments (NMagM)
  in nuclear magnetons)

  Atom         1           2           3           4           5           6           7           8           9          10
 IAtWgt=          14          12          12          12          12          12          32          14          16          16
 AtmWgt=  14.0030740  12.0000000  12.0000000  12.0000000  12.0000000  12.0000000  31.9720718  14.0030740  15.9949146  15.9949146
 NucSpn=           2           0           0           0           0           0           0           2           0           0
 AtZEff=  -0.0000000  -0.0000000  -0.0000000  -0.0000000  -0.0000000  -0.0000000  -0.0000000  -0.0000000  -0.0000000  -0.0000000
 NQMom=    2.0440000   0.0000000   0.0000000   0.0000000   0.0000000   0.0000000   0.0000000   2.0440000   0.0000000   0.0000000
 NMagM=    0.4037610   0.0000000   0.0000000   0.0000000   0.0000000   0.0000000   0.0000000   0.4037610   0.0000000   0.0000000
 AtZNuc=   7.0000000   6.0000000   6.0000000   6.0000000   6.0000000   6.0000000  16.0000000   7.0000000   8.0000000   8.0000000

  Atom        11          12          13          14          15          16          17          18          19          20
 IAtWgt=          12          32          14          16          16          12          12          14          14          14
 AtmWgt=  12.0000000  31.9720718  14.0030740  15.9949146  15.9949146  12.0000000  12.0000000  14.0030740  14.0030740  14.0030740
 NucSpn=           0           0           2           0           0           0           0           2           2           2
 AtZEff=  -0.0000000  -0.0000000  -0.0000000  -0.0000000  -0.0000000  -0.0000000  -0.0000000  -0.0000000  -0.0000000  -0.0000000
 NQMom=    0.0000000   0.0000000   2.0440000   0.0000000   0.0000000   0.0000000   0.0000000   2.0440000   2.0440000   2.0440000
 NMagM=    0.0000000   0.0000000   0.4037610   0.0000000   0.0000000   0.0000000   0.0000000   0.4037610   0.4037610   0.4037610
 AtZNuc=   6.0000000  16.0000000   7.0000000   8.0000000   8.0000000   6.0000000   6.0000000   7.0000000   7.0000000   7.0000000

  Atom        21          22          23          24          25          26          27          28          29          30
 IAtWgt=          14          12          12          12          12          12          14          12          12          14
 AtmWgt=  14.0030740  12.0000000  12.0000000  12.0000000  12.0000000  12.0000000  14.0030740  12.0000000  12.0000000  14.0030740
 NucSpn=           2           0           0           0           0           0           2           0           0           2
 AtZEff=  -0.0000000  -0.0000000  -0.0000000  -0.0000000  -0.0000000  -0.0000000  -0.0000000  -0.0000000  -0.0000000  -0.0000000
 NQMom=    2.0440000   0.0000000   0.0000000   0.0000000   0.0000000   0.0000000   2.0440000   0.0000000   0.0000000   2.0440000
 NMagM=    0.4037610   0.0000000   0.0000000   0.0000000   0.0000000   0.0000000   0.4037610   0.0000000   0.0000000   0.4037610
 AtZNuc=   7.0000000   6.0000000   6.0000000   6.0000000   6.0000000   6.0000000   7.0000000   6.0000000   6.0000000   7.0000000

  Atom        31          32          33          34          35          36          37          38          39          40
 IAtWgt=          12           1           1           1           1           1           1           1           1           1
 AtmWgt=  12.0000000   1.0078250   1.0078250   1.0078250   1.0078250   1.0078250   1.0078250   1.0078250   1.0078250   1.0078250
 NucSpn=           0           1           1           1           1           1           1           1           1           1
 AtZEff=  -0.0000000  -0.0000000  -0.0000000  -0.0000000  -0.0000000  -0.0000000  -0.0000000  -0.0000000  -0.0000000  -0.0000000
 NQMom=    0.0000000   0.0000000   0.0000000   0.0000000   0.0000000   0.0000000   0.0000000   0.0000000   0.0000000   0.0000000
 NMagM=    0.0000000   2.7928460   2.7928460   2.7928460   2.7928460   2.7928460   2.7928460   2.7928460   2.7928460   2.7928460
 AtZNuc=   6.0000000   1.0000000   1.0000000   1.0000000   1.0000000   1.0000000   1.0000000   1.0000000   1.0000000   1.0000000

  Atom        41          42          43          44          45          46          47          48
 IAtWgt=           1           1           1           1           1           1           1           1
 AtmWgt=   1.0078250   1.0078250   1.0078250   1.0078250   1.0078250   1.0078250   1.0078250   1.0078250
 NucSpn=           1           1           1           1           1           1           1           1
 AtZEff=  -0.0000000  -0.0000000  -0.0000000  -0.0000000  -0.0000000  -0.0000000  -0.0000000  -0.0000000
 NQMom=    0.0000000   0.0000000   0.0000000   0.0000000   0.0000000   0.0000000   0.0000000   0.0000000
 NMagM=    2.7928460   2.7928460   2.7928460   2.7928460   2.7928460   2.7928460   2.7928460   2.7928460
 AtZNuc=   1.0000000   1.0000000   1.0000000   1.0000000   1.0000000   1.0000000   1.0000000   1.0000000
 Leave Link  101 at Fri Nov  4 18:33:32 2022, MaxMem=   805306368 cpu:               0.8 elap:               0.2
 (Enter /home/wykgroup/appl/g16/l103.exe)

 GradGradGradGradGradGradGradGradGradGradGradGradGradGradGradGradGradGrad
 Berny optimization.
 Initialization pass.
                           ----------------------------
                           !    Initial Parameters    !
                           ! (Angstroms and Degrees)  !
 --------------------------                            --------------------------
 ! Name  Definition              Value          Derivative Info.                !
 --------------------------------------------------------------------------------
 ! R1    R(1,2)                  1.4512         estimate D2E/DX2                !
 ! R2    R(1,32)                 1.0133         estimate D2E/DX2                !
 ! R3    R(1,33)                 1.0143         estimate D2E/DX2                !
 ! R4    R(2,3)                  1.5366         estimate D2E/DX2                !
 ! R5    R(2,34)                 1.0937         estimate D2E/DX2                !
 ! R6    R(2,35)                 1.1037         estimate D2E/DX2                !
 ! R7    R(3,4)                  1.4994         estimate D2E/DX2                !
 ! R8    R(3,36)                 1.0898         estimate D2E/DX2                !
 ! R9    R(3,37)                 1.0906         estimate D2E/DX2                !
 ! R10   R(4,5)                  1.3882         estimate D2E/DX2                !
 ! R11   R(4,22)                 1.396          estimate D2E/DX2                !
 ! R12   R(5,6)                  1.3828         estimate D2E/DX2                !
 ! R13   R(5,38)                 1.0786         estimate D2E/DX2                !
 ! R14   R(6,7)                  1.798          estimate D2E/DX2                !
 ! R15   R(6,11)                 1.3782         estimate D2E/DX2                !
 ! R16   R(7,8)                  1.6608         estimate D2E/DX2                !
 ! R17   R(7,9)                  1.436          estimate D2E/DX2                !
 ! R18   R(7,10)                 1.4303         estimate D2E/DX2                !
 ! R19   R(8,39)                 1.0079         estimate D2E/DX2                !
 ! R20   R(8,40)                 1.0141         estimate D2E/DX2                !
 ! R21   R(11,12)                1.7898         estimate D2E/DX2                !
 ! R22   R(11,16)                1.3924         estimate D2E/DX2                !
 ! R23   R(12,13)                1.6756         estimate D2E/DX2                !
 ! R24   R(12,14)                1.4345         estimate D2E/DX2                !
 ! R25   R(12,15)                1.4294         estimate D2E/DX2                !
 ! R26   R(13,41)                1.0073         estimate D2E/DX2                !
 ! R27   R(13,42)                1.0127         estimate D2E/DX2                !
 ! R28   R(16,17)                1.4618         estimate D2E/DX2                !
 ! R29   R(16,22)                1.3993         estimate D2E/DX2                !
 ! R30   R(17,18)                1.3512         estimate D2E/DX2                !
 ! R31   R(17,21)                1.3267         estimate D2E/DX2                !
 ! R32   R(18,19)                1.2763         estimate D2E/DX2                !
 ! R33   R(19,20)                1.3061         estimate D2E/DX2                !
 ! R34   R(20,21)                1.3218         estimate D2E/DX2                !
 ! R35   R(20,43)                1.0099         estimate D2E/DX2                !
 ! R36   R(22,23)                1.479          estimate D2E/DX2                !
 ! R37   R(23,24)                1.4177         estimate D2E/DX2                !
 ! R38   R(23,31)                1.3662         estimate D2E/DX2                !
 ! R39   R(24,25)                1.3648         estimate D2E/DX2                !
 ! R40   R(24,44)                1.0779         estimate D2E/DX2                !
 ! R41   R(25,26)                1.4021         estimate D2E/DX2                !
 ! R42   R(25,45)                1.0768         estimate D2E/DX2                !
 ! R43   R(26,27)                1.3195         estimate D2E/DX2                !
 ! R44   R(26,30)                1.4002         estimate D2E/DX2                !
 ! R45   R(27,28)                1.3446         estimate D2E/DX2                !
 ! R46   R(28,29)                1.3754         estimate D2E/DX2                !
 ! R47   R(28,46)                1.0723         estimate D2E/DX2                !
 ! R48   R(29,30)                1.3587         estimate D2E/DX2                !
 ! R49   R(29,47)                1.0705         estimate D2E/DX2                !
 ! R50   R(30,31)                1.3521         estimate D2E/DX2                !
 ! R51   R(31,48)                1.0808         estimate D2E/DX2                !
 ! A1    A(2,1,32)             110.6082         estimate D2E/DX2                !
 ! A2    A(2,1,33)             110.547          estimate D2E/DX2                !
 ! A3    A(32,1,33)            107.9337         estimate D2E/DX2                !
 ! A4    A(1,2,3)              110.1678         estimate D2E/DX2                !
 ! A5    A(1,2,34)             107.5183         estimate D2E/DX2                !
 ! A6    A(1,2,35)             113.7041         estimate D2E/DX2                !
 ! A7    A(3,2,34)             109.4487         estimate D2E/DX2                !
 ! A8    A(3,2,35)             108.1155         estimate D2E/DX2                !
 ! A9    A(34,2,35)            107.8063         estimate D2E/DX2                !
 ! A10   A(2,3,4)              110.5027         estimate D2E/DX2                !
 ! A11   A(2,3,36)             108.3833         estimate D2E/DX2                !
 ! A12   A(2,3,37)             108.9946         estimate D2E/DX2                !
 ! A13   A(4,3,36)             110.9817         estimate D2E/DX2                !
 ! A14   A(4,3,37)             109.0875         estimate D2E/DX2                !
 ! A15   A(36,3,37)            108.8499         estimate D2E/DX2                !
 ! A16   A(3,4,5)              120.042          estimate D2E/DX2                !
 ! A17   A(3,4,22)             121.6868         estimate D2E/DX2                !
 ! A18   A(5,4,22)             118.2257         estimate D2E/DX2                !
 ! A19   A(4,5,6)              121.8329         estimate D2E/DX2                !
 ! A20   A(4,5,38)             121.1862         estimate D2E/DX2                !
 ! A21   A(6,5,38)             116.9806         estimate D2E/DX2                !
 ! A22   A(5,6,7)              114.8616         estimate D2E/DX2                !
 ! A23   A(5,6,11)             120.1833         estimate D2E/DX2                !
 ! A24   A(7,6,11)             124.5756         estimate D2E/DX2                !
 ! A25   A(6,7,8)              103.2693         estimate D2E/DX2                !
 ! A26   A(6,7,9)              107.1975         estimate D2E/DX2                !
 ! A27   A(6,7,10)             107.7685         estimate D2E/DX2                !
 ! A28   A(8,7,9)              106.3831         estimate D2E/DX2                !
 ! A29   A(8,7,10)             113.9465         estimate D2E/DX2                !
 ! A30   A(9,7,10)             117.2074         estimate D2E/DX2                !
 ! A31   A(7,8,39)             111.046          estimate D2E/DX2                !
 ! A32   A(7,8,40)             108.5371         estimate D2E/DX2                !
 ! A33   A(39,8,40)            112.4335         estimate D2E/DX2                !
 ! A34   A(6,11,12)            125.0832         estimate D2E/DX2                !
 ! A35   A(6,11,16)            119.0579         estimate D2E/DX2                !
 ! A36   A(12,11,16)           115.7852         estimate D2E/DX2                !
 ! A37   A(11,12,13)            97.6844         estimate D2E/DX2                !
 ! A38   A(11,12,14)           108.724          estimate D2E/DX2                !
 ! A39   A(11,12,15)           114.9458         estimate D2E/DX2                !
 ! A40   A(13,12,14)           110.7303         estimate D2E/DX2                !
 ! A41   A(13,12,15)           105.0917         estimate D2E/DX2                !
 ! A42   A(14,12,15)           117.6981         estimate D2E/DX2                !
 ! A43   A(12,13,41)           112.181          estimate D2E/DX2                !
 ! A44   A(12,13,42)           111.9204         estimate D2E/DX2                !
 ! A45   A(41,13,42)           112.0498         estimate D2E/DX2                !
 ! A46   A(11,16,17)           121.4699         estimate D2E/DX2                !
 ! A47   A(11,16,22)           120.8072         estimate D2E/DX2                !
 ! A48   A(17,16,22)           117.5712         estimate D2E/DX2                !
 ! A49   A(16,17,18)           122.2869         estimate D2E/DX2                !
 ! A50   A(16,17,21)           127.0945         estimate D2E/DX2                !
 ! A51   A(18,17,21)           110.5996         estimate D2E/DX2                !
 ! A52   A(17,18,19)           106.965          estimate D2E/DX2                !
 ! A53   A(18,19,20)           107.3316         estimate D2E/DX2                !
 ! A54   A(19,20,21)           112.9493         estimate D2E/DX2                !
 ! A55   A(19,20,43)           124.1828         estimate D2E/DX2                !
 ! A56   A(21,20,43)           122.8439         estimate D2E/DX2                !
 ! A57   A(17,21,20)           102.1352         estimate D2E/DX2                !
 ! A58   A(4,22,16)            119.8768         estimate D2E/DX2                !
 ! A59   A(4,22,23)            122.0342         estimate D2E/DX2                !
 ! A60   A(16,22,23)           118.0856         estimate D2E/DX2                !
 ! A61   A(22,23,24)           120.5446         estimate D2E/DX2                !
 ! A62   A(22,23,31)           119.7078         estimate D2E/DX2                !
 ! A63   A(24,23,31)           119.7047         estimate D2E/DX2                !
 ! A64   A(23,24,25)           120.5341         estimate D2E/DX2                !
 ! A65   A(23,24,44)           118.6236         estimate D2E/DX2                !
 ! A66   A(25,24,44)           120.8138         estimate D2E/DX2                !
 ! A67   A(24,25,26)           119.3741         estimate D2E/DX2                !
 ! A68   A(24,25,45)           122.3413         estimate D2E/DX2                !
 ! A69   A(26,25,45)           118.2825         estimate D2E/DX2                !
 ! A70   A(25,26,27)           130.8131         estimate D2E/DX2                !
 ! A71   A(25,26,30)           118.5938         estimate D2E/DX2                !
 ! A72   A(27,26,30)           110.5923         estimate D2E/DX2                !
 ! A73   A(26,27,28)           105.9372         estimate D2E/DX2                !
 ! A74   A(27,28,29)           111.3471         estimate D2E/DX2                !
 ! A75   A(27,28,46)           120.6968         estimate D2E/DX2                !
 ! A76   A(29,28,46)           127.9562         estimate D2E/DX2                !
 ! A77   A(28,29,30)           105.8414         estimate D2E/DX2                !
 ! A78   A(28,29,47)           131.5203         estimate D2E/DX2                !
 ! A79   A(30,29,47)           122.638          estimate D2E/DX2                !
 ! A80   A(26,30,29)           106.2817         estimate D2E/DX2                !
 ! A81   A(26,30,31)           121.9578         estimate D2E/DX2                !
 ! A82   A(29,30,31)           131.7599         estimate D2E/DX2                !
 ! A83   A(23,31,30)           119.8262         estimate D2E/DX2                !
 ! A84   A(23,31,48)           122.5786         estimate D2E/DX2                !
 ! A85   A(30,31,48)           117.5924         estimate D2E/DX2                !
 ! D1    D(32,1,2,3)          -178.9862         estimate D2E/DX2                !
 ! D2    D(32,1,2,34)           61.8113         estimate D2E/DX2                !
 ! D3    D(32,1,2,35)          -57.4509         estimate D2E/DX2                !
 ! D4    D(33,1,2,3)           -59.4968         estimate D2E/DX2                !
 ! D5    D(33,1,2,34)         -178.6993         estimate D2E/DX2                !
 ! D6    D(33,1,2,35)           62.0385         estimate D2E/DX2                !
 ! D7    D(1,2,3,4)            -52.4898         estimate D2E/DX2                !
 ! D8    D(1,2,3,36)          -174.3005         estimate D2E/DX2                !
 ! D9    D(1,2,3,37)            67.3748         estimate D2E/DX2                !
 ! D10   D(34,2,3,4)            65.5297         estimate D2E/DX2                !
 ! D11   D(34,2,3,36)          -56.2811         estimate D2E/DX2                !
 ! D12   D(34,2,3,37)         -174.6058         estimate D2E/DX2                !
 ! D13   D(35,2,3,4)          -177.2934         estimate D2E/DX2                !
 ! D14   D(35,2,3,36)           60.8958         estimate D2E/DX2                !
 ! D15   D(35,2,3,37)          -57.4289         estimate D2E/DX2                !
 ! D16   D(2,3,4,5)             99.7865         estimate D2E/DX2                !
 ! D17   D(2,3,4,22)           -77.7176         estimate D2E/DX2                !
 ! D18   D(36,3,4,5)          -139.9474         estimate D2E/DX2                !
 ! D19   D(36,3,4,22)           42.5484         estimate D2E/DX2                !
 ! D20   D(37,3,4,5)           -20.0221         estimate D2E/DX2                !
 ! D21   D(37,3,4,22)          162.4737         estimate D2E/DX2                !
 ! D22   D(3,4,5,6)           -176.4499         estimate D2E/DX2                !
 ! D23   D(3,4,5,38)             3.7304         estimate D2E/DX2                !
 ! D24   D(22,4,5,6)             1.1397         estimate D2E/DX2                !
 ! D25   D(22,4,5,38)         -178.68           estimate D2E/DX2                !
 ! D26   D(3,4,22,16)          176.0709         estimate D2E/DX2                !
 ! D27   D(3,4,22,23)           -3.2522         estimate D2E/DX2                !
 ! D28   D(5,4,22,16)           -1.477          estimate D2E/DX2                !
 ! D29   D(5,4,22,23)          179.1999         estimate D2E/DX2                !
 ! D30   D(4,5,6,7)           -173.3346         estimate D2E/DX2                !
 ! D31   D(4,5,6,11)            -0.0876         estimate D2E/DX2                !
 ! D32   D(38,5,6,7)             6.4923         estimate D2E/DX2                !
 ! D33   D(38,5,6,11)          179.7394         estimate D2E/DX2                !
 ! D34   D(5,6,7,8)           -121.6493         estimate D2E/DX2                !
 ! D35   D(5,6,7,9)             -9.5417         estimate D2E/DX2                !
 ! D36   D(5,6,7,10)           117.4549         estimate D2E/DX2                !
 ! D37   D(11,6,7,8)            65.442          estimate D2E/DX2                !
 ! D38   D(11,6,7,9)           177.5496         estimate D2E/DX2                !
 ! D39   D(11,6,7,10)          -55.4538         estimate D2E/DX2                !
 ! D40   D(5,6,11,12)          176.1183         estimate D2E/DX2                !
 ! D41   D(5,6,11,16)           -0.6202         estimate D2E/DX2                !
 ! D42   D(7,6,11,12)          -11.3269         estimate D2E/DX2                !
 ! D43   D(7,6,11,16)          171.9346         estimate D2E/DX2                !
 ! D44   D(6,7,8,39)           152.964          estimate D2E/DX2                !
 ! D45   D(6,7,8,40)           -82.9604         estimate D2E/DX2                !
 ! D46   D(9,7,8,39)            40.2604         estimate D2E/DX2                !
 ! D47   D(9,7,8,40)           164.336          estimate D2E/DX2                !
 ! D48   D(10,7,8,39)          -90.4331         estimate D2E/DX2                !
 ! D49   D(10,7,8,40)           33.6425         estimate D2E/DX2                !
 ! D50   D(6,11,12,13)        -103.2157         estimate D2E/DX2                !
 ! D51   D(6,11,12,14)         141.7683         estimate D2E/DX2                !
 ! D52   D(6,11,12,15)           7.4257         estimate D2E/DX2                !
 ! D53   D(16,11,12,13)         73.6182         estimate D2E/DX2                !
 ! D54   D(16,11,12,14)        -41.3978         estimate D2E/DX2                !
 ! D55   D(16,11,12,15)       -175.7404         estimate D2E/DX2                !
 ! D56   D(6,11,16,17)        -175.1543         estimate D2E/DX2                !
 ! D57   D(6,11,16,22)           0.2602         estimate D2E/DX2                !
 ! D58   D(12,11,16,17)          7.8095         estimate D2E/DX2                !
 ! D59   D(12,11,16,22)       -176.776          estimate D2E/DX2                !
 ! D60   D(11,12,13,41)        154.709          estimate D2E/DX2                !
 ! D61   D(11,12,13,42)        -78.3442         estimate D2E/DX2                !
 ! D62   D(14,12,13,41)        -91.8748         estimate D2E/DX2                !
 ! D63   D(14,12,13,42)         35.0721         estimate D2E/DX2                !
 ! D64   D(15,12,13,41)         36.2083         estimate D2E/DX2                !
 ! D65   D(15,12,13,42)        163.1551         estimate D2E/DX2                !
 ! D66   D(11,16,17,18)        113.4642         estimate D2E/DX2                !
 ! D67   D(11,16,17,21)        -68.2768         estimate D2E/DX2                !
 ! D68   D(22,16,17,18)        -62.093          estimate D2E/DX2                !
 ! D69   D(22,16,17,21)        116.1659         estimate D2E/DX2                !
 ! D70   D(11,16,22,4)           0.8058         estimate D2E/DX2                !
 ! D71   D(11,16,22,23)       -179.8446         estimate D2E/DX2                !
 ! D72   D(17,16,22,4)         176.3941         estimate D2E/DX2                !
 ! D73   D(17,16,22,23)         -4.2564         estimate D2E/DX2                !
 ! D74   D(16,17,18,19)        179.9569         estimate D2E/DX2                !
 ! D75   D(21,17,18,19)          1.4404         estimate D2E/DX2                !
 ! D76   D(16,17,21,20)       -179.724          estimate D2E/DX2                !
 ! D77   D(18,17,21,20)         -1.2963         estimate D2E/DX2                !
 ! D78   D(17,18,19,20)         -0.9172         estimate D2E/DX2                !
 ! D79   D(18,19,20,21)          0.1139         estimate D2E/DX2                !
 ! D80   D(18,19,20,43)        178.372          estimate D2E/DX2                !
 ! D81   D(19,20,21,17)          0.74           estimate D2E/DX2                !
 ! D82   D(43,20,21,17)       -177.5448         estimate D2E/DX2                !
 ! D83   D(4,22,23,24)         -70.0194         estimate D2E/DX2                !
 ! D84   D(4,22,23,31)         112.3686         estimate D2E/DX2                !
 ! D85   D(16,22,23,24)        110.6459         estimate D2E/DX2                !
 ! D86   D(16,22,23,31)        -66.9661         estimate D2E/DX2                !
 ! D87   D(22,23,24,25)       -178.2217         estimate D2E/DX2                !
 ! D88   D(22,23,24,44)         -0.1504         estimate D2E/DX2                !
 ! D89   D(31,23,24,25)         -0.6096         estimate D2E/DX2                !
 ! D90   D(31,23,24,44)        177.4617         estimate D2E/DX2                !
 ! D91   D(22,23,31,30)        178.6992         estimate D2E/DX2                !
 ! D92   D(22,23,31,48)         -1.9264         estimate D2E/DX2                !
 ! D93   D(24,23,31,30)          1.0669         estimate D2E/DX2                !
 ! D94   D(24,23,31,48)       -179.5587         estimate D2E/DX2                !
 ! D95   D(23,24,25,26)         -0.268          estimate D2E/DX2                !
 ! D96   D(23,24,25,45)        179.1809         estimate D2E/DX2                !
 ! D97   D(44,24,25,26)       -178.2968         estimate D2E/DX2                !
 ! D98   D(44,24,25,45)          1.1522         estimate D2E/DX2                !
 ! D99   D(24,25,26,27)       -179.6819         estimate D2E/DX2                !
 ! D100  D(24,25,26,30)          0.6735         estimate D2E/DX2                !
 ! D101  D(45,25,26,27)          0.8468         estimate D2E/DX2                !
 ! D102  D(45,25,26,30)       -178.7978         estimate D2E/DX2                !
 ! D103  D(25,26,27,28)       -179.501          estimate D2E/DX2                !
 ! D104  D(30,26,27,28)          0.1656         estimate D2E/DX2                !
 ! D105  D(25,26,30,29)        179.5424         estimate D2E/DX2                !
 ! D106  D(25,26,30,31)         -0.22           estimate D2E/DX2                !
 ! D107  D(27,26,30,29)         -0.1702         estimate D2E/DX2                !
 ! D108  D(27,26,30,31)       -179.9327         estimate D2E/DX2                !
 ! D109  D(26,27,28,29)         -0.1016         estimate D2E/DX2                !
 ! D110  D(26,27,28,46)        179.9146         estimate D2E/DX2                !
 ! D111  D(27,28,29,30)         -0.0027         estimate D2E/DX2                !
 ! D112  D(27,28,29,47)       -179.8291         estimate D2E/DX2                !
 ! D113  D(46,28,29,30)        179.9796         estimate D2E/DX2                !
 ! D114  D(46,28,29,47)          0.1533         estimate D2E/DX2                !
 ! D115  D(28,29,30,26)          0.1            estimate D2E/DX2                !
 ! D116  D(28,29,30,31)        179.8298         estimate D2E/DX2                !
 ! D117  D(47,29,30,26)        179.9456         estimate D2E/DX2                !
 ! D118  D(47,29,30,31)         -0.3246         estimate D2E/DX2                !
 ! D119  D(26,30,31,23)         -0.6603         estimate D2E/DX2                !
 ! D120  D(26,30,31,48)        179.9345         estimate D2E/DX2                !
 ! D121  D(29,30,31,23)        179.6454         estimate D2E/DX2                !
 ! D122  D(29,30,31,48)          0.2402         estimate D2E/DX2                !
 --------------------------------------------------------------------------------
 Trust Radius=3.00D-01 FncErr=1.00D-07 GrdErr=1.00D-06 EigMax=2.50D+02 EigMin=1.00D-04
 Number of steps in this run=    268 maximum allowed number of steps=    288.
 GradGradGradGradGradGradGradGradGradGradGradGradGradGradGradGradGradGrad

 Leave Link  103 at Fri Nov  4 18:33:32 2022, MaxMem=   805306368 cpu:               0.1 elap:               0.1
 (Enter /home/wykgroup/appl/g16/l202.exe)
                          Input orientation:                          
 ---------------------------------------------------------------------
 Center     Atomic      Atomic             Coordinates (Angstroms)
 Number     Number       Type             X           Y           Z
 ---------------------------------------------------------------------
      1          7           0        1.533950    2.818466    1.821517
      2          6           0        2.346548    2.391774    0.697432
      3          6           0        1.537587    2.482664   -0.605791
      4          6           0        0.235276    1.752549   -0.467521
      5          6           0       -0.932081    2.456971   -0.206362
      6          6           0       -2.139999    1.816184   -0.000370
      7         16           0       -3.561693    2.908546    0.135539
      8          7           0       -4.178560    2.546666    1.634450
      9          8           0       -3.059165    4.251190    0.217736
     10          8           0       -4.448547    2.607261   -0.945402
     11          6           0       -2.212547    0.440846   -0.052556
     12         16           0       -3.679585   -0.525646    0.289688
     13          7           0       -3.251764   -1.046772    1.823606
     14          8           0       -3.728340   -1.628670   -0.626095
     15          8           0       -4.874227    0.237014    0.475441
     16          6           0       -1.058066   -0.287306   -0.327614
     17          6           0       -1.093836   -1.738650   -0.498831
     18          7           0       -0.828228   -2.332456   -1.683131
     19          7           0       -0.941091   -3.590818   -1.502383
     20          7           0       -1.246000   -3.777661   -0.246208
     21          7           0       -1.344589   -2.648454    0.433673
     22          6           0        0.163359    0.360462   -0.543714
     23          6           0        1.350948   -0.471695   -0.834666
     24          6           0        1.940480   -0.460150   -2.123956
     25          6           0        3.014227   -1.255223   -2.402567
     26          6           0        3.535946   -2.083068   -1.398419
     27          7           0        4.552711   -2.923918   -1.415707
     28          6           0        4.605619   -3.464603   -0.185764
     29          6           0        3.614571   -2.962429    0.624940
     30          7           0        2.924011   -2.076095   -0.139035
     31          6           0        1.854459   -1.294724    0.132650
     32          1           0        2.066421    2.776943    2.682645
     33          1           0        1.222408    3.775148    1.692760
     34          1           0        2.634658    1.351780    0.875445
     35          1           0        3.271062    2.980930    0.569283
     36          1           0        2.137219    2.061704   -1.412608
     37          1           0        1.336691    3.531603   -0.826444
     38          1           0       -0.935280    3.534506   -0.158161
     39          1           0       -4.672181    3.335039    2.022697
     40          1           0       -4.766644    1.724664    1.551203
     41          1           0       -4.056079   -1.267827    2.388227
     42          1           0       -2.587970   -1.810882    1.791830
     43          1           0       -1.418048   -4.682756    0.167321
     44          1           0        1.503746    0.164867   -2.885879
     45          1           0        3.476420   -1.279142   -3.374805
     46          1           0        5.354831   -4.190890    0.061140
     47          1           0        3.364276   -3.162004    1.646498
     48          1           0        1.437093   -1.345938    1.128271
 ---------------------------------------------------------------------
                    Distance matrix (angstroms):
                    1          2          3          4          5
     1  N    0.000000
     2  C    1.451188   0.000000
     3  C    2.450428   1.536577   0.000000
     4  C    2.839441   2.494633   1.499400   0.000000
     5  C    3.213142   3.401544   2.501893   1.388213   0.000000
     6  C    4.221581   4.576825   3.786208   2.421613   1.382789
     7  S    5.368074   5.957356   5.170455   4.014597   2.689921
     8  N    5.722031   6.593862   6.139798   4.952863   3.733130
     9  O    5.071639   5.736660   4.993598   4.191196   2.814884
    10  O    6.594750   6.994187   5.997055   4.785092   3.596429
    11  C    4.816790   5.015371   4.305647   2.807953   2.393325
    12  S    6.380480   6.707598   6.088571   4.592350   4.085443
    13  N    6.151677   6.665805   6.426257   5.024431   4.666681
    14  O    7.311602   7.404050   6.680829   5.212297   4.968671
    15  O    7.038505   7.538691   6.879199   5.412305   4.575323
    16  C    4.580734   4.451919   3.806249   2.419363   2.749841
    17  C    5.749485   5.507058   4.975472   3.735772   4.208911
    18  N    6.662916   6.169655   5.472032   4.392724   5.013007
    19  N    7.632369   7.172110   6.620794   5.568335   6.185103
    20  N    7.450671   7.201304   6.860709   5.729431   6.242657
    21  N    6.332402   6.252836   5.976270   4.762033   5.161896
    22  C    3.676223   3.230013   2.529051   1.396025   2.389382
    23  C    4.232488   3.396763   2.969084   2.515310   3.766175
    24  C    5.146002   4.032194   3.335761   3.247697   4.520881
    25  C    6.052194   4.832844   4.402348   4.529202   5.846114
    26  C    6.196854   5.082467   5.046543   5.145187   6.480448
    27  N    7.250345   6.130994   6.243241   6.434955   7.778137
    28  C    7.276076   6.338817   6.705165   6.811605   8.107502
    29  C    6.259355   5.502783   5.956307   5.902891   7.122710
    30  N    5.452775   4.582029   4.787725   4.689959   5.951694
    31  C    4.457951   3.761834   3.861912   3.502547   4.685611
    32  H    1.013307   2.041542   3.343662   3.784973   4.176094
    33  H    1.014336   2.041590   2.655784   3.119639   3.160076
    34  H    2.063438   1.093747   2.162527   2.778706   3.887594
    35  H    2.147566   1.103745   2.152673   3.435095   4.306109
    36  H    3.375824   2.145934   1.089825   2.146195   3.321426
    37  H    2.749395   2.154349   1.090559   2.122963   2.585858
    38  H    3.244832   3.578864   2.724301   2.154362   1.078618
    39  H    6.230841   7.204764   6.796816   5.726132   4.441627
    40  H    6.400544   7.195239   6.706007   5.394000   4.281260
    41  H    6.947473   7.566049   7.370172   5.974420   5.510479
    42  H    6.198546   6.573393   6.418984   5.076754   4.994928
    43  H    8.229155   8.031324   7.789527   6.674553   7.165996
    44  H    5.403894   4.302272   3.251481   3.158830   4.285651
    45  H    6.896763   5.597799   5.057440   5.305513   6.590331
    46  H    8.174909   7.265405   7.717025   7.862176   9.153736
    47  H    6.256735   5.725464   6.346012   6.197785   7.311952
    48  H    4.222823   3.870817   4.204196   3.686670   4.675077
                    6          7          8          9         10
     6  C    0.000000
     7  S    1.798039   0.000000
     8  N    2.713296   1.660788   0.000000
     9  O    2.611837   1.435961   2.483047   0.000000
    10  O    2.616923   1.430286   2.594649   2.446584   0.000000
    11  C    1.378238   2.818709   3.338513   3.912613   3.238861
    12  S    2.817557   3.439671   3.390644   4.817495   3.454253
    13  N    3.572034   4.311632   3.715848   5.539343   4.738318
    14  O    3.844655   4.603714   4.769297   5.977675   4.308569
    15  O    3.193146   2.995891   2.676144   4.412989   2.796081
    16  C    2.387956   4.086090   4.649578   4.989965   4.500616
    17  C    3.738952   5.299922   5.694764   6.344617   5.508217
    18  N    4.665152   6.184457   6.785050   7.206579   6.168611
    19  N    5.738387   7.196671   7.615093   8.303140   7.143435
    20  N    5.670165   7.086151   7.220381   8.244105   7.177215
    21  N    4.555663   5.990383   6.038422   7.112770   6.257712
    22  C    2.778454   4.564004   5.326926   5.109035   5.145788
    23  C    4.256424   6.041636   6.766276   6.546930   6.567067
    24  C    5.132409   6.835740   7.785192   7.257872   7.184544
    25  C    6.462982   8.186677   9.082293   8.606548   8.528488
    26  C    7.026738   8.811680   9.494542   9.286025   9.271274
    27  N    8.322506  10.112742  10.745503  10.587302  10.575338
    28  C    8.568806  10.364616  10.798627  10.883253  10.928061
    29  C    7.506079   9.284753   9.596985   9.835694   9.924782
    30  N    6.388525   8.184521   8.658041   8.715516   8.771468
    31  C    5.064695   6.855814   7.308146   7.410000   7.491032
    32  H    5.080905   6.179057   6.336523   5.875442   7.458977
    33  H    4.243820   5.105249   5.539226   4.553481   6.362672
    34  H    4.876482   6.431621   6.958720   6.423300   7.420479
    35  H    5.564235   6.846891   7.537906   6.465982   7.875675
    36  H    4.511018   5.965861   7.029140   5.869777   6.624819
    37  H    3.963891   5.030684   6.119158   4.575114   5.859824
    38  H    2.104490   2.715904   3.835120   2.272845   3.717873
    39  H    3.579339   2.230794   1.007933   2.588249   3.064194
    40  H    3.052052   2.203994   1.014131   3.328206   2.667059
    41  H    4.346020   4.770861   3.890185   6.013686   5.126737
    42  H    4.070414   5.095532   4.641441   6.280806   5.520343
    43  H    6.541067   7.888225   7.876385   9.083568   7.972856
    44  H    4.932533   6.505030   7.641658   6.866631   6.720158
    45  H    7.246518   8.910348   9.916056   9.284655   9.154848
    46  H    9.605269  11.397892  11.779453  11.920092  11.972227
    47  H    7.602076   9.332932   9.459568   9.912487  10.051993
    48  H    4.905958   6.638826   6.851579   7.236937   7.387060
                   11         12         13         14         15
    11  C    0.000000
    12  S    1.789815   0.000000
    13  N    2.610165   1.675562   0.000000
    14  O    2.628587   1.434467   2.562570   0.000000
    15  O    2.721189   1.429450   2.469422   2.450962   0.000000
    16  C    1.392368   2.703743   3.164940   3.003117   3.934831
    17  C    2.490156   2.962977   3.244851   2.639868   4.375364
    18  N    3.502331   3.909836   4.452383   3.165958   5.256589
    19  N    4.469107   4.483988   4.782634   3.519469   5.833837
    20  N    4.332149   4.096965   3.970513   3.305222   5.459160
    21  N    3.245543   3.158995   2.852125   2.800953   4.559169
    22  C    2.427474   4.030876   4.387206   4.371356   5.141127
    23  C    3.760708   5.154934   5.346221   5.213565   6.400895
    24  C    4.727592   6.116788   6.548799   5.978675   7.326878
    25  C    5.976485   7.251733   7.560862   6.982659   8.528623
    26  C    6.420799   7.572262   7.584745   7.319345   8.923292
    27  N    7.677795   8.742469   8.656018   8.418845  10.121022
    28  C    7.858605   8.803870   8.462975   8.545140  10.198365
    29  C    6.782079   7.697728   7.228630   7.567189   9.072954
    30  N    5.720725   6.796703   6.561376   6.685147   8.157241
    31  C    4.425725   5.589435   5.384637   5.644011   6.909338
    32  H    5.590013   7.046270   6.606197   7.996027   7.713339
    33  H    5.095352   6.670455   6.579229   7.686888   7.153267
    34  H    5.018604   6.613434   6.426666   7.185086   7.601715
    35  H    6.075251   7.790105   7.768073   8.465752   8.595558
    36  H    4.837085   6.589947   7.012620   6.974399   7.486962
    37  H    4.769567   6.547522   7.002728   7.233470   7.150155
    38  H    3.348626   4.921038   5.502873   5.888848   5.175926
    39  H    4.328143   4.346660   4.610584   5.704852   3.468801
    40  H    3.277750   2.799467   3.170162   4.130805   1.839005
    41  H    3.503655   2.257531   1.007266   3.053483   2.567619
    42  H    2.934789   2.258293   1.012668   2.679554   3.339721
    43  H    5.189497   4.734035   4.396155   3.910806   6.020320
    44  H    4.681316   6.117838   6.801631   5.974790   7.209869
    45  H    6.808822   8.074941   8.505642   7.719207   9.319680
    46  H    8.873056   9.752278   9.330876   9.462625  11.153996
    47  H    6.853340   7.642466   6.948205   7.604012   8.988750
    48  H    4.231645   5.249427   4.749565   5.462548   6.539472
                   16         17         18         19         20
    16  C    0.000000
    17  C    1.461847   0.000000
    18  N    2.464325   1.351193   0.000000
    19  N    3.508128   2.112102   1.276276   0.000000
    20  N    3.496359   2.060228   2.080360   1.306084   0.000000
    21  N    2.497334   1.326720   2.201669   2.190702   1.321766
    22  C    1.399350   2.447208   3.087609   4.213249   4.381650
    23  C    2.468694   2.773973   2.988500   3.927876   4.244977
    24  C    3.499714   3.671876   3.371291   4.300103   4.968447
    25  C    4.671816   4.553471   4.054933   4.680798   5.400195
    26  C    5.047408   4.728928   4.380556   4.725249   5.202522
    27  N    6.294163   5.842004   5.419949   5.534810   5.976759
    28  C    6.495589   5.963281   5.748962   5.702229   5.860299
    29  C    5.467831   4.992955   5.046040   5.066994   5.004863
    30  N    4.369469   4.048014   4.065618   4.369453   4.505086
    31  C    3.116013   3.047668   3.401582   3.969947   3.990157
    32  H    5.311657   6.363930   7.317442   8.191946   7.906526
    33  H    5.077992   6.369460   7.273554   8.315475   8.179092
    34  H    4.215467   5.033991   5.666701   6.547467   6.529072
    35  H    5.497921   6.516720   7.078815   8.076008   8.169909
    36  H    4.111557   5.071232   5.308079   6.437007   6.848711
    37  H    4.535168   5.812947   6.309356   7.508266   7.773821
    38  H    3.827537   5.286527   6.062858   7.251014   7.319296
    39  H    5.630911   6.701117   7.786504   8.620598   8.214447
    40  H    4.618607   5.448550   6.514006   7.225898   6.775043
    41  H    4.162367   4.163131   5.303623   5.498753   4.597397
    42  H    3.025547   2.735833   3.929897   4.090504   3.134119
    43  H    4.437852   3.035891   3.048929   2.051275   1.009853
    44  H    3.648570   4.008592   3.622337   4.690038   5.483839
    45  H    5.552538   5.419375   4.743546   5.325806   6.191281
    46  H    7.517603   6.921876   6.687786   6.514855   6.620891
    47  H    5.631883   5.148120   5.417718   5.351216   5.021555
    48  H    3.076706   3.034351   3.742844   4.197092   3.873171
                   21         22         23         24         25
    21  N    0.000000
    22  C    3.504678   0.000000
    23  C    3.689564   1.479022   0.000000
    24  C    4.703384   2.515696   1.417727   0.000000
    25  C    5.383737   3.767390   2.416346   1.364807   0.000000
    26  C    5.243648   4.251552   2.772824   2.388676   1.402080
    27  N    6.186617   5.551030   4.074591   3.659989   2.474948
    28  C    6.037779   5.873068   4.468944   4.459405   3.511140
    29  C    4.972769   4.931350   3.668541   4.076813   3.527146
    30  N    4.344713   3.704291   2.352133   2.741992   2.409470
    31  C    3.486704   2.461082   1.366236   2.407526   2.788180
    32  H    6.791745   4.457625   4.841181   5.796382   6.558665
    33  H    7.031176   4.217046   4.943691   5.746363   6.729558
    34  H    5.659633   3.017291   2.810241   3.572307   4.205461
    35  H    7.280974   4.214668   4.192676   4.567823   5.181008
    36  H    6.141444   2.746876   2.714839   2.627636   3.570878
    37  H    6.853485   3.393049   4.003332   4.240541   5.311497
    38  H    6.224693   3.380860   4.661989   5.300153   6.601323
    39  H    7.028517   6.230330   7.676837   8.679025   9.986708
    40  H    5.664230   5.527627   6.923966   7.953975   9.222472
    41  H    3.616433   5.389922   6.344825   7.547904   8.540556
    42  H    2.022898   4.211806   4.920059   6.137159   7.020423
    43  H    2.052979   5.332960   5.138516   5.861746   6.164200
    44  H    5.200694   2.705667   2.153145   1.077919   2.128803
    45  H    6.294573   4.656153   3.409092   2.143475   1.076774
    46  H    6.884775   6.930515   5.537686   5.509162   4.490704
    47  H    4.889589   5.239337   4.177011   4.852167   4.489239
    48  H    3.149090   2.707347   2.150545   3.408078   3.868126
                   26         27         28         29         30
    26  C    0.000000
    27  N    1.319523   0.000000
    28  C    2.126823   1.344581   0.000000
    29  C    2.207587   2.246292   1.375353   0.000000
    30  N    1.400201   2.236372   2.181272   1.358720   0.000000
    31  C    2.406877   3.511730   3.518330   2.474183   1.352144
    32  H    6.514161   7.448351   7.323401   6.290573   5.678848
    33  H    7.016162   8.101294   8.209078   7.228943   6.363015
    34  H    4.216747   5.216311   5.311159   4.431183   3.586533
    35  H    5.439309   6.360034   6.625408   5.953537   5.118169
    36  H    4.374445   5.539949   6.175615   5.619260   4.400273
    37  H    6.057095   7.236281   7.748759   7.033328   5.868423
    38  H    7.286098   8.568004   8.926918   7.970229   6.809797
    39  H   10.413129  11.666010  11.712814  10.501527   9.573692
    40  H    9.598546  10.828769  10.852874   9.647361   8.743503
    41  H    8.523036   9.556349   9.299262   8.051070   7.467396
    42  H    6.910435   7.906735   7.641557   6.415544   5.846410
    43  H    5.809645   6.422573   6.155740   5.338183   5.073659
    44  H    3.375734   4.582378   5.485006   5.153776   3.818928
    45  H    2.134465   2.775204   4.027569   4.341716   3.377943
    46  H    3.143498   2.104684   1.072275   2.203519   3.228207
    47  H    3.234980   3.293351   2.233760   1.070541   2.135687
    48  H    3.366409   4.320754   4.031748   2.758223   2.085694
                   31         32         33         34         35
    31  C    0.000000
    32  H    4.808937   0.000000
    33  H    5.342006   1.639708   0.000000
    34  H    2.857349   2.370644   2.921500   0.000000
    35  H    4.525332   2.441120   2.467785   1.775633   0.000000
    36  H    3.705858   4.157845   3.662796   2.446757   2.461395
    37  H    4.947866   3.662748   2.533528   3.054958   2.448078
    38  H    5.584682   4.201700   2.852969   4.310115   4.304524
    39  H    8.222165   6.793803   5.920197   7.657637   8.082878
    40  H    7.414041   7.005586   6.331925   7.441436   8.194333
    41  H    6.326358   7.343832   7.333328   7.342807   8.662995
    42  H    4.770165   6.595836   6.762583   6.173981   7.667094
    43  H    4.710548   8.609036   8.990835   7.303526   8.993409
    44  H    3.371190   6.176407   5.837569   4.103082   4.794972
    45  H    3.864356   7.425135   7.503775   5.069018   5.809149
    46  H    4.543732   8.138589   9.121232   6.227651   7.485673
    47  H    2.838664   6.166775   7.260427   4.636929   6.237364
    48  H    1.080777   4.450875   5.156574   2.962393   4.732620
                   36         37         38         39         40
    36  H    0.000000
    37  H    1.773425   0.000000
    38  H    3.630844   2.368219   0.000000
    39  H    7.732440   6.653028   4.331323   0.000000
    40  H    7.520711   6.794772   4.569115   1.680636   0.000000
    41  H    7.993063   7.902569   6.267846   4.658280   3.187557
    42  H    6.898750   7.127445   5.925118   5.556774   4.159881
    43  H    7.786131   8.720771   8.237864   8.849680   7.360928
    44  H    2.483909   3.950201   4.974310   8.502127   7.838269
    45  H    4.099382   5.849432   7.278812  10.808487  10.061636
    46  H    7.184699   8.750438   9.964705  12.689692  11.817713
    47  H    6.176643   7.418282   8.160037  10.341070   9.486857
    48  H    4.307931   5.255606   5.576898   7.748210   6.934971
                   41         42         43         44         45
    41  H    0.000000
    42  H    1.675095   0.000000
    43  H    4.853181   3.500773   0.000000
    44  H    7.796182   6.521249   6.431046   0.000000
    45  H    9.484261   7.984591   6.934483   2.493122   0.000000
    46  H   10.125456   8.470408   6.791546   6.518313   4.879798
    47  H    7.694136   6.105397   5.231756   5.922168   5.363882
    48  H    5.636357   4.105802   4.495510   4.289566   4.943785
                   46         47         48
    46  H    0.000000
    47  H    2.744864   0.000000
    48  H    4.957943   2.698275   0.000000
 Stoichiometry    C16H17N9O4S2
 Framework group  C1[X(C16H17N9O4S2)]
 Deg. of freedom   138
 Full point group                 C1      NOp   1
 Largest Abelian subgroup         C1      NOp   1
 Largest concise Abelian subgroup C1      NOp   1
                         Standard orientation:                         
 ---------------------------------------------------------------------
 Center     Atomic      Atomic             Coordinates (Angstroms)
 Number     Number       Type             X           Y           Z
 ---------------------------------------------------------------------
      1          7           0        0.117529    3.697455    1.806697
      2          6           0        1.183054    3.690667    0.821529
      3          6           0        0.631726    3.278711   -0.552297
      4          6           0       -0.127266    1.989767   -0.448586
      5          6           0       -1.513836    2.003107   -0.382393
      6          6           0       -2.247153    0.842981   -0.213699
      7         16           0       -4.028732    1.049547   -0.341168
      8          7           0       -4.581711    0.504244    1.126849
      9          8           0       -4.291227    2.460930   -0.373991
     10          8           0       -4.479378    0.274486   -1.455580
     11          6           0       -1.606318   -0.372591   -0.107602
     12         16           0       -2.414730   -1.937371    0.210786
     13          7           0       -2.002809   -2.077214    1.828894
     14          8           0       -1.769854   -2.955523   -0.567159
     15          8           0       -3.843364   -1.892512    0.192958
     16          6           0       -0.216758   -0.413626   -0.185887
     17          6           0        0.510546   -1.681704   -0.184977
     18          7           0        1.203378   -2.117141   -1.260198
     19          7           0        1.718003   -3.240752   -0.941543
     20          7           0        1.376239   -3.488720    0.294404
     21          7           0        0.625870   -2.537295    0.822421
     22          6           0        0.525949    0.758886   -0.364161
     23          6           0        1.998504    0.645205   -0.442671
     24          6           0        2.675835    0.888573   -1.664122
     25          6           0        4.030997    0.748457   -1.745375
     26          6           0        4.752403    0.365847   -0.605633
     27          7           0        6.045449    0.171574   -0.428349
     28          6           0        6.190849   -0.195375    0.856994
     29          6           0        4.979325   -0.233520    1.506879
     30          7           0        4.050845    0.125085    0.581975
     31          6           0        2.707155    0.255277    0.658406
     32          1           0        0.470702    3.984434    2.712072
     33          1           0       -0.613191    4.346928    1.536310
     34          1           0        1.929016    2.960614    1.148401
     35          1           0        1.690268    4.664577    0.709790
     36          1           0        1.468443    3.184291   -1.244184
     37          1           0       -0.038519    4.059108   -0.914337
     38          1           0       -2.068049    2.924863   -0.463828
     39          1           0       -5.455054    0.944322    1.370841
     40          1           0       -4.655093   -0.506501    1.088508
     41          1           0       -2.655161   -2.650459    2.339200
     42          1           0       -1.046996   -2.389029    1.950095
     43          1           0        1.629164   -4.328216    0.795483
     44          1           0        2.095244    1.155103   -2.532330
     45          1           0        4.573269    0.913208   -2.660930
     46          1           0        7.161067   -0.415402    1.257044
     47          1           0        4.723482   -0.477080    2.517464
     48          1           0        2.237737    0.050767    1.610194
 ---------------------------------------------------------------------
 Rotational constants (GHZ):           0.2321823           0.1017928           0.0796453
 Leave Link  202 at Fri Nov  4 18:33:33 2022, MaxMem=   805306368 cpu:               0.1 elap:               0.1
 (Enter /home/wykgroup/appl/g16/l301.exe)
 Standard basis: 6-31G(d) (6D, 7F)
 Ernie: Thresh=  0.10000D-02 Tol=  0.10000D-05 Strict=F.
 There are   507 symmetry adapted cartesian basis functions of A   symmetry.
 There are   507 symmetry adapted basis functions of A   symmetry.
   507 basis functions,   984 primitive gaussians,   507 cartesian basis functions
   120 alpha electrons      120 beta electrons
       nuclear repulsion energy      3754.9371578766 Hartrees.
 IExCor=  402 DFT=T Ex+Corr=B3LYP ExCW=0 ScaHFX=  0.200000
 ScaDFX=  0.800000  0.720000  1.000000  0.810000 ScalE2=  1.000000  1.000000
 IRadAn=      5 IRanWt=     -1 IRanGd=            0 ICorTp=0 IEmpDi=  4
 NAtoms=   48 NActive=   48 NUniq=   48 SFac= 1.00D+00 NAtFMM=   60 NAOKFM=F Big=F
 Integral buffers will be    131072 words long.
 Raffenetti 2 integral format.
 Two-electron integral symmetry is turned on.
 Leave Link  301 at Fri Nov  4 18:33:33 2022, MaxMem=   805306368 cpu:               0.3 elap:               0.1
 (Enter /home/wykgroup/appl/g16/l302.exe)
 NPDir=0 NMtPBC=     1 NCelOv=     1 NCel=       1 NClECP=     1 NCelD=      1
         NCelK=      1 NCelE2=     1 NClLst=     1 CellRange=     0.0.
 One-electron integrals computed using PRISM.
 One-electron integral symmetry used in STVInt
 NBasis=   507 RedAO= T EigKep=  2.40D-04  NBF=   507
 NBsUse=   507 1.00D-06 EigRej= -1.00D+00 NBFU=   507
 Precomputing XC quadrature grid using
 IXCGrd= 4 IRadAn=           5 IRanWt=          -1 IRanGd=           0 AccXCQ= 0.00D+00.
 Generated NRdTot=       0 NPtTot=           0 NUsed=           0 NTot=          32
 NSgBfM=   501   501   501   501   501 MxSgAt=    48 MxSgA2=    48.
 Leave Link  302 at Fri Nov  4 18:33:37 2022, MaxMem=   805306368 cpu:              17.0 elap:               4.1
 (Enter /home/wykgroup/appl/g16/l303.exe)
 DipDrv:  MaxL=1.
 Leave Link  303 at Fri Nov  4 18:33:37 2022, MaxMem=   805306368 cpu:               0.5 elap:               0.3
 (Enter /home/wykgroup/appl/g16/l401.exe)
 ExpMin= 1.17D-01 ExpMax= 2.19D+04 ExpMxC= 3.30D+03 IAcc=3 IRadAn=         5 AccDes= 0.00D+00
 Harris functional with IExCor=  402 and IRadAn=       5 diagonalized for initial guess.
 HarFok:  IExCor=  402 AccDes= 0.00D+00 IRadAn=         5 IDoV= 1 UseB2=F ITyADJ=14
 ICtDFT=  3500011 ScaDFX=  1.000000  1.000000  1.000000  1.000000
 FoFCou: FMM=F IPFlag=           0 FMFlag=      100000 FMFlg1=           0
         NFxFlg=           0 DoJE=T BraDBF=F KetDBF=T FulRan=T
         wScrn=  0.000000 ICntrl=       500 IOpCl=  0 I1Cent=   200000004 NGrid=           0
         NMat0=    1 NMatS0=      1 NMatT0=    0 NMatD0=    1 NMtDS0=    0 NMtDT0=    0
 Petite list used in FoFCou.
 Harris En= -2209.71905697863    
 JPrj=0 DoOrth=F DoCkMO=F.
 Leave Link  401 at Fri Nov  4 18:33:46 2022, MaxMem=   805306368 cpu:              33.9 elap:               8.2
 (Enter /home/wykgroup/appl/g16/l502.exe)
 Integral symmetry usage will be decided dynamically.
 Closed shell SCF:
 Using DIIS extrapolation, IDIIS=  1040.
 NGot=   805306368 LenX=   804783358 LenY=   804525802
 Requested convergence on RMS density matrix=1.00D-08 within  32 cycles.
 Requested convergence on MAX density matrix=1.00D-06.
 Requested convergence on             energy=1.00D-06.
 No special actions if energy rises.
 Fock matrices will be formed incrementally for  20 cycles.
 Integral accuracy reduced to 1.0D-05 until final iterations.

 Cycle   1  Pass 0  IDiag  1:
 FoFJK:  IHMeth= 1 ICntrl=       0 DoSepK=F KAlg= 0 I1Cent=           0 FoldK=F
 IRaf= 720000000 NMat=       1 IRICut=       1 DoRegI=T DoRafI=F ISym2E= 0 IDoP0=0 IntGTp=1.
 FoFCou: FMM=F IPFlag=           0 FMFlag=      100000 FMFlg1=           0
         NFxFlg=           0 DoJE=F BraDBF=F KetDBF=F FulRan=T
         wScrn=  0.000000 ICntrl=         0 IOpCl=  0 I1Cent=           0 NGrid=           0
         NMat0=    1 NMatS0=      1 NMatT0=    0 NMatD0=    1 NMtDS0=    0 NMtDT0=    0
 Symmetry not used in FoFCou.
 E= -2208.76028266251    
 DIIS: error= 2.46D-02 at cycle   1 NSaved=   1.
 NSaved= 1 IEnMin= 1 EnMin= -2208.76028266251     IErMin= 1 ErrMin= 2.46D-02
 ErrMax= 2.46D-02  0.00D+00 EMaxC= 1.00D-01 BMatC= 1.18D+00 BMatP= 1.18D+00
 IDIUse=3 WtCom= 7.54D-01 WtEn= 2.46D-01
 Coeff-Com:  0.100D+01
 Coeff-En:   0.100D+01
 Coeff:      0.100D+01
 Gap=     0.160 Goal=   None    Shift=    0.000
 GapD=    0.160 DampG=1.000 DampE=0.500 DampFc=0.5000 IDamp=-1.
 Damping current iteration by 5.00D-01
 RMSDP=6.29D-03 MaxDP=5.44D-01              OVMax= 2.48D-01

 Cycle   2  Pass 0  IDiag  1:
 RMSU=  3.14D-03    CP:  9.95D-01
 E= -2208.93752722607     Delta-E=       -0.177244563557 Rises=F Damp=T
 DIIS: error= 1.42D-02 at cycle   2 NSaved=   2.
 NSaved= 2 IEnMin= 2 EnMin= -2208.93752722607     IErMin= 2 ErrMin= 1.42D-02
 ErrMax= 1.42D-02  0.00D+00 EMaxC= 1.00D-01 BMatC= 2.18D-01 BMatP= 1.18D+00
 IDIUse=3 WtCom= 8.58D-01 WtEn= 1.42D-01
 Coeff-Com:  0.253D+00 0.747D+00
 Coeff-En:   0.412D+00 0.588D+00
 Coeff:      0.276D+00 0.724D+00
 Gap=     0.192 Goal=   None    Shift=    0.000
 RMSDP=2.16D-03 MaxDP=1.83D-01 DE=-1.77D-01 OVMax= 2.23D-01

 Cycle   3  Pass 0  IDiag  1:
 RMSU=  1.69D-03    CP:  9.79D-01  5.83D-01
 E= -2209.59714557037     Delta-E=       -0.659618344293 Rises=F Damp=F
 DIIS: error= 7.97D-03 at cycle   3 NSaved=   3.
 NSaved= 3 IEnMin= 3 EnMin= -2209.59714557037     IErMin= 3 ErrMin= 7.97D-03
 ErrMax= 7.97D-03  0.00D+00 EMaxC= 1.00D-01 BMatC= 1.41D-01 BMatP= 2.18D-01
 IDIUse=3 WtCom= 9.20D-01 WtEn= 7.97D-02
 Coeff-Com:  0.999D-01 0.445D+00 0.455D+00
 Coeff-En:   0.000D+00 0.000D+00 0.100D+01
 Coeff:      0.919D-01 0.409D+00 0.499D+00
 Gap=     0.164 Goal=   None    Shift=    0.000
 RMSDP=1.19D-03 MaxDP=8.37D-02 DE=-6.60D-01 OVMax= 1.19D-01

 Cycle   4  Pass 0  IDiag  1:
 RMSU=  7.49D-04    CP:  9.84D-01  7.04D-01  5.00D-01
 E= -2209.70635537462     Delta-E=       -0.109209804255 Rises=F Damp=F
 DIIS: error= 4.00D-03 at cycle   4 NSaved=   4.
 NSaved= 4 IEnMin= 4 EnMin= -2209.70635537462     IErMin= 4 ErrMin= 4.00D-03
 ErrMax= 4.00D-03  0.00D+00 EMaxC= 1.00D-01 BMatC= 2.67D-02 BMatP= 1.41D-01
 IDIUse=3 WtCom= 9.60D-01 WtEn= 4.00D-02
 Coeff-Com:  0.156D-01 0.114D+00 0.313D+00 0.557D+00
 Coeff-En:   0.000D+00 0.000D+00 0.193D+00 0.807D+00
 Coeff:      0.150D-01 0.109D+00 0.309D+00 0.567D+00
 Gap=     0.158 Goal=   None    Shift=    0.000
 RMSDP=4.44D-04 MaxDP=2.76D-02 DE=-1.09D-01 OVMax= 3.95D-02

 Cycle   5  Pass 0  IDiag  1:
 RMSU=  2.31D-04    CP:  9.84D-01  6.70D-01  6.40D-01  6.31D-01
 E= -2209.72928294656     Delta-E=       -0.022927571938 Rises=F Damp=F
 DIIS: error= 1.51D-03 at cycle   5 NSaved=   5.
 NSaved= 5 IEnMin= 5 EnMin= -2209.72928294656     IErMin= 5 ErrMin= 1.51D-03
 ErrMax= 1.51D-03  0.00D+00 EMaxC= 1.00D-01 BMatC= 2.86D-03 BMatP= 2.67D-02
 IDIUse=3 WtCom= 9.85D-01 WtEn= 1.51D-02
 Coeff-Com: -0.334D-03 0.266D-01 0.139D+00 0.346D+00 0.489D+00
 Coeff-En:   0.000D+00 0.000D+00 0.000D+00 0.821D-01 0.918D+00
 Coeff:     -0.328D-03 0.262D-01 0.137D+00 0.342D+00 0.495D+00
 Gap=     0.158 Goal=   None    Shift=    0.000
 RMSDP=1.66D-04 MaxDP=9.08D-03 DE=-2.29D-02 OVMax= 1.98D-02

 Cycle   6  Pass 0  IDiag  1:
 RMSU=  8.91D-05    CP:  9.83D-01  6.75D-01  6.28D-01  6.84D-01  4.28D-01
 E= -2209.73188825934     Delta-E=       -0.002605312780 Rises=F Damp=F
 DIIS: error= 6.99D-04 at cycle   6 NSaved=   6.
 NSaved= 6 IEnMin= 6 EnMin= -2209.73188825934     IErMin= 6 ErrMin= 6.99D-04
 ErrMax= 6.99D-04  0.00D+00 EMaxC= 1.00D-01 BMatC= 4.65D-04 BMatP= 2.86D-03
 IDIUse=3 WtCom= 9.93D-01 WtEn= 6.99D-03
 Coeff-Com: -0.187D-02 0.446D-02 0.506D-01 0.151D+00 0.328D+00 0.467D+00
 Coeff-En:   0.000D+00 0.000D+00 0.000D+00 0.000D+00 0.140D+00 0.860D+00
 Coeff:     -0.186D-02 0.442D-02 0.503D-01 0.150D+00 0.327D+00 0.470D+00
 Gap=     0.156 Goal=   None    Shift=    0.000
 RMSDP=5.70D-05 MaxDP=2.65D-03 DE=-2.61D-03 OVMax= 8.58D-03

 Cycle   7  Pass 0  IDiag  1:
 RMSU=  2.72D-05    CP:  9.83D-01  6.75D-01  6.32D-01  6.88D-01  5.34D-01
                    CP:  5.19D-01
 E= -2209.73233741902     Delta-E=       -0.000449159686 Rises=F Damp=F
 DIIS: error= 1.34D-04 at cycle   7 NSaved=   7.
 NSaved= 7 IEnMin= 7 EnMin= -2209.73233741902     IErMin= 7 ErrMin= 1.34D-04
 ErrMax= 1.34D-04  0.00D+00 EMaxC= 1.00D-01 BMatC= 2.81D-05 BMatP= 4.65D-04
 IDIUse=3 WtCom= 9.99D-01 WtEn= 1.34D-03
 Coeff-Com: -0.990D-03 0.801D-04 0.153D-01 0.513D-01 0.141D+00 0.268D+00
 Coeff-Com:  0.526D+00
 Coeff-En:   0.000D+00 0.000D+00 0.000D+00 0.000D+00 0.000D+00 0.000D+00
 Coeff-En:   0.100D+01
 Coeff:     -0.989D-03 0.799D-04 0.153D-01 0.512D-01 0.141D+00 0.267D+00
 Coeff:      0.526D+00
 Gap=     0.157 Goal=   None    Shift=    0.000
 RMSDP=1.51D-05 MaxDP=7.13D-04 DE=-4.49D-04 OVMax= 1.75D-03

 Cycle   8  Pass 0  IDiag  1:
 RMSU=  1.01D-05    CP:  9.83D-01  6.75D-01  6.33D-01  6.87D-01  5.35D-01
                    CP:  5.67D-01  6.22D-01
 E= -2209.73235956818     Delta-E=       -0.000022149156 Rises=F Damp=F
 DIIS: error= 6.94D-05 at cycle   8 NSaved=   8.
 NSaved= 8 IEnMin= 8 EnMin= -2209.73235956818     IErMin= 8 ErrMin= 6.94D-05
 ErrMax= 6.94D-05  0.00D+00 EMaxC= 1.00D-01 BMatC= 5.94D-06 BMatP= 2.81D-05
 IDIUse=1 WtCom= 1.00D+00 WtEn= 0.00D+00
 Coeff-Com: -0.450D-03-0.518D-03 0.406D-02 0.159D-01 0.554D-01 0.125D+00
 Coeff-Com:  0.357D+00 0.444D+00
 Coeff:     -0.450D-03-0.518D-03 0.406D-02 0.159D-01 0.554D-01 0.125D+00
 Coeff:      0.357D+00 0.444D+00
 Gap=     0.157 Goal=   None    Shift=    0.000
 RMSDP=6.22D-06 MaxDP=2.76D-04 DE=-2.21D-05 OVMax= 4.92D-04

 Initial convergence to 1.0D-05 achieved.  Increase integral accuracy.
 Cycle   9  Pass 1  IDiag  1:
 E= -2209.73235491044     Delta-E=        0.000004657738 Rises=F Damp=F
 DIIS: error= 1.04D-04 at cycle   1 NSaved=   1.
 NSaved= 1 IEnMin= 1 EnMin= -2209.73235491044     IErMin= 1 ErrMin= 1.04D-04
 ErrMax= 1.04D-04  0.00D+00 EMaxC= 1.00D-01 BMatC= 2.98D-06 BMatP= 2.98D-06
 IDIUse=3 WtCom= 9.99D-01 WtEn= 1.04D-03
 Coeff-Com:  0.100D+01
 Coeff-En:   0.100D+01
 Coeff:      0.100D+01
 Gap=     0.157 Goal=   None    Shift=    0.000
 RMSDP=6.22D-06 MaxDP=2.76D-04 DE= 4.66D-06 OVMax= 3.04D-04

 Cycle  10  Pass 1  IDiag  1:
 RMSU=  6.09D-05    CP:  1.00D+00
 E= -2209.73235619236     Delta-E=       -0.000001281915 Rises=F Damp=F
 DIIS: error= 3.24D-05 at cycle   2 NSaved=   2.
 NSaved= 2 IEnMin= 2 EnMin= -2209.73235619236     IErMin= 2 ErrMin= 3.24D-05
 ErrMax= 3.24D-05  0.00D+00 EMaxC= 1.00D-01 BMatC= 1.28D-06 BMatP= 2.98D-06
 IDIUse=1 WtCom= 1.00D+00 WtEn= 0.00D+00
 Coeff-Com:  0.342D+00 0.658D+00
 Coeff:      0.342D+00 0.658D+00
 Gap=     0.157 Goal=   None    Shift=    0.000
 RMSDP=5.27D-06 MaxDP=2.52D-04 DE=-1.28D-06 OVMax= 4.25D-04

 Cycle  11  Pass 1  IDiag  1:
 RMSU=  5.26D-06    CP:  1.00D+00  1.00D+00
 E= -2209.73235568984     Delta-E=        0.000000502521 Rises=F Damp=F
 DIIS: error= 4.11D-05 at cycle   3 NSaved=   3.
 NSaved= 3 IEnMin= 2 EnMin= -2209.73235619236     IErMin= 2 ErrMin= 3.24D-05
 ErrMax= 4.11D-05  0.00D+00 EMaxC= 1.00D-01 BMatC= 1.81D-06 BMatP= 1.28D-06
 IDIUse=1 WtCom= 1.00D+00 WtEn= 0.00D+00
 Coeff-Com:  0.818D-02 0.540D+00 0.451D+00
 Coeff:      0.818D-02 0.540D+00 0.451D+00
 Gap=     0.157 Goal=   None    Shift=    0.000
 RMSDP=3.02D-06 MaxDP=1.47D-04 DE= 5.03D-07 OVMax= 2.47D-04

 Cycle  12  Pass 1  IDiag  1:
 RMSU=  6.92D-07    CP:  1.00D+00  1.01D+00  4.45D-01
 E= -2209.73235736219     Delta-E=       -0.000001672356 Rises=F Damp=F
 DIIS: error= 4.61D-06 at cycle   4 NSaved=   4.
 NSaved= 4 IEnMin= 4 EnMin= -2209.73235736219     IErMin= 4 ErrMin= 4.61D-06
 ErrMax= 4.61D-06  0.00D+00 EMaxC= 1.00D-01 BMatC= 3.40D-08 BMatP= 1.28D-06
 IDIUse=1 WtCom= 1.00D+00 WtEn= 0.00D+00
 Coeff-Com: -0.255D-02 0.320D+00 0.280D+00 0.402D+00
 Coeff:     -0.255D-02 0.320D+00 0.280D+00 0.402D+00
 Gap=     0.157 Goal=   None    Shift=    0.000
 RMSDP=4.49D-07 MaxDP=2.26D-05 DE=-1.67D-06 OVMax= 6.61D-05

 Cycle  13  Pass 1  IDiag  1:
 RMSU=  1.88D-07    CP:  1.00D+00  1.01D+00  4.65D-01  4.33D-01
 E= -2209.73235739416     Delta-E=       -0.000000031965 Rises=F Damp=F
 DIIS: error= 1.10D-06 at cycle   5 NSaved=   5.
 NSaved= 5 IEnMin= 5 EnMin= -2209.73235739416     IErMin= 5 ErrMin= 1.10D-06
 ErrMax= 1.10D-06  0.00D+00 EMaxC= 1.00D-01 BMatC= 1.47D-09 BMatP= 3.40D-08
 IDIUse=1 WtCom= 1.00D+00 WtEn= 0.00D+00
 Coeff-Com: -0.194D-02 0.178D+00 0.156D+00 0.255D+00 0.414D+00
 Coeff:     -0.194D-02 0.178D+00 0.156D+00 0.255D+00 0.414D+00
 Gap=     0.157 Goal=   None    Shift=    0.000
 RMSDP=1.04D-07 MaxDP=5.80D-06 DE=-3.20D-08 OVMax= 1.45D-05

 Cycle  14  Pass 1  IDiag  1:
 RMSU=  6.42D-08    CP:  1.00D+00  1.01D+00  4.63D-01  4.53D-01  5.73D-01
 E= -2209.73235739557     Delta-E=       -0.000000001416 Rises=F Damp=F
 DIIS: error= 2.33D-07 at cycle   6 NSaved=   6.
 NSaved= 6 IEnMin= 6 EnMin= -2209.73235739557     IErMin= 6 ErrMin= 2.33D-07
 ErrMax= 2.33D-07  0.00D+00 EMaxC= 1.00D-01 BMatC= 8.72D-11 BMatP= 1.47D-09
 IDIUse=1 WtCom= 1.00D+00 WtEn= 0.00D+00
 Coeff-Com: -0.925D-03 0.772D-01 0.681D-01 0.116D+00 0.246D+00 0.494D+00
 Coeff:     -0.925D-03 0.772D-01 0.681D-01 0.116D+00 0.246D+00 0.494D+00
 Gap=     0.157 Goal=   None    Shift=    0.000
 RMSDP=2.69D-08 MaxDP=1.34D-06 DE=-1.42D-09 OVMax= 2.80D-06

 Cycle  15  Pass 1  IDiag  1:
 RMSU=  1.96D-08    CP:  1.00D+00  1.01D+00  4.63D-01  4.54D-01  6.21D-01
                    CP:  7.51D-01
 E= -2209.73235739571     Delta-E=       -0.000000000140 Rises=F Damp=F
 DIIS: error= 7.98D-08 at cycle   7 NSaved=   7.
 NSaved= 7 IEnMin= 7 EnMin= -2209.73235739571     IErMin= 7 ErrMin= 7.98D-08
 ErrMax= 7.98D-08  0.00D+00 EMaxC= 1.00D-01 BMatC= 1.17D-11 BMatP= 8.72D-11
 IDIUse=1 WtCom= 1.00D+00 WtEn= 0.00D+00
 Coeff-Com: -0.341D-03 0.266D-01 0.235D-01 0.420D-01 0.105D+00 0.310D+00
 Coeff-Com:  0.494D+00
 Coeff:     -0.341D-03 0.266D-01 0.235D-01 0.420D-01 0.105D+00 0.310D+00
 Coeff:      0.494D+00
 Gap=     0.157 Goal=   None    Shift=    0.000
 RMSDP=9.68D-09 MaxDP=7.15D-07 DE=-1.40D-10 OVMax= 1.01D-06

 SCF Done:  E(RB3LYP) =  -2209.73235740     A.U. after   15 cycles
            NFock= 15  Conv=0.97D-08     -V/T= 2.0065
 KE= 2.195394476027D+03 PE=-1.269215707004D+04 EE= 4.532093078737D+03
 Leave Link  502 at Fri Nov  4 18:36:58 2022, MaxMem=   805306368 cpu:             836.4 elap:             192.5
 (Enter /home/wykgroup/appl/g16/l508.exe)
 QCSCF skips out because SCF is already converged.
 Leave Link  508 at Fri Nov  4 18:36:58 2022, MaxMem=   805306368 cpu:               0.0 elap:               0.0
 (Enter /home/wykgroup/appl/g16/l601.exe)
 Copying SCF densities to generalized density rwf, IOpCl= 0 IROHF=0.

 **********************************************************************

            Population analysis using the SCF Density.

 **********************************************************************

 Orbital symmetries:
       Occupied  (A) (A) (A) (A) (A) (A) (A) (A) (A) (A) (A) (A)
                 (A) (A) (A) (A) (A) (A) (A) (A) (A) (A) (A) (A)
                 (A) (A) (A) (A) (A) (A) (A) (A) (A) (A) (A) (A)
                 (A) (A) (A) (A) (A) (A) (A) (A) (A) (A) (A) (A)
                 (A) (A) (A) (A) (A) (A) (A) (A) (A) (A) (A) (A)
                 (A) (A) (A) (A) (A) (A) (A) (A) (A) (A) (A) (A)
                 (A) (A) (A) (A) (A) (A) (A) (A) (A) (A) (A) (A)
                 (A) (A) (A) (A) (A) (A) (A) (A) (A) (A) (A) (A)
                 (A) (A) (A) (A) (A) (A) (A) (A) (A) (A) (A) (A)
                 (A) (A) (A) (A) (A) (A) (A) (A) (A) (A) (A) (A)
       Virtual   (A) (A) (A) (A) (A) (A) (A) (A) (A) (A) (A) (A)
                 (A) (A) (A) (A) (A) (A) (A) (A) (A) (A) (A) (A)
                 (A) (A) (A) (A) (A) (A) (A) (A) (A) (A) (A) (A)
                 (A) (A) (A) (A) (A) (A) (A) (A) (A) (A) (A) (A)
                 (A) (A) (A) (A) (A) (A) (A) (A) (A) (A) (A) (A)
                 (A) (A) (A) (A) (A) (A) (A) (A) (A) (A) (A) (A)
                 (A) (A) (A) (A) (A) (A) (A) (A) (A) (A) (A) (A)
                 (A) (A) (A) (A) (A) (A) (A) (A) (A) (A) (A) (A)
                 (A) (A) (A) (A) (A) (A) (A) (A) (A) (A) (A) (A)
                 (A) (A) (A) (A) (A) (A) (A) (A) (A) (A) (A) (A)
                 (A) (A) (A) (A) (A) (A) (A) (A) (A) (A) (A) (A)
                 (A) (A) (A) (A) (A) (A) (A) (A) (A) (A) (A) (A)
                 (A) (A) (A) (A) (A) (A) (A) (A) (A) (A) (A) (A)
                 (A) (A) (A) (A) (A) (A) (A) (A) (A) (A) (A) (A)
                 (A) (A) (A) (A) (A) (A) (A) (A) (A) (A) (A) (A)
                 (A) (A) (A) (A) (A) (A) (A) (A) (A) (A) (A) (A)
                 (A) (A) (A) (A) (A) (A) (A) (A) (A) (A) (A) (A)
                 (A) (A) (A) (A) (A) (A) (A) (A) (A) (A) (A) (A)
                 (A) (A) (A) (A) (A) (A) (A) (A) (A) (A) (A) (A)
                 (A) (A) (A) (A) (A) (A) (A) (A) (A) (A) (A) (A)
                 (A) (A) (A) (A) (A) (A) (A) (A) (A) (A) (A) (A)
                 (A) (A) (A) (A) (A) (A) (A) (A) (A) (A) (A) (A)
                 (A) (A) (A) (A) (A) (A) (A) (A) (A) (A) (A) (A)
                 (A) (A) (A) (A) (A) (A) (A) (A) (A) (A) (A) (A)
                 (A) (A) (A) (A) (A) (A) (A) (A) (A) (A) (A) (A)
                 (A) (A) (A) (A) (A) (A) (A) (A) (A) (A) (A) (A)
                 (A) (A) (A) (A) (A) (A) (A) (A) (A) (A) (A) (A)
                 (A) (A) (A) (A) (A) (A) (A) (A) (A) (A) (A) (A)
                 (A) (A) (A) (A) (A) (A) (A) (A) (A) (A) (A) (A)
                 (A) (A) (A) (A) (A) (A) (A) (A) (A) (A) (A) (A)
                 (A) (A) (A) (A) (A) (A) (A) (A) (A) (A) (A) (A)
                 (A) (A) (A) (A) (A) (A) (A) (A) (A) (A) (A) (A)
                 (A) (A) (A)
 The electronic state is 1-A.
 Alpha  occ. eigenvalues --  -89.13109 -89.11077 -19.16198 -19.15105 -19.13482
 Alpha  occ. eigenvalues --  -19.13285 -14.48244 -14.42713 -14.42575 -14.40488
 Alpha  occ. eigenvalues --  -14.37903 -14.36246 -14.35387 -14.32323 -14.31280
 Alpha  occ. eigenvalues --  -10.27644 -10.25591 -10.25252 -10.25199 -10.24664
 Alpha  occ. eigenvalues --  -10.24660 -10.23536 -10.22973 -10.22431 -10.22205
 Alpha  occ. eigenvalues --  -10.22026 -10.22018 -10.21261 -10.20977 -10.20903
 Alpha  occ. eigenvalues --  -10.20648  -8.15713  -8.13701  -6.12189  -6.12139
 Alpha  occ. eigenvalues --   -6.12026  -6.10165  -6.10107  -6.10041  -1.18502
 Alpha  occ. eigenvalues --   -1.14910  -1.12577  -1.05110  -1.03298  -1.00670
 Alpha  occ. eigenvalues --   -0.97949  -0.93677  -0.92201  -0.91700  -0.91285
 Alpha  occ. eigenvalues --   -0.90636  -0.89450  -0.85736  -0.82427  -0.81410
 Alpha  occ. eigenvalues --   -0.77151  -0.75251  -0.74952  -0.71505  -0.70243
 Alpha  occ. eigenvalues --   -0.69527  -0.67389  -0.65343  -0.63890  -0.62552
 Alpha  occ. eigenvalues --   -0.62500  -0.62055  -0.59877  -0.58737  -0.56621
 Alpha  occ. eigenvalues --   -0.55198  -0.54770  -0.54094  -0.53545  -0.52246
 Alpha  occ. eigenvalues --   -0.51536  -0.50861  -0.50593  -0.50049  -0.49413
 Alpha  occ. eigenvalues --   -0.48858  -0.48137  -0.47526  -0.47377  -0.47114
 Alpha  occ. eigenvalues --   -0.46205  -0.45506  -0.44712  -0.43943  -0.43627
 Alpha  occ. eigenvalues --   -0.42028  -0.41649  -0.40605  -0.39757  -0.38660
 Alpha  occ. eigenvalues --   -0.38434  -0.38188  -0.37408  -0.37130  -0.36116
 Alpha  occ. eigenvalues --   -0.35848  -0.34618  -0.34532  -0.34050  -0.33770
 Alpha  occ. eigenvalues --   -0.33390  -0.33093  -0.32196  -0.31814  -0.31533
 Alpha  occ. eigenvalues --   -0.30306  -0.29862  -0.29677  -0.28265  -0.27606
 Alpha  occ. eigenvalues --   -0.27349  -0.27313  -0.24935  -0.24321  -0.21863
 Alpha virt. eigenvalues --   -0.06191  -0.05599  -0.04125  -0.03489  -0.00300
 Alpha virt. eigenvalues --    0.01824   0.04322   0.04899   0.06071   0.06361
 Alpha virt. eigenvalues --    0.06925   0.07612   0.08409   0.08774   0.09351
 Alpha virt. eigenvalues --    0.10602   0.10961   0.11115   0.12327   0.12733
 Alpha virt. eigenvalues --    0.13071   0.13292   0.13367   0.13517   0.14091
 Alpha virt. eigenvalues --    0.15541   0.15742   0.16118   0.16354   0.16860
 Alpha virt. eigenvalues --    0.18104   0.18222   0.18455   0.19198   0.19420
 Alpha virt. eigenvalues --    0.21043   0.22010   0.22297   0.23531   0.24221
[...]
    21  N    0.000003   0.000005  -0.000000  -0.000000   0.000004  -0.000026
    22  C    0.005015   0.000314  -0.000008   0.000002  -0.000073   0.003174
    23  C   -0.008497  -0.021055  -0.000068  -0.000447   0.004096  -0.004916
    24  C    0.513809  -0.019998   0.004137  -0.000278   0.000902  -0.036820
    25  C    5.003476   0.478404  -0.061944   0.003794   0.008593  -0.033274
    26  C    0.478404   4.495550   0.466807  -0.091765  -0.086571   0.301773
    27  N   -0.061944   0.466807   6.845252   0.448512  -0.060822  -0.107135
    28  C    0.003794  -0.091765   0.448512   4.824201   0.534512  -0.050514
    29  C    0.008593  -0.086571  -0.060822   0.534512   4.986369   0.372959
    30  N   -0.033274   0.301773  -0.107135  -0.050514   0.372959   6.824868
    31  C   -0.046278  -0.023226   0.007942   0.007041  -0.052225   0.281455
    32  H    0.000000  -0.000000  -0.000000   0.000000   0.000000  -0.000000
    33  H    0.000000   0.000000  -0.000000  -0.000000   0.000000  -0.000000
    34  H   -0.000037   0.000005   0.000000   0.000000  -0.000033  -0.000118
    35  H   -0.000003  -0.000000   0.000000  -0.000000  -0.000001   0.000003
    36  H    0.000530  -0.000002  -0.000002   0.000001   0.000004  -0.000067
    37  H   -0.000004  -0.000000   0.000000   0.000000  -0.000000  -0.000000
    38  H   -0.000000  -0.000000   0.000000  -0.000000   0.000000  -0.000000
    39  H    0.000000  -0.000000  -0.000000   0.000000   0.000000  -0.000000
    40  H   -0.000000  -0.000000  -0.000000   0.000000  -0.000000  -0.000000
    41  H    0.000000  -0.000000  -0.000000  -0.000000   0.000000  -0.000000
    42  H   -0.000000   0.000000  -0.000000   0.000000  -0.000000  -0.000000
    43  H    0.000000  -0.000000  -0.000000   0.000000   0.000000  -0.000000
    44  H   -0.036620   0.003167  -0.000081   0.000004   0.000011  -0.000026
    45  H    0.356038  -0.032701  -0.001163   0.000091  -0.000189   0.004892
    46  H   -0.000276   0.005775  -0.041370   0.378423  -0.054826   0.003528
    47  H   -0.000295   0.004261   0.004643  -0.030795   0.359036  -0.044127
    48  H    0.000188   0.001932  -0.000219  -0.000041  -0.002875  -0.045140
              31         32         33         34         35         36
     1  N    0.000021   0.312983   0.309351  -0.040989  -0.045642   0.003958
     2  C   -0.001082  -0.032274  -0.036585   0.373530   0.371550  -0.028217
     3  C    0.001803   0.006202  -0.002125  -0.032923  -0.052421   0.343688
     4  C   -0.002778   0.000176  -0.000321  -0.007843   0.005473  -0.021780
     5  C   -0.000112  -0.000100  -0.000039  -0.000217   0.000110   0.005198
     6  C    0.000016   0.000005   0.000010   0.000021   0.000004  -0.000251
     7  S    0.000000  -0.000001  -0.000001  -0.000000   0.000000   0.000001
     8  N   -0.000000  -0.000000  -0.000000  -0.000000   0.000000  -0.000000
     9  O   -0.000000  -0.000000   0.000002   0.000000  -0.000000  -0.000000
    10  O    0.000000   0.000000   0.000000  -0.000000   0.000000  -0.000000
    11  C    0.000069   0.000000  -0.000000  -0.000019  -0.000000   0.000014
    12  S    0.000010   0.000000  -0.000000  -0.000000  -0.000000   0.000000
    13  N   -0.000001  -0.000000   0.000000   0.000000   0.000000   0.000000
    14  O    0.000000   0.000000  -0.000000  -0.000000  -0.000000  -0.000000
    15  O    0.000000  -0.000000   0.000000  -0.000000  -0.000000   0.000000
    16  C   -0.004323  -0.000001  -0.000000  -0.000025   0.000004  -0.000083
    17  C    0.003776   0.000000   0.000000   0.000003  -0.000000   0.000007
    18  N   -0.000364  -0.000000  -0.000000   0.000000  -0.000000   0.000001
    19  N    0.000002   0.000000   0.000000   0.000000  -0.000000  -0.000000
    20  N    0.000187  -0.000000  -0.000000  -0.000000  -0.000000  -0.000000
    21  N   -0.000861   0.000000   0.000000   0.000000   0.000000   0.000000
    22  C   -0.038110   0.000005   0.000016   0.002636   0.000024  -0.011669
    23  C    0.542606   0.000003  -0.000002   0.000921  -0.000013   0.007733
    24  C   -0.048295   0.000000   0.000000   0.000011  -0.000009   0.007755
    25  C   -0.046278   0.000000   0.000000  -0.000037  -0.000003   0.000530
    26  C   -0.023226  -0.000000   0.000000   0.000005  -0.000000  -0.000002
    27  N    0.007942  -0.000000  -0.000000   0.000000   0.000000  -0.000002
    28  C    0.007041   0.000000  -0.000000   0.000000  -0.000000   0.000001
    29  C   -0.052225   0.000000   0.000000  -0.000033  -0.000001   0.000004
    30  N    0.281455  -0.000000  -0.000000  -0.000118   0.000003  -0.000067
    31  C    4.949909   0.000001  -0.000000   0.004067  -0.000003  -0.000211
    32  H    0.000001   0.447039  -0.032005  -0.005480  -0.001514  -0.000208
    33  H   -0.000000  -0.032005   0.455727   0.006459  -0.006560  -0.000187
    34  H    0.004067  -0.005480   0.006459   0.596271  -0.043629  -0.002450
    35  H   -0.000003  -0.001514  -0.006560  -0.043629   0.646844   0.000179
    36  H   -0.000211  -0.000208  -0.000187  -0.002450   0.000179   0.565651
    37  H    0.000030   0.000015   0.004592   0.005632  -0.004376  -0.031726
    38  H   -0.000001  -0.000045   0.000033   0.000031   0.000030   0.000165
    39  H    0.000000   0.000000   0.000000   0.000000  -0.000000   0.000000
    40  H    0.000000  -0.000000   0.000000   0.000000   0.000000   0.000000
    41  H   -0.000000  -0.000000  -0.000000  -0.000000  -0.000000  -0.000000
    42  H    0.000001  -0.000000  -0.000000  -0.000000   0.000000  -0.000000
    43  H   -0.000004   0.000000   0.000000  -0.000000   0.000000  -0.000000
    44  H    0.006084   0.000000  -0.000000  -0.000001  -0.000000   0.000190
    45  H    0.000403  -0.000000  -0.000000   0.000000   0.000000   0.000001
    46  H   -0.000034   0.000000  -0.000000  -0.000000  -0.000000  -0.000000
    47  H    0.001140   0.000000  -0.000000   0.000001   0.000000  -0.000000
    48  H    0.362441  -0.000001   0.000000   0.000927   0.000002   0.000024
              37         38         39         40         41         42
     1  N   -0.005493   0.006153  -0.000000  -0.000000   0.000000   0.000000
     2  C   -0.036472  -0.000147  -0.000000   0.000000   0.000000  -0.000000
     3  C    0.365061  -0.008467  -0.000000   0.000000   0.000000   0.000000
     4  C   -0.034844  -0.034851  -0.000000   0.000003   0.000000   0.000005
     5  C   -0.005734   0.351529   0.000080  -0.000103  -0.000001  -0.000001
     6  C    0.000221  -0.039845   0.003249  -0.000393   0.000013   0.000017
     7  S   -0.000007  -0.009717  -0.013141  -0.002097   0.000045   0.000009
     8  N    0.000000   0.000429   0.300171   0.270969  -0.000032  -0.000001
     9  O   -0.000005   0.017729   0.003723   0.001852   0.000000   0.000000
    10  O   -0.000000   0.000030  -0.000183   0.000106   0.000001   0.000000
    11  C   -0.000015   0.005904  -0.000106   0.000936   0.004238   0.000544
    12  S   -0.000000  -0.000036   0.000217  -0.002905  -0.013343  -0.001157
    13  N    0.000000   0.000001  -0.000003   0.000309   0.299241   0.256015
    14  O   -0.000000   0.000000   0.000000   0.000042  -0.000094  -0.000149
    15  O    0.000000   0.000004   0.000726   0.025001   0.003215   0.002036
    16  C   -0.000122   0.000446   0.000001   0.000004  -0.000041  -0.000403
    17  C    0.000003   0.000003  -0.000000   0.000000   0.000162  -0.003684
    18  N    0.000000   0.000000  -0.000000   0.000000   0.000002   0.000328
    19  N    0.000000   0.000000  -0.000000  -0.000000   0.000000   0.000282
    20  N    0.000000  -0.000000  -0.000000  -0.000000  -0.000014  -0.001396
    21  N    0.000000   0.000000   0.000000   0.000000   0.000474   0.039571
    22  C    0.003812   0.004508   0.000000  -0.000000   0.000002  -0.000021
    23  C    0.000233  -0.000136   0.000000  -0.000000  -0.000000  -0.000008
    24  C    0.000074  -0.000002  -0.000000  -0.000000  -0.000000  -0.000000
    25  C   -0.000004  -0.000000   0.000000  -0.000000   0.000000  -0.000000
    26  C   -0.000000  -0.000000  -0.000000  -0.000000  -0.000000   0.000000
    27  N    0.000000   0.000000  -0.000000  -0.000000  -0.000000  -0.000000
    28  C    0.000000  -0.000000   0.000000   0.000000  -0.000000   0.000000
    29  C   -0.000000   0.000000   0.000000  -0.000000   0.000000  -0.000000
    30  N   -0.000000  -0.000000  -0.000000  -0.000000  -0.000000  -0.000000
    31  C    0.000030  -0.000001   0.000000   0.000000  -0.000000   0.000001
    32  H    0.000015  -0.000045   0.000000  -0.000000  -0.000000  -0.000000
    33  H    0.004592   0.000033   0.000000   0.000000  -0.000000  -0.000000
    34  H    0.005632   0.000031   0.000000   0.000000  -0.000000  -0.000000
    35  H   -0.004376   0.000030  -0.000000   0.000000  -0.000000   0.000000
    36  H   -0.031726   0.000165   0.000000   0.000000  -0.000000  -0.000000
    37  H    0.578848   0.004176  -0.000000   0.000000  -0.000000  -0.000000
    38  H    0.004176   0.499247   0.000003  -0.000018  -0.000000  -0.000000
    39  H   -0.000000   0.000003   0.362113  -0.015683  -0.000001   0.000000
    40  H    0.000000  -0.000018  -0.015683   0.335032   0.000039   0.000004
    41  H   -0.000000  -0.000000  -0.000001   0.000039   0.363558  -0.014086
    42  H   -0.000000  -0.000000   0.000000   0.000004  -0.014086   0.346028
    43  H   -0.000000  -0.000000   0.000000   0.000000  -0.000001  -0.000052
    44  H   -0.000012   0.000001   0.000000  -0.000000   0.000000  -0.000000
    45  H    0.000000   0.000000  -0.000000   0.000000   0.000000   0.000000
    46  H   -0.000000   0.000000   0.000000  -0.000000   0.000000  -0.000000
    47  H    0.000000   0.000000  -0.000000  -0.000000  -0.000000  -0.000000
    48  H    0.000002   0.000000  -0.000000   0.000000   0.000000   0.000007
              43         44         45         46         47         48
     1  N   -0.000000  -0.000000  -0.000000   0.000000   0.000000  -0.000002
     2  C   -0.000000   0.000022  -0.000000   0.000000  -0.000000  -0.000086
     3  C    0.000000   0.000130  -0.000002  -0.000000   0.000000   0.000042
     4  C   -0.000000   0.000815  -0.000002   0.000000  -0.000000   0.000616
     5  C   -0.000000  -0.000044  -0.000000   0.000000  -0.000000  -0.000041
     6  C   -0.000000  -0.000009   0.000000  -0.000000   0.000000  -0.000005
     7  S    0.000000  -0.000000  -0.000000  -0.000000  -0.000000  -0.000000
     8  N   -0.000000  -0.000000   0.000000  -0.000000   0.000000   0.000000
     9  O   -0.000000  -0.000000  -0.000000  -0.000000  -0.000000  -0.000000
    10  O   -0.000000   0.000000  -0.000000   0.000000  -0.000000  -0.000000
    11  C    0.000005  -0.000020  -0.000000   0.000000  -0.000000  -0.000086
    12  S   -0.000019   0.000000  -0.000000   0.000000  -0.000000  -0.000000
    13  N    0.000016  -0.000000   0.000000   0.000000   0.000000   0.000000
    14  O   -0.000009   0.000000  -0.000000  -0.000000  -0.000000   0.000000
    15  O   -0.000000  -0.000000  -0.000000  -0.000000  -0.000000  -0.000000
    16  C   -0.000146   0.000654   0.000000   0.000000  -0.000000   0.001586
    17  C    0.008121  -0.000167  -0.000001  -0.000000  -0.000000   0.000360
    18  N    0.005542   0.000805  -0.000009  -0.000000  -0.000000   0.000040
    19  N   -0.025696  -0.000005   0.000000  -0.000000   0.000000  -0.000000
    20  N    0.313779   0.000001   0.000000  -0.000000   0.000000  -0.000005
    21  N   -0.033286   0.000002  -0.000000   0.000000  -0.000000   0.000547
    22  C   -0.000000  -0.004415  -0.000131  -0.000000  -0.000002  -0.001223
    23  C    0.000001  -0.042764   0.003708   0.000004   0.000108  -0.039386
    24  C   -0.000001   0.361885  -0.038528   0.000003   0.000018   0.004202
    25  C    0.000000  -0.036620   0.356038  -0.000276  -0.000295   0.000188
    26  C   -0.000000   0.003167  -0.032701   0.005775   0.004261   0.001932
    27  N   -0.000000  -0.000081  -0.001163  -0.041370   0.004643  -0.000219
    28  C    0.000000   0.000004   0.000091   0.378423  -0.030795  -0.000041
    29  C    0.000000   0.000011  -0.000189  -0.054826   0.359036  -0.002875
    30  N   -0.000000  -0.000026   0.004892   0.003528  -0.044127  -0.045140
    31  C   -0.000004   0.006084   0.000403  -0.000034   0.001140   0.362441
    32  H    0.000000   0.000000  -0.000000   0.000000   0.000000  -0.000001
    33  H    0.000000  -0.000000  -0.000000  -0.000000  -0.000000   0.000000
    34  H   -0.000000  -0.000001   0.000000  -0.000000   0.000001   0.000927
    35  H    0.000000  -0.000000   0.000000  -0.000000   0.000000   0.000002
    36  H   -0.000000   0.000190   0.000001  -0.000000  -0.000000   0.000024
    37  H   -0.000000  -0.000012   0.000000  -0.000000   0.000000   0.000002
    38  H   -0.000000   0.000001   0.000000   0.000000   0.000000   0.000000
    39  H    0.000000   0.000000  -0.000000   0.000000  -0.000000  -0.000000
    40  H    0.000000  -0.000000   0.000000  -0.000000  -0.000000   0.000000
    41  H   -0.000001   0.000000   0.000000   0.000000  -0.000000   0.000000
    42  H   -0.000052  -0.000000   0.000000  -0.000000  -0.000000   0.000007
    43  H    0.353648  -0.000000  -0.000000  -0.000000   0.000000  -0.000002
    44  H   -0.000000   0.556729  -0.005278  -0.000000  -0.000000  -0.000150
    45  H   -0.000000  -0.005278   0.546533  -0.000003   0.000001   0.000021
    46  H   -0.000000  -0.000000  -0.000003   0.563816   0.000663  -0.000005
    47  H    0.000000  -0.000000   0.000001   0.000663   0.546315   0.002518
    48  H   -0.000002  -0.000150   0.000021  -0.000005   0.002518   0.540550
 Mulliken charges:
               1
     1  N   -0.710990
     2  C   -0.133753
     3  C   -0.358959
     4  C    0.179259
     5  C   -0.177061
     6  C   -0.187007
     7  S    1.213712
     8  N   -0.833445
     9  O   -0.544889
    10  O   -0.493361
    11  C   -0.207966
    12  S    1.248645
    13  N   -0.839926
    14  O   -0.509360
    15  O   -0.552998
    16  C    0.119864
    17  C    0.372822
    18  N   -0.306458
    19  N   -0.020785
    20  N   -0.188047
    21  N   -0.340856
    22  C   -0.008805
    23  C   -0.040336
    24  C   -0.113935
    25  C   -0.181902
    26  C    0.517157
    27  N   -0.504480
    28  C   -0.022739
    29  C   -0.008862
    30  N   -0.470243
    31  C    0.048905
    32  H    0.305200
    33  H    0.301638
    34  H    0.143249
    35  H    0.129947
    36  H    0.161755
    37  H    0.156110
    38  H    0.202842
    39  H    0.358834
    40  H    0.386900
    41  H    0.356623
    42  H    0.376111
    43  H    0.378104
    44  H    0.159092
    45  H    0.166319
    46  H    0.144302
    47  H    0.156515
    48  H    0.173258
 Sum of Mulliken charges =  -0.00000
 Mulliken charges with hydrogens summed into heavy atoms:
               1
     1  N   -0.104152
     2  C    0.139443
     3  C   -0.041093
     4  C    0.179259
     5  C    0.025781
     6  C   -0.187007
     7  S    1.213712
     8  N   -0.087712
     9  O   -0.544889
    10  O   -0.493361
    11  C   -0.207966
    12  S    1.248645
    13  N   -0.107193
    14  O   -0.509360
    15  O   -0.552998
    16  C    0.119864
    17  C    0.372822
    18  N   -0.306458
    19  N   -0.020785
    20  N    0.190056
    21  N   -0.340856
    22  C   -0.008805
    23  C   -0.040336
    24  C    0.045157
    25  C   -0.015582
    26  C    0.517157
    27  N   -0.504480
    28  C    0.121563
    29  C    0.147653
    30  N   -0.470243
    31  C    0.222163
 Electronic spatial extent (au):  <R**2>=          13743.7322
 Charge=             -0.0000 electrons
 Dipole moment (field-independent basis, Debye):
    X=              3.2030    Y=              0.7951    Z=              7.7931  Tot=              8.4631
 Quadrupole moment (field-independent basis, Debye-Ang):
   XX=           -220.2753   YY=           -167.3613   ZZ=           -184.1483
   XY=              0.1056   XZ=             -5.3037   YZ=            -14.7264
 Traceless Quadrupole moment (field-independent basis, Debye-Ang):
   XX=            -29.6803   YY=             23.2336   ZZ=              6.4467
   XY=              0.1056   XZ=             -5.3037   YZ=            -14.7264
 Octapole moment (field-independent basis, Debye-Ang**2):
  XXX=           -201.3920  YYY=             -9.5102  ZZZ=             28.7343  XYY=             25.4528
  XXY=            -26.7149  XXZ=            162.2518  XZZ=              8.8280  YZZ=              1.4851
  YYZ=             90.2327  XYZ=             -4.6840
 Hexadecapole moment (field-independent basis, Debye-Ang**3):
 XXXX=         -12469.4699 YYYY=          -4085.2136 ZZZZ=          -1139.8854 XXXY=           -120.8341
 XXXZ=            -20.3512 YYYX=           -108.8567 YYYZ=           -146.2870 ZZZX=            -23.7326
 ZZZY=            -24.9285 XXYY=          -2904.8368 XXZZ=          -2015.4877 YYZZ=           -938.8410
 XXYZ=            -23.8958 YYXZ=            -16.8898 ZZXY=             60.3123
 N-N= 3.676598862447D+03 E-N=-1.253459805670D+04  KE= 2.193751457497D+03
 No NMR shielding tensors so no spin-rotation constants.
 Leave Link  601 at Fri Nov  4 19:21:53 2022, MaxMem=   805306368 cpu:               1.5 elap:               0.3
 (Enter /home/wykgroup/appl/g16/l9999.exe)
 1\1\GINC-NODE101\FOpt\RB3LYP\6-31G(d)\C16H17N9O4S2\WYKGROUP\04-Nov-202
 2\0\\#p b3lyp/6-31g(d) opt SCF=XQC\\Gaussian input prepared by ASE\\0,
 1\N,1.498818453,3.4084695985,1.7055102038\C,2.2825773033,2.5423879664,
 0.8253134828\C,1.5642422398,2.32742166,-0.5240381075\C,0.2404918954,1.
 6057283097,-0.3955922242\C,-0.9059483432,2.3436242497,-0.0948558489\C,
 -2.1522807644,1.7511174196,0.0894551673\S,-3.4862691231,2.9968898997,0
 .2680989897\N,-4.1269851587,2.6946675131,1.7906266434\O,-2.8246906593,
 4.2995758894,0.4071242224\O,-4.4297436234,2.7760974985,-0.8261430985\C
 ,-2.2776233187,0.3556855824,-0.033867546\S,-3.8296071277,-0.5554061053
 ,0.2870204288\N,-3.43086153,-1.277031984,1.7593936618\O,-3.9982530574,
 -1.5258432396,-0.7951001514\O,-4.9361552348,0.3453596704,0.6176289076\
 C,-1.1393205355,-0.405341028,-0.3797940691\C,-1.2051253569,-1.86369652
 91,-0.6616338069\N,-1.023223086,-2.371153829,-1.9127686096\N,-1.127180
 4105,-3.6692347503,-1.8092446195\N,-1.3607621561,-3.9087785162,-0.5266
 830813\N,-1.4079246748,-2.823218283,0.2403126492\C,0.1211723688,0.2137
 430361,-0.5443642194\C,1.3289650563,-0.618419257,-0.8516321793\C,1.845
 9449294,-0.7135290588,-2.1839823054\C,2.9659087739,-1.4600126718,-2.45
 04808461\C,3.6203112199,-2.1488174368,-1.4030114512\N,4.7021708686,-2.
 9225286651,-1.4084344104\C,4.8617646174,-3.3173950686,-0.1135259053\C,
 3.8876164777,-2.7990269151,0.7161834138\N,3.0786894784,-2.0413864677,-
 0.1047971549\C,1.9599709068,-1.2915317856,0.1624353917\H,1.8838729203,
 3.4000155437,2.647372114\H,1.5467978361,4.3739798174,1.3834740351\H,2.
 4024600463,1.5735340281,1.3241313511\H,3.299482064,2.9146618122,0.6095
 36588\H,2.2382408895,1.780604785,-1.1891962672\H,1.3916100222,3.308357
 987,-0.9856353585\H,-0.8363612166,3.4185370077,0.0091890456\H,-4.39993
 94765,3.5850827848,2.201631565\H,-4.8845520106,2.0165780554,1.73064941
 26\H,-4.2940579288,-1.4774569975,2.2624141876\H,-2.8550784063,-2.10966
 70916,1.615262948\H,-1.4858892231,-4.8456479982,-0.1650234398\H,1.3236
 806712,-0.2009812865,-2.984695824\H,3.3711294855,-1.5537884028,-3.4516
 906183\H,5.6792176161,-3.9656517956,0.1759646579\H,3.7010852621,-2.891
 8172678,1.7752954306\H,1.6216100205,-1.2747586839,1.1921676449\\Versio
 n=ES64L-G16RevB.01\State=1-A\HF=-2209.7543217\RMSD=4.112e-09\RMSF=8.45
 0e-06\Dipole=1.4398815,-0.9412472,2.8508387\Quadrupole=-12.3809108,9.5
 227141,2.8581967,18.226759,-4.6127454,-7.7466206\PG=C01 [X(C16H17N9O4S
 2)]\\@


 IN SO FAR AS QUANTUM MECHANICS IS CORRECT, CHEMICAL 
 QUESTIONS ARE PROBLEMS IN APPLIED MATHEMATICS.

                    -- EYRING, WALTER, & KIMBALL, 1944
 Job cpu time:       0 days  5 hours 18 minutes  9.5 seconds.
 Elapsed time:       0 days  0 hours 48 minutes 18.1 seconds.
 File lengths (MBytes):  RWF=    164 Int=      0 D2E=      0 Chk=     21 Scr=      1
 Normal termination of Gaussian 16 at Fri Nov  4 19:21:53 2022.
