 Entering Gaussian System, Link 0=/home/wykgroup/appl/g16/g16
 Input=./calculation/no_transfer_pubchem_sampling_1_b3lyp/151261922.com
 Output=./calculation/no_transfer_pubchem_sampling_1_b3lyp/151261922.log
 Initial command:
 /home/wykgroup/appl/g16/l1.exe "/userdata/scratch/wykgroup/khs/./calculation/no_transfer_pubchem_sampling_1_b3lyp/151261922/Gau-18759.inp" -scrdir="/userdata/scratch/wykgroup/khs/./calculation/no_transfer_pubchem_sampling_1_b3lyp/151261922/"
 Entering Link 1 = /home/wykgroup/appl/g16/l1.exe PID=     18760.
  
 Copyright (c) 1988-2017, Gaussian, Inc.  All Rights Reserved.
  
 This is part of the Gaussian(R) 16 program.  It is based on
 the Gaussian(R) 09 system (copyright 2009, Gaussian, Inc.),
 the Gaussian(R) 03 system (copyright 2003, Gaussian, Inc.),
 the Gaussian(R) 98 system (copyright 1998, Gaussian, Inc.),
 the Gaussian(R) 94 system (copyright 1995, Gaussian, Inc.),
 the Gaussian 92(TM) system (copyright 1992, Gaussian, Inc.),
 the Gaussian 90(TM) system (copyright 1990, Gaussian, Inc.),
 the Gaussian 88(TM) system (copyright 1988, Gaussian, Inc.),
 the Gaussian 86(TM) system (copyright 1986, Carnegie Mellon
 University), and the Gaussian 82(TM) system (copyright 1983,
 Carnegie Mellon University). Gaussian is a federally registered
 trademark of Gaussian, Inc.
  
 This software contains proprietary and confidential information,
 including trade secrets, belonging to Gaussian, Inc.
  
 This software is provided under written license and may be
 used, copied, transmitted, or stored only in accord with that
 written license.
  
 The following legend is applicable only to US Government
 contracts under FAR:
  
                    RESTRICTED RIGHTS LEGEND
  
 Use, reproduction and disclosure by the US Government is
 subject to restrictions as set forth in subparagraphs (a)
 and (c) of the Commercial Computer Software - Restricted
 Rights clause in FAR 52.227-19.
  
 Gaussian, Inc.
 340 Quinnipiac St., Bldg. 40, Wallingford CT 06492
  
  
 ---------------------------------------------------------------
 Warning -- This program may not be used in any manner that
 competes with the business of Gaussian, Inc. or will provide
 assistance to any competitor of Gaussian, Inc.  The licensee
 of this program is prohibited from giving any competitor of
 Gaussian, Inc. access to this program.  By using this program,
 the user acknowledges that Gaussian, Inc. is engaged in the
 business of creating and licensing software in the field of
 computational chemistry and represents and warrants to the
 licensee that it is not a competitor of Gaussian, Inc. and that
 it will not use this program in any manner prohibited above.
 ---------------------------------------------------------------
  

 Cite this work as:
 Gaussian 16, Revision B.01,
 M. J. Frisch, G. W. Trucks, H. B. Schlegel, G. E. Scuseria, 
 M. A. Robb, J. R. Cheeseman, G. Scalmani, V. Barone, 
 G. A. Petersson, H. Nakatsuji, X. Li, M. Caricato, A. V. Marenich, 
 J. Bloino, B. G. Janesko, R. Gomperts, B. Mennucci, H. P. Hratchian, 
 J. V. Ortiz, A. F. Izmaylov, J. L. Sonnenberg, D. Williams-Young, 
 F. Ding, F. Lipparini, F. Egidi, J. Goings, B. Peng, A. Petrone, 
 T. Henderson, D. Ranasinghe, V. G. Zakrzewski, J. Gao, N. Rega, 
 G. Zheng, W. Liang, M. Hada, M. Ehara, K. Toyota, R. Fukuda, 
 J. Hasegawa, M. Ishida, T. Nakajima, Y. Honda, O. Kitao, H. Nakai, 
 T. Vreven, K. Throssell, J. A. Montgomery, Jr., J. E. Peralta, 
 F. Ogliaro, M. J. Bearpark, J. J. Heyd, E. N. Brothers, K. N. Kudin, 
 V. N. Staroverov, T. A. Keith, R. Kobayashi, J. Normand, 
 K. Raghavachari, A. P. Rendell, J. C. Burant, S. S. Iyengar, 
 J. Tomasi, M. Cossi, J. M. Millam, M. Klene, C. Adamo, R. Cammi, 
 J. W. Ochterski, R. L. Martin, K. Morokuma, O. Farkas, 
 J. B. Foresman, and D. J. Fox, Gaussian, Inc., Wallingford CT, 2016.
 
 ******************************************
 Gaussian 16:  ES64L-G16RevB.01 20-Dec-2017
                 4-Nov-2022 
 ******************************************
 %chk=./calculation/no_transfer_pubchem_sampling_1_b3lyp/151261922.chk
 %nprocshared=7
 Will use up to    7 processors via shared memory.
 %mem=6GB
 -----------------------------
 #p b3lyp/6-31g(d) opt SCF=XQC
 -----------------------------
 1/18=20,19=15,26=3,38=1/1,3;
 2/9=110,12=2,17=6,18=5,40=1/2;
 3/5=1,6=6,7=1,11=2,25=1,30=1,71=1,74=-5/1,2,3;
 4//1;
 5/5=2,8=3,13=1,38=5/2,8;
 6/7=2,8=2,9=2,10=2,28=1/1;
 7//1,2,3,16;
 1/18=20,19=15,26=3/3(2);
 2/9=110/2;
 99//99;
 2/9=110/2;
 3/5=1,6=6,7=1,11=2,25=1,30=1,71=1,74=-5/1,2,3;
 4/5=5,16=3,69=1/1;
 5/5=2,8=3,13=1,38=5/2,8;
 7//1,2,3,16;
 1/18=20,19=15,26=3/3(-5);
 2/9=110/2;
 6/7=2,8=2,9=2,10=2,19=2,28=1/1;
 99/9=1/99;
 Leave Link    1 at Fri Nov  4 18:28:18 2022, MaxMem=   805306368 cpu:               0.9 elap:               0.1
 (Enter /home/wykgroup/appl/g16/l101.exe)
 ------------------------------
 Gaussian input prepared by ASE
 ------------------------------
 Symbolic Z-matrix:
 Charge =  0 Multiplicity = 1
 C                    -2.74078  -2.05109   0.64963 
 C                    -1.68185  -1.52795   0.04453 
 C                    -1.24821  -0.13906   0.11277 
 C                    -2.04738   0.91522   0.58975 
 C                    -1.60447   2.22439   0.6323 
 C                    -0.32798   2.59594   0.20316 
 C                     0.45635   1.57077  -0.2632 
 C                     0.00906   0.25276  -0.31006 
 C                     1.31192  -0.25455  -0.88188 
 C                     2.07429  -1.22876   0.00521 
 O                     3.31773  -1.51229  -0.60005 
 C                     1.8044    1.22412  -0.83873 
 H                    -2.98899  -3.0938    0.54787 
 H                    -3.39614  -1.46856   1.27439 
 H                    -1.04332  -2.1643   -0.55617 
 H                    -3.05126   0.69945   0.92327 
 H                    -2.27236   2.98659   1.0083 
 H                    -0.00343   3.62483   0.24371 
 H                     1.24672  -0.66843  -1.88961 
 H                     1.48429  -2.15017   0.1255 
 H                     2.21633  -0.7835    1.00104 
 H                     3.81651  -2.10886  -0.03336 
 H                     2.65068   1.39545  -0.17656 
 H                     2.01788   1.6618   -1.81179 
 
 ITRead=  0  0  0  0  0  0  0  0  0  0  0  0  0  0  0  0  0  0  0  0
 ITRead=  0  0  0  0
 MicOpt= -1 -1 -1 -1 -1 -1 -1 -1 -1 -1 -1 -1 -1 -1 -1 -1 -1 -1 -1 -1
 MicOpt= -1 -1 -1 -1
 NAtoms=     24 NQM=       24 NQMF=       0 NMMI=      0 NMMIF=      0
                NMic=       0 NMicF=      0.
                    Isotopes and Nuclear Properties:
 (Nuclear quadrupole moments (NQMom) in fm**2, nuclear magnetic moments (NMagM)
  in nuclear magnetons)

  Atom         1           2           3           4           5           6           7           8           9          10
 IAtWgt=          12          12          12          12          12          12          12          12          12          12
 AtmWgt=  12.0000000  12.0000000  12.0000000  12.0000000  12.0000000  12.0000000  12.0000000  12.0000000  12.0000000  12.0000000
 NucSpn=           0           0           0           0           0           0           0           0           0           0
 AtZEff=  -0.0000000  -0.0000000  -0.0000000  -0.0000000  -0.0000000  -0.0000000  -0.0000000  -0.0000000  -0.0000000  -0.0000000
 NQMom=    0.0000000   0.0000000   0.0000000   0.0000000   0.0000000   0.0000000   0.0000000   0.0000000   0.0000000   0.0000000
 NMagM=    0.0000000   0.0000000   0.0000000   0.0000000   0.0000000   0.0000000   0.0000000   0.0000000   0.0000000   0.0000000
 AtZNuc=   6.0000000   6.0000000   6.0000000   6.0000000   6.0000000   6.0000000   6.0000000   6.0000000   6.0000000   6.0000000

  Atom        11          12          13          14          15          16          17          18          19          20
 IAtWgt=          16          12           1           1           1           1           1           1           1           1
 AtmWgt=  15.9949146  12.0000000   1.0078250   1.0078250   1.0078250   1.0078250   1.0078250   1.0078250   1.0078250   1.0078250
 NucSpn=           0           0           1           1           1           1           1           1           1           1
 AtZEff=  -0.0000000  -0.0000000  -0.0000000  -0.0000000  -0.0000000  -0.0000000  -0.0000000  -0.0000000  -0.0000000  -0.0000000
 NQMom=    0.0000000   0.0000000   0.0000000   0.0000000   0.0000000   0.0000000   0.0000000   0.0000000   0.0000000   0.0000000
 NMagM=    0.0000000   0.0000000   2.7928460   2.7928460   2.7928460   2.7928460   2.7928460   2.7928460   2.7928460   2.7928460
 AtZNuc=   8.0000000   6.0000000   1.0000000   1.0000000   1.0000000   1.0000000   1.0000000   1.0000000   1.0000000   1.0000000

  Atom        21          22          23          24
 IAtWgt=           1           1           1           1
 AtmWgt=   1.0078250   1.0078250   1.0078250   1.0078250
 NucSpn=           1           1           1           1
 AtZEff=  -0.0000000  -0.0000000  -0.0000000  -0.0000000
 NQMom=    0.0000000   0.0000000   0.0000000   0.0000000
 NMagM=    2.7928460   2.7928460   2.7928460   2.7928460
 AtZNuc=   1.0000000   1.0000000   1.0000000   1.0000000
 Leave Link  101 at Fri Nov  4 18:28:19 2022, MaxMem=   805306368 cpu:               1.6 elap:               0.3
 (Enter /home/wykgroup/appl/g16/l103.exe)

 GradGradGradGradGradGradGradGradGradGradGradGradGradGradGradGradGradGrad
 Berny optimization.
 Initialization pass.
                           ----------------------------
                           !    Initial Parameters    !
                           ! (Angstroms and Degrees)  !
 --------------------------                            --------------------------
 ! Name  Definition              Value          Derivative Info.                !
 --------------------------------------------------------------------------------
 ! R1    R(1,2)                  1.3271         estimate D2E/DX2                !
 ! R2    R(1,13)                 1.0767         estimate D2E/DX2                !
 ! R3    R(1,14)                 1.0766         estimate D2E/DX2                !
 ! R4    R(2,3)                  1.4566         estimate D2E/DX2                !
 ! R5    R(2,15)                 1.0833         estimate D2E/DX2                !
 ! R6    R(3,4)                  1.4063         estimate D2E/DX2                !
 ! R7    R(3,8)                  1.3831         estimate D2E/DX2                !
 ! R8    R(4,5)                  1.3827         estimate D2E/DX2                !
 ! R9    R(4,16)                 1.0796         estimate D2E/DX2                !
 ! R10   R(5,6)                  1.397          estimate D2E/DX2                !
 ! R11   R(5,17)                 1.0809         estimate D2E/DX2                !
 ! R12   R(6,7)                  1.3725         estimate D2E/DX2                !
 ! R13   R(6,18)                 1.0796         estimate D2E/DX2                !
 ! R14   R(7,8)                  1.3926         estimate D2E/DX2                !
 ! R15   R(7,12)                 1.5062         estimate D2E/DX2                !
 ! R16   R(8,9)                  1.5106         estimate D2E/DX2                !
 ! R17   R(9,10)                 1.5222         estimate D2E/DX2                !
 ! R18   R(9,12)                 1.5591         estimate D2E/DX2                !
 ! R19   R(9,19)                 1.0914         estimate D2E/DX2                !
 ! R20   R(10,11)                1.4117         estimate D2E/DX2                !
 ! R21   R(10,20)                1.1007         estimate D2E/DX2                !
 ! R22   R(10,21)                1.1            estimate D2E/DX2                !
 ! R23   R(11,22)                0.9622         estimate D2E/DX2                !
 ! R24   R(12,23)                1.0881         estimate D2E/DX2                !
 ! R25   R(12,24)                1.0881         estimate D2E/DX2                !
 ! A1    A(2,1,13)             121.5089         estimate D2E/DX2                !
 ! A2    A(2,1,14)             122.4801         estimate D2E/DX2                !
 ! A3    A(13,1,14)            116.009          estimate D2E/DX2                !
 ! A4    A(1,2,3)              126.3035         estimate D2E/DX2                !
 ! A5    A(1,2,15)             119.4461         estimate D2E/DX2                !
 ! A6    A(3,2,15)             114.2439         estimate D2E/DX2                !
 ! A7    A(2,3,4)              124.1624         estimate D2E/DX2                !
 ! A8    A(2,3,8)              121.7628         estimate D2E/DX2                !
 ! A9    A(4,3,8)              114.072          estimate D2E/DX2                !
 ! A10   A(3,4,5)              122.562          estimate D2E/DX2                !
 ! A11   A(3,4,16)             118.9049         estimate D2E/DX2                !
 ! A12   A(5,4,16)             118.5272         estimate D2E/DX2                !
 ! A13   A(4,5,6)              122.3472         estimate D2E/DX2                !
 ! A14   A(4,5,17)             118.7116         estimate D2E/DX2                !
 ! A15   A(6,5,17)             118.9408         estimate D2E/DX2                !
 ! A16   A(5,6,7)              115.3341         estimate D2E/DX2                !
 ! A17   A(5,6,18)             121.1049         estimate D2E/DX2                !
 ! A18   A(7,6,18)             123.561          estimate D2E/DX2                !
 ! A19   A(6,7,8)              122.3316         estimate D2E/DX2                !
 ! A20   A(6,7,12)             144.4121         estimate D2E/DX2                !
 ! A21   A(8,7,12)              93.2555         estimate D2E/DX2                !
 ! A22   A(3,8,7)              123.3518         estimate D2E/DX2                !
 ! A23   A(3,8,9)              143.5725         estimate D2E/DX2                !
 ! A24   A(7,8,9)               93.0702         estimate D2E/DX2                !
 ! A25   A(8,9,10)             115.2321         estimate D2E/DX2                !
 ! A26   A(8,9,12)              86.758          estimate D2E/DX2                !
 ! A27   A(8,9,19)             115.1744         estimate D2E/DX2                !
 ! A28   A(10,9,12)            115.6351         estimate D2E/DX2                !
 ! A29   A(10,9,19)            108.9849         estimate D2E/DX2                !
 ! A30   A(12,9,19)            113.8341         estimate D2E/DX2                !
 ! A31   A(9,10,11)            108.6515         estimate D2E/DX2                !
 ! A32   A(9,10,20)            109.328          estimate D2E/DX2                !
 ! A33   A(9,10,21)            109.4613         estimate D2E/DX2                !
 ! A34   A(11,10,20)           110.5395         estimate D2E/DX2                !
 ! A35   A(11,10,21)           110.8353         estimate D2E/DX2                !
 ! A36   A(20,10,21)           108.006          estimate D2E/DX2                !
 ! A37   A(10,11,22)           109.1848         estimate D2E/DX2                !
 ! A38   A(7,12,9)              86.9129         estimate D2E/DX2                !
 ! A39   A(7,12,23)            115.2971         estimate D2E/DX2                !
 ! A40   A(7,12,24)            115.1329         estimate D2E/DX2                !
 ! A41   A(9,12,23)            114.3201         estimate D2E/DX2                !
 ! A42   A(9,12,24)            114.7527         estimate D2E/DX2                !
 ! A43   A(23,12,24)           109.1646         estimate D2E/DX2                !
 ! D1    D(13,1,2,3)          -179.8029         estimate D2E/DX2                !
 ! D2    D(13,1,2,15)           -0.7852         estimate D2E/DX2                !
 ! D3    D(14,1,2,3)            -0.3245         estimate D2E/DX2                !
 ! D4    D(14,1,2,15)          178.6932         estimate D2E/DX2                !
 ! D5    D(1,2,3,4)            -14.69           estimate D2E/DX2                !
 ! D6    D(1,2,3,8)            165.96           estimate D2E/DX2                !
 ! D7    D(15,2,3,4)           166.2482         estimate D2E/DX2                !
 ! D8    D(15,2,3,8)           -13.1018         estimate D2E/DX2                !
 ! D9    D(2,3,4,5)           -179.5951         estimate D2E/DX2                !
 ! D10   D(2,3,4,16)            -0.4911         estimate D2E/DX2                !
 ! D11   D(8,3,4,5)             -0.2004         estimate D2E/DX2                !
 ! D12   D(8,3,4,16)           178.9035         estimate D2E/DX2                !
 ! D13   D(2,3,8,7)            179.8201         estimate D2E/DX2                !
 ! D14   D(2,3,8,9)             -1.3107         estimate D2E/DX2                !
 ! D15   D(4,3,8,7)              0.4092         estimate D2E/DX2                !
 ! D16   D(4,3,8,9)            179.2783         estimate D2E/DX2                !
 ! D17   D(3,4,5,6)              0.02           estimate D2E/DX2                !
 ! D18   D(3,4,5,17)           179.8134         estimate D2E/DX2                !
 ! D19   D(16,4,5,6)          -179.0872         estimate D2E/DX2                !
 ! D20   D(16,4,5,17)            0.7062         estimate D2E/DX2                !
 ! D21   D(4,5,6,7)             -0.0279         estimate D2E/DX2                !
 ! D22   D(4,5,6,18)           179.8905         estimate D2E/DX2                !
 ! D23   D(17,5,6,7)          -179.8208         estimate D2E/DX2                !
 ! D24   D(17,5,6,18)            0.0976         estimate D2E/DX2                !
 ! D25   D(5,6,7,8)              0.2325         estimate D2E/DX2                !
 ! D26   D(5,6,7,12)           179.8289         estimate D2E/DX2                !
 ! D27   D(18,6,7,8)          -179.6836         estimate D2E/DX2                !
 ! D28   D(18,6,7,12)           -0.0872         estimate D2E/DX2                !
 ! D29   D(6,7,8,3)             -0.4522         estimate D2E/DX2                !
 ! D30   D(6,7,8,9)           -179.7797         estimate D2E/DX2                !
 ! D31   D(12,7,8,3)           179.7831         estimate D2E/DX2                !
 ! D32   D(12,7,8,9)             0.4556         estimate D2E/DX2                !
 ! D33   D(6,7,12,9)           179.9002         estimate D2E/DX2                !
 ! D34   D(6,7,12,23)           64.389          estimate D2E/DX2                !
 ! D35   D(6,7,12,24)          -64.1324         estimate D2E/DX2                !
 ! D36   D(8,7,12,9)            -0.4414         estimate D2E/DX2                !
 ! D37   D(8,7,12,23)         -115.9527         estimate D2E/DX2                !
 ! D38   D(8,7,12,24)          115.526          estimate D2E/DX2                !
 ! D39   D(3,8,9,10)           -62.5999         estimate D2E/DX2                !
 ! D40   D(3,8,9,12)          -179.4941         estimate D2E/DX2                !
 ! D41   D(3,8,9,19)            65.6339         estimate D2E/DX2                !
 ! D42   D(7,8,9,10)           116.4541         estimate D2E/DX2                !
 ! D43   D(7,8,9,12)            -0.4401         estimate D2E/DX2                !
 ! D44   D(7,8,9,19)          -115.3121         estimate D2E/DX2                !
 ! D45   D(8,9,10,11)         -174.4964         estimate D2E/DX2                !
 ! D46   D(8,9,10,20)           64.786          estimate D2E/DX2                !
 ! D47   D(8,9,10,21)          -53.3371         estimate D2E/DX2                !
 ! D48   D(12,9,10,11)         -75.4753         estimate D2E/DX2                !
 ! D49   D(12,9,10,20)         163.807          estimate D2E/DX2                !
 ! D50   D(12,9,10,21)          45.6839         estimate D2E/DX2                !
 ! D51   D(19,9,10,11)          54.2482         estimate D2E/DX2                !
 ! D52   D(19,9,10,20)         -66.4695         estimate D2E/DX2                !
 ! D53   D(19,9,10,21)         175.4074         estimate D2E/DX2                !
 ! D54   D(8,9,12,7)             0.407          estimate D2E/DX2                !
 ! D55   D(8,9,12,23)          116.8451         estimate D2E/DX2                !
 ! D56   D(8,9,12,24)         -115.9206         estimate D2E/DX2                !
 ! D57   D(10,9,12,7)         -116.1062         estimate D2E/DX2                !
 ! D58   D(10,9,12,23)           0.3319         estimate D2E/DX2                !
 ! D59   D(10,9,12,24)         127.5662         estimate D2E/DX2                !
 ! D60   D(19,9,12,7)          116.5591         estimate D2E/DX2                !
 ! D61   D(19,9,12,23)        -127.0027         estimate D2E/DX2                !
 ! D62   D(19,9,12,24)           0.2315         estimate D2E/DX2                !
 ! D63   D(9,10,11,22)         178.4446         estimate D2E/DX2                !
 ! D64   D(20,10,11,22)        -61.5883         estimate D2E/DX2                !
 ! D65   D(21,10,11,22)         58.1333         estimate D2E/DX2                !
 --------------------------------------------------------------------------------
 Trust Radius=3.00D-01 FncErr=1.00D-07 GrdErr=1.00D-06 EigMax=2.50D+02 EigMin=1.00D-04
 Number of steps in this run=    143 maximum allowed number of steps=    144.
 GradGradGradGradGradGradGradGradGradGradGradGradGradGradGradGradGradGrad

 Leave Link  103 at Fri Nov  4 18:28:19 2022, MaxMem=   805306368 cpu:               0.3 elap:               0.1
 (Enter /home/wykgroup/appl/g16/l202.exe)
                          Input orientation:                          
 ---------------------------------------------------------------------
 Center     Atomic      Atomic             Coordinates (Angstroms)
 Number     Number       Type             X           Y           Z
 ---------------------------------------------------------------------
      1          6           0       -2.740779   -2.051090    0.649626
      2          6           0       -1.681847   -1.527948    0.044527
      3          6           0       -1.248208   -0.139057    0.112773
      4          6           0       -2.047381    0.915225    0.589747
      5          6           0       -1.604467    2.224395    0.632295
      6          6           0       -0.327983    2.595943    0.203157
      7          6           0        0.456353    1.570765   -0.263203
      8          6           0        0.009061    0.252758   -0.310059
      9          6           0        1.311924   -0.254551   -0.881883
     10          6           0        2.074286   -1.228759    0.005208
     11          8           0        3.317725   -1.512292   -0.600048
     12          6           0        1.804400    1.224118   -0.838729
     13          1           0       -2.988990   -3.093797    0.547869
     14          1           0       -3.396138   -1.468558    1.274390
     15          1           0       -1.043317   -2.164302   -0.556169
     16          1           0       -3.051258    0.699451    0.923268
     17          1           0       -2.272362    2.986586    1.008302
     18          1           0       -0.003431    3.624831    0.243706
     19          1           0        1.246723   -0.668425   -1.889608
     20          1           0        1.484291   -2.150173    0.125497
     21          1           0        2.216333   -0.783498    1.001036
     22          1           0        3.816512   -2.108862   -0.033360
     23          1           0        2.650676    1.395445   -0.176557
     24          1           0        2.017876    1.661799   -1.811787
 ---------------------------------------------------------------------
                    Distance matrix (angstroms):
                    1          2          3          4          5
     1  C    0.000000
     2  C    1.327087   0.000000
     3  C    2.484320   1.456611   0.000000
     4  C    3.046869   2.529817   1.406305   0.000000
     5  C    4.423943   3.798886   2.445962   1.382718   0.000000
     6  C    5.255077   4.343338   2.887077   2.435282   1.397004
     7  C    4.916578   3.777382   2.443436   2.725058   2.340113
     8  C    3.713534   2.481091   1.383125   2.340400   2.716405
     9  C    4.690147   3.382668   2.748993   3.849546   4.116218
    10  C    4.927104   3.768235   3.498284   4.682574   5.084362
    11  O    6.209466   5.040976   4.820958   6.007730   6.301545
    12  C    5.796623   4.528568   3.475921   4.119731   3.845107
    13  H    1.076662   2.100919   3.456894   4.118330   5.496107
    14  H    1.076647   2.110660   2.780382   2.823172   4.154548
    15  H    2.085219   1.083284   2.142681   3.435805   4.581266
    16  H    2.781501   2.758401   2.147320   1.079612   2.122103
    17  H    5.072103   4.653878   3.408886   2.125168   1.080925
    18  H    6.314580   5.422904   3.966544   3.411663   2.162300
    19  H    4.925408   3.613334   3.242598   4.416591   4.780971
    20  H    4.258609   3.227716   3.392831   4.699458   5.379044
    21  H    5.128669   4.082270   3.634194   4.608045   4.876670
    22  H    6.593017   5.529509   5.436256   6.627111   6.971888
    23  H    6.452052   5.231239   4.199966   4.784305   4.409948
    24  H    6.518351   5.225738   4.196942   4.780278   4.405840
                    6          7          8          9         10
     6  C    0.000000
     7  C    1.372466   0.000000
     8  C    2.422294   1.392627   0.000000
     9  C    3.462936   2.108684   1.510562   0.000000
    10  C    4.520888   3.244548   2.561140   1.522238   0.000000
    11  O    5.551029   4.219734   3.761216   2.384235   1.411689
    12  C    2.741257   1.506196   2.108619   1.559121   2.608002
    13  H    6.290702   5.855456   4.574252   5.348212   5.423063
    14  H    5.203968   5.142311   4.131439   5.318757   5.620842
    15  H    4.873214   4.035538   2.647687   3.049655   3.303004
    16  H    3.395802   3.803976   3.329592   4.817266   5.552659
    17  H    2.140437   3.326734   3.796944   5.188919   6.137482
    18  H    1.079624   2.165074   3.417264   4.248143   5.284991
    19  H    4.185148   2.878168   2.208021   1.091353   2.142234
    20  H    5.080943   3.879836   2.853084   2.153580   1.100712
    21  H    4.304739   3.199748   2.768546   2.154791   1.100049
    22  H    6.274390   4.988301   4.488929   3.229771   1.952285
    23  H    3.233850   2.203020   2.881265   2.238802   2.692901
    24  H    3.230430   2.201080   2.876790   2.243990   3.414672
                   11         12         13         14         15
    11  O    0.000000
    12  C    3.136090   0.000000
    13  H    6.602539   6.598760   0.000000
    14  H    6.970752   6.225863   1.826200   0.000000
    15  H    4.409731   4.435169   2.422499   3.061172   0.000000
    16  H    6.912036   5.192044   3.812287   2.223171   3.797583
    17  H    7.353622   4.810178   6.139756   4.602388   5.521754
    18  H    6.175114   3.194268   7.358400   6.206076   5.935927
    19  H    2.581497   2.235413   5.455729   5.675144   3.043023
    20  H    2.072387   3.523924   4.591194   5.059955   2.617951
    21  H    2.075494   2.754078   5.712988   5.660730   3.867406
    22  H    0.962195   3.975672   6.900925   7.358159   4.888183
    23  H    3.013177   1.088122   7.244579   6.846293   5.144074
    24  H    3.637688   1.088108   7.297423   6.973892   5.058313
                   16         17         18         19         20
    16  H    0.000000
    17  H    2.417622   0.000000
    18  H    4.278890   2.477905   0.000000
    19  H    5.315637   5.843025   4.954389   0.000000
    20  H    5.415533   6.424802   5.964727   2.512502   0.000000
    21  H    5.472906   5.861909   4.993423   3.051100   1.780521
    22  H    7.481177   8.007686   6.895214   3.482001   2.337989
    23  H    5.848596   5.307723   3.491571   3.027407   3.744743
    24  H    5.839757   5.302274   3.487726   2.455744   4.309167
                   21         22         23         24
    21  H    0.000000
    22  H    2.321020   0.000000
    23  H    2.514592   3.695923   0.000000
    24  H    3.732404   4.540461   1.773516   0.000000
 Stoichiometry    C11H12O
 Framework group  C1[X(C11H12O)]
 Deg. of freedom    66
 Full point group                 C1      NOp   1
 Largest Abelian subgroup         C1      NOp   1
 Largest concise Abelian subgroup C1      NOp   1
                         Standard orientation:                         
 ---------------------------------------------------------------------
 Center     Atomic      Atomic             Coordinates (Angstroms)
 Number     Number       Type             X           Y           Z
 ---------------------------------------------------------------------
      1          6           0       -2.366349    2.678621   -0.043198
      2          6           0       -1.330072    1.925491    0.303332
      3          6           0       -1.216579    0.483395    0.132461
      4          6           0       -2.300306   -0.365478   -0.155013
      5          6           0       -2.155931   -1.732693   -0.302625
      6          6           0       -0.920129   -2.371783   -0.176222
      7          6           0        0.141134   -1.547909    0.104161
      8          6           0       -0.004648   -0.171392    0.257001
      9          6           0        1.468122    0.037222    0.520110
     10          6           0        2.198250    0.884112   -0.512797
     11          8           0        3.575883    0.883826   -0.204585
     12          6           0        1.624855   -1.505708    0.359929
     13          1           0       -2.366630    3.743342    0.116716
     14          1           0       -3.248960    2.270368   -0.505255
     15          1           0       -0.457798    2.390986    0.746001
     16          1           0       -3.286981    0.062125   -0.250880
     17          1           0       -3.032246   -2.326890   -0.520345
     18          1           0       -0.830679   -3.441251   -0.293810
     19          1           0        1.714000    0.404228    1.518060
     20          1           0        1.798077    1.909293   -0.492008
     21          1           0        2.021833    0.470510   -1.516748
     22          1           0        4.048245    1.397271   -0.867207
     23          1           0        2.249889   -1.808067   -0.477878
     24          1           0        1.954115   -2.025787    1.257194
 ---------------------------------------------------------------------
 Rotational constants (GHZ):           1.2831056           0.7768931           0.5045343
 Leave Link  202 at Fri Nov  4 18:28:19 2022, MaxMem=   805306368 cpu:               0.4 elap:               0.1
 (Enter /home/wykgroup/appl/g16/l301.exe)
 Standard basis: 6-31G(d) (6D, 7F)
 Ernie: Thresh=  0.10000D-02 Tol=  0.10000D-05 Strict=F.
 There are   204 symmetry adapted cartesian basis functions of A   symmetry.
 There are   204 symmetry adapted basis functions of A   symmetry.
   204 basis functions,   384 primitive gaussians,   204 cartesian basis functions
    43 alpha electrons       43 beta electrons
       nuclear repulsion energy       656.5168076022 Hartrees.
 IExCor=  402 DFT=T Ex+Corr=B3LYP ExCW=0 ScaHFX=  0.200000
 ScaDFX=  0.800000  0.720000  1.000000  0.810000 ScalE2=  1.000000  1.000000
 IRadAn=      5 IRanWt=     -1 IRanGd=            0 ICorTp=0 IEmpDi=  4
 NAtoms=   24 NActive=   24 NUniq=   24 SFac= 1.00D+00 NAtFMM=   60 NAOKFM=F Big=F
 Integral buffers will be    131072 words long.
 Raffenetti 2 integral format.
 Two-electron integral symmetry is turned on.
 Leave Link  301 at Fri Nov  4 18:28:19 2022, MaxMem=   805306368 cpu:               0.6 elap:               0.1
 (Enter /home/wykgroup/appl/g16/l302.exe)
 NPDir=0 NMtPBC=     1 NCelOv=     1 NCel=       1 NClECP=     1 NCelD=      1
         NCelK=      1 NCelE2=     1 NClLst=     1 CellRange=     0.0.
 One-electron integrals computed using PRISM.
 One-electron integral symmetry used in STVInt
 NBasis=   204 RedAO= T EigKep=  2.99D-04  NBF=   204
 NBsUse=   204 1.00D-06 EigRej= -1.00D+00 NBFU=   204
 Precomputing XC quadrature grid using
 IXCGrd= 4 IRadAn=           5 IRanWt=          -1 IRanGd=           0 AccXCQ= 0.00D+00.
 Generated NRdTot=       0 NPtTot=           0 NUsed=           0 NTot=          32
 NSgBfM=   203   203   203   203   203 MxSgAt=    24 MxSgA2=    24.
 Leave Link  302 at Fri Nov  4 18:28:19 2022, MaxMem=   805306368 cpu:               1.7 elap:               0.3
 (Enter /home/wykgroup/appl/g16/l303.exe)
 DipDrv:  MaxL=1.
 Leave Link  303 at Fri Nov  4 18:28:19 2022, MaxMem=   805306368 cpu:               0.6 elap:               0.1
 (Enter /home/wykgroup/appl/g16/l401.exe)
 ExpMin= 1.61D-01 ExpMax= 5.48D+03 ExpMxC= 8.25D+02 IAcc=3 IRadAn=         5 AccDes= 0.00D+00
 Harris functional with IExCor=  402 and IRadAn=       5 diagonalized for initial guess.
 HarFok:  IExCor=  402 AccDes= 0.00D+00 IRadAn=         5 IDoV= 1 UseB2=F ITyADJ=14
 ICtDFT=  3500011 ScaDFX=  1.000000  1.000000  1.000000  1.000000
 FoFCou: FMM=F IPFlag=           0 FMFlag=      100000 FMFlg1=           0
         NFxFlg=           0 DoJE=T BraDBF=F KetDBF=T FulRan=T
         wScrn=  0.000000 ICntrl=       500 IOpCl=  0 I1Cent=   200000004 NGrid=           0
         NMat0=    1 NMatS0=      1 NMatT0=    0 NMatD0=    1 NMtDS0=    0 NMtDT0=    0
 Petite list used in FoFCou.
 Harris En= -501.598108290829    
 JPrj=0 DoOrth=F DoCkMO=F.
 Leave Link  401 at Fri Nov  4 18:28:20 2022, MaxMem=   805306368 cpu:               7.5 elap:               1.1
 (Enter /home/wykgroup/appl/g16/l502.exe)
 Keep R1 ints in memory in canonical form, NReq=225868640.
 FoFCou: FMM=F IPFlag=           0 FMFlag=           0 FMFlg1=           0
         NFxFlg=           0 DoJE=F BraDBF=F KetDBF=F FulRan=T
         wScrn=  0.000000 ICntrl=       600 IOpCl=  0 I1Cent=           0 NGrid=           0
         NMat0=    1 NMatS0=  20910 NMatT0=    0 NMatD0=    1 NMtDS0=    0 NMtDT0=    0
 Symmetry not used in FoFCou.
 Two-electron integral symmetry not used.
 Closed shell SCF:
 Using DIIS extrapolation, IDIIS=  1040.
 NGot=   805306368 LenX=   586594793 LenY=   586552736
 Requested convergence on RMS density matrix=1.00D-08 within  32 cycles.
 Requested convergence on MAX density matrix=1.00D-06.
 Requested convergence on             energy=1.00D-06.
 No special actions if energy rises.
 Integral accuracy reduced to 1.0D-05 until final iterations.

 Cycle   1  Pass 0  IDiag  1:
 E= -501.244614411492    
 DIIS: error= 2.97D-02 at cycle   1 NSaved=   1.
 NSaved= 1 IEnMin= 1 EnMin= -501.244614411492     IErMin= 1 ErrMin= 2.97D-02
 ErrMax= 2.97D-02  0.00D+00 EMaxC= 1.00D-01 BMatC= 2.88D-01 BMatP= 2.88D-01
 IDIUse=3 WtCom= 7.03D-01 WtEn= 2.97D-01
 Coeff-Com:  0.100D+01
 Coeff-En:   0.100D+01
 Coeff:      0.100D+01
 Gap=     0.191 Goal=   None    Shift=    0.000
 GapD=    0.191 DampG=1.000 DampE=0.500 DampFc=0.5000 IDamp=-1.
 Damping current iteration by 5.00D-01
 RMSDP=6.42D-03 MaxDP=1.36D-01              OVMax= 1.35D-01

 Cycle   2  Pass 0  IDiag  1:
 E= -501.388037608853     Delta-E=       -0.143423197361 Rises=F Damp=T
 DIIS: error= 6.05D-03 at cycle   2 NSaved=   2.
 NSaved= 2 IEnMin= 2 EnMin= -501.388037608853     IErMin= 2 ErrMin= 6.05D-03
 ErrMax= 6.05D-03  0.00D+00 EMaxC= 1.00D-01 BMatC= 1.49D-02 BMatP= 2.88D-01
 IDIUse=3 WtCom= 9.40D-01 WtEn= 6.05D-02
 Coeff-Com:  0.240D-01 0.976D+00
 Coeff-En:   0.133D-01 0.987D+00
 Coeff:      0.233D-01 0.977D+00
 Gap=     0.194 Goal=   None    Shift=    0.000
 RMSDP=2.14D-03 MaxDP=4.88D-02 DE=-1.43D-01 OVMax= 9.21D-02

 Cycle   3  Pass 0  IDiag  1:
 E= -501.542397789877     Delta-E=       -0.154360181024 Rises=F Damp=F
 DIIS: error= 6.06D-03 at cycle   3 NSaved=   3.
 NSaved= 3 IEnMin= 3 EnMin= -501.542397789877     IErMin= 2 ErrMin= 6.05D-03
 ErrMax= 6.06D-03  0.00D+00 EMaxC= 1.00D-01 BMatC= 6.65D-03 BMatP= 1.49D-02
 IDIUse=3 WtCom= 9.39D-01 WtEn= 6.06D-02
 Coeff-Com: -0.329D-01 0.381D+00 0.652D+00
 Coeff-En:   0.000D+00 0.000D+00 0.100D+01
 Coeff:     -0.309D-01 0.358D+00 0.673D+00
 Gap=     0.193 Goal=   None    Shift=    0.000
 RMSDP=6.07D-04 MaxDP=2.11D-02 DE=-1.54D-01 OVMax= 2.17D-02

 Cycle   4  Pass 0  IDiag  1:
 E= -501.545748965939     Delta-E=       -0.003351176062 Rises=F Damp=F
 DIIS: error= 2.90D-03 at cycle   4 NSaved=   4.
 NSaved= 4 IEnMin= 4 EnMin= -501.545748965939     IErMin= 4 ErrMin= 2.90D-03
 ErrMax= 2.90D-03  0.00D+00 EMaxC= 1.00D-01 BMatC= 2.13D-03 BMatP= 6.65D-03
 IDIUse=3 WtCom= 9.71D-01 WtEn= 2.90D-02
 Coeff-Com: -0.176D-01 0.832D-01 0.386D+00 0.549D+00
 Coeff-En:   0.000D+00 0.000D+00 0.273D+00 0.727D+00
 Coeff:     -0.171D-01 0.808D-01 0.382D+00 0.554D+00
 Gap=     0.192 Goal=   None    Shift=    0.000
 RMSDP=2.74D-04 MaxDP=7.03D-03 DE=-3.35D-03 OVMax= 1.38D-02

 Cycle   5  Pass 0  IDiag  1:
 E= -501.547530717294     Delta-E=       -0.001781751356 Rises=F Damp=F
 DIIS: error= 6.09D-04 at cycle   5 NSaved=   5.
 NSaved= 5 IEnMin= 5 EnMin= -501.547530717294     IErMin= 5 ErrMin= 6.09D-04
 ErrMax= 6.09D-04  0.00D+00 EMaxC= 1.00D-01 BMatC= 8.55D-05 BMatP= 2.13D-03
 IDIUse=3 WtCom= 9.94D-01 WtEn= 6.09D-03
 Coeff-Com: -0.699D-02 0.237D-01 0.159D+00 0.277D+00 0.548D+00
 Coeff-En:   0.000D+00 0.000D+00 0.000D+00 0.000D+00 0.100D+01
 Coeff:     -0.695D-02 0.236D-01 0.158D+00 0.275D+00 0.551D+00
 Gap=     0.192 Goal=   None    Shift=    0.000
 RMSDP=7.92D-05 MaxDP=2.10D-03 DE=-1.78D-03 OVMax= 5.70D-03

 Cycle   6  Pass 0  IDiag  1:
 E= -501.547599772810     Delta-E=       -0.000069055515 Rises=F Damp=F
 DIIS: error= 3.03D-04 at cycle   6 NSaved=   6.
 NSaved= 6 IEnMin= 6 EnMin= -501.547599772810     IErMin= 6 ErrMin= 3.03D-04
 ErrMax= 3.03D-04  0.00D+00 EMaxC= 1.00D-01 BMatC= 2.38D-05 BMatP= 8.55D-05
 IDIUse=3 WtCom= 9.97D-01 WtEn= 3.03D-03
 Coeff-Com: -0.208D-02 0.367D-02 0.496D-01 0.105D+00 0.369D+00 0.475D+00
 Coeff-En:   0.000D+00 0.000D+00 0.000D+00 0.000D+00 0.240D+00 0.760D+00
 Coeff:     -0.207D-02 0.365D-02 0.495D-01 0.105D+00 0.369D+00 0.476D+00
 Gap=     0.192 Goal=   None    Shift=    0.000
 RMSDP=3.14D-05 MaxDP=7.57D-04 DE=-6.91D-05 OVMax= 2.03D-03

 Cycle   7  Pass 0  IDiag  1:
 E= -501.547625184960     Delta-E=       -0.000025412150 Rises=F Damp=F
 DIIS: error= 2.25D-05 at cycle   7 NSaved=   7.
 NSaved= 7 IEnMin= 7 EnMin= -501.547625184960     IErMin= 7 ErrMin= 2.25D-05
 ErrMax= 2.25D-05  0.00D+00 EMaxC= 1.00D-01 BMatC= 2.50D-07 BMatP= 2.38D-05
 IDIUse=1 WtCom= 1.00D+00 WtEn= 0.00D+00
 Coeff-Com: -0.638D-03 0.753D-03 0.160D-01 0.361D-01 0.142D+00 0.206D+00
 Coeff-Com:  0.600D+00
 Coeff:     -0.638D-03 0.753D-03 0.160D-01 0.361D-01 0.142D+00 0.206D+00
 Coeff:      0.600D+00
 Gap=     0.192 Goal=   None    Shift=    0.000
 RMSDP=4.48D-06 MaxDP=8.39D-05 DE=-2.54D-05 OVMax= 2.16D-04

 Initial convergence to 1.0D-05 achieved.  Increase integral accuracy.
 Cycle   8  Pass 1  IDiag  1:
 E= -501.547620264715     Delta-E=        0.000004920244 Rises=F Damp=F
 DIIS: error= 1.12D-05 at cycle   1 NSaved=   1.
 NSaved= 1 IEnMin= 1 EnMin= -501.547620264715     IErMin= 1 ErrMin= 1.12D-05
 ErrMax= 1.12D-05  0.00D+00 EMaxC= 1.00D-01 BMatC= 5.43D-08 BMatP= 5.43D-08
 IDIUse=1 WtCom= 1.00D+00 WtEn= 0.00D+00
 Coeff-Com:  0.100D+01
 Coeff:      0.100D+01
 Gap=     0.192 Goal=   None    Shift=    0.000
 RMSDP=4.48D-06 MaxDP=8.39D-05 DE= 4.92D-06 OVMax= 2.53D-04

 Cycle   9  Pass 1  IDiag  1:
 E= -501.547620114544     Delta-E=        0.000000150172 Rises=F Damp=F
 DIIS: error= 2.46D-05 at cycle   2 NSaved=   2.
 NSaved= 2 IEnMin= 1 EnMin= -501.547620264715     IErMin= 1 ErrMin= 1.12D-05
 ErrMax= 2.46D-05  0.00D+00 EMaxC= 1.00D-01 BMatC= 1.87D-07 BMatP= 5.43D-08
 IDIUse=1 WtCom= 1.00D+00 WtEn= 0.00D+00
 Coeff-Com:  0.653D+00 0.347D+00
 Coeff:      0.653D+00 0.347D+00
 Gap=     0.192 Goal=   None    Shift=    0.000
 RMSDP=2.64D-06 MaxDP=6.83D-05 DE= 1.50D-07 OVMax= 1.83D-04

 Cycle  10  Pass 1  IDiag  1:
 E= -501.547620324592     Delta-E=       -0.000000210048 Rises=F Damp=F
 DIIS: error= 2.54D-06 at cycle   3 NSaved=   3.
 NSaved= 3 IEnMin= 3 EnMin= -501.547620324592     IErMin= 3 ErrMin= 2.54D-06
 ErrMax= 2.54D-06  0.00D+00 EMaxC= 1.00D-01 BMatC= 2.22D-09 BMatP= 5.43D-08
 IDIUse=1 WtCom= 1.00D+00 WtEn= 0.00D+00
 Coeff-Com:  0.310D+00 0.181D+00 0.509D+00
 Coeff:      0.310D+00 0.181D+00 0.509D+00
 Gap=     0.192 Goal=   None    Shift=    0.000
 RMSDP=3.32D-07 MaxDP=9.43D-06 DE=-2.10D-07 OVMax= 1.74D-05

 Cycle  11  Pass 1  IDiag  1:
 E= -501.547620326711     Delta-E=       -0.000000002120 Rises=F Damp=F
 DIIS: error= 6.32D-07 at cycle   4 NSaved=   4.
 NSaved= 4 IEnMin= 4 EnMin= -501.547620326711     IErMin= 4 ErrMin= 6.32D-07
 ErrMax= 6.32D-07  0.00D+00 EMaxC= 1.00D-01 BMatC= 2.05D-10 BMatP= 2.22D-09
 IDIUse=1 WtCom= 1.00D+00 WtEn= 0.00D+00
 Coeff-Com:  0.381D-01 0.286D-01 0.247D+00 0.686D+00
 Coeff:      0.381D-01 0.286D-01 0.247D+00 0.686D+00
 Gap=     0.192 Goal=   None    Shift=    0.000
 RMSDP=9.68D-08 MaxDP=3.55D-06 DE=-2.12D-09 OVMax= 6.97D-06

 Cycle  12  Pass 1  IDiag  1:
 E= -501.547620326888     Delta-E=       -0.000000000176 Rises=F Damp=F
 DIIS: error= 2.38D-07 at cycle   5 NSaved=   5.
 NSaved= 5 IEnMin= 5 EnMin= -501.547620326888     IErMin= 5 ErrMin= 2.38D-07
 ErrMax= 2.38D-07  0.00D+00 EMaxC= 1.00D-01 BMatC= 3.39D-11 BMatP= 2.05D-10
 IDIUse=1 WtCom= 1.00D+00 WtEn= 0.00D+00
 Coeff-Com: -0.215D-02 0.282D-02 0.104D+00 0.398D+00 0.497D+00
 Coeff:     -0.215D-02 0.282D-02 0.104D+00 0.398D+00 0.497D+00
 Gap=     0.192 Goal=   None    Shift=    0.000
 RMSDP=3.50D-08 MaxDP=1.22D-06 DE=-1.76D-10 OVMax= 2.25D-06

 Cycle  13  Pass 1  IDiag  1:
 E= -501.547620326921     Delta-E=       -0.000000000033 Rises=F Damp=F
 DIIS: error= 6.07D-08 at cycle   6 NSaved=   6.
 NSaved= 6 IEnMin= 6 EnMin= -501.547620326921     IErMin= 6 ErrMin= 6.07D-08
 ErrMax= 6.07D-08  0.00D+00 EMaxC= 1.00D-01 BMatC= 1.94D-12 BMatP= 3.39D-11
 IDIUse=1 WtCom= 1.00D+00 WtEn= 0.00D+00
 Coeff-Com: -0.470D-02-0.953D-03 0.325D-01 0.148D+00 0.259D+00 0.566D+00
 Coeff:     -0.470D-02-0.953D-03 0.325D-01 0.148D+00 0.259D+00 0.566D+00
 Gap=     0.192 Goal=   None    Shift=    0.000
 RMSDP=1.03D-08 MaxDP=1.82D-07 DE=-3.32D-11 OVMax= 5.91D-07

 Cycle  14  Pass 1  IDiag  1:
 E= -501.547620326924     Delta-E=       -0.000000000003 Rises=F Damp=F
 DIIS: error= 2.42D-08 at cycle   7 NSaved=   7.
 NSaved= 7 IEnMin= 7 EnMin= -501.547620326924     IErMin= 7 ErrMin= 2.42D-08
 ErrMax= 2.42D-08  0.00D+00 EMaxC= 1.00D-01 BMatC= 2.11D-13 BMatP= 1.94D-12
 IDIUse=1 WtCom= 1.00D+00 WtEn= 0.00D+00
 Coeff-Com: -0.245D-02-0.627D-03 0.123D-01 0.606D-01 0.118D+00 0.332D+00
 Coeff-Com:  0.480D+00
 Coeff:     -0.245D-02-0.627D-03 0.123D-01 0.606D-01 0.118D+00 0.332D+00
 Coeff:      0.480D+00
 Gap=     0.192 Goal=   None    Shift=    0.000
 RMSDP=2.98D-09 MaxDP=8.98D-08 DE=-3.18D-12 OVMax= 1.67D-07

 SCF Done:  E(RB3LYP) =  -501.547620327     A.U. after   14 cycles
            NFock= 14  Conv=0.30D-08     -V/T= 2.0087
 KE= 4.972399086005D+02 PE=-2.477740361250D+03 EE= 8.224360247207D+02
 Leave Link  502 at Fri Nov  4 18:28:38 2022, MaxMem=   805306368 cpu:              87.0 elap:              17.4
 (Enter /home/wykgroup/appl/g16/l508.exe)
 QCSCF skips out because SCF is already converged.
 Leave Link  508 at Fri Nov  4 18:28:38 2022, MaxMem=   805306368 cpu:               0.0 elap:               0.0
 (Enter /home/wykgroup/appl/g16/l601.exe)
 Copying SCF densities to generalized density rwf, IOpCl= 0 IROHF=0.

 **********************************************************************

            Population analysis using the SCF Density.

 **********************************************************************

 Orbital symmetries:
       Occupied  (A) (A) (A) (A) (A) (A) (A) (A) (A) (A) (A) (A)
                 (A) (A) (A) (A) (A) (A) (A) (A) (A) (A) (A) (A)
                 (A) (A) (A) (A) (A) (A) (A) (A) (A) (A) (A) (A)
                 (A) (A) (A) (A) (A) (A) (A)
       Virtual   (A) (A) (A) (A) (A) (A) (A) (A) (A) (A) (A) (A)
                 (A) (A) (A) (A) (A) (A) (A) (A) (A) (A) (A) (A)
                 (A) (A) (A) (A) (A) (A) (A) (A) (A) (A) (A) (A)
                 (A) (A) (A) (A) (A) (A) (A) (A) (A) (A) (A) (A)
                 (A) (A) (A) (A) (A) (A) (A) (A) (A) (A) (A) (A)
                 (A) (A) (A) (A) (A) (A) (A) (A) (A) (A) (A) (A)
                 (A) (A) (A) (A) (A) (A) (A) (A) (A) (A) (A) (A)
                 (A) (A) (A) (A) (A) (A) (A) (A) (A) (A) (A) (A)
                 (A) (A) (A) (A) (A) (A) (A) (A) (A) (A) (A) (A)
                 (A) (A) (A) (A) (A) (A) (A) (A) (A) (A) (A) (A)
                 (A) (A) (A) (A) (A) (A) (A) (A) (A) (A) (A) (A)
                 (A) (A) (A) (A) (A) (A) (A) (A) (A) (A) (A) (A)
                 (A) (A) (A) (A) (A) (A) (A) (A) (A) (A) (A) (A)
                 (A) (A) (A) (A) (A)
 The electronic state is 1-A.
 Alpha  occ. eigenvalues --  -19.14056 -10.22942 -10.19152 -10.19127 -10.18902
 Alpha  occ. eigenvalues --  -10.18360 -10.18321 -10.18271 -10.18170 -10.17907
 Alpha  occ. eigenvalues --  -10.17896 -10.17776  -1.01802  -0.88371  -0.81856
 Alpha  occ. eigenvalues --   -0.78700  -0.72760  -0.71073  -0.67526  -0.61994
 Alpha  occ. eigenvalues --   -0.60573  -0.55787  -0.54501  -0.51909  -0.49784
 Alpha  occ. eigenvalues --   -0.47794  -0.46698  -0.45264  -0.43046  -0.41877
 Alpha  occ. eigenvalues --   -0.40268  -0.39492  -0.37818  -0.36428  -0.36010
 Alpha  occ. eigenvalues --   -0.34068  -0.32743  -0.31594  -0.30513  -0.29492
 Alpha  occ. eigenvalues --   -0.26520  -0.23479  -0.22160
 Alpha virt. eigenvalues --   -0.02946   0.01159   0.06023   0.07330   0.10111
 Alpha virt. eigenvalues --    0.10905   0.13307   0.13350   0.14285   0.15753
 Alpha virt. eigenvalues --    0.16732   0.17653   0.18055   0.19214   0.19551
 Alpha virt. eigenvalues --    0.21707   0.21879   0.22437   0.23376   0.28087
 Alpha virt. eigenvalues --    0.29785   0.29957   0.31734   0.33827   0.37443
 Alpha virt. eigenvalues --    0.40286   0.43248   0.46688   0.51267   0.51558
 Alpha virt. eigenvalues --    0.52540   0.53633   0.54911   0.55375   0.55754
 Alpha virt. eigenvalues --    0.56698   0.58408   0.60520   0.61372   0.61872
 Alpha virt. eigenvalues --    0.62084   0.62689   0.64762   0.65765   0.66691
 Alpha virt. eigenvalues --    0.68715   0.69164   0.70694   0.72353   0.75094
 Alpha virt. eigenvalues --    0.78687   0.80263   0.80972   0.83234   0.84245
 Alpha virt. eigenvalues --    0.85068   0.85178   0.86357   0.86738   0.87693
 Alpha virt. eigenvalues --    0.88703   0.90800   0.91441   0.92019   0.94929
 Alpha virt. eigenvalues --    0.95700   0.96314   0.97877   0.99418   1.00984
 Alpha virt. eigenvalues --    1.01524   1.04791   1.06389   1.07397   1.10961
 Alpha virt. eigenvalues --    1.12431   1.16349   1.20780   1.21549   1.24186
 Alpha virt. eigenvalues --    1.25786   1.27047   1.32335   1.34567   1.38492
 Alpha virt. eigenvalues --    1.41080   1.43274   1.44292   1.47694   1.48376
 Alpha virt. eigenvalues --    1.51697   1.52605   1.57035   1.60352   1.65718
 Alpha virt. eigenvalues --    1.67720   1.71591   1.73621   1.74704   1.79629
 Alpha virt. eigenvalues --    1.80505   1.83213   1.83615   1.86054   1.92206
 Alpha virt. eigenvalues --    1.93276   1.96568   1.97752   1.98767   2.01990
 Alpha virt. eigenvalues --    2.03240   2.03869   2.06915   2.09930   2.11939
 Alpha virt. eigenvalues --    2.13742   2.16233   2.18640   2.19150   2.21888
 Alpha virt. eigenvalues --    2.23382   2.25364   2.26918   2.28488   2.29058
 Alpha virt. eigenvalues --    2.32205   2.34697   2.36839   2.40906   2.43784
 Alpha virt. eigenvalues --    2.46041   2.48165   2.51783   2.57649   2.60325
 Alpha virt. eigenvalues --    2.61855   2.64964   2.66438   2.67104   2.76079
 Alpha virt. eigenvalues --    2.78387   2.79914   2.87303   2.89254   2.92335
 Alpha virt. eigenvalues --    3.01166   3.08098   3.31721   3.47193   3.79764
 Alpha virt. eigenvalues --    4.09659   4.10803   4.12914   4.16292   4.22782
 Alpha virt. eigenvalues --    4.30765   4.34240   4.41617   4.50906   4.61910
 Alpha virt. eigenvalues --    4.91435
          Condensed to atoms (all electrons):
               1          2          3          4          5          6
     1  C    5.090108   0.608651  -0.010790  -0.015300  -0.000024   0.000034
     2  C    0.608651   4.917180   0.407536  -0.079959   0.007936   0.000281
     3  C   -0.010790   0.407536   4.866970   0.477929  -0.000129  -0.064128
     4  C   -0.015300  -0.079959   0.477929   5.044398   0.516223  -0.027713
     5  C   -0.000024   0.007936  -0.000129   0.516223   4.905990   0.478984
     6  C    0.000034   0.000281  -0.064128  -0.027713   0.478984   5.147605
     7  C   -0.000376   0.008963  -0.045226  -0.050270   0.005345   0.510378
     8  C    0.008535  -0.060904   0.425264  -0.011703  -0.054971  -0.068208
     9  C    0.000205  -0.008793  -0.116594   0.008624  -0.001529   0.032724
    10  C   -0.000004   0.000179   0.002022  -0.000165   0.000070  -0.000614
    11  O   -0.000000  -0.000003  -0.000025   0.000001  -0.000000   0.000005
    12  C    0.000008  -0.000684   0.034798  -0.000172   0.007088  -0.106021
    13  H    0.362559  -0.015933   0.002945   0.000204   0.000000   0.000000
    14  H    0.362613  -0.027618  -0.015952   0.005196   0.000149  -0.000009
    15  H   -0.061082   0.359782  -0.040023   0.006323  -0.000151  -0.000022
    16  H    0.006204  -0.012490  -0.039793   0.352472  -0.045462   0.004910
    17  H    0.000001  -0.000199   0.003174  -0.036001   0.355941  -0.041339
    18  H   -0.000000   0.000016   0.000834   0.004028  -0.046297   0.353130
    19  H   -0.000019   0.000517   0.000922  -0.000056   0.000054  -0.000767
    20  H    0.000055   0.001111  -0.000077  -0.000004  -0.000006   0.000042
    21  H   -0.000010   0.000080   0.000877  -0.000055   0.000000  -0.000266
    22  H    0.000000   0.000000   0.000002  -0.000000   0.000000  -0.000000
    23  H    0.000000   0.000010  -0.000804   0.000042  -0.000060   0.000960
    24  H   -0.000000   0.000011  -0.000714   0.000038  -0.000045   0.000677
               7          8          9         10         11         12
     1  C   -0.000376   0.008535   0.000205  -0.000004  -0.000000   0.000008
     2  C    0.008963  -0.060904  -0.008793   0.000179  -0.000003  -0.000684
     3  C   -0.045226   0.425264  -0.116594   0.002022  -0.000025   0.034798
     4  C   -0.050270  -0.011703   0.008624  -0.000165   0.000001  -0.000172
     5  C    0.005345  -0.054971  -0.001529   0.000070  -0.000000   0.007088
     6  C    0.510378  -0.068208   0.032724  -0.000614   0.000005  -0.106021
     7  C    4.767966   0.537383  -0.067838  -0.009880   0.000611   0.255299
     8  C    0.537383   5.020472   0.265164  -0.017605   0.001489  -0.067216
     9  C   -0.067838   0.265164   5.335604   0.339473  -0.045698   0.222454
    10  C   -0.009880  -0.017605   0.339473   4.841120   0.236773  -0.021363
    11  O    0.000611   0.001489  -0.045698   0.236773   8.267960   0.001973
    12  C    0.255299  -0.067216   0.222454  -0.021363   0.001973   5.386334
    13  H    0.000004  -0.000201  -0.000006   0.000001  -0.000000  -0.000000
    14  H    0.000010  -0.000206  -0.000002  -0.000001   0.000000   0.000000
    15  H    0.000188  -0.010670   0.003765  -0.000544  -0.000011  -0.000052
    16  H    0.000665   0.005029  -0.000155  -0.000000  -0.000000   0.000033
    17  H    0.001801   0.001406   0.000030  -0.000000  -0.000000  -0.000192
    18  H   -0.039207   0.005180  -0.000383   0.000002  -0.000000  -0.004040
    19  H   -0.003350  -0.015822   0.339329  -0.041504   0.003213  -0.029346
    20  H    0.000587  -0.001835  -0.039741   0.361272  -0.040179   0.005113
    21  H    0.000799   0.007321  -0.047942   0.359384  -0.039884  -0.008271
    22  H   -0.000032  -0.000252   0.006473  -0.020512   0.233046  -0.000048
    23  H   -0.009124  -0.007521  -0.020860  -0.002156   0.001333   0.340245
    24  H   -0.011674  -0.005767  -0.012200   0.001567  -0.000024   0.335507
              13         14         15         16         17         18
     1  C    0.362559   0.362613  -0.061082   0.006204   0.000001  -0.000000
     2  C   -0.015933  -0.027618   0.359782  -0.012490  -0.000199   0.000016
     3  C    0.002945  -0.015952  -0.040023  -0.039793   0.003174   0.000834
     4  C    0.000204   0.005196   0.006323   0.352472  -0.036001   0.004028
     5  C    0.000000   0.000149  -0.000151  -0.045462   0.355941  -0.046297
     6  C    0.000000  -0.000009  -0.000022   0.004910  -0.041339   0.353130
     7  C    0.000004   0.000010   0.000188   0.000665   0.001801  -0.039207
     8  C   -0.000201  -0.000206  -0.010670   0.005029   0.001406   0.005180
     9  C   -0.000006  -0.000002   0.003765  -0.000155   0.000030  -0.000383
    10  C    0.000001  -0.000001  -0.000544  -0.000000  -0.000000   0.000002
    11  O   -0.000000   0.000000  -0.000011  -0.000000  -0.000000  -0.000000
    12  C   -0.000000   0.000000  -0.000052   0.000033  -0.000192  -0.004040
    13  H    0.557814  -0.043098  -0.007321  -0.000131  -0.000000   0.000000
    14  H   -0.043098   0.565335   0.006104   0.003520   0.000007  -0.000000
    15  H   -0.007321   0.006104   0.610473  -0.000024   0.000002  -0.000000
    16  H   -0.000131   0.003520  -0.000024   0.609933  -0.006232  -0.000188
    17  H   -0.000000   0.000007   0.000002  -0.006232   0.601485  -0.004695
    18  H    0.000000  -0.000000  -0.000000  -0.000188  -0.004695   0.602620
    19  H    0.000000   0.000000   0.000489   0.000001  -0.000000   0.000010
    20  H   -0.000008   0.000003   0.002552   0.000001   0.000000  -0.000000
    21  H    0.000000   0.000000  -0.000035  -0.000000  -0.000000   0.000002
    22  H    0.000000  -0.000000  -0.000002   0.000000  -0.000000   0.000000
    23  H    0.000000  -0.000000   0.000002  -0.000000   0.000001   0.000557
    24  H    0.000000  -0.000000   0.000000  -0.000000   0.000001   0.000554
              19         20         21         22         23         24
     1  C   -0.000019   0.000055  -0.000010   0.000000   0.000000  -0.000000
     2  C    0.000517   0.001111   0.000080   0.000000   0.000010   0.000011
     3  C    0.000922  -0.000077   0.000877   0.000002  -0.000804  -0.000714
     4  C   -0.000056  -0.000004  -0.000055  -0.000000   0.000042   0.000038
     5  C    0.000054  -0.000006   0.000000   0.000000  -0.000060  -0.000045
     6  C   -0.000767   0.000042  -0.000266  -0.000000   0.000960   0.000677
     7  C   -0.003350   0.000587   0.000799  -0.000032  -0.009124  -0.011674
     8  C   -0.015822  -0.001835   0.007321  -0.000252  -0.007521  -0.005767
     9  C    0.339329  -0.039741  -0.047942   0.006473  -0.020860  -0.012200
    10  C   -0.041504   0.361272   0.359384  -0.020512  -0.002156   0.001567
    11  O    0.003213  -0.040179  -0.039884   0.233046   0.001333  -0.000024
    12  C   -0.029346   0.005113  -0.008271  -0.000048   0.340245   0.335507
    13  H    0.000000  -0.000008   0.000000   0.000000   0.000000   0.000000
    14  H    0.000000   0.000003   0.000000  -0.000000  -0.000000  -0.000000
    15  H    0.000489   0.002552  -0.000035  -0.000002   0.000002   0.000000
    16  H    0.000001   0.000001  -0.000000   0.000000  -0.000000  -0.000000
    17  H   -0.000000   0.000000  -0.000000  -0.000000   0.000001   0.000001
    18  H    0.000010  -0.000000   0.000002   0.000000   0.000557   0.000554
    19  H    0.593997  -0.006562   0.007207  -0.000129   0.002486  -0.001629
    20  H   -0.006562   0.658137  -0.057327  -0.003794   0.000198  -0.000174
    21  H    0.007207  -0.057327   0.659233  -0.004322   0.002915   0.000247
    22  H   -0.000129  -0.003794  -0.004322   0.396095  -0.000115   0.000005
    23  H    0.002486   0.000198   0.002915  -0.000115   0.569386  -0.034120
    24  H   -0.001629  -0.000174   0.000247   0.000005  -0.034120   0.572443
 Mulliken charges:
               1
     1  C   -0.351368
     2  C   -0.105672
     3  C    0.110984
     4  C   -0.194078
     5  C   -0.129106
     6  C   -0.220642
     7  C    0.146977
     8  C    0.045638
     9  C   -0.192106
    10  C   -0.027515
    11  O   -0.620578
    12  C   -0.351447
    13  H    0.143170
    14  H    0.143948
    15  H    0.130258
    16  H    0.121706
    17  H    0.124808
    18  H    0.127879
    19  H    0.150955
    20  H    0.120635
    21  H    0.120044
    22  H    0.393587
    23  H    0.156626
    24  H    0.155296
 Sum of Mulliken charges =  -0.00000
 Mulliken charges with hydrogens summed into heavy atoms:
               1
     1  C   -0.064250
     2  C    0.024586
     3  C    0.110984
     4  C   -0.072372
     5  C   -0.004299
     6  C   -0.092763
     7  C    0.146977
     8  C    0.045638
     9  C   -0.041150
    10  C    0.213164
    11  O   -0.226992
    12  C   -0.039525
 Electronic spatial extent (au):  <R**2>=           2220.1422
 Charge=             -0.0000 electrons
 Dipole moment (field-independent basis, Debye):
    X=              0.0039    Y=              0.6148    Z=             -1.1350  Tot=              1.2908
 Quadrupole moment (field-independent basis, Debye-Ang):
   XX=            -67.8053   YY=            -64.1562   ZZ=            -71.1470
   XY=              2.7750   XZ=             -3.2955   YZ=             -1.1699
 Traceless Quadrupole moment (field-independent basis, Debye-Ang):
   XX=             -0.1024   YY=              3.5466   ZZ=             -3.4442
   XY=              2.7750   XZ=             -3.2955   YZ=             -1.1699
 Octapole moment (field-independent basis, Debye-Ang**2):
  XXX=              5.2626  YYY=              5.4805  ZZZ=             -1.0058  XYY=              8.7909
  XXY=             14.3528  XXZ=            -27.7858  XZZ=             18.6946  YZZ=              2.9836
  YYZ=             -3.1917  XYZ=             -8.7382
 Hexadecapole moment (field-independent basis, Debye-Ang**3):
 XXXX=          -1591.4410 YYYY=          -1032.5389 ZZZZ=           -140.4734 XXXY=             80.6003
 XXXZ=            -73.8388 YYYX=             24.9803 YYYZ=              6.7704 ZZZX=             -8.9822
 ZZZY=             -5.8899 XXYY=           -412.1601 XXZZ=           -289.9070 YYZZ=           -216.8108
 XXYZ=            -37.0100 YYXZ=             -7.0484 ZZXY=             13.4282
 N-N= 6.565168076022D+02 E-N=-2.477740362814D+03  KE= 4.972399086005D+02
 No NMR shielding tensors so no spin-rotation constants.
 Leave Link  601 at Fri Nov  4 18:28:38 2022, MaxMem=   805306368 cpu:               0.9 elap:               0.2
 (Enter /home/wykgroup/appl/g16/l701.exe)
 ... and contract with generalized density number  0.
 Compute integral first derivatives.
 Leave Link  701 at Fri Nov  4 18:28:38 2022, MaxMem=   805306368 cpu:               0.9 elap:               0.2
 (Enter /home/wykgroup/appl/g16/l702.exe)
 L702 exits ... SP integral derivatives will be done elsewhere.
 Leave Link  702 at Fri Nov  4 18:28:38 2022, MaxMem=   805306368 cpu:               0.3 elap:               0.1
 (Enter /home/wykgroup/appl/g16/l703.exe)
 Integral derivatives from FoFJK, PRISM(SPDF).
 Compute integral first derivatives, UseDBF=F ICtDFT=           0.
 Calling FoFJK, ICntrl=      2127 FMM=F ISym2X=0 I1Cent= 0 IOpClX= 0 NMat=1 NMatS=1 NMatT=0.
 FoFJK:  IHMeth= 1 ICntrl=    2127 DoSepK=F KAlg= 0 I1Cent=           0 FoldK=F
 IRaf=         0 NMat=       1 IRICut=       1 DoRegI=T DoRafI=F ISym2E= 0 IDoP0=0 IntGTp=1.
 FoFCou: FMM=F IPFlag=           0 FMFlag=      100000 FMFlg1=         800
         NFxFlg=           0 DoJE=F BraDBF=F KetDBF=F FulRan=T
         wScrn=  0.000000 ICntrl=      2127 IOpCl=  0 I1Cent=           0 NGrid=           0
         NMat0=    1 NMatS0=      1 NMatT0=    0 NMatD0=    1 NMtDS0=    0 NMtDT0=    0
 Symmetry not used in FoFCou.
 Leave Link  703 at Fri Nov  4 18:28:43 2022, MaxMem=   805306368 cpu:              31.7 elap:               4.7
 (Enter /home/wykgroup/appl/g16/l716.exe)
 Dipole        = 1.53331790D-03 2.41864430D-01-4.46543485D-01
 ***** Axes restored to original set *****
 -------------------------------------------------------------------
 Center     Atomic                   Forces (Hartrees/Bohr)
 Number     Number              X              Y              Z
 -------------------------------------------------------------------
      1        6          -0.006017288   -0.005492085    0.002501998
      2        6           0.005807704    0.001528199   -0.003246699
      3        6          -0.001748512   -0.000177799   -0.000029999
      4        6          -0.005100547   -0.004571972    0.001478898
      5        6          -0.002958718    0.007691319    0.002856220
      6        6           0.000607275    0.005435598    0.000802359
      7        6           0.000545796   -0.003559450   -0.001010952
      8        6           0.001856275    0.005199207   -0.000798814
      9        6           0.004778994   -0.011668446    0.002089624
     10        6          -0.002293074   -0.002335359    0.001281355
     11        8           0.004660360    0.004519443   -0.010441692
     12        6           0.003802484    0.005724560   -0.001727926
     13        1          -0.001364414   -0.006544614   -0.001071849
     14        1          -0.004254639    0.003911999    0.004345379
     15        1           0.001638363   -0.004295492   -0.002040196
     16        1          -0.004900165   -0.000627024    0.001297767
     17        1          -0.003353652    0.003049339    0.001651039
     18        1           0.001493156    0.005072141    0.000125468
     19        1           0.000398601   -0.001786020   -0.003691116
     20        1          -0.001842662   -0.000372584    0.001600326
     21        1          -0.002127387    0.000489361    0.002012697
     22        1           0.002019879   -0.003612706    0.004683302
     23        1           0.005503275    0.000519872    0.001598640
     24        1           0.002848898    0.001902514   -0.004265829
 -------------------------------------------------------------------
 Cartesian Forces:  Max     0.011668446 RMS     0.003791473
 Leave Link  716 at Fri Nov  4 18:28:43 2022, MaxMem=   805306368 cpu:               0.2 elap:               0.1
 (Enter /home/wykgroup/appl/g16/l103.exe)

 GradGradGradGradGradGradGradGradGradGradGradGradGradGradGradGradGradGrad
 Berny optimization.
 FormGI is forming the generalized inverse of G from B-inverse, IUseBI=4.
 Internal  Forces:  Max     0.015121493 RMS     0.003754528
 Search for a local minimum.
 Step number   1 out of a maximum of  143
 All quantities printed in internal units (Hartrees-Bohrs-Radians)
 RMS Force = .37545D-02 SwitMx=.10000D-02 MixMth= 1
 Mixed Optimization -- RFO/linear search
 Second derivative matrix not updated -- first step.
 ITU=  0
     Eigenvalues ---    0.00472   0.00792   0.01340   0.01376   0.01516
     Eigenvalues ---    0.01537   0.01905   0.02124   0.02178   0.02224
     Eigenvalues ---    0.02236   0.02286   0.02323   0.03053   0.03053
     Eigenvalues ---    0.03198   0.04319   0.05009   0.05334   0.05578
     Eigenvalues ---    0.06038   0.06713   0.07239   0.07671   0.09907
     Eigenvalues ---    0.11172   0.13696   0.15998   0.15999   0.16000
     Eigenvalues ---    0.16000   0.16000   0.16000   0.16000   0.20965
     Eigenvalues ---    0.22000   0.22001   0.22098   0.23573   0.24930
     Eigenvalues ---    0.24998   0.25968   0.28890   0.30152   0.31512
     Eigenvalues ---    0.33604   0.33677   0.34657   0.35031   0.35032
     Eigenvalues ---    0.35600   0.35883   0.36040   0.36041   0.36401
     Eigenvalues ---    0.36402   0.37392   0.39794   0.42575   0.43737
     Eigenvalues ---    0.44864   0.47368   0.47919   0.49699   0.55004
     Eigenvalues ---    0.60199
 RFO step:  Lambda=-4.89850079D-03 EMin= 4.71782567D-03
 Linear search not attempted -- first point.
 Iteration  1 RMS(Cart)=  0.02797157 RMS(Int)=  0.00017200
 Iteration  2 RMS(Cart)=  0.00026430 RMS(Int)=  0.00002857
 Iteration  3 RMS(Cart)=  0.00000005 RMS(Int)=  0.00002857
 ITry= 1 IFail=0 DXMaxC= 9.72D-02 DCOld= 1.00D+10 DXMaxT= 3.00D-01 DXLimC= 3.00D+00 Rises=F
 Variable       Old X    -DE/DX   Delta X   Delta X   Delta X     New X
                                 (Linear)    (Quad)   (Total)
    R1        2.50783   0.01512   0.00000   0.02492   0.02492   2.53275
    R2        2.03460   0.00675   0.00000   0.01831   0.01831   2.05291
    R3        2.03457   0.00723   0.00000   0.01959   0.01959   2.05416
    R4        2.75260   0.01161   0.00000   0.03065   0.03065   2.78324
    R5        2.04711   0.00462   0.00000   0.01280   0.01280   2.05991
    R6        2.65753   0.00982   0.00000   0.02193   0.02194   2.67947
    R7        2.61373   0.01348   0.00000   0.02730   0.02729   2.64102
    R8        2.61296   0.01259   0.00000   0.02595   0.02596   2.63891
    R9        2.04017   0.00508   0.00000   0.01391   0.01391   2.05408
   R10        2.63996   0.01071   0.00000   0.02319   0.02319   2.66315
   R11        2.04265   0.00480   0.00000   0.01319   0.01319   2.05584
   R12        2.59359   0.01308   0.00000   0.02551   0.02551   2.61909
   R13        2.04019   0.00529   0.00000   0.01447   0.01447   2.05467
   R14        2.63168   0.00459   0.00000   0.01032   0.01027   2.64195
   R15        2.84630   0.01002   0.00000   0.03113   0.03111   2.87741
   R16        2.85455   0.01027   0.00000   0.03243   0.03244   2.88699
   R17        2.87661   0.00054   0.00000   0.00178   0.00178   2.87839
   R18        2.94631   0.01001   0.00000   0.03492   0.03496   2.98127
   R19        2.06236   0.00406   0.00000   0.01156   0.01156   2.07392
   R20        2.66771   0.00817   0.00000   0.01848   0.01848   2.68618
   R21        2.08004   0.00147   0.00000   0.00433   0.00433   2.08437
   R22        2.07879   0.00175   0.00000   0.00511   0.00511   2.08390
   R23        1.81829   0.00605   0.00000   0.01089   0.01089   1.82918
   R24        2.05625   0.00533   0.00000   0.01502   0.01502   2.07127
   R25        2.05623   0.00514   0.00000   0.01447   0.01447   2.07069
    A1        2.12073  -0.00052   0.00000  -0.00314  -0.00314   2.11759
    A2        2.13768   0.00020   0.00000   0.00123   0.00123   2.13891
    A3        2.02474   0.00032   0.00000   0.00192   0.00192   2.02666
    A4        2.20441   0.00325   0.00000   0.01448   0.01448   2.21889
    A5        2.08473  -0.00366   0.00000  -0.01952  -0.01952   2.06521
    A6        1.99393   0.00040   0.00000   0.00510   0.00510   1.99903
    A7        2.16704  -0.00052   0.00000  -0.00200  -0.00200   2.16504
    A8        2.12516  -0.00006   0.00000  -0.00021  -0.00021   2.12495
    A9        1.99093   0.00058   0.00000   0.00221   0.00220   1.99313
   A10        2.13911  -0.00059   0.00000  -0.00159  -0.00159   2.13752
   A11        2.07528   0.00064   0.00000   0.00290   0.00289   2.07817
   A12        2.06869  -0.00006   0.00000  -0.00135  -0.00136   2.06733
   A13        2.13536  -0.00135   0.00000  -0.00487  -0.00487   2.13050
   A14        2.07191   0.00016   0.00000  -0.00068  -0.00070   2.07121
   A15        2.07591   0.00119   0.00000   0.00553   0.00552   2.08143
   A16        2.01296   0.00124   0.00000   0.00573   0.00572   2.01868
   A17        2.11368  -0.00069   0.00000  -0.00328  -0.00328   2.11040
   A18        2.15655  -0.00055   0.00000  -0.00246  -0.00246   2.15408
   A19        2.13509  -0.00045   0.00000  -0.00267  -0.00267   2.13242
   A20        2.52047  -0.00028   0.00000  -0.00088  -0.00084   2.51963
   A21        1.62762   0.00073   0.00000   0.00354   0.00350   1.63111
   A22        2.15289   0.00057   0.00000   0.00120   0.00119   2.15409
   A23        2.50581  -0.00135   0.00000  -0.00502  -0.00499   2.50082
   A24        1.62438   0.00077   0.00000   0.00384   0.00382   1.62820
   A25        2.01118   0.00138   0.00000   0.01488   0.01485   2.02603
   A26        1.51421  -0.00085   0.00000  -0.00427  -0.00426   1.50995
   A27        2.01017   0.00012   0.00000   0.00372   0.00371   2.01388
   A28        2.01821   0.00050   0.00000   0.00206   0.00203   2.02024
   A29        1.90215  -0.00095   0.00000  -0.00825  -0.00830   1.89384
   A30        1.98678  -0.00002   0.00000  -0.00642  -0.00643   1.98035
   A31        1.89633  -0.00348   0.00000  -0.01319  -0.01317   1.88316
   A32        1.90813   0.00061   0.00000   0.00131   0.00134   1.90948
   A33        1.91046  -0.00040   0.00000  -0.00951  -0.00950   1.90096
   A34        1.92928   0.00223   0.00000   0.01975   0.01974   1.94901
   A35        1.93444   0.00214   0.00000   0.01351   0.01341   1.94785
   A36        1.88506  -0.00110   0.00000  -0.01205  -0.01218   1.87288
   A37        1.90563  -0.00287   0.00000  -0.01739  -0.01739   1.88824
   A38        1.51692  -0.00066   0.00000  -0.00317  -0.00313   1.51379
   A39        2.01231   0.00121   0.00000   0.01484   0.01482   2.02714
   A40        2.00945   0.00061   0.00000   0.01085   0.01081   2.02026
   A41        1.99526  -0.00015   0.00000  -0.00514  -0.00515   1.99011
   A42        2.00281   0.00037   0.00000  -0.00051  -0.00054   2.00227
   A43        1.90528  -0.00113   0.00000  -0.01350  -0.01362   1.89166
    D1       -3.13815  -0.00028   0.00000  -0.00829  -0.00827   3.13676
    D2       -0.01371  -0.00013   0.00000  -0.00329  -0.00330  -0.01701
    D3       -0.00566  -0.00025   0.00000  -0.00742  -0.00741  -0.01307
    D4        3.11878  -0.00010   0.00000  -0.00242  -0.00244   3.11635
    D5       -0.25639   0.00012   0.00000   0.00529   0.00531  -0.25108
    D6        2.89655   0.00012   0.00000   0.00609   0.00610   2.90265
    D7        2.90158   0.00001   0.00000   0.00073   0.00071   2.90229
    D8       -0.22867   0.00000   0.00000   0.00153   0.00151  -0.22716
    D9       -3.13453  -0.00011   0.00000  -0.00342  -0.00343  -3.13795
   D10       -0.00857  -0.00020   0.00000  -0.00710  -0.00711  -0.01568
   D11       -0.00350  -0.00011   0.00000  -0.00417  -0.00418  -0.00768
   D12        3.12246  -0.00020   0.00000  -0.00786  -0.00787   3.11459
   D13        3.13845  -0.00003   0.00000  -0.00103  -0.00104   3.13742
   D14       -0.02288  -0.00003   0.00000   0.00134   0.00133  -0.02155
   D15        0.00714  -0.00003   0.00000  -0.00028  -0.00029   0.00685
   D16        3.12900  -0.00003   0.00000   0.00209   0.00208   3.13108
   D17        0.00035   0.00016   0.00000   0.00510   0.00510   0.00545
   D18        3.13834  -0.00005   0.00000  -0.00198  -0.00196   3.13637
   D19       -3.12566   0.00024   0.00000   0.00874   0.00873  -3.11693
   D20        0.01233   0.00003   0.00000   0.00166   0.00166   0.01399
   D21       -0.00049  -0.00003   0.00000  -0.00114  -0.00115  -0.00163
   D22        3.13968  -0.00020   0.00000  -0.00626  -0.00627   3.13342
   D23       -3.13846   0.00017   0.00000   0.00596   0.00597  -3.13249
   D24        0.00170   0.00000   0.00000   0.00085   0.00085   0.00256
   D25        0.00406  -0.00012   0.00000  -0.00331  -0.00332   0.00074
   D26        3.13861  -0.00026   0.00000  -0.00576  -0.00577   3.13284
   D27       -3.13607   0.00006   0.00000   0.00194   0.00194  -3.13413
   D28       -0.00152  -0.00008   0.00000  -0.00050  -0.00050  -0.00203
   D29       -0.00789   0.00016   0.00000   0.00418   0.00419  -0.00370
   D30       -3.13775   0.00018   0.00000   0.00286   0.00286  -3.13489
   D31        3.13781   0.00025   0.00000   0.00561   0.00563  -3.13975
   D32        0.00795   0.00027   0.00000   0.00429   0.00429   0.01224
   D33        3.13985  -0.00014   0.00000  -0.00207  -0.00206   3.13779
   D34        1.12380   0.00016   0.00000   0.00280   0.00283   1.12663
   D35       -1.11932   0.00005   0.00000  -0.00238  -0.00240  -1.12172
   D36       -0.00770  -0.00026   0.00000  -0.00415  -0.00415  -0.01185
   D37       -2.02376   0.00004   0.00000   0.00072   0.00074  -2.02301
   D38        2.01631  -0.00007   0.00000  -0.00446  -0.00449   2.01182
   D39       -1.09257   0.00011   0.00000  -0.00334  -0.00336  -1.09594
   D40       -3.13276  -0.00027   0.00000  -0.00613  -0.00612  -3.13889
   D41        1.14553   0.00016   0.00000   0.00256   0.00260   1.14812
   D42        2.03251   0.00012   0.00000  -0.00135  -0.00137   2.03113
   D43       -0.00768  -0.00026   0.00000  -0.00413  -0.00413  -0.01182
   D44       -2.01258   0.00017   0.00000   0.00455   0.00459  -2.00799
   D45       -3.04554   0.00066   0.00000   0.03294   0.03289  -3.01265
   D46        1.13073  -0.00031   0.00000   0.01612   0.01610   1.14683
   D47       -0.93091   0.00089   0.00000   0.03553   0.03552  -0.89539
   D48       -1.31729   0.00066   0.00000   0.03713   0.03711  -1.28018
   D49        2.85897  -0.00032   0.00000   0.02030   0.02032   2.87929
   D50        0.79733   0.00089   0.00000   0.03972   0.03974   0.83707
   D51        0.94681   0.00018   0.00000   0.02241   0.02241   0.96922
   D52       -1.16011  -0.00079   0.00000   0.00558   0.00562  -1.15449
   D53        3.06144   0.00041   0.00000   0.02500   0.02503   3.08647
   D54        0.00710   0.00023   0.00000   0.00377   0.00375   0.01085
   D55        2.03933   0.00122   0.00000   0.01788   0.01784   2.05717
   D56       -2.02320  -0.00019   0.00000  -0.00668  -0.00668  -2.02988
   D57       -2.02644  -0.00098   0.00000  -0.01113  -0.01114  -2.03757
   D58        0.00579   0.00002   0.00000   0.00297   0.00296   0.00875
   D59        2.22645  -0.00140   0.00000  -0.02159  -0.02157   2.20488
   D60        2.03434  -0.00004   0.00000   0.00490   0.00491   2.03925
   D61       -2.21662   0.00095   0.00000   0.01901   0.01900  -2.19761
   D62        0.00404  -0.00046   0.00000  -0.00555  -0.00552  -0.00148
   D63        3.11445  -0.00054   0.00000  -0.01076  -0.01077   3.10367
   D64       -1.07492  -0.00062   0.00000  -0.00546  -0.00556  -1.08048
   D65        1.01462   0.00086   0.00000   0.00111   0.00123   1.01585
         Item               Value     Threshold  Converged?
 Maximum Force            0.015121     0.000450     NO 
 RMS     Force            0.003755     0.000300     NO 
 Maximum Displacement     0.097209     0.001800     NO 
 RMS     Displacement     0.027915     0.001200     NO 
 Predicted change in Energy=-2.505653D-03
 Lowest energy point so far.  Saving SCF results.
 GradGradGradGradGradGradGradGradGradGradGradGradGradGradGradGradGradGrad

 Leave Link  103 at Fri Nov  4 18:28:43 2022, MaxMem=   805306368 cpu:               0.9 elap:               0.2
 (Enter /home/wykgroup/appl/g16/l202.exe)
                          Input orientation:                          
 ---------------------------------------------------------------------
 Center     Atomic      Atomic             Coordinates (Angstroms)
 Number     Number       Type             X           Y           Z
 ---------------------------------------------------------------------
      1          6           0       -2.776970   -2.076334    0.653707
      2          6           0       -1.705213   -1.537036    0.056358
      3          6           0       -1.262832   -0.133755    0.122117
      4          6           0       -2.069074    0.931346    0.597527
      5          6           0       -1.617108    2.251905    0.641490
      6          6           0       -0.326362    2.615794    0.208338
      7          6           0        0.463822    1.578487   -0.261235
      8          6           0        0.009765    0.256885   -0.303427
      9          6           0        1.323941   -0.268994   -0.878190
     10          6           0        2.096135   -1.244841    0.000167
     11          8           0        3.354580   -1.485100   -0.615589
     12          6           0        1.825054    1.226572   -0.845782
     13          1           0       -3.018883   -3.128926    0.536722
     14          1           0       -3.447579   -1.498424    1.284505
     15          1           0       -1.065639   -2.185706   -0.542306
     16          1           0       -3.083861    0.720186    0.924838
     17          1           0       -2.289803    3.021716    1.013523
     18          1           0        0.003602    3.651192    0.243866
     19          1           0        1.260734   -0.686852   -1.891027
     20          1           0        1.514198   -2.174898    0.113979
     21          1           0        2.213002   -0.805912    1.005028
     22          1           0        3.862640   -2.077928   -0.043421
     23          1           0        2.689095    1.393634   -0.192413
     24          1           0        2.046757    1.656992   -1.828779
 ---------------------------------------------------------------------
                    Distance matrix (angstroms):
                    1          2          3          4          5
     1  C    0.000000
     2  C    1.340272   0.000000
     3  C    2.519685   1.472829   0.000000
     4  C    3.090374   2.553071   1.417914   0.000000
     5  C    4.480969   3.834869   2.467110   1.396453   0.000000
     6  C    5.312240   4.378393   2.905930   2.454766   1.409276
     7  C    4.969664   3.809470   2.461720   2.751694   2.366151
     8  C    3.758445   2.507739   1.397567   2.363935   2.742205
     9  C    4.736102   3.414248   2.776743   3.889873   4.161025
    10  C    4.986546   3.812976   3.540063   4.737256   5.140691
    11  O    6.289402   5.104481   4.867324   6.060271   6.345324
    12  C    5.859716   4.573201   3.510321   4.163475   3.887385
    13  H    1.086351   2.119101   3.496664   4.170329   5.561411
    14  H    1.087015   2.132058   2.826054   2.876803   4.222447
    15  H    2.090709   1.090058   2.165837   3.467292   4.625785
    16  H    2.826343   2.783878   2.165576   1.086975   2.139583
    17  H    5.133898   4.694692   3.436025   2.142760   1.087904
    18  H    6.379976   5.465612   3.993056   3.437822   2.177799
    19  H    4.970853   3.648557   3.275218   4.460839   4.830312
    20  H    4.326100   3.282499   3.446481   4.766803   5.447929
    21  H    5.161125   4.097185   3.648664   4.638998   4.914484
    22  H    6.676107   5.594954   5.484312   6.682198   7.017421
    23  H    6.529507   5.287784   4.248480   4.845399   4.469386
    24  H    6.585499   5.275684   4.238650   4.832555   4.458706
                    6          7          8          9         10
     6  C    0.000000
     7  C    1.385964   0.000000
     8  C    2.437075   1.398062   0.000000
     9  C    3.496576   2.129231   1.527730   0.000000
    10  C    4.562492   3.271690   2.588491   1.523178   0.000000
    11  O    5.571851   4.227010   3.784144   2.381464   1.421466
    12  C    2.769422   1.522659   2.128312   1.577618   2.626213
    13  H    6.352898   5.909797   4.619770   5.388999   5.477324
    14  H    5.275122   5.211117   4.189972   5.381092   5.696191
    15  H    4.915730   4.072763   2.679517   3.081671   3.343100
    16  H    3.422061   3.837903   3.360626   4.863960   5.616823
    17  H    2.160600   3.360114   3.829707   5.240849   6.202165
    18  H    1.087284   2.182438   3.438151   4.286042   5.330030
    19  H    4.222994   2.902249   2.230703   1.097469   2.141462
    20  H    5.132962   3.915606   2.889830   2.157097   1.103001
    21  H    4.334877   3.216895   2.774138   2.150633   1.102752
    22  H    6.296202   4.996877   4.512604   3.227085   1.953580
    23  H    3.278302   2.233999   2.912616   2.257934   2.711132
    24  H    3.271214   2.229135   2.904537   2.266165   3.430469
                   11         12         13         14         15
    11  O    0.000000
    12  C    3.121795   0.000000
    13  H    6.682142   6.659234   0.000000
    14  H    7.062570   6.305900   1.844315   0.000000
    15  H    4.475998   4.482392   2.422628   3.079486   0.000000
    16  H    6.977802   5.242992   3.869175   2.276813   3.830136
    17  H    7.404354   4.859177   6.212028   4.673921   5.571035
    18  H    6.192674   3.222391   7.429076   6.285866   5.985876
    19  H    2.578397   2.252151   5.492978   5.736799   3.078575
    20  H    2.096449   3.547925   4.651634   5.142662   2.662026
    21  H    2.095447   2.776147   5.743546   5.709628   3.879118
    22  H    0.967960   3.964248   6.985450   7.452416   4.954637
    23  H    2.984804   1.096069   7.318893   6.942914   5.199243
    24  H    3.613167   1.095764   7.359437   7.059526   5.109633
                   16         17         18         19         20
    16  H    0.000000
    17  H    2.436275   0.000000
    18  H    4.311258   2.499663   0.000000
    19  H    5.365106   5.898830   4.995675   0.000000
[...]
    22  H    7.569692   8.059120   6.890419   3.498061   2.353481
    23  H    5.913487   5.372955   3.536348   3.045314   3.774038
    24  H    5.898263   5.358835   3.522609   2.468262   4.321529
                   21         22         23         24
    21  H    0.000000
    22  H    2.322840   0.000000
    23  H    2.574663   3.621795   0.000000
    24  H    3.774982   4.476025   1.777055   0.000000
 Stoichiometry    C11H12O
 Framework group  C1[X(C11H12O)]
 Deg. of freedom    66
 Full point group                 C1      NOp   1
 RotChk:  IX=0 Diff= 1.88D-15
 Largest Abelian subgroup         C1      NOp   1
 Largest concise Abelian subgroup C1      NOp   1
                         Standard orientation:                         
 ---------------------------------------------------------------------
 Center     Atomic      Atomic             Coordinates (Angstroms)
 Number     Number       Type             X           Y           Z
 ---------------------------------------------------------------------
      1          6           0       -2.477739    2.657951   -0.008696
      2          6           0       -1.392696    1.919734    0.258872
      3          6           0       -1.245444    0.465044    0.107012
      4          6           0       -2.317654   -0.416593   -0.166338
      5          6           0       -2.138522   -1.796127   -0.296971
      6          6           0       -0.876365   -2.401557   -0.160175
      7          6           0        0.176354   -1.540287    0.108094
      8          6           0       -0.004598   -0.164014    0.237050
      9          6           0        1.475628    0.098498    0.510469
     10          6           0        2.222132    0.947651   -0.506607
     11          8           0        3.609660    0.874874   -0.193646
     12          6           0        1.673345   -1.464464    0.369668
     13          1           0       -2.475161    3.732548    0.146762
     14          1           0       -3.399449    2.229730   -0.393578
     15          1           0       -0.502298    2.429965    0.625997
     16          1           0       -3.322184   -0.014314   -0.265417
     17          1           0       -3.007103   -2.416570   -0.503954
     18          1           0       -0.758217   -3.477493   -0.258892
     19          1           0        1.699974    0.471222    1.517809
     20          1           0        1.857371    1.987325   -0.463995
     21          1           0        2.017476    0.568315   -1.521267
     22          1           0        4.094332    1.376550   -0.866277
     23          1           0        2.325118   -1.757614   -0.460935
     24          1           0        2.026220   -1.963665    1.278642
 ---------------------------------------------------------------------
 Rotational constants (GHZ):           1.2762651           0.7563574           0.4937943
 Leave Link  202 at Fri Nov  4 18:31:51 2022, MaxMem=   805306368 cpu:               0.2 elap:               0.1
 (Enter /home/wykgroup/appl/g16/l601.exe)
 Copying SCF densities to generalized density rwf, IOpCl= 0 IROHF=0.

 **********************************************************************

            Population analysis using the SCF Density.

 **********************************************************************

 Orbital symmetries:
       Occupied  (A) (A) (A) (A) (A) (A) (A) (A) (A) (A) (A) (A)
                 (A) (A) (A) (A) (A) (A) (A) (A) (A) (A) (A) (A)
                 (A) (A) (A) (A) (A) (A) (A) (A) (A) (A) (A) (A)
                 (A) (A) (A) (A) (A) (A) (A)
       Virtual   (A) (A) (A) (A) (A) (A) (A) (A) (A) (A) (A) (A)
                 (A) (A) (A) (A) (A) (A) (A) (A) (A) (A) (A) (A)
                 (A) (A) (A) (A) (A) (A) (A) (A) (A) (A) (A) (A)
                 (A) (A) (A) (A) (A) (A) (A) (A) (A) (A) (A) (A)
                 (A) (A) (A) (A) (A) (A) (A) (A) (A) (A) (A) (A)
                 (A) (A) (A) (A) (A) (A) (A) (A) (A) (A) (A) (A)
                 (A) (A) (A) (A) (A) (A) (A) (A) (A) (A) (A) (A)
                 (A) (A) (A) (A) (A) (A) (A) (A) (A) (A) (A) (A)
                 (A) (A) (A) (A) (A) (A) (A) (A) (A) (A) (A) (A)
                 (A) (A) (A) (A) (A) (A) (A) (A) (A) (A) (A) (A)
                 (A) (A) (A) (A) (A) (A) (A) (A) (A) (A) (A) (A)
                 (A) (A) (A) (A) (A) (A) (A) (A) (A) (A) (A) (A)
                 (A) (A) (A) (A) (A) (A) (A) (A) (A) (A) (A) (A)
                 (A) (A) (A) (A) (A)
 The electronic state is 1-A.
 Alpha  occ. eigenvalues --  -19.14316 -10.23149 -10.19619 -10.19511 -10.19289
 Alpha  occ. eigenvalues --  -10.18798 -10.18727 -10.18709 -10.18623 -10.18331
 Alpha  occ. eigenvalues --  -10.18285 -10.18230  -1.01484  -0.87704  -0.81288
 Alpha  occ. eigenvalues --   -0.78249  -0.72489  -0.71026  -0.67227  -0.61746
 Alpha  occ. eigenvalues --   -0.60350  -0.55659  -0.54337  -0.51638  -0.49494
 Alpha  occ. eigenvalues --   -0.47438  -0.46517  -0.45003  -0.42683  -0.41645
 Alpha  occ. eigenvalues --   -0.40310  -0.39367  -0.37705  -0.36225  -0.35825
 Alpha  occ. eigenvalues --   -0.33782  -0.32963  -0.31605  -0.30619  -0.29335
 Alpha  occ. eigenvalues --   -0.26693  -0.23486  -0.22060
 Alpha virt. eigenvalues --   -0.03212   0.00910   0.05837   0.07072   0.09718
 Alpha virt. eigenvalues --    0.10509   0.12951   0.13163   0.14164   0.15405
 Alpha virt. eigenvalues --    0.16561   0.17226   0.17569   0.18792   0.19143
 Alpha virt. eigenvalues --    0.21180   0.21430   0.22038   0.22863   0.27441
 Alpha virt. eigenvalues --    0.29454   0.29653   0.31038   0.32959   0.36985
 Alpha virt. eigenvalues --    0.39956   0.42972   0.46232   0.51008   0.51178
 Alpha virt. eigenvalues --    0.52346   0.53489   0.54467   0.55331   0.55672
 Alpha virt. eigenvalues --    0.56438   0.58010   0.59883   0.61133   0.61488
 Alpha virt. eigenvalues --    0.61684   0.62316   0.64426   0.65476   0.66307
 Alpha virt. eigenvalues --    0.68137   0.68558   0.70357   0.71409   0.74984
 Alpha virt. eigenvalues --    0.78401   0.79335   0.80714   0.82688   0.83477
 Alpha virt. eigenvalues --    0.84215   0.84832   0.86150   0.86286   0.87510
 Alpha virt. eigenvalues --    0.88283   0.90303   0.90899   0.91809   0.94541
 Alpha virt. eigenvalues --    0.94976   0.95254   0.97382   0.98938   1.00813
 Alpha virt. eigenvalues --    1.00963   1.04977   1.05972   1.06893   1.10418
 Alpha virt. eigenvalues --    1.12459   1.15100   1.19888   1.20495   1.23675
 Alpha virt. eigenvalues --    1.25663   1.27377   1.32584   1.34409   1.38370
 Alpha virt. eigenvalues --    1.40259   1.43071   1.44727   1.47389   1.48138
 Alpha virt. eigenvalues --    1.51141   1.51675   1.56422   1.59919   1.65716
 Alpha virt. eigenvalues --    1.67443   1.70515   1.72730   1.74507   1.78061
 Alpha virt. eigenvalues --    1.78926   1.81706   1.82348   1.85103   1.91216
 Alpha virt. eigenvalues --    1.92103   1.95348   1.96712   1.97487   2.00553
 Alpha virt. eigenvalues --    2.01780   2.02567   2.04990   2.07654   2.10765
 Alpha virt. eigenvalues --    2.12451   2.15018   2.16594   2.17895   2.20434
 Alpha virt. eigenvalues --    2.21701   2.23861   2.25159   2.27310   2.28107
 Alpha virt. eigenvalues --    2.31319   2.33099   2.35325   2.40302   2.42923
 Alpha virt. eigenvalues --    2.44507   2.46974   2.50513   2.56636   2.58086
 Alpha virt. eigenvalues --    2.60073   2.62592   2.64851   2.65777   2.74553
 Alpha virt. eigenvalues --    2.76221   2.78396   2.85391   2.88016   2.90229
 Alpha virt. eigenvalues --    2.98794   3.06369   3.29127   3.43331   3.77901
 Alpha virt. eigenvalues --    4.07839   4.09571   4.11824   4.15828   4.22051
 Alpha virt. eigenvalues --    4.30005   4.32912   4.40986   4.49764   4.60668
 Alpha virt. eigenvalues --    4.89791
          Condensed to atoms (all electrons):
               1          2          3          4          5          6
     1  C    5.091837   0.606943  -0.012416  -0.014506  -0.000031   0.000029
     2  C    0.606943   4.915611   0.406454  -0.074530   0.007037   0.000248
     3  C   -0.012416   0.406454   4.847603   0.481077  -0.003421  -0.058082
     4  C   -0.014506  -0.074530   0.481077   5.042835   0.513459  -0.028323
     5  C   -0.000031   0.007037  -0.003421   0.513459   4.908254   0.482283
     6  C    0.000029   0.000248  -0.058082  -0.028323   0.482283   5.128834
     7  C   -0.000325   0.007981  -0.044502  -0.046306   0.001106   0.507847
     8  C    0.007763  -0.055724   0.430463  -0.017380  -0.050570  -0.065808
     9  C    0.000163  -0.007881  -0.101825   0.007501  -0.001227   0.028687
    10  C    0.000007   0.000208   0.001908  -0.000122   0.000056  -0.000554
    11  O   -0.000000  -0.000000  -0.000025   0.000000  -0.000000   0.000004
    12  C    0.000006  -0.000599   0.030322  -0.000150   0.006242  -0.094128
    13  H    0.362809  -0.016601   0.002836   0.000167   0.000000   0.000000
    14  H    0.361765  -0.027885  -0.014421   0.004645   0.000115  -0.000007
    15  H   -0.060122   0.358834  -0.039240   0.005947  -0.000136  -0.000019
    16  H    0.005634  -0.011601  -0.038290   0.352147  -0.044404   0.004600
    17  H    0.000001  -0.000177   0.003010  -0.035763   0.356296  -0.040169
    18  H   -0.000000   0.000013   0.000743   0.003843  -0.045063   0.352493
    19  H   -0.000012   0.000542   0.000514  -0.000057   0.000050  -0.000691
    20  H    0.000029   0.000315   0.000285   0.000010  -0.000005   0.000035
    21  H   -0.000008   0.000130   0.000571  -0.000061   0.000002  -0.000229
    22  H    0.000000   0.000000   0.000003  -0.000000   0.000000  -0.000000
    23  H   -0.000000   0.000008  -0.000693   0.000036  -0.000053   0.000787
    24  H   -0.000000   0.000010  -0.000618   0.000030  -0.000030   0.000493
               7          8          9         10         11         12
     1  C   -0.000325   0.007763   0.000163   0.000007  -0.000000   0.000006
     2  C    0.007981  -0.055724  -0.007881   0.000208  -0.000000  -0.000599
     3  C   -0.044502   0.430463  -0.101825   0.001908  -0.000025   0.030322
     4  C   -0.046306  -0.017380   0.007501  -0.000122   0.000000  -0.000150
     5  C    0.001106  -0.050570  -0.001227   0.000056  -0.000000   0.006242
     6  C    0.507847  -0.065808   0.028687  -0.000554   0.000004  -0.094128
     7  C    4.764934   0.542866  -0.073848  -0.008709   0.000600   0.265282
     8  C    0.542866   5.005011   0.275489  -0.017509   0.001479  -0.073529
     9  C   -0.073848   0.275489   5.297694   0.341331  -0.047558   0.234741
    10  C   -0.008709  -0.017509   0.341331   4.849187   0.235350  -0.022435
    11  O    0.000600   0.001479  -0.047558   0.235350   8.267366   0.002010
    12  C    0.265282  -0.073529   0.234741  -0.022435   0.002010   5.359161
    13  H    0.000003  -0.000173  -0.000005   0.000001  -0.000000  -0.000000
    14  H    0.000009  -0.000185  -0.000001  -0.000000   0.000000   0.000000
    15  H    0.000169  -0.009977   0.003662  -0.000363  -0.000010  -0.000040
    16  H    0.000592   0.004629  -0.000134  -0.000000  -0.000000   0.000028
    17  H    0.001887   0.001213   0.000024  -0.000000  -0.000000  -0.000160
    18  H   -0.038029   0.004945  -0.000360   0.000002  -0.000000  -0.003605
    19  H   -0.002949  -0.016853   0.341332  -0.041932   0.003086  -0.029300
    20  H    0.000381  -0.001605  -0.037172   0.358610  -0.038127   0.004982
    21  H    0.001312   0.006437  -0.046571   0.358608  -0.037764  -0.007861
    22  H   -0.000035  -0.000229   0.006427  -0.020395   0.230538  -0.000003
    23  H   -0.009915  -0.006526  -0.022211  -0.001541   0.001872   0.342365
    24  H   -0.012565  -0.005033  -0.012812   0.001377   0.000010   0.337761
              13         14         15         16         17         18
     1  C    0.362809   0.361765  -0.060122   0.005634   0.000001  -0.000000
     2  C   -0.016601  -0.027885   0.358834  -0.011601  -0.000177   0.000013
     3  C    0.002836  -0.014421  -0.039240  -0.038290   0.003010   0.000743
     4  C    0.000167   0.004645   0.005947   0.352147  -0.035763   0.003843
     5  C    0.000000   0.000115  -0.000136  -0.044404   0.356296  -0.045063
     6  C    0.000000  -0.000007  -0.000019   0.004600  -0.040169   0.352493
     7  C    0.000003   0.000009   0.000169   0.000592   0.001887  -0.038029
     8  C   -0.000173  -0.000185  -0.009977   0.004629   0.001213   0.004945
     9  C   -0.000005  -0.000001   0.003662  -0.000134   0.000024  -0.000360
    10  C    0.000001  -0.000000  -0.000363  -0.000000  -0.000000   0.000002
    11  O   -0.000000   0.000000  -0.000010  -0.000000  -0.000000  -0.000000
    12  C   -0.000000   0.000000  -0.000040   0.000028  -0.000160  -0.003605
    13  H    0.556769  -0.041990  -0.007383  -0.000113  -0.000000   0.000000
    14  H   -0.041990   0.565396   0.005850   0.003483   0.000006  -0.000000
    15  H   -0.007383   0.005850   0.610137  -0.000022   0.000002  -0.000000
    16  H   -0.000113   0.003483  -0.000022   0.605266  -0.005614  -0.000172
    17  H   -0.000000   0.000006   0.000002  -0.005614   0.596591  -0.004359
    18  H    0.000000  -0.000000  -0.000000  -0.000172  -0.004359   0.598570
    19  H    0.000000   0.000000   0.000308   0.000001  -0.000000   0.000009
    20  H   -0.000007   0.000001   0.002756   0.000000   0.000000  -0.000000
    21  H    0.000000   0.000000  -0.000071  -0.000000  -0.000000   0.000002
    22  H    0.000000  -0.000000  -0.000002   0.000000  -0.000000   0.000000
    23  H    0.000000  -0.000000   0.000002  -0.000000   0.000001   0.000478
    24  H    0.000000  -0.000000   0.000000  -0.000000   0.000001   0.000488
              19         20         21         22         23         24
     1  C   -0.000012   0.000029  -0.000008   0.000000  -0.000000  -0.000000
     2  C    0.000542   0.000315   0.000130   0.000000   0.000008   0.000010
     3  C    0.000514   0.000285   0.000571   0.000003  -0.000693  -0.000618
     4  C   -0.000057   0.000010  -0.000061  -0.000000   0.000036   0.000030
     5  C    0.000050  -0.000005   0.000002   0.000000  -0.000053  -0.000030
     6  C   -0.000691   0.000035  -0.000229  -0.000000   0.000787   0.000493
     7  C   -0.002949   0.000381   0.001312  -0.000035  -0.009915  -0.012565
     8  C   -0.016853  -0.001605   0.006437  -0.000229  -0.006526  -0.005033
     9  C    0.341332  -0.037172  -0.046571   0.006427  -0.022211  -0.012812
    10  C   -0.041932   0.358610   0.358608  -0.020395  -0.001541   0.001377
    11  O    0.003086  -0.038127  -0.037764   0.230538   0.001872   0.000010
    12  C   -0.029300   0.004982  -0.007861  -0.000003   0.342365   0.337761
    13  H    0.000000  -0.000007   0.000000   0.000000   0.000000   0.000000
    14  H    0.000000   0.000001   0.000000  -0.000000  -0.000000  -0.000000
    15  H    0.000308   0.002756  -0.000071  -0.000002   0.000002   0.000000
    16  H    0.000001   0.000000  -0.000000   0.000000  -0.000000  -0.000000
    17  H   -0.000000   0.000000  -0.000000  -0.000000   0.000001   0.000001
    18  H    0.000009  -0.000000   0.000002   0.000000   0.000478   0.000488
    19  H    0.594030  -0.007091   0.007129  -0.000148   0.002363  -0.001564
    20  H   -0.007091   0.655588  -0.058311  -0.003423   0.000188  -0.000158
    21  H    0.007129  -0.058311   0.655986  -0.004511   0.002397   0.000193
    22  H   -0.000148  -0.003423  -0.004511   0.399159  -0.000134   0.000003
    23  H    0.002363   0.000188   0.002397  -0.000134   0.568394  -0.035023
    24  H   -0.001564  -0.000158   0.000193   0.000003  -0.035023   0.572393
 Mulliken charges:
               1
     1  C   -0.349566
     2  C   -0.109335
     3  C    0.107744
     4  C   -0.194498
     5  C   -0.129960
     6  C   -0.218329
     7  C    0.142214
     8  C    0.040808
     9  C   -0.185447
    10  C   -0.033085
    11  O   -0.618831
    12  C   -0.351091
    13  H    0.143686
    14  H    0.143221
    15  H    0.129719
    16  H    0.123972
    17  H    0.127210
    18  H    0.130003
    19  H    0.151234
    20  H    0.122717
    21  H    0.122619
    22  H    0.392749
    23  H    0.157203
    24  H    0.155043
 Sum of Mulliken charges =  -0.00000
 Mulliken charges with hydrogens summed into heavy atoms:
               1
     1  C   -0.062658
     2  C    0.020384
     3  C    0.107744
     4  C   -0.070526
     5  C   -0.002751
     6  C   -0.088326
     7  C    0.142214
     8  C    0.040808
     9  C   -0.034213
    10  C    0.212251
    11  O   -0.226082
    12  C   -0.038845
 Electronic spatial extent (au):  <R**2>=           2262.5933
 Charge=             -0.0000 electrons
 Dipole moment (field-independent basis, Debye):
    X=              0.0249    Y=              0.6437    Z=             -1.1429  Tot=              1.3119
 Quadrupole moment (field-independent basis, Debye-Ang):
   XX=            -67.3965   YY=            -64.1197   ZZ=            -71.6152
   XY=              2.9410   XZ=             -3.5000   YZ=             -1.1953
 Traceless Quadrupole moment (field-independent basis, Debye-Ang):
   XX=              0.3140   YY=              3.5908   ZZ=             -3.9047
   XY=              2.9410   XZ=             -3.5000   YZ=             -1.1953
 Octapole moment (field-independent basis, Debye-Ang**2):
  XXX=              5.3115  YYY=              5.3134  ZZZ=             -1.0463  XYY=              8.7076
  XXY=             14.2644  XXZ=            -27.8815  XZZ=             19.4111  YZZ=              2.8538
  YYZ=             -2.9357  XYZ=             -9.2259
 Hexadecapole moment (field-independent basis, Debye-Ang**3):
 XXXX=          -1628.7900 YYYY=          -1039.9325 ZZZZ=           -138.1039 XXXY=             80.4898
 XXXZ=            -77.8641 YYYX=             24.9795 YYYZ=              7.3277 ZZZX=             -9.0207
 ZZZY=             -6.0812 XXYY=           -421.5806 XXZZ=           -299.5929 YYZZ=           -220.1445
 XXYZ=            -36.3074 YYXZ=             -7.9687 ZZXY=             14.2646
 N-N= 6.510813547086D+02 E-N=-2.466512978089D+03  KE= 4.967942999454D+02
 No NMR shielding tensors so no spin-rotation constants.
 Leave Link  601 at Fri Nov  4 18:31:51 2022, MaxMem=   805306368 cpu:               0.8 elap:               0.1
 (Enter /home/wykgroup/appl/g16/l9999.exe)
 1\1\GINC-NODE75\FOpt\RB3LYP\6-31G(d)\C11H12O1\WYKGROUP\04-Nov-2022\0\\
 #p b3lyp/6-31g(d) opt SCF=XQC\\Gaussian input prepared by ASE\\0,1\C,-
 2.8112366363,-2.06013115,0.6289015007\C,-1.7004410293,-1.5368398692,0.
 0939474996\C,-1.2615326315,-0.1348909498,0.1465621656\C,-2.0653916702,
 0.9309918952,0.6149009057\C,-1.6144294151,2.2531548893,0.6429318056\C,
 -0.3284395572,2.6130793309,0.2013634732\C,0.4616179888,1.5708361095,-0
 .2585388088\C,0.0098873525,0.252217304,-0.2846682495\C,1.3162027557,-0
 .281281403,-0.8708945463\C,2.1083456735,-1.2540600291,-0.0112520896\O,
 3.3776834571,-1.4408935704,-0.62959585\C,1.820478275,1.2176516049,-0.8
 449779759\H,-3.0387893685,-3.11650828,0.5229771866\H,-3.527808573,-1.4
 676996821,1.1915789944\H,-1.0246304805,-2.2040139102,-0.4409206048\H,-
 3.0767115556,0.7227132252,0.9533931165\H,-2.2858952742,3.0244850211,1.
 0122674599\H,0.0019280849,3.6482813979,0.2249662516\H,1.2338295919,-0.
 6896957986,-1.885980692\H,1.56139003,-2.2077163623,0.0734081354\H,2.21
 24212888,-0.8428105359,1.0062726412\H,3.9037761306,-2.0236957431,-0.06
 1628748\H,2.6863662184,1.3847681206,-0.1946272671\H,2.0413803441,1.642
 0603853,-1.830389304\\Version=ES64L-G16RevB.01\State=1-A\HF=-501.55006
 97\RMSD=3.802e-09\RMSF=1.257e-05\Dipole=0.0659467,-0.2504532,0.4464813
 \Quadrupole=0.4539161,3.3836236,-3.8375397,-1.8567519,1.6067981,-0.962
 4958\PG=C01 [X(C11H12O1)]\\@


 QUHEN THE CAUSS IS TAKEN AWAY THE EFFECT WANISHETH.
 -- PROVERBS AND REASONS OF THE YEAR 1585
           AS REPRINTED IN PAISLEY MAGAZINE 1828.
 Job cpu time:       0 days  0 hours 20 minutes 11.8 seconds.
 Elapsed time:       0 days  0 hours  3 minutes 31.4 seconds.
 File lengths (MBytes):  RWF=     23 Int=      0 D2E=      0 Chk=      5 Scr=      1
 Normal termination of Gaussian 16 at Fri Nov  4 18:31:51 2022.
