 Entering Gaussian System, Link 0=/home/wykgroup/appl/g16/g16
 Input=./calculation/no_transfer_pubchem_sampling_1_b3lyp/154086091.com
 Output=./calculation/no_transfer_pubchem_sampling_1_b3lyp/154086091.log
 Initial command:
 /home/wykgroup/appl/g16/l1.exe "/userdata/scratch/wykgroup/khs/./calculation/no_transfer_pubchem_sampling_1_b3lyp/154086091/Gau-27387.inp" -scrdir="/userdata/scratch/wykgroup/khs/./calculation/no_transfer_pubchem_sampling_1_b3lyp/154086091/"
 Entering Link 1 = /home/wykgroup/appl/g16/l1.exe PID=     27388.
  
 Copyright (c) 1988-2017, Gaussian, Inc.  All Rights Reserved.
  
 This is part of the Gaussian(R) 16 program.  It is based on
 the Gaussian(R) 09 system (copyright 2009, Gaussian, Inc.),
 the Gaussian(R) 03 system (copyright 2003, Gaussian, Inc.),
 the Gaussian(R) 98 system (copyright 1998, Gaussian, Inc.),
 the Gaussian(R) 94 system (copyright 1995, Gaussian, Inc.),
 the Gaussian 92(TM) system (copyright 1992, Gaussian, Inc.),
 the Gaussian 90(TM) system (copyright 1990, Gaussian, Inc.),
 the Gaussian 88(TM) system (copyright 1988, Gaussian, Inc.),
 the Gaussian 86(TM) system (copyright 1986, Carnegie Mellon
 University), and the Gaussian 82(TM) system (copyright 1983,
 Carnegie Mellon University). Gaussian is a federally registered
 trademark of Gaussian, Inc.
  
 This software contains proprietary and confidential information,
 including trade secrets, belonging to Gaussian, Inc.
  
 This software is provided under written license and may be
 used, copied, transmitted, or stored only in accord with that
 written license.
  
 The following legend is applicable only to US Government
 contracts under FAR:
  
                    RESTRICTED RIGHTS LEGEND
  
 Use, reproduction and disclosure by the US Government is
 subject to restrictions as set forth in subparagraphs (a)
 and (c) of the Commercial Computer Software - Restricted
 Rights clause in FAR 52.227-19.
  
 Gaussian, Inc.
 340 Quinnipiac St., Bldg. 40, Wallingford CT 06492
  
  
 ---------------------------------------------------------------
 Warning -- This program may not be used in any manner that
 competes with the business of Gaussian, Inc. or will provide
 assistance to any competitor of Gaussian, Inc.  The licensee
 of this program is prohibited from giving any competitor of
 Gaussian, Inc. access to this program.  By using this program,
 the user acknowledges that Gaussian, Inc. is engaged in the
 business of creating and licensing software in the field of
 computational chemistry and represents and warrants to the
 licensee that it is not a competitor of Gaussian, Inc. and that
 it will not use this program in any manner prohibited above.
 ---------------------------------------------------------------
  

 Cite this work as:
 Gaussian 16, Revision B.01,
 M. J. Frisch, G. W. Trucks, H. B. Schlegel, G. E. Scuseria, 
 M. A. Robb, J. R. Cheeseman, G. Scalmani, V. Barone, 
 G. A. Petersson, H. Nakatsuji, X. Li, M. Caricato, A. V. Marenich, 
 J. Bloino, B. G. Janesko, R. Gomperts, B. Mennucci, H. P. Hratchian, 
 J. V. Ortiz, A. F. Izmaylov, J. L. Sonnenberg, D. Williams-Young, 
 F. Ding, F. Lipparini, F. Egidi, J. Goings, B. Peng, A. Petrone, 
 T. Henderson, D. Ranasinghe, V. G. Zakrzewski, J. Gao, N. Rega, 
 G. Zheng, W. Liang, M. Hada, M. Ehara, K. Toyota, R. Fukuda, 
 J. Hasegawa, M. Ishida, T. Nakajima, Y. Honda, O. Kitao, H. Nakai, 
 T. Vreven, K. Throssell, J. A. Montgomery, Jr., J. E. Peralta, 
 F. Ogliaro, M. J. Bearpark, J. J. Heyd, E. N. Brothers, K. N. Kudin, 
 V. N. Staroverov, T. A. Keith, R. Kobayashi, J. Normand, 
 K. Raghavachari, A. P. Rendell, J. C. Burant, S. S. Iyengar, 
 J. Tomasi, M. Cossi, J. M. Millam, M. Klene, C. Adamo, R. Cammi, 
 J. W. Ochterski, R. L. Martin, K. Morokuma, O. Farkas, 
 J. B. Foresman, and D. J. Fox, Gaussian, Inc., Wallingford CT, 2016.
 
 ******************************************
 Gaussian 16:  ES64L-G16RevB.01 20-Dec-2017
                 4-Nov-2022 
 ******************************************
 %chk=./calculation/no_transfer_pubchem_sampling_1_b3lyp/154086091.chk
 %nprocshared=7
 Will use up to    7 processors via shared memory.
 %mem=6GB
 -----------------------------
 #p b3lyp/6-31g(d) opt SCF=XQC
 -----------------------------
 1/18=20,19=15,26=3,38=1/1,3;
 2/9=110,12=2,17=6,18=5,40=1/2;
 3/5=1,6=6,7=1,11=2,25=1,30=1,71=1,74=-5/1,2,3;
 4//1;
 5/5=2,8=3,13=1,38=5/2,8;
 6/7=2,8=2,9=2,10=2,28=1/1;
 7//1,2,3,16;
 1/18=20,19=15,26=3/3(2);
 2/9=110/2;
 99//99;
 2/9=110/2;
 3/5=1,6=6,7=1,11=2,25=1,30=1,71=1,74=-5/1,2,3;
 4/5=5,16=3,69=1/1;
 5/5=2,8=3,13=1,38=5/2,8;
 7//1,2,3,16;
 1/18=20,19=15,26=3/3(-5);
 2/9=110/2;
 6/7=2,8=2,9=2,10=2,19=2,28=1/1;
 99/9=1/99;
 Leave Link    1 at Fri Nov  4 18:32:55 2022, MaxMem=   805306368 cpu:               0.5 elap:               0.1
 (Enter /home/wykgroup/appl/g16/l101.exe)
 ------------------------------
 Gaussian input prepared by ASE
 ------------------------------
 Symbolic Z-matrix:
 Charge =  0 Multiplicity = 1
 C                    -1.62887  -3.38797   1.58351 
 C                    -1.75391  -2.03009   0.96164 
 C                    -0.60355  -1.31581   0.62548 
 C                    -0.67041  -0.07127   0.03117 
 S                     0.75421   0.87037  -0.40968 
 N                     1.98222  -0.20107   0.10905 
 C                     2.80214   0.30455   1.19678 
 C                     3.8358    1.31421   0.68986 
 O                     4.63788   0.75243  -0.32571 
 C                     3.85091   0.31387  -1.41137 
 C                     2.81773  -0.72199  -0.95929 
 C                    -1.92331   0.48313  -0.23892 
 N                    -2.16035   1.69518  -0.81603 
 C                    -3.40272   1.9463   -0.94043 
 C                    -3.96913   3.1788   -1.52938 
 S                    -4.4882    0.67203  -0.33812 
 C                    -3.0799   -0.24698   0.10384 
 C                    -3.00539  -1.49373   0.69923 
 H                    -2.50085  -3.61763   2.19089 
 H                    -1.54954  -4.14715   0.80471 
 H                    -0.73798  -3.44847   2.20391 
 H                     0.36804  -1.73772   0.8318 
 H                     3.31615  -0.5528    1.64402 
 H                     2.15165   0.76364   1.94215 
 H                     3.30815   2.20097   0.30331 
 H                     4.51755   1.61382   1.48709 
 H                     3.32363   1.17003  -1.8621 
 H                     4.54367  -0.11206  -2.13855 
 H                     2.17858  -1.01493  -1.79303 
 H                     3.33218  -1.60666  -0.56948 
 H                    -4.59533   3.69198  -0.80063 
 H                    -4.58822   2.93487  -2.39181 
 H                    -3.15874   3.83369  -1.8374 
 H                    -3.9041   -2.03353   0.95347 
 
 ITRead=  0  0  0  0  0  0  0  0  0  0  0  0  0  0  0  0  0  0  0  0
 ITRead=  0  0  0  0  0  0  0  0  0  0  0  0  0  0
 MicOpt= -1 -1 -1 -1 -1 -1 -1 -1 -1 -1 -1 -1 -1 -1 -1 -1 -1 -1 -1 -1
 MicOpt= -1 -1 -1 -1 -1 -1 -1 -1 -1 -1 -1 -1 -1 -1
 NAtoms=     34 NQM=       34 NQMF=       0 NMMI=      0 NMMIF=      0
                NMic=       0 NMicF=      0.
                    Isotopes and Nuclear Properties:
 (Nuclear quadrupole moments (NQMom) in fm**2, nuclear magnetic moments (NMagM)
  in nuclear magnetons)

  Atom         1           2           3           4           5           6           7           8           9          10
 IAtWgt=          12          12          12          12          32          14          12          12          16          12
 AtmWgt=  12.0000000  12.0000000  12.0000000  12.0000000  31.9720718  14.0030740  12.0000000  12.0000000  15.9949146  12.0000000
 NucSpn=           0           0           0           0           0           2           0           0           0           0
 AtZEff=  -0.0000000  -0.0000000  -0.0000000  -0.0000000  -0.0000000  -0.0000000  -0.0000000  -0.0000000  -0.0000000  -0.0000000
 NQMom=    0.0000000   0.0000000   0.0000000   0.0000000   0.0000000   2.0440000   0.0000000   0.0000000   0.0000000   0.0000000
 NMagM=    0.0000000   0.0000000   0.0000000   0.0000000   0.0000000   0.4037610   0.0000000   0.0000000   0.0000000   0.0000000
 AtZNuc=   6.0000000   6.0000000   6.0000000   6.0000000  16.0000000   7.0000000   6.0000000   6.0000000   8.0000000   6.0000000

  Atom        11          12          13          14          15          16          17          18          19          20
 IAtWgt=          12          12          14          12          12          32          12          12           1           1
 AtmWgt=  12.0000000  12.0000000  14.0030740  12.0000000  12.0000000  31.9720718  12.0000000  12.0000000   1.0078250   1.0078250
 NucSpn=           0           0           2           0           0           0           0           0           1           1
 AtZEff=  -0.0000000  -0.0000000  -0.0000000  -0.0000000  -0.0000000  -0.0000000  -0.0000000  -0.0000000  -0.0000000  -0.0000000
 NQMom=    0.0000000   0.0000000   2.0440000   0.0000000   0.0000000   0.0000000   0.0000000   0.0000000   0.0000000   0.0000000
 NMagM=    0.0000000   0.0000000   0.4037610   0.0000000   0.0000000   0.0000000   0.0000000   0.0000000   2.7928460   2.7928460
 AtZNuc=   6.0000000   6.0000000   7.0000000   6.0000000   6.0000000  16.0000000   6.0000000   6.0000000   1.0000000   1.0000000

  Atom        21          22          23          24          25          26          27          28          29          30
 IAtWgt=           1           1           1           1           1           1           1           1           1           1
 AtmWgt=   1.0078250   1.0078250   1.0078250   1.0078250   1.0078250   1.0078250   1.0078250   1.0078250   1.0078250   1.0078250
 NucSpn=           1           1           1           1           1           1           1           1           1           1
 AtZEff=  -0.0000000  -0.0000000  -0.0000000  -0.0000000  -0.0000000  -0.0000000  -0.0000000  -0.0000000  -0.0000000  -0.0000000
 NQMom=    0.0000000   0.0000000   0.0000000   0.0000000   0.0000000   0.0000000   0.0000000   0.0000000   0.0000000   0.0000000
 NMagM=    2.7928460   2.7928460   2.7928460   2.7928460   2.7928460   2.7928460   2.7928460   2.7928460   2.7928460   2.7928460
 AtZNuc=   1.0000000   1.0000000   1.0000000   1.0000000   1.0000000   1.0000000   1.0000000   1.0000000   1.0000000   1.0000000

  Atom        31          32          33          34
 IAtWgt=           1           1           1           1
 AtmWgt=   1.0078250   1.0078250   1.0078250   1.0078250
 NucSpn=           1           1           1           1
 AtZEff=  -0.0000000  -0.0000000  -0.0000000  -0.0000000
 NQMom=    0.0000000   0.0000000   0.0000000   0.0000000
 NMagM=    2.7928460   2.7928460   2.7928460   2.7928460
 AtZNuc=   1.0000000   1.0000000   1.0000000   1.0000000
 Leave Link  101 at Fri Nov  4 18:32:55 2022, MaxMem=   805306368 cpu:               1.2 elap:               0.2
 (Enter /home/wykgroup/appl/g16/l103.exe)

 GradGradGradGradGradGradGradGradGradGradGradGradGradGradGradGradGradGrad
 Berny optimization.
 Initialization pass.
                           ----------------------------
                           !    Initial Parameters    !
                           ! (Angstroms and Degrees)  !
 --------------------------                            --------------------------
 ! Name  Definition              Value          Derivative Info.                !
 --------------------------------------------------------------------------------
 ! R1    R(1,2)                  1.4987         estimate D2E/DX2                !
 ! R2    R(1,19)                 1.0872         estimate D2E/DX2                !
 ! R3    R(1,20)                 1.0905         estimate D2E/DX2                !
 ! R4    R(1,21)                 1.0873         estimate D2E/DX2                !
 ! R5    R(2,3)                  1.3952         estimate D2E/DX2                !
 ! R6    R(2,18)                 1.3866         estimate D2E/DX2                !
 ! R7    R(3,4)                  1.3808         estimate D2E/DX2                !
 ! R8    R(3,22)                 1.0791         estimate D2E/DX2                !
 ! R9    R(4,5)                  1.7637         estimate D2E/DX2                !
 ! R10   R(4,12)                 1.3965         estimate D2E/DX2                !
 ! R11   R(5,6)                  1.7103         estimate D2E/DX2                !
 ! R12   R(6,7)                  1.453          estimate D2E/DX2                !
 ! R13   R(6,11)                 1.4529         estimate D2E/DX2                !
 ! R14   R(7,8)                  1.5313         estimate D2E/DX2                !
 ! R15   R(7,23)                 1.0951         estimate D2E/DX2                !
 ! R16   R(7,24)                 1.0906         estimate D2E/DX2                !
 ! R17   R(8,9)                  1.4108         estimate D2E/DX2                !
 ! R18   R(8,25)                 1.1019         estimate D2E/DX2                !
 ! R19   R(8,26)                 1.0909         estimate D2E/DX2                !
 ! R20   R(9,10)                 1.4108         estimate D2E/DX2                !
 ! R21   R(10,11)                1.5313         estimate D2E/DX2                !
 ! R22   R(10,27)                1.1019         estimate D2E/DX2                !
 ! R23   R(10,28)                1.0909         estimate D2E/DX2                !
 ! R24   R(11,29)                1.0906         estimate D2E/DX2                !
 ! R25   R(11,30)                1.0951         estimate D2E/DX2                !
 ! R26   R(12,13)                1.3632         estimate D2E/DX2                !
 ! R27   R(12,17)                1.4101         estimate D2E/DX2                !
 ! R28   R(13,14)                1.2736         estimate D2E/DX2                !
 ! R29   R(14,15)                1.4788         estimate D2E/DX2                !
 ! R30   R(14,16)                1.779          estimate D2E/DX2                !
 ! R31   R(15,31)                1.0893         estimate D2E/DX2                !
 ! R32   R(15,32)                1.0893         estimate D2E/DX2                !
 ! R33   R(15,33)                1.0865         estimate D2E/DX2                !
 ! R34   R(16,17)                1.7387         estimate D2E/DX2                !
 ! R35   R(17,18)                1.3836         estimate D2E/DX2                !
 ! R36   R(18,34)                1.0787         estimate D2E/DX2                !
 ! A1    A(2,1,19)             110.8716         estimate D2E/DX2                !
 ! A2    A(2,1,20)             109.9064         estimate D2E/DX2                !
 ! A3    A(2,1,21)             110.8253         estimate D2E/DX2                !
 ! A4    A(19,1,20)            108.0758         estimate D2E/DX2                !
 ! A5    A(19,1,21)            109.0651         estimate D2E/DX2                !
 ! A6    A(20,1,21)            108.0083         estimate D2E/DX2                !
 ! A7    A(1,2,3)              119.6718         estimate D2E/DX2                !
 ! A8    A(1,2,18)             120.2833         estimate D2E/DX2                !
 ! A9    A(3,2,18)             120.0354         estimate D2E/DX2                !
 ! A10   A(2,3,4)              121.6835         estimate D2E/DX2                !
 ! A11   A(2,3,22)             119.7438         estimate D2E/DX2                !
 ! A12   A(4,3,22)             118.5726         estimate D2E/DX2                !
 ! A13   A(3,4,5)              123.3464         estimate D2E/DX2                !
 ! A14   A(3,4,12)             118.9817         estimate D2E/DX2                !
 ! A15   A(5,4,12)             117.6719         estimate D2E/DX2                !
 ! A16   A(4,5,6)               99.77           estimate D2E/DX2                !
 ! A17   A(5,6,7)              114.4712         estimate D2E/DX2                !
 ! A18   A(5,6,11)             114.4884         estimate D2E/DX2                !
 ! A19   A(7,6,11)             110.5333         estimate D2E/DX2                !
 ! A20   A(6,7,8)              111.2568         estimate D2E/DX2                !
 ! A21   A(6,7,23)             107.3475         estimate D2E/DX2                !
 ! A22   A(6,7,24)             108.7565         estimate D2E/DX2                !
 ! A23   A(8,7,23)             109.5456         estimate D2E/DX2                !
 ! A24   A(8,7,24)             110.567          estimate D2E/DX2                !
 ! A25   A(23,7,24)            109.2926         estimate D2E/DX2                !
 ! A26   A(7,8,9)              111.0705         estimate D2E/DX2                !
 ! A27   A(7,8,25)             108.875          estimate D2E/DX2                !
 ! A28   A(7,8,26)             111.1619         estimate D2E/DX2                !
 ! A29   A(9,8,25)             109.8876         estimate D2E/DX2                !
 ! A30   A(9,8,26)             106.2683         estimate D2E/DX2                !
 ! A31   A(25,8,26)            109.5484         estimate D2E/DX2                !
 ! A32   A(8,9,10)             111.1377         estimate D2E/DX2                !
 ! A33   A(9,10,11)            111.0674         estimate D2E/DX2                !
 ! A34   A(9,10,27)            109.8871         estimate D2E/DX2                !
 ! A35   A(9,10,28)            106.2656         estimate D2E/DX2                !
 ! A36   A(11,10,27)           108.8752         estimate D2E/DX2                !
 ! A37   A(11,10,28)           111.1701         estimate D2E/DX2                !
 ! A38   A(27,10,28)           109.5462         estimate D2E/DX2                !
 ! A39   A(6,11,10)            111.2574         estimate D2E/DX2                !
 ! A40   A(6,11,29)            108.7491         estimate D2E/DX2                !
 ! A41   A(6,11,30)            107.3407         estimate D2E/DX2                !
 ! A42   A(10,11,29)           110.5739         estimate D2E/DX2                !
 ! A43   A(10,11,30)           109.5485         estimate D2E/DX2                !
 ! A44   A(29,11,30)           109.2959         estimate D2E/DX2                !
 ! A45   A(4,12,13)            126.2198         estimate D2E/DX2                !
 ! A46   A(4,12,17)            118.9039         estimate D2E/DX2                !
 ! A47   A(13,12,17)           114.8763         estimate D2E/DX2                !
 ! A48   A(12,13,14)           112.7237         estimate D2E/DX2                !
 ! A49   A(13,14,15)           125.2316         estimate D2E/DX2                !
 ! A50   A(13,14,16)           114.8919         estimate D2E/DX2                !
 ! A51   A(15,14,16)           119.8764         estimate D2E/DX2                !
 ! A52   A(14,15,31)           110.2674         estimate D2E/DX2                !
 ! A53   A(14,15,32)           110.2659         estimate D2E/DX2                !
 ! A54   A(14,15,33)           109.2439         estimate D2E/DX2                !
 ! A55   A(31,15,32)           107.9662         estimate D2E/DX2                !
 ! A56   A(31,15,33)           109.5407         estimate D2E/DX2                !
 ! A57   A(32,15,33)           109.5377         estimate D2E/DX2                !
 ! A58   A(14,16,17)            88.3064         estimate D2E/DX2                !
 ! A59   A(12,17,16)           109.2016         estimate D2E/DX2                !
 ! A60   A(12,17,18)           121.8028         estimate D2E/DX2                !
 ! A61   A(16,17,18)           128.9955         estimate D2E/DX2                !
 ! A62   A(2,18,17)            118.5926         estimate D2E/DX2                !
 ! A63   A(2,18,34)            120.9141         estimate D2E/DX2                !
 ! A64   A(17,18,34)           120.4933         estimate D2E/DX2                !
 ! D1    D(19,1,2,3)           153.6792         estimate D2E/DX2                !
 ! D2    D(19,1,2,18)          -27.4396         estimate D2E/DX2                !
 ! D3    D(20,1,2,3)           -86.8986         estimate D2E/DX2                !
 ! D4    D(20,1,2,18)           91.9825         estimate D2E/DX2                !
 ! D5    D(21,1,2,3)            32.4107         estimate D2E/DX2                !
 ! D6    D(21,1,2,18)         -148.7082         estimate D2E/DX2                !
 ! D7    D(1,2,3,4)            178.9367         estimate D2E/DX2                !
 ! D8    D(1,2,3,22)            -1.1138         estimate D2E/DX2                !
 ! D9    D(18,2,3,4)             0.0528         estimate D2E/DX2                !
 ! D10   D(18,2,3,22)         -179.9977         estimate D2E/DX2                !
 ! D11   D(1,2,18,17)         -178.9284         estimate D2E/DX2                !
 ! D12   D(1,2,18,34)            1.1412         estimate D2E/DX2                !
 ! D13   D(3,2,18,17)           -0.0514         estimate D2E/DX2                !
 ! D14   D(3,2,18,34)         -179.9817         estimate D2E/DX2                !
 ! D15   D(2,3,4,5)            179.9054         estimate D2E/DX2                !
 ! D16   D(2,3,4,12)            -0.0122         estimate D2E/DX2                !
 ! D17   D(22,3,4,5)            -0.0447         estimate D2E/DX2                !
 ! D18   D(22,3,4,12)         -179.9623         estimate D2E/DX2                !
 ! D19   D(3,4,5,6)             -0.0031         estimate D2E/DX2                !
 ! D20   D(12,4,5,6)           179.9155         estimate D2E/DX2                !
 ! D21   D(3,4,12,13)          179.8854         estimate D2E/DX2                !
 ! D22   D(3,4,12,17)           -0.0275         estimate D2E/DX2                !
 ! D23   D(5,4,12,13)           -0.0369         estimate D2E/DX2                !
 ! D24   D(5,4,12,17)         -179.9497         estimate D2E/DX2                !
 ! D25   D(4,5,6,7)           -115.3613         estimate D2E/DX2                !
 ! D26   D(4,5,6,11)           115.5324         estimate D2E/DX2                !
 ! D27   D(5,6,7,8)            -77.8198         estimate D2E/DX2                !
 ! D28   D(5,6,7,23)           162.3385         estimate D2E/DX2                !
 ! D29   D(5,6,7,24)            44.1986         estimate D2E/DX2                !
 ! D30   D(11,6,7,8)            53.2349         estimate D2E/DX2                !
 ! D31   D(11,6,7,23)          -66.6068         estimate D2E/DX2                !
 ! D32   D(11,6,7,24)          175.2534         estimate D2E/DX2                !
 ! D33   D(5,6,11,10)           77.8051         estimate D2E/DX2                !
 ! D34   D(5,6,11,29)          -44.2174         estimate D2E/DX2                !
 ! D35   D(5,6,11,30)         -162.3535         estimate D2E/DX2                !
 ! D36   D(7,6,11,10)          -53.2407         estimate D2E/DX2                !
 ! D37   D(7,6,11,29)         -175.2631         estimate D2E/DX2                !
 ! D38   D(7,6,11,30)           66.6007         estimate D2E/DX2                !
 ! D39   D(6,7,8,9)            -55.9443         estimate D2E/DX2                !
 ! D40   D(6,7,8,25)            65.1861         estimate D2E/DX2                !
 ! D41   D(6,7,8,26)          -174.0475         estimate D2E/DX2                !
 ! D42   D(23,7,8,9)            62.5846         estimate D2E/DX2                !
 ! D43   D(23,7,8,25)         -176.2849         estimate D2E/DX2                !
 ! D44   D(23,7,8,26)          -55.5186         estimate D2E/DX2                !
 ! D45   D(24,7,8,9)          -176.9067         estimate D2E/DX2                !
 ! D46   D(24,7,8,25)          -55.7762         estimate D2E/DX2                !
 ! D47   D(24,7,8,26)           64.9901         estimate D2E/DX2                !
 ! D48   D(7,8,9,10)            58.3724         estimate D2E/DX2                !
 ! D49   D(25,8,9,10)          -62.1613         estimate D2E/DX2                !
 ! D50   D(26,8,9,10)          179.3991         estimate D2E/DX2                !
 ! D51   D(8,9,10,11)          -58.3763         estimate D2E/DX2                !
 ! D52   D(8,9,10,27)           62.1554         estimate D2E/DX2                !
 ! D53   D(8,9,10,28)         -179.4095         estimate D2E/DX2                !
 ! D54   D(9,10,11,6)           55.9558         estimate D2E/DX2                !
 ! D55   D(9,10,11,29)         176.9139         estimate D2E/DX2                !
 ! D56   D(9,10,11,30)         -62.567          estimate D2E/DX2                !
 ! D57   D(27,10,11,6)         -65.1723         estimate D2E/DX2                !
 ! D58   D(27,10,11,29)         55.7858         estimate D2E/DX2                !
 ! D59   D(27,10,11,30)        176.3049         estimate D2E/DX2                !
 ! D60   D(28,10,11,6)         174.0589         estimate D2E/DX2                !
 ! D61   D(28,10,11,29)        -64.9831         estimate D2E/DX2                !
 ! D62   D(28,10,11,30)         55.5361         estimate D2E/DX2                !
 ! D63   D(4,12,13,14)        -179.9318         estimate D2E/DX2                !
 ! D64   D(17,12,13,14)         -0.0159         estimate D2E/DX2                !
 ! D65   D(4,12,17,16)         179.9154         estimate D2E/DX2                !
 ! D66   D(4,12,17,18)           0.0281         estimate D2E/DX2                !
 ! D67   D(13,12,17,16)         -0.0071         estimate D2E/DX2                !
 ! D68   D(13,12,17,18)       -179.8944         estimate D2E/DX2                !
 ! D69   D(12,13,14,15)       -179.9664         estimate D2E/DX2                !
 ! D70   D(12,13,14,16)          0.0318         estimate D2E/DX2                !
 ! D71   D(13,14,15,31)       -120.4639         estimate D2E/DX2                !
 ! D72   D(13,14,15,32)        120.4019         estimate D2E/DX2                !
 ! D73   D(13,14,15,33)         -0.0287         estimate D2E/DX2                !
 ! D74   D(16,14,15,31)         59.538          estimate D2E/DX2                !
 ! D75   D(16,14,15,32)        -59.5962         estimate D2E/DX2                !
 ! D76   D(16,14,15,33)        179.9732         estimate D2E/DX2                !
 ! D77   D(13,14,16,17)         -0.0304         estimate D2E/DX2                !
 ! D78   D(15,14,16,17)        179.9679         estimate D2E/DX2                !
 ! D79   D(14,16,17,12)          0.0193         estimate D2E/DX2                !
 ! D80   D(14,16,17,18)        179.896          estimate D2E/DX2                !
 ! D81   D(12,17,18,2)           0.0117         estimate D2E/DX2                !
 ! D82   D(12,17,18,34)        179.9423         estimate D2E/DX2                !
 ! D83   D(16,17,18,2)        -179.8514         estimate D2E/DX2                !
 ! D84   D(16,17,18,34)          0.0793         estimate D2E/DX2                !
 --------------------------------------------------------------------------------
 Trust Radius=3.00D-01 FncErr=1.00D-07 GrdErr=1.00D-06 EigMax=2.50D+02 EigMin=1.00D-04
 Number of steps in this run=    194 maximum allowed number of steps=    204.
 GradGradGradGradGradGradGradGradGradGradGradGradGradGradGradGradGradGrad

 Leave Link  103 at Fri Nov  4 18:32:55 2022, MaxMem=   805306368 cpu:               0.1 elap:               0.0
 (Enter /home/wykgroup/appl/g16/l202.exe)
                          Input orientation:                          
 ---------------------------------------------------------------------
 Center     Atomic      Atomic             Coordinates (Angstroms)
 Number     Number       Type             X           Y           Z
 ---------------------------------------------------------------------
      1          6           0       -1.628870   -3.387974    1.583514
      2          6           0       -1.753910   -2.030086    0.961643
      3          6           0       -0.603551   -1.315813    0.625479
      4          6           0       -0.670411   -0.071272    0.031174
      5         16           0        0.754212    0.870366   -0.409683
      6          7           0        1.982225   -0.201073    0.109047
      7          6           0        2.802141    0.304550    1.196781
      8          6           0        3.835805    1.314214    0.689863
      9          8           0        4.637881    0.752425   -0.325707
     10          6           0        3.850906    0.313868   -1.411371
     11          6           0        2.817732   -0.721993   -0.959294
     12          6           0       -1.923312    0.483132   -0.238923
     13          7           0       -2.160352    1.695182   -0.816028
     14          6           0       -3.402719    1.946298   -0.940431
     15          6           0       -3.969130    3.178797   -1.529376
     16         16           0       -4.488199    0.672031   -0.338120
     17          6           0       -3.079900   -0.246981    0.103839
     18          6           0       -3.005387   -1.493732    0.699230
     19          1           0       -2.500853   -3.617629    2.190892
     20          1           0       -1.549538   -4.147146    0.804711
     21          1           0       -0.737979   -3.448469    2.203914
     22          1           0        0.368039   -1.737721    0.831797
     23          1           0        3.316152   -0.552796    1.644018
     24          1           0        2.151647    0.763643    1.942146
     25          1           0        3.308152    2.200966    0.303311
     26          1           0        4.517548    1.613817    1.487092
     27          1           0        3.323630    1.170034   -1.862097
     28          1           0        4.543667   -0.112056   -2.138549
     29          1           0        2.178582   -1.014929   -1.793033
     30          1           0        3.332181   -1.606661   -0.569476
     31          1           0       -4.595329    3.691976   -0.800625
     32          1           0       -4.588222    2.934872   -2.391809
     33          1           0       -3.158741    3.833687   -1.837397
     34          1           0       -3.904098   -2.033526    0.953467
 ---------------------------------------------------------------------
                    Distance matrix (angstroms):
                    1          2          3          4          5
     1  C    0.000000
     2  C    1.498738   0.000000
     3  C    2.502590   1.395176   0.000000
     4  C    3.785355   2.424190   1.380780   0.000000
     5  S    5.271183   4.072326   2.773890   1.763686   0.000000
     6  N    5.036904   4.246282   2.862794   2.656951   1.710285
     7  C    5.780843   5.124784   3.814538   3.682187   2.663623
     8  C    7.264424   6.519441   5.160337   4.760192   3.301851
     9  O    7.749852   7.089050   5.714454   5.383661   3.886367
    10  C    7.259540   6.522215   5.162056   4.761469   3.301906
    11  C    5.774564   5.128451   3.816976   3.683966   2.663793
    12  C    4.288757   2.790399   2.392731   1.396451   2.710764
    13  N    5.646126   4.147642   3.683431   2.461307   3.056162
    14  C    6.162085   4.706176   4.574799   3.532719   4.326592
    15  C    7.634748   6.184242   6.014320   4.886697   5.375177
    16  S    5.324667   4.057975   4.468841   3.906966   5.246650
    17  C    3.763079   2.381920   2.747147   2.416980   4.026486
    18  C    2.502981   1.386627   2.409545   2.814570   4.577470
    19  H    1.087200   2.142258   3.368773   4.537792   6.123769
    20  H    1.090491   2.132683   2.990561   4.240751   5.653091
    21  H    1.087310   2.141766   2.656642   4.016320   5.264016
    22  H    2.697418   2.145928   1.079148   2.120478   2.914192
    23  H    5.700451   5.324805   4.121127   4.327334   3.578633
    24  H    5.626441   4.900987   3.694437   3.508976   2.737757
    25  H    7.566330   6.630209   5.270005   4.589781   2.966726
    26  H    7.925003   7.272229   5.962447   5.645719   4.279389
    27  H    7.561411   6.632925   5.271644   4.591044   2.966684
    28  H    7.917424   7.276641   5.965127   5.647652   4.279497
    29  H    5.615078   4.907472   3.698649   3.512119   2.738033
    30  H    5.693898   5.328408   4.123409   4.328850   3.578704
    31  H    8.038015   6.627311   6.560946   5.500809   6.060685
    32  H    8.033638   6.627955   6.561246   5.500635   6.060744
    33  H    8.136063   6.647708   6.253967   4.993200   5.111834
    34  H    2.721792   2.150207   3.393567   3.893301   5.656025
                    6          7          8          9         10
     6  N    0.000000
     7  C    1.452957   0.000000
     8  C    2.463575   1.531290   0.000000
     9  O    2.854940   2.426624   1.410785   0.000000
    10  C    2.463495   2.811131   2.327253   1.410790   0.000000
    11  C    1.452853   2.388031   2.811109   2.426579   1.531285
    12  C    3.980255   4.941967   5.892433   6.567290   5.894479
    13  N    4.648923   5.532775   6.194090   6.880784   6.196588
    14  C    5.891538   6.764857   7.446718   8.151961   7.449946
    15  C    7.037511   7.844956   8.325785   9.023122   8.329148
    16  S    6.544360   7.459224   8.411789   9.126443   8.415511
    17  C    5.062336   6.008087   7.113911   7.794066   7.116635
    18  C    5.186092   6.099898   7.395036   8.032140   7.398028
    19  H    6.008738   6.670344   8.168807   8.740262   8.293240
    20  H    5.341235   6.237662   7.670825   7.972941   7.346868
    21  H    4.725839   5.256607   6.774585   7.276425   6.948621
    22  H    2.342915   3.198270   4.621672   5.076632   4.622898
    23  H    2.063785   1.095111   2.160133   2.707468   3.220632
    24  H    2.078372   1.090632   2.169730   3.365211   3.786273
    25  H    2.750566   2.156555   1.101894   2.064489   2.606887
    26  H    3.408915   2.177403   1.090922   2.010651   3.245823
    27  H    2.750402   3.221451   2.606839   2.064496   1.101905
    28  H    3.408900   3.785618   3.245802   2.010622   1.090924
    29  H    2.078179   3.326987   3.786300   3.365225   2.169801
    30  H    2.063602   2.655811   3.220416   2.707317   2.160161
    31  H    7.697242   8.377759   8.885906   9.701478   9.117210
    32  H    7.698000   8.626357   9.115233   9.703238   8.890996
    33  H    6.818904   7.562616   7.852291   8.518609   7.855303
    34  H    6.222518   7.106296   8.436999   9.075418   8.440546
                   11         12         13         14         15
    11  C    0.000000
    12  C    4.944568   0.000000
    13  N    5.535755   1.363196   0.000000
    14  C    6.768614   2.195817   1.273581   0.000000
    15  C    7.848735   3.621774   2.445742   1.478760   0.000000
    16  S    7.463631   2.573746   2.587296   1.778989   2.823543
    17  C    6.011485   1.410053   2.337460   2.450548   3.897958
    18  C    6.103687   2.441108   3.630325   3.831470   5.265739
    19  H    6.826106   4.801437   6.114202   6.447932   7.885914
    20  H    5.823781   4.761129   6.093659   6.603776   8.060510
    21  H    5.484763   4.778070   6.131912   6.789054   8.264287
    22  H    3.200109   3.365846   4.570876   5.561600   6.968380
    23  H    2.655990   5.663090   6.410720   7.620240   8.778983
    24  H    3.327031   4.630447   5.202752   6.368587   7.439646
    25  H    3.221549   5.532918   5.604755   6.829900   7.567940
    26  H    3.785524   6.763302   7.064371   8.290599   9.141769
    27  H    2.156561   5.535063   5.607505   6.833434   7.571670
    28  H    2.177503   6.766435   7.068172   8.295623   9.147050
    29  H    1.090617   4.635189   5.208224   6.375478   7.446557
    30  H    1.095104   5.665395   6.413336   7.623647   8.782434
    31  H    8.629123   4.213296   3.149053   2.118787   1.089291
    32  H    8.382894   4.212801   3.148725   2.118772   1.089297
    33  H    7.565945   3.912496   2.571610   2.103880   1.086502
    34  H    7.110680   3.417437   4.480516   4.435902   5.773824
                   16         17         18         19         20
    16  S    0.000000
    17  C    1.738740   0.000000
    18  C    2.822296   1.383629   0.000000
    19  H    5.361589   4.006539   2.643965   0.000000
    20  H    5.759016   4.247884   3.028404   1.762636   0.000000
    21  H    6.124101   4.488256   3.350555   1.771020   1.761972
    22  H    5.546049   3.826292   3.384836   3.689410   3.079475
    23  H    8.144751   6.585982   6.460638   6.597714   6.107268
    24  H    7.021080   5.636472   5.765031   6.395559   6.253669
    25  H    7.970706   6.843935   7.325866   8.435849   8.009187
    26  H    9.236982   7.943373   8.177539   8.781875   8.394276
    27  H    7.974659   6.846754   7.328882   8.559968   7.689736
    28  H    9.242886   7.947659   8.182312   8.981001   7.878571
    29  H    7.029124   5.642650   5.771842   6.674041   5.518871
    30  H    8.148884   6.589148   6.464297   6.759284   5.672181
    31  H    3.057034   4.316244   5.627525   8.171067   8.561879
    32  H    3.057464   4.315957   5.627825   8.263990   8.343040
    33  H    3.743174   4.519565   5.902489   8.496002   8.559437
    34  H    3.054408   2.143108   1.078747   2.451469   3.167565
                   21         22         23         24         25
    21  H    0.000000
    22  H    2.456144   0.000000
    23  H    5.013420   3.279500   0.000000
    24  H    5.114718   3.266642   1.782684   0.000000
    25  H    7.204136   4.943360   3.062803   2.467627   0.000000
    26  H    7.332199   5.374071   2.482376   2.554870   1.791290
    27  H    7.372902   4.944453   3.906538   4.001370   2.398343
    28  H    7.608181   5.376021   4.001107   4.810476   3.583190
    29  H    5.513985   3.269591   3.649788   4.137101   4.001571
    30  H    5.258341   3.281292   2.451621   3.649691   3.906451
    31  H    8.654037   7.535345   9.305154   7.849816   8.118300
    32  H    8.757402   7.535866   9.535767   8.302002   8.375859
    33  H    8.673067   7.113604   8.560708   7.204883   7.004935
    34  H    3.686461   4.284094   7.402799   6.743418   8.388693
                   26         27         28         29         30
    26  H    0.000000
    27  H    3.583217   0.000000
    28  H    4.015544   1.791276   0.000000
    29  H    4.810436   2.467787   2.555032   0.000000
    30  H    4.000756   3.062838   2.482646   1.782703   0.000000
    31  H    9.622729   8.378354   9.989091   8.308171   9.538050
    32  H    9.985295   8.123587   9.630125   7.858060   9.310167
    33  H    8.654794   7.008338   8.659485   7.210969   8.563707
    34  H    9.193041   8.392274   9.198769   6.751281   7.407112
                   31         32         33         34
    31  H    0.000000
    32  H    1.762136   0.000000
    33  H    1.777290   1.777262   0.000000
    34  H    6.027936   6.028588   6.539775   0.000000
 Stoichiometry    C13H16N2OS2
 Framework group  C1[X(C13H16N2OS2)]
 Deg. of freedom    96
 Full point group                 C1      NOp   1
 Largest Abelian subgroup         C1      NOp   1
 Largest concise Abelian subgroup C1      NOp   1
                         Standard orientation:                         
 ---------------------------------------------------------------------
 Center     Atomic      Atomic             Coordinates (Angstroms)
 Number     Number       Type             X           Y           Z
 ---------------------------------------------------------------------
      1          6           0       -1.057626    4.005909    0.008795
      2          6           0       -1.249054    2.519562   -0.009758
      3          6           0       -0.135058    1.679617   -0.005035
      4          6           0       -0.263391    0.304824    0.000218
      5         16           0        1.113443   -0.797403    0.003876
      6          7           0        2.393365    0.336991   -0.000988
      7          6           0        3.219002    0.307724   -1.196208
      8          6           0        4.201110   -0.866699   -1.163911
      9          8           0        4.999683   -0.828250   -0.001536
     10          6           0        4.204448   -0.860151    1.163330
     11          6           0        3.222526    0.314519    1.191812
     12          6           0       -1.542569   -0.255336    0.001060
     13          7           0       -1.839264   -1.585850    0.003761
     14          6           0       -3.092901   -1.810354    0.002510
     15          6           0       -3.719694   -3.149702    0.005473
     16         16           0       -4.114424   -0.353899   -0.003250
     17          6           0       -2.662028    0.602011   -0.002894
     18          6           0       -2.525940    1.978921   -0.008144
     19          1           0       -1.905561    4.511372   -0.446747
     20          1           0       -0.967925    4.355904    1.037691
     21          1           0       -0.150602    4.285496   -0.521659
     22          1           0        0.856530    2.105425   -0.006278
     23          1           0        3.775786    1.250066   -1.231603
     24          1           0        2.569358    0.240009   -2.069623
     25          1           0        3.631017   -1.809107   -1.196017
     26          1           0        4.889669   -0.827635   -2.009174
     27          1           0        3.634374   -1.802324    1.202315
     28          1           0        4.895484   -0.816524    2.006350
     29          1           0        2.575397    0.251956    2.067457
     30          1           0        3.779427    1.257026    1.220005
     31          1           0       -4.347523   -3.274447   -0.875903
     32          1           0       -4.349336   -3.269673    0.886225
     33          1           0       -2.942394   -3.908835    0.008361
     34          1           0       -3.397137    2.615079   -0.012037
 ---------------------------------------------------------------------
 Rotational constants (GHZ):           0.6188597           0.1975568           0.1584392
 Leave Link  202 at Fri Nov  4 18:32:55 2022, MaxMem=   805306368 cpu:               0.1 elap:               0.0
 (Enter /home/wykgroup/appl/g16/l301.exe)
 Standard basis: 6-31G(d) (6D, 7F)
 Ernie: Thresh=  0.10000D-02 Tol=  0.10000D-05 Strict=F.
 There are   310 symmetry adapted cartesian basis functions of A   symmetry.
 There are   310 symmetry adapted basis functions of A   symmetry.
   310 basis functions,   616 primitive gaussians,   310 cartesian basis functions
    74 alpha electrons       74 beta electrons
       nuclear repulsion energy      1571.5209642088 Hartrees.
 IExCor=  402 DFT=T Ex+Corr=B3LYP ExCW=0 ScaHFX=  0.200000
 ScaDFX=  0.800000  0.720000  1.000000  0.810000 ScalE2=  1.000000  1.000000
 IRadAn=      5 IRanWt=     -1 IRanGd=            0 ICorTp=0 IEmpDi=  4
 NAtoms=   34 NActive=   34 NUniq=   34 SFac= 1.00D+00 NAtFMM=   60 NAOKFM=F Big=F
 Integral buffers will be    131072 words long.
 Raffenetti 2 integral format.
 Two-electron integral symmetry is turned on.
 Leave Link  301 at Fri Nov  4 18:32:55 2022, MaxMem=   805306368 cpu:               0.3 elap:               0.1
 (Enter /home/wykgroup/appl/g16/l302.exe)
 NPDir=0 NMtPBC=     1 NCelOv=     1 NCel=       1 NClECP=     1 NCelD=      1
         NCelK=      1 NCelE2=     1 NClLst=     1 CellRange=     0.0.
 One-electron integrals computed using PRISM.
 One-electron integral symmetry used in STVInt
 NBasis=   310 RedAO= T EigKep=  3.81D-04  NBF=   310
 NBsUse=   310 1.00D-06 EigRej= -1.00D+00 NBFU=   310
 Precomputing XC quadrature grid using
 IXCGrd= 4 IRadAn=           5 IRanWt=          -1 IRanGd=           0 AccXCQ= 0.00D+00.
 Generated NRdTot=       0 NPtTot=           0 NUsed=           0 NTot=          32
 NSgBfM=   307   307   307   307   307 MxSgAt=    34 MxSgA2=    34.
 Leave Link  302 at Fri Nov  4 18:32:56 2022, MaxMem=   805306368 cpu:               2.7 elap:               0.4
 (Enter /home/wykgroup/appl/g16/l303.exe)
 DipDrv:  MaxL=1.
 Leave Link  303 at Fri Nov  4 18:32:56 2022, MaxMem=   805306368 cpu:               0.2 elap:               0.1
 (Enter /home/wykgroup/appl/g16/l401.exe)
 ExpMin= 1.17D-01 ExpMax= 2.19D+04 ExpMxC= 3.30D+03 IAcc=3 IRadAn=         5 AccDes= 0.00D+00
 Harris functional with IExCor=  402 and IRadAn=       5 diagonalized for initial guess.
 HarFok:  IExCor=  402 AccDes= 0.00D+00 IRadAn=         5 IDoV= 1 UseB2=F ITyADJ=14
 ICtDFT=  3500011 ScaDFX=  1.000000  1.000000  1.000000  1.000000
 FoFCou: FMM=F IPFlag=           0 FMFlag=      100000 FMFlg1=           0
         NFxFlg=           0 DoJE=T BraDBF=F KetDBF=T FulRan=T
         wScrn=  0.000000 ICntrl=       500 IOpCl=  0 I1Cent=   200000004 NGrid=           0
         NMat0=    1 NMatS0=      1 NMatT0=    0 NMatD0=    1 NMtDS0=    0 NMtDT0=    0
 Petite list used in FoFCou.
 Harris En= -1486.02105100444    
 JPrj=0 DoOrth=F DoCkMO=F.
 Leave Link  401 at Fri Nov  4 18:32:58 2022, MaxMem=   805306368 cpu:              13.6 elap:               2.0
 (Enter /home/wykgroup/appl/g16/l502.exe)
 Integral symmetry usage will be decided dynamically.
 Closed shell SCF:
 Using DIIS extrapolation, IDIIS=  1040.
 NGot=   805306368 LenX=   805108502 LenY=   805011961
 Requested convergence on RMS density matrix=1.00D-08 within  32 cycles.
 Requested convergence on MAX density matrix=1.00D-06.
 Requested convergence on             energy=1.00D-06.
 No special actions if energy rises.
 Fock matrices will be formed incrementally for  20 cycles.
 Integral accuracy reduced to 1.0D-05 until final iterations.

 Cycle   1  Pass 0  IDiag  1:
 FoFJK:  IHMeth= 1 ICntrl=       0 DoSepK=F KAlg= 0 I1Cent=           0 FoldK=F
 IRaf= 790000000 NMat=       1 IRICut=       1 DoRegI=T DoRafI=F ISym2E= 0 IDoP0=0 IntGTp=1.
 FoFCou: FMM=F IPFlag=           0 FMFlag=      100000 FMFlg1=           0
         NFxFlg=           0 DoJE=F BraDBF=F KetDBF=F FulRan=T
         wScrn=  0.000000 ICntrl=         0 IOpCl=  0 I1Cent=           0 NGrid=           0
         NMat0=    1 NMatS0=      1 NMatT0=    0 NMatD0=    1 NMtDS0=    0 NMtDT0=    0
 Symmetry not used in FoFCou.
 E= -1485.58577691331    
 DIIS: error= 3.83D-02 at cycle   1 NSaved=   1.
 NSaved= 1 IEnMin= 1 EnMin= -1485.58577691331     IErMin= 1 ErrMin= 3.83D-02
 ErrMax= 3.83D-02  0.00D+00 EMaxC= 1.00D-01 BMatC= 4.93D-01 BMatP= 4.93D-01
 IDIUse=3 WtCom= 6.17D-01 WtEn= 3.83D-01
 Coeff-Com:  0.100D+01
 Coeff-En:   0.100D+01
 Coeff:      0.100D+01
 Gap=     0.288 Goal=   None    Shift=    0.000
 GapD=    0.288 DampG=1.000 DampE=0.500 DampFc=0.5000 IDamp=-1.
 Damping current iteration by 5.00D-01
 RMSDP=6.64D-03 MaxDP=2.37D-01              OVMax= 3.33D-01

 Cycle   2  Pass 0  IDiag  1:
 RMSU=  3.30D-03    CP:  9.85D-01
 E= -1485.74138584832     Delta-E=       -0.155608935011 Rises=F Damp=T
 DIIS: error= 1.05D-02 at cycle   2 NSaved=   2.
 NSaved= 2 IEnMin= 2 EnMin= -1485.74138584832     IErMin= 2 ErrMin= 1.05D-02
 ErrMax= 1.05D-02  0.00D+00 EMaxC= 1.00D-01 BMatC= 5.90D-02 BMatP= 4.93D-01
 IDIUse=3 WtCom= 8.95D-01 WtEn= 1.05D-01
 Coeff-Com:  0.172D+00 0.828D+00
 Coeff-En:   0.322D+00 0.678D+00
 Coeff:      0.188D+00 0.812D+00
 Gap=     0.267 Goal=   None    Shift=    0.000
 RMSDP=2.31D-03 MaxDP=9.81D-02 DE=-1.56D-01 OVMax= 2.87D-01

 Cycle   3  Pass 0  IDiag  1:
 RMSU=  1.82D-03    CP:  9.77D-01  5.71D-01
 E= -1486.05541943736     Delta-E=       -0.314033589033 Rises=F Damp=F
 DIIS: error= 1.23D-02 at cycle   3 NSaved=   3.
 NSaved= 3 IEnMin= 3 EnMin= -1486.05541943736     IErMin= 2 ErrMin= 1.05D-02
 ErrMax= 1.23D-02  0.00D+00 EMaxC= 1.00D-01 BMatC= 4.70D-02 BMatP= 5.90D-02
 IDIUse=3 WtCom= 8.77D-01 WtEn= 1.23D-01
 Coeff-Com:  0.447D-01 0.465D+00 0.491D+00
 Coeff-En:   0.000D+00 0.000D+00 0.100D+01
 Coeff:      0.392D-01 0.407D+00 0.553D+00
 Gap=     0.175 Goal=   None    Shift=    0.000
 RMSDP=1.17D-03 MaxDP=6.06D-02 DE=-3.14D-01 OVMax= 8.55D-02

 Cycle   4  Pass 0  IDiag  1:
 RMSU=  8.45D-04    CP:  9.79D-01  7.08D-01  6.37D-01
 E= -1486.09060613355     Delta-E=       -0.035186696189 Rises=F Damp=F
 DIIS: error= 7.80D-03 at cycle   4 NSaved=   4.
 NSaved= 4 IEnMin= 4 EnMin= -1486.09060613355     IErMin= 4 ErrMin= 7.80D-03
 ErrMax= 7.80D-03  0.00D+00 EMaxC= 1.00D-01 BMatC= 1.52D-02 BMatP= 4.70D-02
 IDIUse=3 WtCom= 9.22D-01 WtEn= 7.80D-02
 Coeff-Com: -0.146D-02 0.102D+00 0.363D+00 0.536D+00
 Coeff-En:   0.000D+00 0.000D+00 0.262D+00 0.738D+00
 Coeff:     -0.134D-02 0.942D-01 0.355D+00 0.552D+00
 Gap=     0.178 Goal=   None    Shift=    0.000
 RMSDP=4.99D-04 MaxDP=2.71D-02 DE=-3.52D-02 OVMax= 4.52D-02

 Cycle   5  Pass 0  IDiag  1:
 RMSU=  2.82D-04    CP:  9.79D-01  6.88D-01  7.35D-01  5.69D-01
 E= -1486.10384104263     Delta-E=       -0.013234909080 Rises=F Damp=F
 DIIS: error= 1.68D-03 at cycle   5 NSaved=   5.
 NSaved= 5 IEnMin= 5 EnMin= -1486.10384104263     IErMin= 5 ErrMin= 1.68D-03
 ErrMax= 1.68D-03  0.00D+00 EMaxC= 1.00D-01 BMatC= 1.37D-03 BMatP= 1.52D-02
 IDIUse=3 WtCom= 9.83D-01 WtEn= 1.68D-02
 Coeff-Com: -0.264D-02 0.185D-01 0.168D+00 0.336D+00 0.480D+00
 Coeff-En:   0.000D+00 0.000D+00 0.000D+00 0.326D-01 0.967D+00
 Coeff:     -0.260D-02 0.182D-01 0.165D+00 0.331D+00 0.488D+00
 Gap=     0.177 Goal=   None    Shift=    0.000
 RMSDP=1.71D-04 MaxDP=6.61D-03 DE=-1.32D-02 OVMax= 1.54D-02

 Cycle   6  Pass 0  IDiag  1:
 RMSU=  8.95D-05    CP:  9.79D-01  6.80D-01  7.40D-01  6.53D-01  5.58D-01
 E= -1486.10507569041     Delta-E=       -0.001234647787 Rises=F Damp=F
 DIIS: error= 5.65D-04 at cycle   6 NSaved=   6.
 NSaved= 6 IEnMin= 6 EnMin= -1486.10507569041     IErMin= 6 ErrMin= 5.65D-04
 ErrMax= 5.65D-04  0.00D+00 EMaxC= 1.00D-01 BMatC= 1.49D-04 BMatP= 1.37D-03
 IDIUse=3 WtCom= 9.94D-01 WtEn= 5.65D-03
 Coeff-Com: -0.949D-03-0.230D-02 0.559D-01 0.135D+00 0.299D+00 0.514D+00
 Coeff-En:   0.000D+00 0.000D+00 0.000D+00 0.000D+00 0.777D-01 0.922D+00
 Coeff:     -0.944D-03-0.229D-02 0.556D-01 0.134D+00 0.298D+00 0.516D+00
 Gap=     0.177 Goal=   None    Shift=    0.000
 RMSDP=5.97D-05 MaxDP=2.08D-03 DE=-1.23D-03 OVMax= 5.30D-03

 Cycle   7  Pass 0  IDiag  1:
 RMSU=  3.05D-05    CP:  9.79D-01  6.78D-01  7.46D-01  6.45D-01  6.27D-01
                    CP:  4.92D-01
 E= -1486.10521928964     Delta-E=       -0.000143599224 Rises=F Damp=F
 DIIS: error= 2.22D-04 at cycle   7 NSaved=   7.
 NSaved= 7 IEnMin= 7 EnMin= -1486.10521928964     IErMin= 7 ErrMin= 2.22D-04
 ErrMax= 2.22D-04  0.00D+00 EMaxC= 1.00D-01 BMatC= 1.50D-05 BMatP= 1.49D-04
 IDIUse=3 WtCom= 9.98D-01 WtEn= 2.22D-03
 Coeff-Com: -0.203D-03-0.298D-02 0.170D-01 0.461D-01 0.124D+00 0.304D+00
 Coeff-Com:  0.512D+00
 Coeff-En:   0.000D+00 0.000D+00 0.000D+00 0.000D+00 0.000D+00 0.612D-01
 Coeff-En:   0.939D+00
 Coeff:     -0.203D-03-0.297D-02 0.169D-01 0.460D-01 0.124D+00 0.304D+00
 Coeff:      0.513D+00
 Gap=     0.177 Goal=   None    Shift=    0.000
 RMSDP=1.75D-05 MaxDP=9.75D-04 DE=-1.44D-04 OVMax= 1.87D-03

 Cycle   8  Pass 0  IDiag  1:
 RMSU=  8.97D-06    CP:  9.79D-01  6.78D-01  7.45D-01  6.48D-01  6.23D-01
                    CP:  6.06D-01  6.53D-01
 E= -1486.10523471736     Delta-E=       -0.000015427720 Rises=F Damp=F
 DIIS: error= 5.47D-05 at cycle   8 NSaved=   8.
 NSaved= 8 IEnMin= 8 EnMin= -1486.10523471736     IErMin= 8 ErrMin= 5.47D-05
 ErrMax= 5.47D-05  0.00D+00 EMaxC= 1.00D-01 BMatC= 8.89D-07 BMatP= 1.50D-05
 IDIUse=1 WtCom= 1.00D+00 WtEn= 0.00D+00
 Coeff-Com:  0.915D-04-0.120D-02 0.152D-02 0.553D-02 0.224D-01 0.828D-01
 Coeff-Com:  0.246D+00 0.642D+00
 Coeff:      0.915D-04-0.120D-02 0.152D-02 0.553D-02 0.224D-01 0.828D-01
 Coeff:      0.246D+00 0.642D+00
 Gap=     0.177 Goal=   None    Shift=    0.000
 RMSDP=5.02D-06 MaxDP=1.71D-04 DE=-1.54D-05 OVMax= 2.92D-04

 Initial convergence to 1.0D-05 achieved.  Increase integral accuracy.
 Cycle   9  Pass 1  IDiag  1:
 E= -1486.10525790022     Delta-E=       -0.000023182860 Rises=F Damp=F
 DIIS: error= 7.01D-05 at cycle   1 NSaved=   1.
 NSaved= 1 IEnMin= 1 EnMin= -1486.10525790022     IErMin= 1 ErrMin= 7.01D-05
 ErrMax= 7.01D-05  0.00D+00 EMaxC= 1.00D-01 BMatC= 4.61D-07 BMatP= 4.61D-07
 IDIUse=1 WtCom= 1.00D+00 WtEn= 0.00D+00
 Coeff-Com:  0.100D+01
 Coeff:      0.100D+01
 Gap=     0.177 Goal=   None    Shift=    0.000
 RMSDP=5.02D-06 MaxDP=1.71D-04 DE=-2.32D-05 OVMax= 3.01D-04

 Cycle  10  Pass 1  IDiag  1:
 RMSU=  2.31D-05    CP:  1.00D+00
 E= -1486.10525802216     Delta-E=       -0.000000121941 Rises=F Damp=F
 DIIS: error= 3.76D-05 at cycle   2 NSaved=   2.
 NSaved= 2 IEnMin= 2 EnMin= -1486.10525802216     IErMin= 2 ErrMin= 3.76D-05
 ErrMax= 3.76D-05  0.00D+00 EMaxC= 1.00D-01 BMatC= 3.04D-07 BMatP= 4.61D-07
 IDIUse=1 WtCom= 1.00D+00 WtEn= 0.00D+00
 Coeff-Com:  0.429D+00 0.571D+00
 Coeff:      0.429D+00 0.571D+00
 Gap=     0.177 Goal=   None    Shift=    0.000
 RMSDP=3.60D-06 MaxDP=1.45D-04 DE=-1.22D-07 OVMax= 3.09D-04

 Cycle  11  Pass 1  IDiag  1:
 RMSU=  3.59D-06    CP:  1.00D+00  9.86D-01
 E= -1486.10525821159     Delta-E=       -0.000000189429 Rises=F Damp=F
 DIIS: error= 2.72D-05 at cycle   3 NSaved=   3.
 NSaved= 3 IEnMin= 3 EnMin= -1486.10525821159     IErMin= 3 ErrMin= 2.72D-05
 ErrMax= 2.72D-05  0.00D+00 EMaxC= 1.00D-01 BMatC= 1.21D-07 BMatP= 3.04D-07
 IDIUse=1 WtCom= 1.00D+00 WtEn= 0.00D+00
 Coeff-Com:  0.215D-01 0.384D+00 0.595D+00
 Coeff:      0.215D-01 0.384D+00 0.595D+00
 Gap=     0.177 Goal=   None    Shift=    0.000
 RMSDP=1.59D-06 MaxDP=5.32D-05 DE=-1.89D-07 OVMax= 1.62D-04

 Cycle  12  Pass 1  IDiag  1:
 RMSU=  5.56D-07    CP:  1.00D+00  1.00D+00  5.94D-01
 E= -1486.10525833769     Delta-E=       -0.000000126100 Rises=F Damp=F
 DIIS: error= 4.41D-06 at cycle   4 NSaved=   4.
 NSaved= 4 IEnMin= 4 EnMin= -1486.10525833769     IErMin= 4 ErrMin= 4.41D-06
 ErrMax= 4.41D-06  0.00D+00 EMaxC= 1.00D-01 BMatC= 6.59D-09 BMatP= 1.21D-07
 IDIUse=1 WtCom= 1.00D+00 WtEn= 0.00D+00
 Coeff-Com: -0.228D-02 0.211D+00 0.359D+00 0.432D+00
 Coeff:     -0.228D-02 0.211D+00 0.359D+00 0.432D+00
 Gap=     0.177 Goal=   None    Shift=    0.000
 RMSDP=3.39D-07 MaxDP=1.77D-05 DE=-1.26D-07 OVMax= 3.06D-05

 Cycle  13  Pass 1  IDiag  1:
 RMSU=  1.53D-07    CP:  1.00D+00  9.99D-01  6.27D-01  5.00D-01
 E= -1486.10525834425     Delta-E=       -0.000000006560 Rises=F Damp=F
 DIIS: error= 9.32D-07 at cycle   5 NSaved=   5.
 NSaved= 5 IEnMin= 5 EnMin= -1486.10525834425     IErMin= 5 ErrMin= 9.32D-07
 ErrMax= 9.32D-07  0.00D+00 EMaxC= 1.00D-01 BMatC= 3.53D-10 BMatP= 6.59D-09
 IDIUse=1 WtCom= 1.00D+00 WtEn= 0.00D+00
 Coeff-Com: -0.237D-02 0.117D+00 0.201D+00 0.275D+00 0.410D+00
 Coeff:     -0.237D-02 0.117D+00 0.201D+00 0.275D+00 0.410D+00
 Gap=     0.177 Goal=   None    Shift=    0.000
 RMSDP=9.05D-08 MaxDP=3.97D-06 DE=-6.56D-09 OVMax= 5.94D-06

 Cycle  14  Pass 1  IDiag  1:
 RMSU=  4.90D-08    CP:  1.00D+00  1.00D+00  6.23D-01  5.03D-01  5.20D-01
 E= -1486.10525834463     Delta-E=       -0.000000000384 Rises=F Damp=F
 DIIS: error= 1.99D-07 at cycle   6 NSaved=   6.
 NSaved= 6 IEnMin= 6 EnMin= -1486.10525834463     IErMin= 6 ErrMin= 1.99D-07
 ErrMax= 1.99D-07  0.00D+00 EMaxC= 1.00D-01 BMatC= 1.62D-11 BMatP= 3.53D-10
 IDIUse=1 WtCom= 1.00D+00 WtEn= 0.00D+00
 Coeff-Com: -0.115D-02 0.496D-01 0.862D-01 0.122D+00 0.228D+00 0.515D+00
 Coeff:     -0.115D-02 0.496D-01 0.862D-01 0.122D+00 0.228D+00 0.515D+00
 Gap=     0.177 Goal=   None    Shift=    0.000
 RMSDP=1.84D-08 MaxDP=9.30D-07 DE=-3.84D-10 OVMax= 1.79D-06

 Cycle  15  Pass 1  IDiag  1:
 RMSU=  1.55D-08    CP:  1.00D+00  1.00D+00  6.23D-01  4.98D-01  5.65D-01
                    CP:  8.63D-01
 E= -1486.10525834465     Delta-E=       -0.000000000019 Rises=F Damp=F
 DIIS: error= 7.80D-08 at cycle   7 NSaved=   7.
 NSaved= 7 IEnMin= 7 EnMin= -1486.10525834465     IErMin= 7 ErrMin= 7.80D-08
 ErrMax= 7.80D-08  0.00D+00 EMaxC= 1.00D-01 BMatC= 2.40D-12 BMatP= 1.62D-11
 IDIUse=1 WtCom= 1.00D+00 WtEn= 0.00D+00
 Coeff-Com: -0.180D-03 0.482D-02 0.886D-02 0.136D-01 0.442D-01 0.296D+00
 Coeff-Com:  0.632D+00
 Coeff:     -0.180D-03 0.482D-02 0.886D-02 0.136D-01 0.442D-01 0.296D+00
 Coeff:      0.632D+00
 Gap=     0.177 Goal=   None    Shift=    0.000
 RMSDP=6.88D-09 MaxDP=4.27D-07 DE=-1.91D-11 OVMax= 5.76D-07

 SCF Done:  E(RB3LYP) =  -1486.10525834     A.U. after   15 cycles
            NFock= 15  Conv=0.69D-08     -V/T= 2.0057
 KE= 1.477633655383D+03 PE=-6.637416590754D+03 EE= 2.102156712817D+03
 Leave Link  502 at Fri Nov  4 18:33:34 2022, MaxMem=   805306368 cpu:             254.8 elap:              36.4
 (Enter /home/wykgroup/appl/g16/l508.exe)
 QCSCF skips out because SCF is already converged.
 Leave Link  508 at Fri Nov  4 18:33:34 2022, MaxMem=   805306368 cpu:               0.0 elap:               0.0
 (Enter /home/wykgroup/appl/g16/l601.exe)
 Copying SCF densities to generalized density rwf, IOpCl= 0 IROHF=0.

 **********************************************************************

            Population analysis using the SCF Density.

 **********************************************************************

 Orbital symmetries:
       Occupied  (A) (A) (A) (A) (A) (A) (A) (A) (A) (A) (A) (A)
                 (A) (A) (A) (A) (A) (A) (A) (A) (A) (A) (A) (A)
                 (A) (A) (A) (A) (A) (A) (A) (A) (A) (A) (A) (A)
                 (A) (A) (A) (A) (A) (A) (A) (A) (A) (A) (A) (A)
                 (A) (A) (A) (A) (A) (A) (A) (A) (A) (A) (A) (A)
                 (A) (A) (A) (A) (A) (A) (A) (A) (A) (A) (A) (A)
                 (A) (A)
       Virtual   (A) (A) (A) (A) (A) (A) (A) (A) (A) (A) (A) (A)
                 (A) (A) (A) (A) (A) (A) (A) (A) (A) (A) (A) (A)
                 (A) (A) (A) (A) (A) (A) (A) (A) (A) (A) (A) (A)
                 (A) (A) (A) (A) (A) (A) (A) (A) (A) (A) (A) (A)
                 (A) (A) (A) (A) (A) (A) (A) (A) (A) (A) (A) (A)
                 (A) (A) (A) (A) (A) (A) (A) (A) (A) (A) (A) (A)
                 (A) (A) (A) (A) (A) (A) (A) (A) (A) (A) (A) (A)
                 (A) (A) (A) (A) (A) (A) (A) (A) (A) (A) (A) (A)
                 (A) (A) (A) (A) (A) (A) (A) (A) (A) (A) (A) (A)
                 (A) (A) (A) (A) (A) (A) (A) (A) (A) (A) (A) (A)
                 (A) (A) (A) (A) (A) (A) (A) (A) (A) (A) (A) (A)
                 (A) (A) (A) (A) (A) (A) (A) (A) (A) (A) (A) (A)
                 (A) (A) (A) (A) (A) (A) (A) (A) (A) (A) (A) (A)
                 (A) (A) (A) (A) (A) (A) (A) (A) (A) (A) (A) (A)
                 (A) (A) (A) (A) (A) (A) (A) (A) (A) (A) (A) (A)
                 (A) (A) (A) (A) (A) (A) (A) (A) (A) (A) (A) (A)
                 (A) (A) (A) (A) (A) (A) (A) (A) (A) (A) (A) (A)
                 (A) (A) (A) (A) (A) (A) (A) (A) (A) (A) (A) (A)
                 (A) (A) (A) (A) (A) (A) (A) (A) (A) (A) (A) (A)
                 (A) (A) (A) (A) (A) (A) (A) (A)
 The electronic state is 1-A.
 Alpha  occ. eigenvalues --  -88.90260 -88.90112 -19.14872 -14.35536 -14.33086
 Alpha  occ. eigenvalues --  -10.25608 -10.22956 -10.22954 -10.21790 -10.21564
 Alpha  occ. eigenvalues --  -10.21531 -10.21530 -10.21303 -10.19569 -10.19524
 Alpha  occ. eigenvalues --  -10.18599 -10.18045 -10.17757  -7.96487  -7.95879
 Alpha  occ. eigenvalues --   -5.92883  -5.92556  -5.92490  -5.92140  -5.91999
 Alpha  occ. eigenvalues --   -5.91329  -1.04350  -0.97334  -0.94311  -0.85962
 Alpha  occ. eigenvalues --   -0.80946  -0.78366  -0.77657  -0.76994  -0.72584
 Alpha  occ. eigenvalues --   -0.70846  -0.68039  -0.66087  -0.65671  -0.59903
 Alpha  occ. eigenvalues --   -0.58631  -0.56510  -0.54753  -0.50655  -0.48936
 Alpha  occ. eigenvalues --   -0.48279  -0.48059  -0.47400  -0.46693  -0.46239
 Alpha  occ. eigenvalues --   -0.45036  -0.44810  -0.42437  -0.41874  -0.40511
 Alpha  occ. eigenvalues --   -0.40126  -0.39851  -0.39732  -0.39050  -0.38633
 Alpha  occ. eigenvalues --   -0.36937  -0.36698  -0.36167  -0.35465  -0.33452
 Alpha  occ. eigenvalues --   -0.33182  -0.31222  -0.31061  -0.27770  -0.26968
 Alpha  occ. eigenvalues --   -0.25990  -0.22824  -0.21476  -0.20277
 Alpha virt. eigenvalues --   -0.02544   0.00295   0.01437   0.03182   0.04515
 Alpha virt. eigenvalues --    0.07453   0.09849   0.10034   0.11118   0.11630
 Alpha virt. eigenvalues --    0.11869   0.13454   0.13562   0.14749   0.15349
 Alpha virt. eigenvalues --    0.15616   0.16326   0.16475   0.16892   0.16945
 Alpha virt. eigenvalues --    0.17777   0.18262   0.18542   0.19247   0.20358
 Alpha virt. eigenvalues --    0.21253   0.22701   0.23019   0.24774   0.24861
 Alpha virt. eigenvalues --    0.25466   0.26135   0.26477   0.27454   0.30238
 Alpha virt. eigenvalues --    0.31519   0.32776   0.33436   0.35703   0.36588
 Alpha virt. eigenvalues --    0.38924   0.39931   0.41598   0.42522   0.44039
 Alpha virt. eigenvalues --    0.45893   0.48279   0.49532   0.51707   0.52689
 Alpha virt. eigenvalues --    0.53075   0.53179   0.54602   0.54943   0.55023
 Alpha virt. eigenvalues --    0.55461   0.56225   0.56569   0.57468   0.58585
 Alpha virt. eigenvalues --    0.59248   0.59565   0.60628   0.61459   0.63362
 Alpha virt. eigenvalues --    0.63431   0.65460   0.65957   0.66891   0.67849
 Alpha virt. eigenvalues --    0.69750   0.70395   0.70767   0.73174   0.73445
 Alpha virt. eigenvalues --    0.74410   0.76708   0.77191   0.79008   0.79442
 Alpha virt. eigenvalues --    0.80527   0.81650   0.82042   0.82258   0.84179
 Alpha virt. eigenvalues --    0.84727   0.84905   0.85014   0.86448   0.86646
 Alpha virt. eigenvalues --    0.87900   0.88046   0.88885   0.90155   0.90401
 Alpha virt. eigenvalues --    0.90802   0.91421   0.92036   0.92985   0.93379
 Alpha virt. eigenvalues --    0.94072   0.94449   0.95658   0.95781   0.96665
 Alpha virt. eigenvalues --    0.98047   0.98442   0.98928   0.99337   1.00091
 Alpha virt. eigenvalues --    1.02164   1.02503   1.04661   1.05971   1.08084
 Alpha virt. eigenvalues --    1.10159   1.13589   1.15241   1.16166   1.17500
 Alpha virt. eigenvalues --    1.20457   1.24195   1.24416   1.27350   1.29119
 Alpha virt. eigenvalues --    1.33054   1.34132   1.34717   1.37149   1.37244
 Alpha virt. eigenvalues --    1.39295   1.40150   1.40721   1.42063   1.43468
 Alpha virt. eigenvalues --    1.46534   1.48760   1.49367   1.49829   1.52175
 Alpha virt. eigenvalues --    1.55836   1.57736   1.58436   1.60475   1.61123
 Alpha virt. eigenvalues --    1.64845   1.66170   1.69304   1.73191   1.74834
 Alpha virt. eigenvalues --    1.77804   1.80063   1.83110   1.83186   1.84496
 Alpha virt. eigenvalues --    1.87876   1.89354   1.89485   1.91090   1.92488
 Alpha virt. eigenvalues --    1.94651   1.94940   1.96466   1.99167   1.99910
 Alpha virt. eigenvalues --    2.01333   2.04109   2.04452   2.05626   2.07924
 Alpha virt. eigenvalues --    2.09960   2.10882   2.13555   2.14270   2.14599
 Alpha virt. eigenvalues --    2.14750   2.15390   2.17530   2.18994   2.20515
 Alpha virt. eigenvalues --    2.22154   2.23581   2.25572   2.29664   2.30144
 Alpha virt. eigenvalues --    2.31200   2.32190   2.35405   2.37137   2.39253
 Alpha virt. eigenvalues --    2.40252   2.40855   2.43335   2.43945   2.45591
 Alpha virt. eigenvalues --    2.46750   2.48501   2.54861   2.54935   2.56236
 Alpha virt. eigenvalues --    2.61430   2.65595   2.68134   2.68958   2.71205
 Alpha virt. eigenvalues --    2.71636   2.73427   2.74514   2.78113   2.80321
 Alpha virt. eigenvalues --    2.80535   2.86179   2.93319   2.94148   2.98892
 Alpha virt. eigenvalues --    3.04750   3.23221   3.41092   3.91602   3.95448
 Alpha virt. eigenvalues --    4.02239   4.03216   4.07811   4.11974   4.15367
 Alpha virt. eigenvalues --    4.17981   4.19205   4.22877   4.26101   4.34321
 Alpha virt. eigenvalues --    4.37226   4.43229   4.46347   4.51195   4.52078
 Alpha virt. eigenvalues --    4.73456
          Condensed to atoms (all electrons):
               1          2          3          4          5          6
     1  C    5.205960   0.360597  -0.064834   0.008155  -0.000206   0.000001
     2  C    0.360597   4.616574   0.507996  -0.020107   0.004409   0.000610
     3  C   -0.064834   0.507996   5.097177   0.480710  -0.062396  -0.021442
     4  C    0.008155  -0.020107   0.480710   5.304714   0.194035  -0.028716
     5  S   -0.000206   0.004409  -0.062396   0.194035  15.556290   0.156558
     6  N    0.000001   0.000610  -0.021442  -0.028716   0.156558   7.050511
     7  C   -0.000001  -0.000014   0.000542  -0.000710  -0.048969   0.309439
     8  C   -0.000000   0.000000   0.000005  -0.000037  -0.009148  -0.055227
     9  O   -0.000000  -0.000000   0.000000  -0.000006  -0.000520  -0.007927
    10  C    0.000000   0.000000  -0.000001  -0.000028  -0.009131  -0.055293
    11  C    0.000002  -0.000029   0.000488  -0.000650  -0.048983   0.309535
    12  C    0.000461  -0.034363   0.010477   0.399852  -0.042893   0.003212
    13  N   -0.000003  -0.000229   0.005923  -0.085251   0.018137   0.000065
    14  C   -0.000000  -0.000140   0.000094   0.009656  -0.000432  -0.000002
    15  C   -0.000000   0.000002   0.000004  -0.000370  -0.000100  -0.000000
    16  S   -0.000223   0.003112   0.001007   0.007114   0.000286   0.000004
    17  C    0.008173  -0.007089  -0.069379  -0.068030   0.008712  -0.000095
    18  C   -0.064715   0.534242  -0.019303  -0.049746   0.000091   0.000001
    19  H    0.365371  -0.029823   0.003395  -0.000200   0.000006  -0.000000
    20  H    0.362998  -0.027249  -0.002102  -0.000220   0.000004  -0.000001
    21  H    0.365311  -0.029122  -0.002865   0.000106  -0.000015  -0.000017
    22  H   -0.009457  -0.048501   0.357162  -0.051011  -0.011302   0.021595
    23  H    0.000001  -0.000009  -0.000016   0.000062   0.007439  -0.050405
    24  H   -0.000000  -0.000005   0.000540   0.000492   0.000587  -0.036582
    25  H    0.000000  -0.000000  -0.000005   0.000094   0.009574  -0.006233
    26  H    0.000000  -0.000000   0.000001  -0.000001   0.000004   0.004905
    27  H   -0.000000  -0.000000  -0.000005   0.000091   0.009562  -0.006227
    28  H    0.000000  -0.000000   0.000001  -0.000001   0.000005   0.004905
    29  H    0.000000  -0.000008   0.000517   0.000505   0.000607  -0.036611
    30  H   -0.000001  -0.000005  -0.000000   0.000050   0.007445  -0.050422
    31  H    0.000000  -0.000000  -0.000000   0.000008  -0.000000   0.000000
    32  H   -0.000000  -0.000000  -0.000000   0.000007  -0.000000   0.000000
    33  H    0.000000  -0.000000  -0.000000  -0.000035   0.000067   0.000000
    34  H   -0.009639  -0.039653   0.005936   0.000599   0.000032   0.000000
               7          8          9         10         11         12
     1  C   -0.000001  -0.000000  -0.000000   0.000000   0.000002   0.000461
     2  C   -0.000014   0.000000  -0.000000   0.000000  -0.000029  -0.034363
     3  C    0.000542   0.000005   0.000000  -0.000001   0.000488   0.010477
     4  C   -0.000710  -0.000037  -0.000006  -0.000028  -0.000650   0.399852
     5  S   -0.048969  -0.009148  -0.000520  -0.009131  -0.048983  -0.042893
     6  N    0.309439  -0.055227  -0.007927  -0.055293   0.309535   0.003212
     7  C    5.022747   0.354002  -0.045582  -0.016447  -0.061037  -0.000057
     8  C    0.354002   4.906323   0.262022  -0.036761  -0.016469   0.000011
     9  O   -0.045582   0.262022   8.182126   0.262039  -0.045583  -0.000000
    10  C   -0.016447  -0.036761   0.262039   4.906433   0.354008   0.000011
    11  C   -0.061037  -0.016469  -0.045583   0.354008   5.022559  -0.000055
    12  C   -0.000057   0.000011  -0.000000   0.000011  -0.000055   4.706161
    13  N    0.000001  -0.000000  -0.000000  -0.000000   0.000001   0.390154
    14  C   -0.000000   0.000000  -0.000000   0.000000  -0.000000  -0.068862
    15  C   -0.000000   0.000000   0.000000   0.000000  -0.000000   0.005961
    16  S   -0.000000   0.000000  -0.000000   0.000000  -0.000000  -0.078207
    17  C    0.000002  -0.000000   0.000000  -0.000000   0.000002   0.454498
    18  C   -0.000001   0.000000  -0.000000  -0.000000  -0.000001  -0.000692
    19  H   -0.000000  -0.000000   0.000000  -0.000000   0.000000   0.000002
    20  H   -0.000000   0.000000   0.000000  -0.000000   0.000000   0.000043
    21  H    0.000003  -0.000000  -0.000000  -0.000000  -0.000001   0.000014
    22  H   -0.000456   0.000125  -0.000002   0.000125  -0.000429   0.005239
    23  H    0.361955  -0.049058   0.001749  -0.001996  -0.001256  -0.000002
    24  H    0.357830  -0.031556   0.003000  -0.000010   0.005527  -0.000117
    25  H   -0.052426   0.354243  -0.041784  -0.008509  -0.000608  -0.000002
    26  H   -0.034873   0.368655  -0.037119   0.006179  -0.000207  -0.000000
    27  H   -0.000610  -0.008505  -0.041785   0.354201  -0.052437  -0.000002
    28  H   -0.000208   0.006180  -0.037121   0.368633  -0.034855  -0.000000
    29  H    0.005530  -0.000009   0.003001  -0.031573   0.357806  -0.000113
    30  H   -0.001260  -0.001995   0.001751  -0.049072   0.361982  -0.000002
    31  H    0.000000   0.000000  -0.000000  -0.000000  -0.000000  -0.000062
    32  H   -0.000000  -0.000000  -0.000000   0.000000   0.000000  -0.000063
    33  H    0.000000   0.000000  -0.000000   0.000000   0.000000   0.000194
    34  H   -0.000000   0.000000   0.000000   0.000000  -0.000000   0.003576
              13         14         15         16         17         18
     1  C   -0.000003  -0.000000  -0.000000  -0.000223   0.008173  -0.064715
     2  C   -0.000229  -0.000140   0.000002   0.003112  -0.007089   0.534242
     3  C    0.005923   0.000094   0.000004   0.001007  -0.069379  -0.019303
     4  C   -0.085251   0.009656  -0.000370   0.007114  -0.068030  -0.049746
     5  S    0.018137  -0.000432  -0.000100   0.000286   0.008712   0.000091
     6  N    0.000065  -0.000002  -0.000000   0.000004  -0.000095   0.000001
     7  C    0.000001  -0.000000  -0.000000  -0.000000   0.000002  -0.000001
     8  C   -0.000000   0.000000   0.000000   0.000000  -0.000000   0.000000
     9  O   -0.000000  -0.000000   0.000000  -0.000000   0.000000  -0.000000
    10  C   -0.000000   0.000000   0.000000   0.000000  -0.000000  -0.000000
    11  C    0.000001  -0.000000  -0.000000  -0.000000   0.000002  -0.000001
    12  C    0.390154  -0.068862   0.005961  -0.078207   0.454498  -0.000692
    13  N    6.818534   0.537748  -0.056493  -0.090794  -0.092414   0.011154
    14  C    0.537748   4.904492   0.348468   0.268708  -0.041700   0.003022
    15  C   -0.056493   0.348468   5.193565  -0.073486   0.002564  -0.000076
    16  S   -0.090794   0.268708  -0.073486  15.531508   0.297020  -0.056240
    17  C   -0.092414  -0.041700   0.002564   0.297020   5.243131   0.418346
    18  C    0.011154   0.003022  -0.000076  -0.056240   0.418346   5.109727
    19  H   -0.000000  -0.000000  -0.000000  -0.000007   0.000174  -0.003172
    20  H   -0.000000  -0.000000   0.000000   0.000007  -0.000219  -0.001985
    21  H   -0.000000   0.000000   0.000000   0.000005  -0.000198   0.003126
    22  H   -0.000088   0.000004  -0.000000   0.000029   0.000115   0.006509
    23  H    0.000000  -0.000000  -0.000000   0.000000  -0.000000   0.000000
    24  H   -0.000002  -0.000000  -0.000000  -0.000000   0.000002  -0.000001
    25  H    0.000001   0.000000  -0.000000   0.000000  -0.000000   0.000000
    26  H    0.000000  -0.000000  -0.000000   0.000000   0.000000  -0.000000
    27  H    0.000001   0.000000  -0.000000   0.000000  -0.000000   0.000000
    28  H    0.000000  -0.000000  -0.000000   0.000000   0.000000  -0.000000
    29  H   -0.000002  -0.000000  -0.000000  -0.000000   0.000002  -0.000001
    30  H    0.000000  -0.000000  -0.000000   0.000000  -0.000000   0.000000
    31  H    0.000364  -0.029984   0.366649   0.001494   0.000066  -0.000001
    32  H    0.000366  -0.030003   0.366621   0.001502   0.000067  -0.000001
    33  H    0.004007  -0.027825   0.362908   0.004984   0.000028   0.000001
    34  H   -0.000139  -0.000015   0.000000  -0.003229  -0.046732   0.355974
              19         20         21         22         23         24
     1  C    0.365371   0.362998   0.365311  -0.009457   0.000001  -0.000000
     2  C   -0.029823  -0.027249  -0.029122  -0.048501  -0.000009  -0.000005
     3  C    0.003395  -0.002102  -0.002865   0.357162  -0.000016   0.000540
     4  C   -0.000200  -0.000220   0.000106  -0.051011   0.000062   0.000492
     5  S    0.000006   0.000004  -0.000015  -0.011302   0.007439   0.000587
     6  N   -0.000000  -0.000001  -0.000017   0.021595  -0.050405  -0.036582
     7  C   -0.000000  -0.000000   0.000003  -0.000456   0.361955   0.357830
     8  C   -0.000000   0.000000  -0.000000   0.000125  -0.049058  -0.031556
     9  O    0.000000   0.000000  -0.000000  -0.000002   0.001749   0.003000
    10  C   -0.000000  -0.000000  -0.000000   0.000125  -0.001996  -0.000010
    11  C    0.000000   0.000000  -0.000001  -0.000429  -0.001256   0.005527
    12  C    0.000002   0.000043   0.000014   0.005239  -0.000002  -0.000117
    13  N   -0.000000  -0.000000  -0.000000  -0.000088   0.000000  -0.000002
    14  C   -0.000000  -0.000000   0.000000   0.000004  -0.000000  -0.000000
    15  C   -0.000000   0.000000   0.000000  -0.000000  -0.000000  -0.000000
    16  S   -0.000007   0.000007   0.000005   0.000029   0.000000  -0.000000
    17  C    0.000174  -0.000219  -0.000198   0.000115  -0.000000   0.000002
    18  C   -0.003172  -0.001985   0.003126   0.006509   0.000000  -0.000001
    19  H    0.558083  -0.029421  -0.026568   0.000039   0.000000  -0.000000
    20  H   -0.029421   0.559515  -0.030181   0.000707   0.000000   0.000000
    21  H   -0.026568  -0.030181   0.556280   0.005109  -0.000001   0.000000
    22  H    0.000039   0.000707   0.005109   0.579642  -0.000130  -0.000349
    23  H    0.000000   0.000000  -0.000001  -0.000130   0.594233  -0.025287
    24  H   -0.000000   0.000000   0.000000  -0.000349  -0.025287   0.560189
    25  H    0.000000   0.000000  -0.000000   0.000001   0.006161   0.000347
    26  H    0.000000   0.000000   0.000000  -0.000002  -0.002243   0.001364
    27  H   -0.000000  -0.000000   0.000000   0.000000   0.000269   0.000127
    28  H    0.000000   0.000000   0.000000  -0.000002   0.000048   0.000021
    29  H    0.000000  -0.000000   0.000000  -0.000345   0.000094  -0.000142
    30  H    0.000000  -0.000000   0.000001  -0.000141   0.006421   0.000094
    31  H    0.000000  -0.000000   0.000000   0.000000  -0.000000   0.000000
    32  H   -0.000000   0.000000  -0.000000   0.000000   0.000000  -0.000000
    33  H    0.000000  -0.000000  -0.000000  -0.000000   0.000000   0.000000
    34  H    0.005426   0.000547   0.000043  -0.000163  -0.000000  -0.000000
              25         26         27         28         29         30
     1  C    0.000000   0.000000  -0.000000   0.000000   0.000000  -0.000001
     2  C   -0.000000  -0.000000  -0.000000  -0.000000  -0.000008  -0.000005
     3  C   -0.000005   0.000001  -0.000005   0.000001   0.000517  -0.000000
     4  C    0.000094  -0.000001   0.000091  -0.000001   0.000505   0.000050
     5  S    0.009574   0.000004   0.009562   0.000005   0.000607   0.007445
     6  N   -0.006233   0.004905  -0.006227   0.004905  -0.036611  -0.050422
     7  C   -0.052426  -0.034873  -0.000610  -0.000208   0.005530  -0.001260
     8  C    0.354243   0.368655  -0.008505   0.006180  -0.000009  -0.001995
     9  O   -0.041784  -0.037119  -0.041785  -0.037121   0.003001   0.001751
    10  C   -0.008509   0.006179   0.354201   0.368633  -0.031573  -0.049072
    11  C   -0.000608  -0.000207  -0.052437  -0.034855   0.357806   0.361982
    12  C   -0.000002  -0.000000  -0.000002  -0.000000  -0.000113  -0.000002
    13  N    0.000001   0.000000   0.000001   0.000000  -0.000002   0.000000
    14  C    0.000000  -0.000000   0.000000  -0.000000  -0.000000  -0.000000
    15  C   -0.000000  -0.000000  -0.000000  -0.000000  -0.000000  -0.000000
    16  S    0.000000   0.000000   0.000000   0.000000  -0.000000   0.000000
    17  C   -0.000000   0.000000  -0.000000   0.000000   0.000002  -0.000000
    18  C    0.000000  -0.000000   0.000000  -0.000000  -0.000001   0.000000
    19  H    0.000000   0.000000  -0.000000   0.000000   0.000000   0.000000
    20  H    0.000000   0.000000  -0.000000   0.000000  -0.000000  -0.000000
    21  H   -0.000000   0.000000   0.000000   0.000000   0.000000   0.000001
    22  H    0.000001  -0.000002   0.000000  -0.000002  -0.000345  -0.000141
    23  H    0.006161  -0.002243   0.000269   0.000048   0.000094   0.006421
    24  H    0.000347   0.001364   0.000127   0.000021  -0.000142   0.000094
    25  H    0.620601  -0.034348   0.012466  -0.000098   0.000127   0.000270
    26  H   -0.034348   0.581506  -0.000098  -0.000135   0.000021   0.000048
    27  H    0.012466  -0.000098   0.620701  -0.034351   0.000352   0.006162
    28  H   -0.000098  -0.000135  -0.034351   0.581522   0.001363  -0.002241
    29  H    0.000127   0.000021   0.000352   0.001363   0.560380  -0.025275
    30  H    0.000270   0.000048   0.006162  -0.002241  -0.025275   0.594134
    31  H   -0.000000   0.000000   0.000000   0.000000  -0.000000   0.000000
    32  H    0.000000   0.000000  -0.000000   0.000000   0.000000  -0.000000
    33  H    0.000000   0.000000   0.000000   0.000000   0.000000   0.000000
    34  H    0.000000  -0.000000   0.000000  -0.000000  -0.000000  -0.000000
              31         32         33         34
     1  C    0.000000  -0.000000   0.000000  -0.009639
     2  C   -0.000000  -0.000000  -0.000000  -0.039653
     3  C   -0.000000  -0.000000  -0.000000   0.005936
     4  C    0.000008   0.000007  -0.000035   0.000599
     5  S   -0.000000  -0.000000   0.000067   0.000032
     6  N    0.000000   0.000000   0.000000   0.000000
     7  C    0.000000  -0.000000   0.000000  -0.000000
     8  C    0.000000  -0.000000   0.000000   0.000000
     9  O   -0.000000  -0.000000  -0.000000   0.000000
    10  C   -0.000000   0.000000   0.000000   0.000000
    11  C   -0.000000   0.000000   0.000000  -0.000000
    12  C   -0.000062  -0.000063   0.000194   0.003576
    13  N    0.000364   0.000366   0.004007  -0.000139
    14  C   -0.029984  -0.030003  -0.027825  -0.000015
    15  C    0.366649   0.366621   0.362908   0.000000
    16  S    0.001494   0.001502   0.004984  -0.003229
    17  C    0.000066   0.000067   0.000028  -0.046732
    18  C   -0.000001  -0.000001   0.000001   0.355974
    19  H    0.000000  -0.000000   0.000000   0.005426
    20  H   -0.000000   0.000000  -0.000000   0.000547
    21  H    0.000000  -0.000000  -0.000000   0.000043
    22  H    0.000000   0.000000  -0.000000  -0.000163
    23  H   -0.000000   0.000000   0.000000  -0.000000
    24  H    0.000000  -0.000000   0.000000  -0.000000
    25  H   -0.000000   0.000000   0.000000   0.000000
    26  H    0.000000   0.000000   0.000000  -0.000000
    27  H    0.000000  -0.000000   0.000000   0.000000
    28  H    0.000000   0.000000   0.000000  -0.000000
    29  H   -0.000000   0.000000   0.000000  -0.000000
    30  H    0.000000  -0.000000   0.000000  -0.000000
    31  H    0.537734  -0.031844  -0.022181   0.000000
    32  H   -0.031844   0.537782  -0.022174   0.000000
    33  H   -0.022181  -0.022174   0.508026   0.000000
    34  H    0.000000   0.000000   0.000000   0.597624
 Mulliken charges:
               1
     1  C   -0.527951
     2  C    0.208804
     3  C   -0.229627
     4  C   -0.101129
     5  S    0.260244
     6  N   -0.506142
     7  C   -0.149401
     8  C   -0.042802
     9  O   -0.458260
    10  C   -0.042810
    11  C   -0.149307
    12  C    0.245629
    13  N   -0.461040
    14  C    0.126771
    15  C   -0.516219
    16  S    0.185407
    17  C   -0.107048
    18  C   -0.246260
    19  H    0.156696
    20  H    0.167558
    21  H    0.158970
    22  H    0.145978
    23  H    0.151971
    24  H    0.163929
    25  H    0.140130
    26  H    0.146346
    27  H    0.140086
    28  H    0.146335
    29  H    0.163774
    30  H    0.152057
    31  H    0.177758
    32  H    0.177740
    33  H    0.192000
    34  H    0.129813
 Sum of Mulliken charges =  -0.00000
 Mulliken charges with hydrogens summed into heavy atoms:
               1
     1  C   -0.044726
     2  C    0.208804
     3  C   -0.083649
     4  C   -0.101129
     5  S    0.260244
     6  N   -0.506142
     7  C    0.166499
     8  C    0.243674
     9  O   -0.458260
    10  C    0.243611
    11  C    0.166524
    12  C    0.245629
    13  N   -0.461040
    14  C    0.126771
    15  C    0.031280
    16  S    0.185407
    17  C   -0.107048
    18  C   -0.116447
 Electronic spatial extent (au):  <R**2>=           6690.7625
 Charge=             -0.0000 electrons
 Dipole moment (field-independent basis, Debye):
[...]
     9  O   -0.000000   0.000000   0.000000  -0.000004  -0.000452  -0.008140
    10  C   -0.000000   0.000000   0.000003  -0.000048  -0.007368  -0.052375
    11  C   -0.000000  -0.000010   0.000491  -0.000490  -0.046235   0.306278
    12  C    0.000365  -0.031354   0.004249   0.409112  -0.040079   0.002672
    13  N   -0.000003  -0.000158   0.005295  -0.079840   0.018550   0.000064
    14  C    0.000000  -0.000124   0.000048   0.009416  -0.000529  -0.000002
    15  C   -0.000000   0.000001   0.000004  -0.000308  -0.000090  -0.000000
    16  S   -0.000198   0.002864   0.000889   0.006709   0.000252   0.000003
    17  C    0.008107  -0.014147  -0.063918  -0.070162   0.007804  -0.000068
    18  C   -0.052973   0.546446  -0.021595  -0.044605   0.000106   0.000003
    19  H    0.364902  -0.030041   0.003776  -0.000161   0.000004  -0.000000
    20  H    0.363516  -0.027015  -0.002494  -0.000047  -0.000005  -0.000002
    21  H    0.363520  -0.027017  -0.002494  -0.000047  -0.000005  -0.000002
    22  H   -0.007337  -0.049023   0.356164  -0.047506  -0.009725   0.020739
    23  H    0.000000  -0.000006  -0.000020   0.000057   0.006859  -0.049104
    24  H   -0.000000  -0.000002   0.000366   0.000367   0.000695  -0.034174
    25  H    0.000000  -0.000000  -0.000003   0.000063   0.007893  -0.005215
    26  H    0.000000  -0.000000   0.000001  -0.000000  -0.000027   0.004515
    27  H    0.000000  -0.000000  -0.000003   0.000063   0.007893  -0.005215
    28  H    0.000000  -0.000000   0.000001  -0.000000  -0.000027   0.004515
    29  H   -0.000000  -0.000002   0.000366   0.000367   0.000695  -0.034174
    30  H    0.000000  -0.000006  -0.000020   0.000057   0.006859  -0.049104
    31  H    0.000000  -0.000000  -0.000000   0.000006  -0.000000   0.000000
    32  H    0.000000  -0.000000  -0.000000   0.000006  -0.000000   0.000000
    33  H    0.000000  -0.000000  -0.000000  -0.000032   0.000066   0.000000
    34  H   -0.009944  -0.034845   0.005732   0.000503   0.000026   0.000000
               7          8          9         10         11         12
     1  C   -0.000000  -0.000000  -0.000000  -0.000000  -0.000000   0.000365
     2  C   -0.000010   0.000000   0.000000   0.000000  -0.000010  -0.031354
     3  C    0.000492   0.000003   0.000000   0.000003   0.000491   0.004249
     4  C   -0.000490  -0.000048  -0.000004  -0.000048  -0.000490   0.409112
     5  S   -0.046235  -0.007368  -0.000452  -0.007368  -0.046235  -0.040079
     6  N    0.306277  -0.052375  -0.008140  -0.052375   0.306278   0.002672
     7  C    5.017259   0.350144  -0.045049  -0.014981  -0.058343  -0.000041
     8  C    0.350144   4.903092   0.259168  -0.034494  -0.014981   0.000007
     9  O   -0.045049   0.259168   8.188420   0.259168  -0.045049  -0.000000
    10  C   -0.014981  -0.034494   0.259168   4.903092   0.350144   0.000007
    11  C   -0.058343  -0.014981  -0.045049   0.350144   5.017259  -0.000041
    12  C   -0.000041   0.000007  -0.000000   0.000007  -0.000041   4.706019
    13  N    0.000001  -0.000000  -0.000000  -0.000000   0.000001   0.377291
    14  C   -0.000000   0.000000  -0.000000   0.000000  -0.000000  -0.061645
    15  C   -0.000000   0.000000   0.000000   0.000000  -0.000000   0.005900
    16  S   -0.000000   0.000000  -0.000000   0.000000  -0.000000  -0.080768
    17  C    0.000001  -0.000000   0.000000  -0.000000   0.000001   0.462132
    18  C   -0.000001   0.000000  -0.000000   0.000000  -0.000001  -0.004160
    19  H   -0.000000  -0.000000   0.000000  -0.000000  -0.000000  -0.000004
    20  H   -0.000000  -0.000000   0.000000  -0.000000   0.000001   0.000030
    21  H    0.000001  -0.000000   0.000000  -0.000000  -0.000000   0.000030
    22  H   -0.000205   0.000093  -0.000001   0.000093  -0.000205   0.005048
    23  H    0.362561  -0.049780   0.001734  -0.001892  -0.000737  -0.000001
    24  H    0.356614  -0.029940   0.002937   0.000016   0.005016  -0.000083
    25  H   -0.051066   0.353204  -0.039965  -0.008242  -0.000276  -0.000001
    26  H   -0.033622   0.367914  -0.035931   0.005830  -0.000174  -0.000000
    27  H   -0.000276  -0.008242  -0.039965   0.353204  -0.051066  -0.000001
    28  H   -0.000174   0.005830  -0.035931   0.367914  -0.033622  -0.000000
    29  H    0.005016   0.000016   0.002937  -0.029940   0.356614  -0.000083
    30  H   -0.000737  -0.001892   0.001734  -0.049780   0.362561  -0.000001
    31  H    0.000000   0.000000  -0.000000  -0.000000  -0.000000  -0.000074
    32  H   -0.000000  -0.000000  -0.000000   0.000000   0.000000  -0.000074
    33  H    0.000000   0.000000  -0.000000   0.000000   0.000000   0.000158
    34  H   -0.000000   0.000000   0.000000   0.000000  -0.000000   0.003151
              13         14         15         16         17         18
     1  C   -0.000003   0.000000  -0.000000  -0.000198   0.008107  -0.052973
     2  C   -0.000158  -0.000124   0.000001   0.002864  -0.014147   0.546446
     3  C    0.005295   0.000048   0.000004   0.000889  -0.063918  -0.021595
     4  C   -0.079840   0.009416  -0.000308   0.006709  -0.070162  -0.044605
     5  S    0.018550  -0.000529  -0.000090   0.000252   0.007804   0.000106
     6  N    0.000064  -0.000002  -0.000000   0.000003  -0.000068   0.000003
     7  C    0.000001  -0.000000  -0.000000  -0.000000   0.000001  -0.000001
     8  C   -0.000000   0.000000   0.000000   0.000000  -0.000000   0.000000
     9  O   -0.000000  -0.000000   0.000000  -0.000000   0.000000  -0.000000
    10  C   -0.000000   0.000000   0.000000   0.000000  -0.000000   0.000000
    11  C    0.000001  -0.000000  -0.000000  -0.000000   0.000001  -0.000001
    12  C    0.377291  -0.061645   0.005900  -0.080768   0.462132  -0.004160
    13  N    6.837132   0.513379  -0.055231  -0.084229  -0.085338   0.009417
    14  C    0.513379   4.922275   0.347924   0.268682  -0.040119   0.002704
    15  C   -0.055231   0.347924   5.188307  -0.068202   0.002273  -0.000060
    16  S   -0.084229   0.268682  -0.068202  15.514164   0.292489  -0.051428
    17  C   -0.085338  -0.040119   0.002273   0.292489   5.237625   0.418513
    18  C    0.009417   0.002704  -0.000060  -0.051428   0.418513   5.086926
    19  H   -0.000000  -0.000000  -0.000000  -0.000008   0.000201  -0.002971
    20  H   -0.000000  -0.000000   0.000000   0.000005  -0.000202   0.000493
    21  H   -0.000000  -0.000000   0.000000   0.000005  -0.000202   0.000499
    22  H   -0.000087   0.000004  -0.000000   0.000027   0.000216   0.005637
    23  H    0.000000  -0.000000  -0.000000   0.000000  -0.000000   0.000000
    24  H   -0.000002  -0.000000  -0.000000  -0.000000   0.000001  -0.000000
    25  H    0.000001   0.000000  -0.000000   0.000000  -0.000000   0.000000
    26  H    0.000000  -0.000000  -0.000000  -0.000000   0.000000  -0.000000
    27  H    0.000001   0.000000  -0.000000   0.000000  -0.000000   0.000000
    28  H    0.000000  -0.000000  -0.000000  -0.000000   0.000000  -0.000000
    29  H   -0.000002  -0.000000  -0.000000  -0.000000   0.000001  -0.000000
    30  H    0.000000  -0.000000  -0.000000   0.000000  -0.000000   0.000000
    31  H    0.000448  -0.028531   0.365902   0.001319   0.000052  -0.000001
    32  H    0.000428  -0.028549   0.365926   0.001310   0.000052  -0.000001
    33  H    0.004079  -0.028353   0.363409   0.004532   0.000028   0.000001
    34  H   -0.000112  -0.000016   0.000000  -0.002757  -0.045849   0.353798
              19         20         21         22         23         24
     1  C    0.364902   0.363516   0.363520  -0.007337   0.000000  -0.000000
     2  C   -0.030041  -0.027015  -0.027017  -0.049023  -0.000006  -0.000002
     3  C    0.003776  -0.002494  -0.002494   0.356164  -0.000020   0.000366
     4  C   -0.000161  -0.000047  -0.000047  -0.047506   0.000057   0.000367
     5  S    0.000004  -0.000005  -0.000005  -0.009725   0.006859   0.000695
     6  N   -0.000000  -0.000002  -0.000002   0.020739  -0.049104  -0.034174
     7  C   -0.000000  -0.000000   0.000001  -0.000205   0.362561   0.356614
     8  C   -0.000000  -0.000000  -0.000000   0.000093  -0.049780  -0.029940
     9  O    0.000000   0.000000   0.000000  -0.000001   0.001734   0.002937
    10  C   -0.000000  -0.000000  -0.000000   0.000093  -0.001892   0.000016
    11  C   -0.000000   0.000001  -0.000000  -0.000205  -0.000737   0.005016
    12  C   -0.000004   0.000030   0.000030   0.005048  -0.000001  -0.000083
    13  N   -0.000000  -0.000000  -0.000000  -0.000087   0.000000  -0.000002
    14  C   -0.000000  -0.000000  -0.000000   0.000004  -0.000000  -0.000000
    15  C   -0.000000   0.000000   0.000000  -0.000000  -0.000000  -0.000000
    16  S   -0.000008   0.000005   0.000005   0.000027   0.000000  -0.000000
    17  C    0.000201  -0.000202  -0.000202   0.000216  -0.000000   0.000001
    18  C   -0.002971   0.000493   0.000499   0.005637   0.000000  -0.000000
    19  H    0.558521  -0.027781  -0.027777   0.000015   0.000000   0.000000
    20  H   -0.027781   0.560761  -0.033161   0.001986   0.000000   0.000000
    21  H   -0.027777  -0.033161   0.560757   0.001991  -0.000000  -0.000000
    22  H    0.000015   0.001986   0.001991   0.576536  -0.000146  -0.000249
    23  H    0.000000   0.000000  -0.000000  -0.000146   0.594336  -0.026835
    24  H    0.000000   0.000000  -0.000000  -0.000249  -0.026835   0.559236
    25  H    0.000000   0.000000  -0.000000   0.000000   0.006161   0.000292
    26  H    0.000000   0.000000   0.000000  -0.000002  -0.002678   0.001321
    27  H    0.000000  -0.000000   0.000000   0.000000   0.000257   0.000103
    28  H    0.000000   0.000000   0.000000  -0.000002   0.000038   0.000018
    29  H    0.000000  -0.000000   0.000000  -0.000249   0.000051  -0.000117
    30  H    0.000000  -0.000000   0.000000  -0.000146   0.005807   0.000051
    31  H    0.000000  -0.000000   0.000000   0.000000  -0.000000   0.000000
    32  H    0.000000   0.000000  -0.000000   0.000000   0.000000  -0.000000
    33  H    0.000000  -0.000000  -0.000000  -0.000000   0.000000   0.000000
    34  H    0.006687   0.000124   0.000124  -0.000151  -0.000000  -0.000000
              25         26         27         28         29         30
     1  C    0.000000   0.000000   0.000000   0.000000  -0.000000   0.000000
     2  C   -0.000000  -0.000000  -0.000000  -0.000000  -0.000002  -0.000006
     3  C   -0.000003   0.000001  -0.000003   0.000001   0.000366  -0.000020
     4  C    0.000063  -0.000000   0.000063  -0.000000   0.000367   0.000057
     5  S    0.007893  -0.000027   0.007893  -0.000027   0.000695   0.006859
     6  N   -0.005215   0.004515  -0.005215   0.004515  -0.034174  -0.049104
     7  C   -0.051066  -0.033622  -0.000276  -0.000174   0.005016  -0.000737
     8  C    0.353204   0.367914  -0.008242   0.005830   0.000016  -0.001892
     9  O   -0.039965  -0.035931  -0.039965  -0.035931   0.002937   0.001734
    10  C   -0.008242   0.005830   0.353204   0.367914  -0.029940  -0.049780
    11  C   -0.000276  -0.000174  -0.051066  -0.033622   0.356614   0.362561
    12  C   -0.000001  -0.000000  -0.000001  -0.000000  -0.000083  -0.000001
    13  N    0.000001   0.000000   0.000001   0.000000  -0.000002   0.000000
    14  C    0.000000  -0.000000   0.000000  -0.000000  -0.000000  -0.000000
    15  C   -0.000000  -0.000000  -0.000000  -0.000000  -0.000000  -0.000000
    16  S    0.000000  -0.000000   0.000000  -0.000000  -0.000000   0.000000
    17  C   -0.000000   0.000000  -0.000000   0.000000   0.000001  -0.000000
    18  C    0.000000  -0.000000   0.000000  -0.000000  -0.000000   0.000000
    19  H    0.000000   0.000000   0.000000   0.000000   0.000000   0.000000
    20  H    0.000000   0.000000  -0.000000   0.000000  -0.000000  -0.000000
    21  H   -0.000000   0.000000   0.000000   0.000000   0.000000   0.000000
    22  H    0.000000  -0.000002   0.000000  -0.000002  -0.000249  -0.000146
    23  H    0.006161  -0.002678   0.000257   0.000038   0.000051   0.005807
    24  H    0.000292   0.001321   0.000103   0.000018  -0.000117   0.000051
    25  H    0.622460  -0.036472   0.011483  -0.000109   0.000103   0.000257
    26  H   -0.036472   0.581972  -0.000109  -0.000124   0.000018   0.000038
    27  H    0.011483  -0.000109   0.622460  -0.036472   0.000292   0.006161
    28  H   -0.000109  -0.000124  -0.036472   0.581972   0.001321  -0.002678
    29  H    0.000103   0.000018   0.000292   0.001321   0.559237  -0.026835
    30  H    0.000257   0.000038   0.006161  -0.002678  -0.026835   0.594335
    31  H   -0.000000   0.000000   0.000000   0.000000  -0.000000   0.000000
    32  H    0.000000   0.000000  -0.000000   0.000000   0.000000  -0.000000
    33  H    0.000000   0.000000   0.000000   0.000000   0.000000   0.000000
    34  H    0.000000  -0.000000   0.000000  -0.000000  -0.000000  -0.000000
              31         32         33         34
     1  C    0.000000   0.000000   0.000000  -0.009944
     2  C   -0.000000  -0.000000  -0.000000  -0.034845
     3  C   -0.000000  -0.000000  -0.000000   0.005732
     4  C    0.000006   0.000006  -0.000032   0.000503
     5  S   -0.000000  -0.000000   0.000066   0.000026
     6  N    0.000000   0.000000   0.000000   0.000000
     7  C    0.000000  -0.000000   0.000000  -0.000000
     8  C    0.000000  -0.000000   0.000000   0.000000
     9  O   -0.000000  -0.000000  -0.000000   0.000000
    10  C   -0.000000   0.000000   0.000000   0.000000
    11  C   -0.000000   0.000000   0.000000  -0.000000
    12  C   -0.000074  -0.000074   0.000158   0.003151
    13  N    0.000448   0.000428   0.004079  -0.000112
    14  C   -0.028531  -0.028549  -0.028353  -0.000016
    15  C    0.365902   0.365926   0.363409   0.000000
    16  S    0.001319   0.001310   0.004532  -0.002757
    17  C    0.000052   0.000052   0.000028  -0.045849
    18  C   -0.000001  -0.000001   0.000001   0.353798
    19  H    0.000000   0.000000   0.000000   0.006687
    20  H   -0.000000   0.000000  -0.000000   0.000124
    21  H    0.000000  -0.000000  -0.000000   0.000124
    22  H    0.000000   0.000000  -0.000000  -0.000151
    23  H   -0.000000   0.000000   0.000000  -0.000000
    24  H    0.000000  -0.000000   0.000000  -0.000000
    25  H   -0.000000   0.000000   0.000000   0.000000
    26  H    0.000000   0.000000   0.000000  -0.000000
    27  H    0.000000  -0.000000   0.000000   0.000000
    28  H    0.000000   0.000000   0.000000  -0.000000
    29  H   -0.000000   0.000000   0.000000  -0.000000
    30  H    0.000000  -0.000000   0.000000  -0.000000
    31  H    0.538198  -0.032062  -0.022788   0.000000
    32  H   -0.032062   0.538161  -0.022790   0.000000
    33  H   -0.022788  -0.022790   0.508625   0.000000
    34  H    0.000000   0.000000   0.000000   0.589490
 Mulliken charges:
               1
     1  C   -0.529752
     2  C    0.205895
     3  C   -0.228121
     4  C   -0.104917
     5  S    0.265924
     6  N   -0.515643
     7  C   -0.147135
     8  C   -0.040350
     9  O   -0.465611
    10  C   -0.040350
    11  C   -0.147135
    12  C    0.242239
    13  N   -0.461087
    14  C    0.123436
    15  C   -0.515756
    16  S    0.194341
    17  C   -0.109491
    18  C   -0.246747
    19  H    0.154637
    20  H    0.163791
    21  H    0.163779
    22  H    0.146484
    23  H    0.153338
    24  H    0.164369
    25  H    0.139432
    26  H    0.147532
    27  H    0.139432
    28  H    0.147532
    29  H    0.164368
    30  H    0.153338
    31  H    0.177532
    32  H    0.177593
    33  H    0.193065
    34  H    0.134040
 Sum of Mulliken charges =  -0.00000
 Mulliken charges with hydrogens summed into heavy atoms:
               1
     1  C   -0.047546
     2  C    0.205895
     3  C   -0.081637
     4  C   -0.104917
     5  S    0.265924
     6  N   -0.515643
     7  C    0.170571
     8  C    0.246613
     9  O   -0.465611
    10  C    0.246613
    11  C    0.170571
    12  C    0.242239
    13  N   -0.461087
    14  C    0.123436
    15  C    0.032434
    16  S    0.194341
    17  C   -0.109491
    18  C   -0.112708
 Electronic spatial extent (au):  <R**2>=           6854.4428
 Charge=              0.0000 electrons
 Dipole moment (field-independent basis, Debye):
    X=             -0.7440    Y=              0.9394    Z=              0.0004  Tot=              1.1983
 Quadrupole moment (field-independent basis, Debye-Ang):
   XX=           -118.1434   YY=           -110.7144   ZZ=           -117.3588
   XY=              6.2367   XZ=             -0.0011   YZ=             -0.0008
 Traceless Quadrupole moment (field-independent basis, Debye-Ang):
   XX=             -2.7379   YY=              4.6911   ZZ=             -1.9533
   XY=              6.2367   XZ=             -0.0011   YZ=             -0.0008
 Octapole moment (field-independent basis, Debye-Ang**2):
  XXX=            -56.9089  YYY=             -3.9817  ZZZ=              0.0049  XYY=            -24.3080
  XXY=            -10.2754  XXZ=              0.0009  XZZ=             34.6949  YZZ=             -6.0799
  YYZ=              0.0033  XYZ=              0.0037
 Hexadecapole moment (field-independent basis, Debye-Ang**3):
 XXXX=          -6927.3588 YYYY=          -2100.2162 ZZZZ=           -400.6136 XXXY=            167.3230
 XXXZ=              0.0272 YYYX=             42.6535 YYYZ=              0.0012 ZZZX=             -0.0193
 ZZZY=             -0.0094 XXYY=          -1326.4199 XXZZ=          -1077.1862 YYZZ=           -442.1213
 XXYZ=             -0.0188 YYXZ=             -0.0153 ZZXY=              1.7903
 N-N= 1.553754822120D+03 E-N=-6.601369305351D+03  KE= 1.476909316914D+03
 No NMR shielding tensors so no spin-rotation constants.
 Leave Link  601 at Fri Nov  4 18:44:23 2022, MaxMem=   805306368 cpu:               0.9 elap:               0.2
 (Enter /home/wykgroup/appl/g16/l9999.exe)
 1\1\GINC-NODE103\FOpt\RB3LYP\6-31G(d)\C13H16N2O1S2\WYKGROUP\04-Nov-202
 2\0\\#p b3lyp/6-31g(d) opt SCF=XQC\\Gaussian input prepared by ASE\\0,
 1\C,-1.6866967143,-3.439793284,1.6242742012\C,-1.8115925227,-2.0777030
 21,0.9797395938\C,-0.6443925072,-1.3600575655,0.6423244968\C,-0.704818
 2598,-0.1056202479,0.0487430782\S,0.7257383473,0.8695990546,-0.4100486
 107\N,2.0106775658,-0.1836615559,0.0905384683\C,2.8502284513,0.3421716
 171,1.1850081605\C,3.8970773477,1.3362145104,0.6788140333\O,4.69402713
 94,0.7551240407,-0.3487465843\C,3.9009147027,0.3281399969,-1.452075197
 4\C,2.8541782162,-0.6951437697,-1.0076899972\C,-1.968587072,0.45592692
 29,-0.2191920413\N,-2.1744563952,1.6945429598,-0.8055446187\C,-3.43393
 43935,1.9576003906,-0.9322536123\C,-3.9808834076,3.2166369841,-1.52916
 93779\S,-4.5343332794,0.6851037381,-0.3320206106\C,-3.1310551606,-0.26
 6629223,0.1205832504\C,-3.0674445864,-1.5280715829,0.7174934499\H,-2.6
 685922469,-3.877132537,1.8300202228\H,-1.137956873,-4.1373424071,0.979
 3167403\H,-1.1397849998,-3.383113029,2.5736564917\H,0.33283465,-1.7866
 525434,0.845914539\H,3.3652318273,-0.5167300633,1.637581491\H,2.205755
 9881,0.7946341172,1.9433755847\H,3.3992915183,2.2475103625,0.305019683
 8\H,4.5879787128,1.6236823197,1.478120866\H,3.403299038,1.1944280996,-
 1.9210063616\H,4.5945656904,-0.1065331568,-2.1792487054\H,2.2125706982
 ,-0.9953783835,-1.840388535\H,3.3693138723,-1.5890828926,-0.6291783314
 \H,-4.6043376031,3.7612587231,-0.8104698325\H,-4.598556875,3.005364516
 2,-2.4099160728\H,-3.1454546486,3.8540584978,-1.8274616624\H,-3.970808
 2205,-2.073352589,0.9738867995\\Version=ES64L-G16RevB.01\State=1-A\HF=
 -1486.110387\RMSD=5.048e-09\RMSF=8.907e-06\Dipole=-0.3049926,-0.325258
 9,0.153154\Quadrupole=-2.3413935,2.8281294,-0.486736,-4.014153,1.89843
 76,-2.0328758\PG=C01 [X(C13H16N2O1S2)]\\@


 A SOLDIER'S LIFE IS A LIFE OF HONOR, BUT A DOG WOULD NOT LEAD IT.
 -- PRINCE RUPERT, FOUNDER OF THE HUDSON'S BAY COMPANY
 Job cpu time:       0 days  1 hours 19 minutes 33.8 seconds.
 Elapsed time:       0 days  0 hours 11 minutes 26.1 seconds.
 File lengths (MBytes):  RWF=     66 Int=      0 D2E=      0 Chk=      9 Scr=      1
 Normal termination of Gaussian 16 at Fri Nov  4 18:44:23 2022.
