 Entering Gaussian System, Link 0=/home/wykgroup/appl/g16/g16
 Input=calculation/no_transfer_pubchem_sampling_1_b3lyp/3878955_rwf.com
 Output=calculation/no_transfer_pubchem_sampling_1_b3lyp/3878955_rwf.log
 Initial command:
 /home/wykgroup/appl/g16/l1.exe "/userdata/scratch/wykgroup/khs/calculation/no_transfer_pubchem_sampling_1_b3lyp/3878955_rwf/Gau-24208.inp" -scrdir="/userdata/scratch/wykgroup/khs/calculation/no_transfer_pubchem_sampling_1_b3lyp/3878955_rwf/"
 Entering Link 1 = /home/wykgroup/appl/g16/l1.exe PID=     24209.
  
 Copyright (c) 1988-2017, Gaussian, Inc.  All Rights Reserved.
  
 This is part of the Gaussian(R) 16 program.  It is based on
 the Gaussian(R) 09 system (copyright 2009, Gaussian, Inc.),
 the Gaussian(R) 03 system (copyright 2003, Gaussian, Inc.),
 the Gaussian(R) 98 system (copyright 1998, Gaussian, Inc.),
 the Gaussian(R) 94 system (copyright 1995, Gaussian, Inc.),
 the Gaussian 92(TM) system (copyright 1992, Gaussian, Inc.),
 the Gaussian 90(TM) system (copyright 1990, Gaussian, Inc.),
 the Gaussian 88(TM) system (copyright 1988, Gaussian, Inc.),
 the Gaussian 86(TM) system (copyright 1986, Carnegie Mellon
 University), and the Gaussian 82(TM) system (copyright 1983,
 Carnegie Mellon University). Gaussian is a federally registered
 trademark of Gaussian, Inc.
  
 This software contains proprietary and confidential information,
 including trade secrets, belonging to Gaussian, Inc.
  
 This software is provided under written license and may be
 used, copied, transmitted, or stored only in accord with that
 written license.
  
 The following legend is applicable only to US Government
 contracts under FAR:
  
                    RESTRICTED RIGHTS LEGEND
  
 Use, reproduction and disclosure by the US Government is
 subject to restrictions as set forth in subparagraphs (a)
 and (c) of the Commercial Computer Software - Restricted
 Rights clause in FAR 52.227-19.
  
 Gaussian, Inc.
 340 Quinnipiac St., Bldg. 40, Wallingford CT 06492
  
  
 ---------------------------------------------------------------
 Warning -- This program may not be used in any manner that
 competes with the business of Gaussian, Inc. or will provide
 assistance to any competitor of Gaussian, Inc.  The licensee
 of this program is prohibited from giving any competitor of
 Gaussian, Inc. access to this program.  By using this program,
 the user acknowledges that Gaussian, Inc. is engaged in the
 business of creating and licensing software in the field of
 computational chemistry and represents and warrants to the
 licensee that it is not a competitor of Gaussian, Inc. and that
 it will not use this program in any manner prohibited above.
 ---------------------------------------------------------------
  

 Cite this work as:
 Gaussian 16, Revision B.01,
 M. J. Frisch, G. W. Trucks, H. B. Schlegel, G. E. Scuseria, 
 M. A. Robb, J. R. Cheeseman, G. Scalmani, V. Barone, 
 G. A. Petersson, H. Nakatsuji, X. Li, M. Caricato, A. V. Marenich, 
 J. Bloino, B. G. Janesko, R. Gomperts, B. Mennucci, H. P. Hratchian, 
 J. V. Ortiz, A. F. Izmaylov, J. L. Sonnenberg, D. Williams-Young, 
 F. Ding, F. Lipparini, F. Egidi, J. Goings, B. Peng, A. Petrone, 
 T. Henderson, D. Ranasinghe, V. G. Zakrzewski, J. Gao, N. Rega, 
 G. Zheng, W. Liang, M. Hada, M. Ehara, K. Toyota, R. Fukuda, 
 J. Hasegawa, M. Ishida, T. Nakajima, Y. Honda, O. Kitao, H. Nakai, 
 T. Vreven, K. Throssell, J. A. Montgomery, Jr., J. E. Peralta, 
 F. Ogliaro, M. J. Bearpark, J. J. Heyd, E. N. Brothers, K. N. Kudin, 
 V. N. Staroverov, T. A. Keith, R. Kobayashi, J. Normand, 
 K. Raghavachari, A. P. Rendell, J. C. Burant, S. S. Iyengar, 
 J. Tomasi, M. Cossi, J. M. Millam, M. Klene, C. Adamo, R. Cammi, 
 J. W. Ochterski, R. L. Martin, K. Morokuma, O. Farkas, 
 J. B. Foresman, and D. J. Fox, Gaussian, Inc., Wallingford CT, 2016.
 
 ******************************************
 Gaussian 16:  ES64L-G16RevB.01 20-Dec-2017
                 5-Nov-2022 
 ******************************************
 %chk=calculation/no_transfer_pubchem_sampling_1_b3lyp/3878955_rwf.chk
 %rwf=calculation/no_transfer_pubchem_sampling_1_b3lyp/3878955_rwf.rwf
 %nprocshared=14
 Will use up to   14 processors via shared memory.
 %mem=3GB
 -------------------------------------------------------------------
 #p b3lyp/6-31g(d) 6D 10F nosymm GFInput td=(50-50,nstate=2) SCF=XQC
 -------------------------------------------------------------------
 1/38=1,172=1/1;
 2/12=2,15=1,17=6,18=5,40=1/2;
 3/5=1,6=6,7=1,8=22,11=9,24=10,25=1,30=1,74=-5/1,2,3,8;
 4//1;
 5/5=2,8=3,13=1,38=5/2,8;
 8/6=1,10=2,108=2/1;
 9/41=2,42=1,48=2,70=2/14;
 6/7=2,8=2,9=2,10=2/1;
 99/5=1,9=1/99;
 Leave Link    1 at Sat Nov  5 11:30:36 2022, MaxMem=   402653184 cpu:               3.0 elap:               0.4
 (Enter /home/wykgroup/appl/g16/l101.exe)
 ------------------------------
 Gaussian input prepared by ASE
 ------------------------------
 Symbolic Z-matrix:
 Charge =  0 Multiplicity = 1
 C                     8.77594  -2.361     1.76023 
 O                     7.48499  -1.96558   1.27383 
 C                     7.50064  -1.09446   0.23757 
 O                     8.52857  -0.66919  -0.25508 
 C                     6.13426  -0.72702  -0.21718 
 C                     4.97047  -1.23567   0.37415 
 C                     3.70835  -0.86571  -0.0811 
 C                     3.59957   0.03376  -1.15416 
 N                     2.36608   0.46675  -1.68 
 C                     1.08784   0.10718  -1.31021 
 O                     0.82511  -0.65457  -0.3924 
 C                    -0.00353   0.72995  -2.18158 
 C                    -1.34531   0.8627   -1.44966 
 C                    -1.94442  -0.50133  -1.08353 
 O                    -2.10982  -1.42388  -1.85331 
 N                    -2.30026  -0.43125   0.25524 
 C                    -2.88499  -1.49618   1.00679 
 C                    -2.44081  -1.77105   2.30747 
 C                    -3.01273  -2.8081    3.02954 
 C                    -4.0234   -3.59839   2.46249 
 O                    -4.51073  -4.59651   3.25582 
 C                    -5.53279  -5.42953   2.73329 
 C                    -4.45927  -3.33003   1.16044 
 C                    -3.89341  -2.27562   0.44109 
 C                    -1.93701   0.82073   0.81548 
 O                    -2.15961   1.18677   1.95441 
 N                    -1.30682   1.54494  -0.1711 
 C                    -1.03234   2.96669  -0.00277 
 C                    -2.09203   3.87246  -0.60793 
 C                    -1.80145   4.68777  -1.70704 
 C                    -2.78507   5.51258  -2.26046 
 C                    -4.07165   5.53111  -1.72586 
 C                    -4.34342   4.71353  -0.6319 
 F                    -5.5842    4.73     -0.1038 
 C                    -3.38409   3.88787  -0.06302 
 C                     4.76499   0.54655  -1.75097 
 C                     6.01604   0.17024  -1.28747 
 H                     8.5797   -3.05215   2.58055 
 H                     9.33618  -1.49172   2.11504 
 H                     9.35006  -2.85368   0.9709 
 H                     5.05325  -1.93074   1.2021 
 H                     2.81368  -1.26096   0.37791 
 H                     2.44071   1.10111  -2.4644 
 H                    -0.17596   0.06841  -3.04088 
 H                     0.30752   1.7027   -2.58145 
 H                    -2.05047   1.35803  -2.13443 
 H                    -1.66118  -1.1648    2.75142 
 H                    -2.68463  -3.03057   4.03979 
 H                    -6.43563  -4.85514   2.48627 
 H                    -5.19528  -5.97123   1.83964 
 H                    -5.76709  -6.1467    3.52216 
 H                    -5.23584  -3.92561   0.69501 
 H                    -4.22947  -2.07551  -0.56908 
 H                    -0.95873   3.12763   1.07608 
 H                    -0.05273   3.19261  -0.43958 
 H                    -0.79862   4.68679  -2.1278 
 H                    -2.54845   6.14347  -3.11263 
 H                    -4.8558    6.16064  -2.13309 
 H                    -3.63837   3.27568   0.79695 
 H                     4.68428   1.24341  -2.5831 
 H                     6.91919   0.56181  -1.74344 
 
 ITRead=  0  0  0  0  0  0  0  0  0  0  0  0  0  0  0  0  0  0  0  0
 ITRead=  0  0  0  0  0  0  0  0  0  0  0  0  0  0  0  0  0  0  0  0
 ITRead=  0  0  0  0  0  0  0  0  0  0  0  0  0  0  0  0  0  0  0  0
 ITRead=  0
 MicOpt= -1 -1 -1 -1 -1 -1 -1 -1 -1 -1 -1 -1 -1 -1 -1 -1 -1 -1 -1 -1
 MicOpt= -1 -1 -1 -1 -1 -1 -1 -1 -1 -1 -1 -1 -1 -1 -1 -1 -1 -1 -1 -1
 MicOpt= -1 -1 -1 -1 -1 -1 -1 -1 -1 -1 -1 -1 -1 -1 -1 -1 -1 -1 -1 -1
 MicOpt= -1
 NAtoms=     61 NQM=       61 NQMF=       0 NMMI=      0 NMMIF=      0
                NMic=       0 NMicF=      0.
                    Isotopes and Nuclear Properties:
 (Nuclear quadrupole moments (NQMom) in fm**2, nuclear magnetic moments (NMagM)
  in nuclear magnetons)

  Atom         1           2           3           4           5           6           7           8           9          10
 IAtWgt=          12          16          12          16          12          12          12          12          14          12
 AtmWgt=  12.0000000  15.9949146  12.0000000  15.9949146  12.0000000  12.0000000  12.0000000  12.0000000  14.0030740  12.0000000
 NucSpn=           0           0           0           0           0           0           0           0           2           0
 AtZEff=  -0.0000000  -0.0000000  -0.0000000  -0.0000000  -0.0000000  -0.0000000  -0.0000000  -0.0000000  -0.0000000  -0.0000000
 NQMom=    0.0000000   0.0000000   0.0000000   0.0000000   0.0000000   0.0000000   0.0000000   0.0000000   2.0440000   0.0000000
 NMagM=    0.0000000   0.0000000   0.0000000   0.0000000   0.0000000   0.0000000   0.0000000   0.0000000   0.4037610   0.0000000
 AtZNuc=   6.0000000   8.0000000   6.0000000   8.0000000   6.0000000   6.0000000   6.0000000   6.0000000   7.0000000   6.0000000

  Atom        11          12          13          14          15          16          17          18          19          20
 IAtWgt=          16          12          12          12          16          14          12          12          12          12
 AtmWgt=  15.9949146  12.0000000  12.0000000  12.0000000  15.9949146  14.0030740  12.0000000  12.0000000  12.0000000  12.0000000
 NucSpn=           0           0           0           0           0           2           0           0           0           0
 AtZEff=  -0.0000000  -0.0000000  -0.0000000  -0.0000000  -0.0000000  -0.0000000  -0.0000000  -0.0000000  -0.0000000  -0.0000000
 NQMom=    0.0000000   0.0000000   0.0000000   0.0000000   0.0000000   2.0440000   0.0000000   0.0000000   0.0000000   0.0000000
 NMagM=    0.0000000   0.0000000   0.0000000   0.0000000   0.0000000   0.4037610   0.0000000   0.0000000   0.0000000   0.0000000
 AtZNuc=   8.0000000   6.0000000   6.0000000   6.0000000   8.0000000   7.0000000   6.0000000   6.0000000   6.0000000   6.0000000

  Atom        21          22          23          24          25          26          27          28          29          30
 IAtWgt=          16          12          12          12          12          16          14          12          12          12
 AtmWgt=  15.9949146  12.0000000  12.0000000  12.0000000  12.0000000  15.9949146  14.0030740  12.0000000  12.0000000  12.0000000
 NucSpn=           0           0           0           0           0           0           2           0           0           0
 AtZEff=  -0.0000000  -0.0000000  -0.0000000  -0.0000000  -0.0000000  -0.0000000  -0.0000000  -0.0000000  -0.0000000  -0.0000000
 NQMom=    0.0000000   0.0000000   0.0000000   0.0000000   0.0000000   0.0000000   2.0440000   0.0000000   0.0000000   0.0000000
 NMagM=    0.0000000   0.0000000   0.0000000   0.0000000   0.0000000   0.0000000   0.4037610   0.0000000   0.0000000   0.0000000
 AtZNuc=   8.0000000   6.0000000   6.0000000   6.0000000   6.0000000   8.0000000   7.0000000   6.0000000   6.0000000   6.0000000

  Atom        31          32          33          34          35          36          37          38          39          40
 IAtWgt=          12          12          12          19          12          12          12           1           1           1
 AtmWgt=  12.0000000  12.0000000  12.0000000  18.9984032  12.0000000  12.0000000  12.0000000   1.0078250   1.0078250   1.0078250
 NucSpn=           0           0           0           1           0           0           0           1           1           1
 AtZEff=  -0.0000000  -0.0000000  -0.0000000  -0.0000000  -0.0000000  -0.0000000  -0.0000000  -0.0000000  -0.0000000  -0.0000000
 NQMom=    0.0000000   0.0000000   0.0000000   0.0000000   0.0000000   0.0000000   0.0000000   0.0000000   0.0000000   0.0000000
 NMagM=    0.0000000   0.0000000   0.0000000   2.6288670   0.0000000   0.0000000   0.0000000   2.7928460   2.7928460   2.7928460
 AtZNuc=   6.0000000   6.0000000   6.0000000   9.0000000   6.0000000   6.0000000   6.0000000   1.0000000   1.0000000   1.0000000

  Atom        41          42          43          44          45          46          47          48          49          50
 IAtWgt=           1           1           1           1           1           1           1           1           1           1
 AtmWgt=   1.0078250   1.0078250   1.0078250   1.0078250   1.0078250   1.0078250   1.0078250   1.0078250   1.0078250   1.0078250
 NucSpn=           1           1           1           1           1           1           1           1           1           1
 AtZEff=  -0.0000000  -0.0000000  -0.0000000  -0.0000000  -0.0000000  -0.0000000  -0.0000000  -0.0000000  -0.0000000  -0.0000000
 NQMom=    0.0000000   0.0000000   0.0000000   0.0000000   0.0000000   0.0000000   0.0000000   0.0000000   0.0000000   0.0000000
 NMagM=    2.7928460   2.7928460   2.7928460   2.7928460   2.7928460   2.7928460   2.7928460   2.7928460   2.7928460   2.7928460
 AtZNuc=   1.0000000   1.0000000   1.0000000   1.0000000   1.0000000   1.0000000   1.0000000   1.0000000   1.0000000   1.0000000

  Atom        51          52          53          54          55          56          57          58          59          60
 IAtWgt=           1           1           1           1           1           1           1           1           1           1
 AtmWgt=   1.0078250   1.0078250   1.0078250   1.0078250   1.0078250   1.0078250   1.0078250   1.0078250   1.0078250   1.0078250
 NucSpn=           1           1           1           1           1           1           1           1           1           1
 AtZEff=  -0.0000000  -0.0000000  -0.0000000  -0.0000000  -0.0000000  -0.0000000  -0.0000000  -0.0000000  -0.0000000  -0.0000000
 NQMom=    0.0000000   0.0000000   0.0000000   0.0000000   0.0000000   0.0000000   0.0000000   0.0000000   0.0000000   0.0000000
 NMagM=    2.7928460   2.7928460   2.7928460   2.7928460   2.7928460   2.7928460   2.7928460   2.7928460   2.7928460   2.7928460
 AtZNuc=   1.0000000   1.0000000   1.0000000   1.0000000   1.0000000   1.0000000   1.0000000   1.0000000   1.0000000   1.0000000

  Atom        61
 IAtWgt=           1
 AtmWgt=   1.0078250
 NucSpn=           1
 AtZEff=  -0.0000000
 NQMom=    0.0000000
 NMagM=    2.7928460
 AtZNuc=   1.0000000
 Leave Link  101 at Sat Nov  5 11:30:36 2022, MaxMem=   402653184 cpu:               3.0 elap:               0.6
 (Enter /home/wykgroup/appl/g16/l202.exe)
 Symmetry turned off by external request.
 Stoichiometry    C27H24FN3O6
 Framework group  C1[X(C27H24FN3O6)]
 Deg. of freedom   177
 Full point group                 C1      NOp   1
                          Input orientation:                          
 ---------------------------------------------------------------------
 Center     Atomic      Atomic             Coordinates (Angstroms)
 Number     Number       Type             X           Y           Z
 ---------------------------------------------------------------------
      1          6           0        8.775941   -2.360995    1.760234
      2          8           0        7.484992   -1.965583    1.273833
      3          6           0        7.500644   -1.094464    0.237575
      4          8           0        8.528567   -0.669192   -0.255083
      5          6           0        6.134259   -0.727017   -0.217184
      6          6           0        4.970472   -1.235668    0.374148
      7          6           0        3.708353   -0.865710   -0.081101
      8          6           0        3.599567    0.033758   -1.154163
      9          7           0        2.366080    0.466755   -1.680002
     10          6           0        1.087843    0.107175   -1.310212
     11          8           0        0.825110   -0.654565   -0.392398
     12          6           0       -0.003526    0.729951   -2.181577
     13          6           0       -1.345313    0.862702   -1.449663
     14          6           0       -1.944418   -0.501333   -1.083533
     15          8           0       -2.109821   -1.423877   -1.853309
     16          7           0       -2.300261   -0.431254    0.255245
     17          6           0       -2.884988   -1.496178    1.006794
     18          6           0       -2.440812   -1.771047    2.307468
     19          6           0       -3.012730   -2.808097    3.029541
     20          6           0       -4.023403   -3.598388    2.462488
     21          8           0       -4.510728   -4.596513    3.255816
     22          6           0       -5.532788   -5.429526    2.733290
     23          6           0       -4.459274   -3.330030    1.160440
     24          6           0       -3.893410   -2.275616    0.441094
     25          6           0       -1.937008    0.820731    0.815480
     26          8           0       -2.159606    1.186765    1.954410
     27          7           0       -1.306817    1.544938   -0.171104
     28          6           0       -1.032343    2.966685   -0.002774
     29          6           0       -2.092034    3.872465   -0.607934
     30          6           0       -1.801452    4.687766   -1.707043
     31          6           0       -2.785074    5.512583   -2.260462
     32          6           0       -4.071655    5.531108   -1.725864
     33          6           0       -4.343423    4.713530   -0.631896
     34          9           0       -5.584196    4.730001   -0.103801
     35          6           0       -3.384092    3.887871   -0.063022
     36          6           0        4.764993    0.546549   -1.750970
     37          6           0        6.016039    0.170235   -1.287474
     38          1           0        8.579699   -3.052151    2.580553
     39          1           0        9.336179   -1.491720    2.115038
     40          1           0        9.350056   -2.853676    0.970899
     41          1           0        5.053250   -1.930744    1.202095
     42          1           0        2.813680   -1.260955    0.377914
     43          1           0        2.440715    1.101111   -2.464401
     44          1           0       -0.175963    0.068407   -3.040880
     45          1           0        0.307524    1.702700   -2.581452
     46          1           0       -2.050470    1.358031   -2.134425
     47          1           0       -1.661175   -1.164804    2.751422
     48          1           0       -2.684634   -3.030566    4.039790
     49          1           0       -6.435631   -4.855143    2.486274
     50          1           0       -5.195283   -5.971226    1.839643
     51          1           0       -5.767090   -6.146698    3.522160
     52          1           0       -5.235838   -3.925614    0.695012
     53          1           0       -4.229470   -2.075506   -0.569081
     54          1           0       -0.958735    3.127625    1.076075
     55          1           0       -0.052733    3.192610   -0.439575
     56          1           0       -0.798616    4.686786   -2.127796
     57          1           0       -2.548450    6.143466   -3.112629
     58          1           0       -4.855803    6.160644   -2.133090
     59          1           0       -3.638371    3.275684    0.796946
     60          1           0        4.684279    1.243413   -2.583095
     61          1           0        6.919193    0.561812   -1.743442
 ---------------------------------------------------------------------
 Rotational constants (GHZ):           0.1017191           0.0498041           0.0360285
 Leave Link  202 at Sat Nov  5 11:30:37 2022, MaxMem=   402653184 cpu:               0.8 elap:               0.3
 (Enter /home/wykgroup/appl/g16/l301.exe)
 Standard basis: 6-31G(d) (6D, 10F)
 Ernie: Thresh=  0.10000D-02 Tol=  0.10000D-05 Strict=F.
 AO basis set in the form of general basis input (Overlap normalization):
      1 0
 S   6 1.00       0.000000000000
      0.3047524880D+04  0.1834737132D-02
      0.4573695180D+03  0.1403732281D-01
      0.1039486850D+03  0.6884262226D-01
      0.2921015530D+02  0.2321844432D+00
      0.9286662960D+01  0.4679413484D+00
      0.3163926960D+01  0.3623119853D+00
 SP   3 1.00       0.000000000000
      0.7868272350D+01 -0.1193324198D+00  0.6899906659D-01
      0.1881288540D+01 -0.1608541517D+00  0.3164239610D+00
      0.5442492580D+00  0.1143456438D+01  0.7443082909D+00
 SP   1 1.00       0.000000000000
      0.1687144782D+00  0.1000000000D+01  0.1000000000D+01
 D   1 1.00       0.000000000000
      0.8000000000D+00  0.1000000000D+01
 ****
      2 0
 S   6 1.00       0.000000000000
      0.5484671660D+04  0.1831074430D-02
      0.8252349460D+03  0.1395017220D-01
      0.1880469580D+03  0.6844507810D-01
      0.5296450000D+02  0.2327143360D+00
      0.1689757040D+02  0.4701928980D+00
      0.5799635340D+01  0.3585208530D+00
 SP   3 1.00       0.000000000000
      0.1553961625D+02 -0.1107775495D+00  0.7087426823D-01
      0.3599933586D+01 -0.1480262627D+00  0.3397528391D+00
      0.1013761750D+01  0.1130767015D+01  0.7271585773D+00
 SP   1 1.00       0.000000000000
      0.2700058226D+00  0.1000000000D+01  0.1000000000D+01
 D   1 1.00       0.000000000000
      0.8000000000D+00  0.1000000000D+01
 ****
      3 0
 S   6 1.00       0.000000000000
      0.3047524880D+04  0.1834737132D-02
      0.4573695180D+03  0.1403732281D-01
      0.1039486850D+03  0.6884262226D-01
      0.2921015530D+02  0.2321844432D+00
      0.9286662960D+01  0.4679413484D+00
      0.3163926960D+01  0.3623119853D+00
 SP   3 1.00       0.000000000000
      0.7868272350D+01 -0.1193324198D+00  0.6899906659D-01
      0.1881288540D+01 -0.1608541517D+00  0.3164239610D+00
      0.5442492580D+00  0.1143456438D+01  0.7443082909D+00
 SP   1 1.00       0.000000000000
      0.1687144782D+00  0.1000000000D+01  0.1000000000D+01
 D   1 1.00       0.000000000000
      0.8000000000D+00  0.1000000000D+01
 ****
      4 0
 S   6 1.00       0.000000000000
      0.5484671660D+04  0.1831074430D-02
      0.8252349460D+03  0.1395017220D-01
      0.1880469580D+03  0.6844507810D-01
      0.5296450000D+02  0.2327143360D+00
      0.1689757040D+02  0.4701928980D+00
      0.5799635340D+01  0.3585208530D+00
 SP   3 1.00       0.000000000000
      0.1553961625D+02 -0.1107775495D+00  0.7087426823D-01
      0.3599933586D+01 -0.1480262627D+00  0.3397528391D+00
      0.1013761750D+01  0.1130767015D+01  0.7271585773D+00
 SP   1 1.00       0.000000000000
      0.2700058226D+00  0.1000000000D+01  0.1000000000D+01
 D   1 1.00       0.000000000000
      0.8000000000D+00  0.1000000000D+01
 ****
      5 0
 S   6 1.00       0.000000000000
      0.3047524880D+04  0.1834737132D-02
      0.4573695180D+03  0.1403732281D-01
      0.1039486850D+03  0.6884262226D-01
      0.2921015530D+02  0.2321844432D+00
      0.9286662960D+01  0.4679413484D+00
      0.3163926960D+01  0.3623119853D+00
 SP   3 1.00       0.000000000000
      0.7868272350D+01 -0.1193324198D+00  0.6899906659D-01
      0.1881288540D+01 -0.1608541517D+00  0.3164239610D+00
      0.5442492580D+00  0.1143456438D+01  0.7443082909D+00
 SP   1 1.00       0.000000000000
      0.1687144782D+00  0.1000000000D+01  0.1000000000D+01
 D   1 1.00       0.000000000000
      0.8000000000D+00  0.1000000000D+01
 ****
      6 0
 S   6 1.00       0.000000000000
      0.3047524880D+04  0.1834737132D-02
      0.4573695180D+03  0.1403732281D-01
      0.1039486850D+03  0.6884262226D-01
      0.2921015530D+02  0.2321844432D+00
      0.9286662960D+01  0.4679413484D+00
      0.3163926960D+01  0.3623119853D+00
 SP   3 1.00       0.000000000000
      0.7868272350D+01 -0.1193324198D+00  0.6899906659D-01
      0.1881288540D+01 -0.1608541517D+00  0.3164239610D+00
      0.5442492580D+00  0.1143456438D+01  0.7443082909D+00
 SP   1 1.00       0.000000000000
      0.1687144782D+00  0.1000000000D+01  0.1000000000D+01
 D   1 1.00       0.000000000000
      0.8000000000D+00  0.1000000000D+01
 ****
      7 0
 S   6 1.00       0.000000000000
      0.3047524880D+04  0.1834737132D-02
      0.4573695180D+03  0.1403732281D-01
      0.1039486850D+03  0.6884262226D-01
      0.2921015530D+02  0.2321844432D+00
      0.9286662960D+01  0.4679413484D+00
      0.3163926960D+01  0.3623119853D+00
 SP   3 1.00       0.000000000000
      0.7868272350D+01 -0.1193324198D+00  0.6899906659D-01
      0.1881288540D+01 -0.1608541517D+00  0.3164239610D+00
      0.5442492580D+00  0.1143456438D+01  0.7443082909D+00
 SP   1 1.00       0.000000000000
      0.1687144782D+00  0.1000000000D+01  0.1000000000D+01
 D   1 1.00       0.000000000000
      0.8000000000D+00  0.1000000000D+01
 ****
      8 0
 S   6 1.00       0.000000000000
      0.3047524880D+04  0.1834737132D-02
      0.4573695180D+03  0.1403732281D-01
      0.1039486850D+03  0.6884262226D-01
      0.2921015530D+02  0.2321844432D+00
      0.9286662960D+01  0.4679413484D+00
      0.3163926960D+01  0.3623119853D+00
 SP   3 1.00       0.000000000000
      0.7868272350D+01 -0.1193324198D+00  0.6899906659D-01
      0.1881288540D+01 -0.1608541517D+00  0.3164239610D+00
      0.5442492580D+00  0.1143456438D+01  0.7443082909D+00
 SP   1 1.00       0.000000000000
      0.1687144782D+00  0.1000000000D+01  0.1000000000D+01
 D   1 1.00       0.000000000000
      0.8000000000D+00  0.1000000000D+01
 ****
      9 0
 S   6 1.00       0.000000000000
      0.4173511460D+04  0.1834772160D-02
      0.6274579110D+03  0.1399462700D-01
      0.1429020930D+03  0.6858655181D-01
      0.4023432930D+02  0.2322408730D+00
      0.1282021290D+02  0.4690699481D+00
      0.4390437010D+01  0.3604551991D+00
 SP   3 1.00       0.000000000000
      0.1162636186D+02 -0.1149611817D+00  0.6757974388D-01
      0.2716279807D+01 -0.1691174786D+00  0.3239072959D+00
      0.7722183966D+00  0.1145851947D+01  0.7408951398D+00
 SP   1 1.00       0.000000000000
      0.2120314975D+00  0.1000000000D+01  0.1000000000D+01
 D   1 1.00       0.000000000000
      0.8000000000D+00  0.1000000000D+01
 ****
     10 0
 S   6 1.00       0.000000000000
      0.3047524880D+04  0.1834737132D-02
      0.4573695180D+03  0.1403732281D-01
      0.1039486850D+03  0.6884262226D-01
      0.2921015530D+02  0.2321844432D+00
      0.9286662960D+01  0.4679413484D+00
      0.3163926960D+01  0.3623119853D+00
 SP   3 1.00       0.000000000000
      0.7868272350D+01 -0.1193324198D+00  0.6899906659D-01
      0.1881288540D+01 -0.1608541517D+00  0.3164239610D+00
      0.5442492580D+00  0.1143456438D+01  0.7443082909D+00
 SP   1 1.00       0.000000000000
      0.1687144782D+00  0.1000000000D+01  0.1000000000D+01
 D   1 1.00       0.000000000000
      0.8000000000D+00  0.1000000000D+01
 ****
     11 0
 S   6 1.00       0.000000000000
      0.5484671660D+04  0.1831074430D-02
      0.8252349460D+03  0.1395017220D-01
      0.1880469580D+03  0.6844507810D-01
      0.5296450000D+02  0.2327143360D+00
      0.1689757040D+02  0.4701928980D+00
      0.5799635340D+01  0.3585208530D+00
 SP   3 1.00       0.000000000000
      0.1553961625D+02 -0.1107775495D+00  0.7087426823D-01
      0.3599933586D+01 -0.1480262627D+00  0.3397528391D+00
      0.1013761750D+01  0.1130767015D+01  0.7271585773D+00
 SP   1 1.00       0.000000000000
      0.2700058226D+00  0.1000000000D+01  0.1000000000D+01
 D   1 1.00       0.000000000000
      0.8000000000D+00  0.1000000000D+01
 ****
     12 0
 S   6 1.00       0.000000000000
      0.3047524880D+04  0.1834737132D-02
      0.4573695180D+03  0.1403732281D-01
      0.1039486850D+03  0.6884262226D-01
      0.2921015530D+02  0.2321844432D+00
      0.9286662960D+01  0.4679413484D+00
      0.3163926960D+01  0.3623119853D+00
 SP   3 1.00       0.000000000000
      0.7868272350D+01 -0.1193324198D+00  0.6899906659D-01
      0.1881288540D+01 -0.1608541517D+00  0.3164239610D+00
      0.5442492580D+00  0.1143456438D+01  0.7443082909D+00
 SP   1 1.00       0.000000000000
      0.1687144782D+00  0.1000000000D+01  0.1000000000D+01
 D   1 1.00       0.000000000000
      0.8000000000D+00  0.1000000000D+01
 ****
     13 0
 S   6 1.00       0.000000000000
      0.3047524880D+04  0.1834737132D-02
      0.4573695180D+03  0.1403732281D-01
      0.1039486850D+03  0.6884262226D-01
      0.2921015530D+02  0.2321844432D+00
      0.9286662960D+01  0.4679413484D+00
      0.3163926960D+01  0.3623119853D+00
 SP   3 1.00       0.000000000000
      0.7868272350D+01 -0.1193324198D+00  0.6899906659D-01
      0.1881288540D+01 -0.1608541517D+00  0.3164239610D+00
      0.5442492580D+00  0.1143456438D+01  0.7443082909D+00
 SP   1 1.00       0.000000000000
      0.1687144782D+00  0.1000000000D+01  0.1000000000D+01
 D   1 1.00       0.000000000000
      0.8000000000D+00  0.1000000000D+01
 ****
     14 0
 S   6 1.00       0.000000000000
      0.3047524880D+04  0.1834737132D-02
      0.4573695180D+03  0.1403732281D-01
      0.1039486850D+03  0.6884262226D-01
      0.2921015530D+02  0.2321844432D+00
      0.9286662960D+01  0.4679413484D+00
      0.3163926960D+01  0.3623119853D+00
 SP   3 1.00       0.000000000000
      0.7868272350D+01 -0.1193324198D+00  0.6899906659D-01
      0.1881288540D+01 -0.1608541517D+00  0.3164239610D+00
      0.5442492580D+00  0.1143456438D+01  0.7443082909D+00
 SP   1 1.00       0.000000000000
      0.1687144782D+00  0.1000000000D+01  0.1000000000D+01
 D   1 1.00       0.000000000000
      0.8000000000D+00  0.1000000000D+01
 ****
     15 0
 S   6 1.00       0.000000000000
      0.5484671660D+04  0.1831074430D-02
      0.8252349460D+03  0.1395017220D-01
      0.1880469580D+03  0.6844507810D-01
      0.5296450000D+02  0.2327143360D+00
      0.1689757040D+02  0.4701928980D+00
      0.5799635340D+01  0.3585208530D+00
 SP   3 1.00       0.000000000000
      0.1553961625D+02 -0.1107775495D+00  0.7087426823D-01
      0.3599933586D+01 -0.1480262627D+00  0.3397528391D+00
      0.1013761750D+01  0.1130767015D+01  0.7271585773D+00
 SP   1 1.00       0.000000000000
      0.2700058226D+00  0.1000000000D+01  0.1000000000D+01
 D   1 1.00       0.000000000000
      0.8000000000D+00  0.1000000000D+01
 ****
     16 0
 S   6 1.00       0.000000000000
      0.4173511460D+04  0.1834772160D-02
      0.6274579110D+03  0.1399462700D-01
      0.1429020930D+03  0.6858655181D-01
      0.4023432930D+02  0.2322408730D+00
      0.1282021290D+02  0.4690699481D+00
      0.4390437010D+01  0.3604551991D+00
 SP   3 1.00       0.000000000000
      0.1162636186D+02 -0.1149611817D+00  0.6757974388D-01
      0.2716279807D+01 -0.1691174786D+00  0.3239072959D+00
      0.7722183966D+00  0.1145851947D+01  0.7408951398D+00
 SP   1 1.00       0.000000000000
      0.2120314975D+00  0.1000000000D+01  0.1000000000D+01
 D   1 1.00       0.000000000000
      0.8000000000D+00  0.1000000000D+01
 ****
     17 0
 S   6 1.00       0.000000000000
      0.3047524880D+04  0.1834737132D-02
      0.4573695180D+03  0.1403732281D-01
      0.1039486850D+03  0.6884262226D-01
      0.2921015530D+02  0.2321844432D+00
      0.9286662960D+01  0.4679413484D+00
      0.3163926960D+01  0.3623119853D+00
 SP   3 1.00       0.000000000000
      0.7868272350D+01 -0.1193324198D+00  0.6899906659D-01
      0.1881288540D+01 -0.1608541517D+00  0.3164239610D+00
      0.5442492580D+00  0.1143456438D+01  0.7443082909D+00
 SP   1 1.00       0.000000000000
      0.1687144782D+00  0.1000000000D+01  0.1000000000D+01
 D   1 1.00       0.000000000000
      0.8000000000D+00  0.1000000000D+01
 ****
     18 0
 S   6 1.00       0.000000000000
      0.3047524880D+04  0.1834737132D-02
      0.4573695180D+03  0.1403732281D-01
      0.1039486850D+03  0.6884262226D-01
      0.2921015530D+02  0.2321844432D+00
      0.9286662960D+01  0.4679413484D+00
      0.3163926960D+01  0.3623119853D+00
 SP   3 1.00       0.000000000000
      0.7868272350D+01 -0.1193324198D+00  0.6899906659D-01
      0.1881288540D+01 -0.1608541517D+00  0.3164239610D+00
      0.5442492580D+00  0.1143456438D+01  0.7443082909D+00
 SP   1 1.00       0.000000000000
      0.1687144782D+00  0.1000000000D+01  0.1000000000D+01
 D   1 1.00       0.000000000000
      0.8000000000D+00  0.1000000000D+01
 ****
     19 0
 S   6 1.00       0.000000000000
      0.3047524880D+04  0.1834737132D-02
      0.4573695180D+03  0.1403732281D-01
      0.1039486850D+03  0.6884262226D-01
      0.2921015530D+02  0.2321844432D+00
      0.9286662960D+01  0.4679413484D+00
      0.3163926960D+01  0.3623119853D+00
 SP   3 1.00       0.000000000000
      0.7868272350D+01 -0.1193324198D+00  0.6899906659D-01
      0.1881288540D+01 -0.1608541517D+00  0.3164239610D+00
      0.5442492580D+00  0.1143456438D+01  0.7443082909D+00
 SP   1 1.00       0.000000000000
      0.1687144782D+00  0.1000000000D+01  0.1000000000D+01
 D   1 1.00       0.000000000000
      0.8000000000D+00  0.1000000000D+01
 ****
     20 0
 S   6 1.00       0.000000000000
      0.3047524880D+04  0.1834737132D-02
      0.4573695180D+03  0.1403732281D-01
      0.1039486850D+03  0.6884262226D-01
      0.2921015530D+02  0.2321844432D+00
      0.9286662960D+01  0.4679413484D+00
      0.3163926960D+01  0.3623119853D+00
 SP   3 1.00       0.000000000000
      0.7868272350D+01 -0.1193324198D+00  0.6899906659D-01
      0.1881288540D+01 -0.1608541517D+00  0.3164239610D+00
      0.5442492580D+00  0.1143456438D+01  0.7443082909D+00
 SP   1 1.00       0.000000000000
      0.1687144782D+00  0.1000000000D+01  0.1000000000D+01
 D   1 1.00       0.000000000000
      0.8000000000D+00  0.1000000000D+01
 ****
     21 0
 S   6 1.00       0.000000000000
      0.5484671660D+04  0.1831074430D-02
      0.8252349460D+03  0.1395017220D-01
      0.1880469580D+03  0.6844507810D-01
      0.5296450000D+02  0.2327143360D+00
      0.1689757040D+02  0.4701928980D+00
      0.5799635340D+01  0.3585208530D+00
 SP   3 1.00       0.000000000000
      0.1553961625D+02 -0.1107775495D+00  0.7087426823D-01
      0.3599933586D+01 -0.1480262627D+00  0.3397528391D+00
      0.1013761750D+01  0.1130767015D+01  0.7271585773D+00
 SP   1 1.00       0.000000000000
      0.2700058226D+00  0.1000000000D+01  0.1000000000D+01
 D   1 1.00       0.000000000000
      0.8000000000D+00  0.1000000000D+01
 ****
     22 0
 S   6 1.00       0.000000000000
      0.3047524880D+04  0.1834737132D-02
      0.4573695180D+03  0.1403732281D-01
      0.1039486850D+03  0.6884262226D-01
      0.2921015530D+02  0.2321844432D+00
      0.9286662960D+01  0.4679413484D+00
      0.3163926960D+01  0.3623119853D+00
 SP   3 1.00       0.000000000000
      0.7868272350D+01 -0.1193324198D+00  0.6899906659D-01
      0.1881288540D+01 -0.1608541517D+00  0.3164239610D+00
      0.5442492580D+00  0.1143456438D+01  0.7443082909D+00
 SP   1 1.00       0.000000000000
      0.1687144782D+00  0.1000000000D+01  0.1000000000D+01
 D   1 1.00       0.000000000000
      0.8000000000D+00  0.1000000000D+01
 ****
     23 0
 S   6 1.00       0.000000000000
      0.3047524880D+04  0.1834737132D-02
      0.4573695180D+03  0.1403732281D-01
      0.1039486850D+03  0.6884262226D-01
      0.2921015530D+02  0.2321844432D+00
      0.9286662960D+01  0.4679413484D+00
      0.3163926960D+01  0.3623119853D+00
 SP   3 1.00       0.000000000000
      0.7868272350D+01 -0.1193324198D+00  0.6899906659D-01
      0.1881288540D+01 -0.1608541517D+00  0.3164239610D+00
      0.5442492580D+00  0.1143456438D+01  0.7443082909D+00
 SP   1 1.00       0.000000000000
      0.1687144782D+00  0.1000000000D+01  0.1000000000D+01
 D   1 1.00       0.000000000000
      0.8000000000D+00  0.1000000000D+01
 ****
     24 0
 S   6 1.00       0.000000000000
      0.3047524880D+04  0.1834737132D-02
      0.4573695180D+03  0.1403732281D-01
      0.1039486850D+03  0.6884262226D-01
      0.2921015530D+02  0.2321844432D+00
      0.9286662960D+01  0.4679413484D+00
      0.3163926960D+01  0.3623119853D+00
 SP   3 1.00       0.000000000000
      0.7868272350D+01 -0.1193324198D+00  0.6899906659D-01
      0.1881288540D+01 -0.1608541517D+00  0.3164239610D+00
      0.5442492580D+00  0.1143456438D+01  0.7443082909D+00
 SP   1 1.00       0.000000000000
      0.1687144782D+00  0.1000000000D+01  0.1000000000D+01
 D   1 1.00       0.000000000000
      0.8000000000D+00  0.1000000000D+01
 ****
     25 0
 S   6 1.00       0.000000000000
      0.3047524880D+04  0.1834737132D-02
      0.4573695180D+03  0.1403732281D-01
      0.1039486850D+03  0.6884262226D-01
      0.2921015530D+02  0.2321844432D+00
      0.9286662960D+01  0.4679413484D+00
      0.3163926960D+01  0.3623119853D+00
 SP   3 1.00       0.000000000000
      0.7868272350D+01 -0.1193324198D+00  0.6899906659D-01
      0.1881288540D+01 -0.1608541517D+00  0.3164239610D+00
      0.5442492580D+00  0.1143456438D+01  0.7443082909D+00
 SP   1 1.00       0.000000000000
      0.1687144782D+00  0.1000000000D+01  0.1000000000D+01
 D   1 1.00       0.000000000000
      0.8000000000D+00  0.1000000000D+01
 ****
     26 0
 S   6 1.00       0.000000000000
      0.5484671660D+04  0.1831074430D-02
      0.8252349460D+03  0.1395017220D-01
      0.1880469580D+03  0.6844507810D-01
      0.5296450000D+02  0.2327143360D+00
      0.1689757040D+02  0.4701928980D+00
      0.5799635340D+01  0.3585208530D+00
 SP   3 1.00       0.000000000000
      0.1553961625D+02 -0.1107775495D+00  0.7087426823D-01
      0.3599933586D+01 -0.1480262627D+00  0.3397528391D+00
      0.1013761750D+01  0.1130767015D+01  0.7271585773D+00
 SP   1 1.00       0.000000000000
      0.2700058226D+00  0.1000000000D+01  0.1000000000D+01
 D   1 1.00       0.000000000000
      0.8000000000D+00  0.1000000000D+01
 ****
     27 0
 S   6 1.00       0.000000000000
      0.4173511460D+04  0.1834772160D-02
      0.6274579110D+03  0.1399462700D-01
      0.1429020930D+03  0.6858655181D-01
      0.4023432930D+02  0.2322408730D+00
      0.1282021290D+02  0.4690699481D+00
      0.4390437010D+01  0.3604551991D+00
 SP   3 1.00       0.000000000000
      0.1162636186D+02 -0.1149611817D+00  0.6757974388D-01
      0.2716279807D+01 -0.1691174786D+00  0.3239072959D+00
      0.7722183966D+00  0.1145851947D+01  0.7408951398D+00
 SP   1 1.00       0.000000000000
      0.2120314975D+00  0.1000000000D+01  0.1000000000D+01
 D   1 1.00       0.000000000000
      0.8000000000D+00  0.1000000000D+01
 ****
     28 0
 S   6 1.00       0.000000000000
      0.3047524880D+04  0.1834737132D-02
      0.4573695180D+03  0.1403732281D-01
      0.1039486850D+03  0.6884262226D-01
      0.2921015530D+02  0.2321844432D+00
      0.9286662960D+01  0.4679413484D+00
      0.3163926960D+01  0.3623119853D+00
 SP   3 1.00       0.000000000000
      0.7868272350D+01 -0.1193324198D+00  0.6899906659D-01
      0.1881288540D+01 -0.1608541517D+00  0.3164239610D+00
      0.5442492580D+00  0.1143456438D+01  0.7443082909D+00
 SP   1 1.00       0.000000000000
      0.1687144782D+00  0.1000000000D+01  0.1000000000D+01
 D   1 1.00       0.000000000000
      0.8000000000D+00  0.1000000000D+01
 ****
     29 0
 S   6 1.00       0.000000000000
      0.3047524880D+04  0.1834737132D-02
      0.4573695180D+03  0.1403732281D-01
      0.1039486850D+03  0.6884262226D-01
      0.2921015530D+02  0.2321844432D+00
      0.9286662960D+01  0.4679413484D+00
      0.3163926960D+01  0.3623119853D+00
 SP   3 1.00       0.000000000000
      0.7868272350D+01 -0.1193324198D+00  0.6899906659D-01
      0.1881288540D+01 -0.1608541517D+00  0.3164239610D+00
      0.5442492580D+00  0.1143456438D+01  0.7443082909D+00
 SP   1 1.00       0.000000000000
      0.1687144782D+00  0.1000000000D+01  0.1000000000D+01
 D   1 1.00       0.000000000000
      0.8000000000D+00  0.1000000000D+01
 ****
     30 0
 S   6 1.00       0.000000000000
      0.3047524880D+04  0.1834737132D-02
      0.4573695180D+03  0.1403732281D-01
      0.1039486850D+03  0.6884262226D-01
      0.2921015530D+02  0.2321844432D+00
      0.9286662960D+01  0.4679413484D+00
      0.3163926960D+01  0.3623119853D+00
 SP   3 1.00       0.000000000000
      0.7868272350D+01 -0.1193324198D+00  0.6899906659D-01
      0.1881288540D+01 -0.1608541517D+00  0.3164239610D+00
      0.5442492580D+00  0.1143456438D+01  0.7443082909D+00
 SP   1 1.00       0.000000000000
      0.1687144782D+00  0.1000000000D+01  0.1000000000D+01
 D   1 1.00       0.000000000000
      0.8000000000D+00  0.1000000000D+01
 ****
     31 0
 S   6 1.00       0.000000000000
      0.3047524880D+04  0.1834737132D-02
      0.4573695180D+03  0.1403732281D-01
      0.1039486850D+03  0.6884262226D-01
      0.2921015530D+02  0.2321844432D+00
      0.9286662960D+01  0.4679413484D+00
      0.3163926960D+01  0.3623119853D+00
 SP   3 1.00       0.000000000000
      0.7868272350D+01 -0.1193324198D+00  0.6899906659D-01
      0.1881288540D+01 -0.1608541517D+00  0.3164239610D+00
      0.5442492580D+00  0.1143456438D+01  0.7443082909D+00
 SP   1 1.00       0.000000000000
      0.1687144782D+00  0.1000000000D+01  0.1000000000D+01
 D   1 1.00       0.000000000000
      0.8000000000D+00  0.1000000000D+01
 ****
     32 0
 S   6 1.00       0.000000000000
      0.3047524880D+04  0.1834737132D-02
      0.4573695180D+03  0.1403732281D-01
      0.1039486850D+03  0.6884262226D-01
      0.2921015530D+02  0.2321844432D+00
      0.9286662960D+01  0.4679413484D+00
      0.3163926960D+01  0.3623119853D+00
 SP   3 1.00       0.000000000000
      0.7868272350D+01 -0.1193324198D+00  0.6899906659D-01
      0.1881288540D+01 -0.1608541517D+00  0.3164239610D+00
      0.5442492580D+00  0.1143456438D+01  0.7443082909D+00
 SP   1 1.00       0.000000000000
      0.1687144782D+00  0.1000000000D+01  0.1000000000D+01
 D   1 1.00       0.000000000000
      0.8000000000D+00  0.1000000000D+01
 ****
     33 0
 S   6 1.00       0.000000000000
      0.3047524880D+04  0.1834737132D-02
      0.4573695180D+03  0.1403732281D-01
      0.1039486850D+03  0.6884262226D-01
      0.2921015530D+02  0.2321844432D+00
      0.9286662960D+01  0.4679413484D+00
      0.3163926960D+01  0.3623119853D+00
 SP   3 1.00       0.000000000000
      0.7868272350D+01 -0.1193324198D+00  0.6899906659D-01
      0.1881288540D+01 -0.1608541517D+00  0.3164239610D+00
      0.5442492580D+00  0.1143456438D+01  0.7443082909D+00
 SP   1 1.00       0.000000000000
      0.1687144782D+00  0.1000000000D+01  0.1000000000D+01
 D   1 1.00       0.000000000000
      0.8000000000D+00  0.1000000000D+01
 ****
     34 0
 S   6 1.00       0.000000000000
      0.7001713090D+04  0.1819616901D-02
      0.1051366090D+04  0.1391607961D-01
      0.2392856900D+03  0.6840532453D-01
      0.6739744530D+02  0.2331857601D+00
      0.2151995730D+02  0.4712674392D+00
      0.7403101300D+01  0.3566185462D+00
 SP   3 1.00       0.000000000000
      0.2084795280D+02 -0.1085069751D+00  0.7162872424D-01
      0.4808308340D+01 -0.1464516581D+00  0.3459121027D+00
      0.1344069860D+01  0.1128688581D+01  0.7224699564D+00
 SP   1 1.00       0.000000000000
      0.3581513930D+00  0.1000000000D+01  0.1000000000D+01
 D   1 1.00       0.000000000000
      0.8000000000D+00  0.1000000000D+01
 ****
     35 0
 S   6 1.00       0.000000000000
      0.3047524880D+04  0.1834737132D-02
      0.4573695180D+03  0.1403732281D-01
      0.1039486850D+03  0.6884262226D-01
      0.2921015530D+02  0.2321844432D+00
      0.9286662960D+01  0.4679413484D+00
      0.3163926960D+01  0.3623119853D+00
 SP   3 1.00       0.000000000000
      0.7868272350D+01 -0.1193324198D+00  0.6899906659D-01
      0.1881288540D+01 -0.1608541517D+00  0.3164239610D+00
      0.5442492580D+00  0.1143456438D+01  0.7443082909D+00
 SP   1 1.00       0.000000000000
      0.1687144782D+00  0.1000000000D+01  0.1000000000D+01
 D   1 1.00       0.000000000000
      0.8000000000D+00  0.1000000000D+01
 ****
     36 0
 S   6 1.00       0.000000000000
      0.3047524880D+04  0.1834737132D-02
      0.4573695180D+03  0.1403732281D-01
      0.1039486850D+03  0.6884262226D-01
      0.2921015530D+02  0.2321844432D+00
      0.9286662960D+01  0.4679413484D+00
      0.3163926960D+01  0.3623119853D+00
 SP   3 1.00       0.000000000000
      0.7868272350D+01 -0.1193324198D+00  0.6899906659D-01
      0.1881288540D+01 -0.1608541517D+00  0.3164239610D+00
      0.5442492580D+00  0.1143456438D+01  0.7443082909D+00
 SP   1 1.00       0.000000000000
      0.1687144782D+00  0.1000000000D+01  0.1000000000D+01
 D   1 1.00       0.000000000000
      0.8000000000D+00  0.1000000000D+01
 ****
     37 0
 S   6 1.00       0.000000000000
      0.3047524880D+04  0.1834737132D-02
      0.4573695180D+03  0.1403732281D-01
      0.1039486850D+03  0.6884262226D-01
      0.2921015530D+02  0.2321844432D+00
      0.9286662960D+01  0.4679413484D+00
      0.3163926960D+01  0.3623119853D+00
 SP   3 1.00       0.000000000000
      0.7868272350D+01 -0.1193324198D+00  0.6899906659D-01
      0.1881288540D+01 -0.1608541517D+00  0.3164239610D+00
      0.5442492580D+00  0.1143456438D+01  0.7443082909D+00
 SP   1 1.00       0.000000000000
      0.1687144782D+00  0.1000000000D+01  0.1000000000D+01
 D   1 1.00       0.000000000000
      0.8000000000D+00  0.1000000000D+01
 ****
     38 0
 S   3 1.00       0.000000000000
      0.1873113696D+02  0.3349460434D-01
      0.2825394365D+01  0.2347269535D+00
      0.6401216923D+00  0.8137573261D+00
 S   1 1.00       0.000000000000
      0.1612777588D+00  0.1000000000D+01
 ****
     39 0
 S   3 1.00       0.000000000000
      0.1873113696D+02  0.3349460434D-01
      0.2825394365D+01  0.2347269535D+00
      0.6401216923D+00  0.8137573261D+00
 S   1 1.00       0.000000000000
      0.1612777588D+00  0.1000000000D+01
 ****
     40 0
 S   3 1.00       0.000000000000
      0.1873113696D+02  0.3349460434D-01
      0.2825394365D+01  0.2347269535D+00
      0.6401216923D+00  0.8137573261D+00
 S   1 1.00       0.000000000000
      0.1612777588D+00  0.1000000000D+01
 ****
     41 0
 S   3 1.00       0.000000000000
      0.1873113696D+02  0.3349460434D-01
      0.2825394365D+01  0.2347269535D+00
      0.6401216923D+00  0.8137573261D+00
 S   1 1.00       0.000000000000
      0.1612777588D+00  0.1000000000D+01
 ****
     42 0
 S   3 1.00       0.000000000000
      0.1873113696D+02  0.3349460434D-01
      0.2825394365D+01  0.2347269535D+00
      0.6401216923D+00  0.8137573261D+00
 S   1 1.00       0.000000000000
      0.1612777588D+00  0.1000000000D+01
 ****
     43 0
 S   3 1.00       0.000000000000
      0.1873113696D+02  0.3349460434D-01
      0.2825394365D+01  0.2347269535D+00
      0.6401216923D+00  0.8137573261D+00
 S   1 1.00       0.000000000000
      0.1612777588D+00  0.1000000000D+01
 ****
     44 0
 S   3 1.00       0.000000000000
      0.1873113696D+02  0.3349460434D-01
      0.2825394365D+01  0.2347269535D+00
      0.6401216923D+00  0.8137573261D+00
 S   1 1.00       0.000000000000
      0.1612777588D+00  0.1000000000D+01
 ****
     45 0
 S   3 1.00       0.000000000000
      0.1873113696D+02  0.3349460434D-01
      0.2825394365D+01  0.2347269535D+00
      0.6401216923D+00  0.8137573261D+00
 S   1 1.00       0.000000000000
      0.1612777588D+00  0.1000000000D+01
 ****
     46 0
 S   3 1.00       0.000000000000
      0.1873113696D+02  0.3349460434D-01
      0.2825394365D+01  0.2347269535D+00
      0.6401216923D+00  0.8137573261D+00
 S   1 1.00       0.000000000000
      0.1612777588D+00  0.1000000000D+01
 ****
     47 0
 S   3 1.00       0.000000000000
      0.1873113696D+02  0.3349460434D-01
      0.2825394365D+01  0.2347269535D+00
      0.6401216923D+00  0.8137573261D+00
 S   1 1.00       0.000000000000
      0.1612777588D+00  0.1000000000D+01
 ****
     48 0
 S   3 1.00       0.000000000000
      0.1873113696D+02  0.3349460434D-01
      0.2825394365D+01  0.2347269535D+00
      0.6401216923D+00  0.8137573261D+00
 S   1 1.00       0.000000000000
      0.1612777588D+00  0.1000000000D+01
 ****
     49 0
 S   3 1.00       0.000000000000
      0.1873113696D+02  0.3349460434D-01
      0.2825394365D+01  0.2347269535D+00
      0.6401216923D+00  0.8137573261D+00
 S   1 1.00       0.000000000000
      0.1612777588D+00  0.1000000000D+01
 ****
     50 0
 S   3 1.00       0.000000000000
      0.1873113696D+02  0.3349460434D-01
      0.2825394365D+01  0.2347269535D+00
      0.6401216923D+00  0.8137573261D+00
 S   1 1.00       0.000000000000
      0.1612777588D+00  0.1000000000D+01
 ****
     51 0
 S   3 1.00       0.000000000000
      0.1873113696D+02  0.3349460434D-01
      0.2825394365D+01  0.2347269535D+00
      0.6401216923D+00  0.8137573261D+00
 S   1 1.00       0.000000000000
      0.1612777588D+00  0.1000000000D+01
 ****
     52 0
 S   3 1.00       0.000000000000
      0.1873113696D+02  0.3349460434D-01
      0.2825394365D+01  0.2347269535D+00
      0.6401216923D+00  0.8137573261D+00
 S   1 1.00       0.000000000000
      0.1612777588D+00  0.1000000000D+01
 ****
     53 0
 S   3 1.00       0.000000000000
      0.1873113696D+02  0.3349460434D-01
      0.2825394365D+01  0.2347269535D+00
      0.6401216923D+00  0.8137573261D+00
 S   1 1.00       0.000000000000
      0.1612777588D+00  0.1000000000D+01
 ****
     54 0
 S   3 1.00       0.000000000000
      0.1873113696D+02  0.3349460434D-01
      0.2825394365D+01  0.2347269535D+00
      0.6401216923D+00  0.8137573261D+00
 S   1 1.00       0.000000000000
      0.1612777588D+00  0.1000000000D+01
 ****
     55 0
 S   3 1.00       0.000000000000
      0.1873113696D+02  0.3349460434D-01
      0.2825394365D+01  0.2347269535D+00
      0.6401216923D+00  0.8137573261D+00
 S   1 1.00       0.000000000000
      0.1612777588D+00  0.1000000000D+01
 ****
     56 0
 S   3 1.00       0.000000000000
      0.1873113696D+02  0.3349460434D-01
      0.2825394365D+01  0.2347269535D+00
      0.6401216923D+00  0.8137573261D+00
 S   1 1.00       0.000000000000
      0.1612777588D+00  0.1000000000D+01
 ****
     57 0
 S   3 1.00       0.000000000000
      0.1873113696D+02  0.3349460434D-01
      0.2825394365D+01  0.2347269535D+00
      0.6401216923D+00  0.8137573261D+00
 S   1 1.00       0.000000000000
      0.1612777588D+00  0.1000000000D+01
 ****
     58 0
 S   3 1.00       0.000000000000
      0.1873113696D+02  0.3349460434D-01
      0.2825394365D+01  0.2347269535D+00
      0.6401216923D+00  0.8137573261D+00
 S   1 1.00       0.000000000000
      0.1612777588D+00  0.1000000000D+01
 ****
     59 0
 S   3 1.00       0.000000000000
      0.1873113696D+02  0.3349460434D-01
      0.2825394365D+01  0.2347269535D+00
      0.6401216923D+00  0.8137573261D+00
 S   1 1.00       0.000000000000
      0.1612777588D+00  0.1000000000D+01
 ****
     60 0
 S   3 1.00       0.000000000000
      0.1873113696D+02  0.3349460434D-01
      0.2825394365D+01  0.2347269535D+00
      0.6401216923D+00  0.8137573261D+00
 S   1 1.00       0.000000000000
      0.1612777588D+00  0.1000000000D+01
 ****
     61 0
 S   3 1.00       0.000000000000
      0.1873113696D+02  0.3349460434D-01
      0.2825394365D+01  0.2347269535D+00
      0.6401216923D+00  0.8137573261D+00
 S   1 1.00       0.000000000000
      0.1612777588D+00  0.1000000000D+01
 ****

   603 basis functions,  1132 primitive gaussians,   603 cartesian basis functions
   132 alpha electrons      132 beta electrons
       nuclear repulsion energy      3756.0430055875 Hartrees.
 IExCor=  402 DFT=T Ex+Corr=B3LYP ExCW=0 ScaHFX=  0.200000
 ScaDFX=  0.800000  0.720000  1.000000  0.810000 ScalE2=  1.000000  1.000000
 IRadAn=      5 IRanWt=     -1 IRanGd=            0 ICorTp=0 IEmpDi=  4
 NAtoms=   61 NActive=   61 NUniq=   61 SFac= 1.00D+00 NAtFMM=   60 NAOKFM=T Big=T
 Integral buffers will be    131072 words long.
 Regular integral format.
 Two-electron integral symmetry is turned off.
 Leave Link  301 at Sat Nov  5 11:30:37 2022, MaxMem=   402653184 cpu:               2.0 elap:               0.4
 (Enter /home/wykgroup/appl/g16/l302.exe)
 NPDir=0 NMtPBC=     1 NCelOv=     1 NCel=       1 NClECP=     1 NCelD=      1
         NCelK=      1 NCelE2=     1 NClLst=     1 CellRange=     0.0.
 One-electron integrals computed using PRISM.
 NBasis=   603 RedAO= T EigKep=  4.06D-04  NBF=   603
 NBsUse=   603 1.00D-06 EigRej= -1.00D+00 NBFU=   603
 Precomputing XC quadrature grid using
 IXCGrd= 4 IRadAn=           5 IRanWt=          -1 IRanGd=           0 AccXCQ= 0.00D+00.
 Generated NRdTot=       0 NPtTot=           0 NUsed=           0 NTot=          32
 NSgBfM=   573   573   573   573   573 MxSgAt=    61 MxSgA2=    61.
 Leave Link  302 at Sat Nov  5 11:30:44 2022, MaxMem=   402653184 cpu:              43.4 elap:               6.5
 (Enter /home/wykgroup/appl/g16/l303.exe)
 DipDrv:  MaxL=1.
 Leave Link  303 at Sat Nov  5 11:30:45 2022, MaxMem=   402653184 cpu:               3.0 elap:               0.6
 (Enter /home/wykgroup/appl/g16/l308.exe)
 Leave Link  308 at Sat Nov  5 11:30:46 2022, MaxMem=   402653184 cpu:               3.1 elap:               0.8
 (Enter /home/wykgroup/appl/g16/l401.exe)
 ExpMin= 1.61D-01 ExpMax= 7.00D+03 ExpMxC= 1.05D+03 IAcc=3 IRadAn=         5 AccDes= 0.00D+00
 Harris functional with IExCor=  402 and IRadAn=       5 diagonalized for initial guess.
 HarFok:  IExCor=  402 AccDes= 0.00D+00 IRadAn=         5 IDoV= 1 UseB2=F ITyADJ=14
 ICtDFT=  3500011 ScaDFX=  1.000000  1.000000  1.000000  1.000000
 FoFCou: FMM=F IPFlag=           0 FMFlag=      100000 FMFlg1=        2001
         NFxFlg=           0 DoJE=T BraDBF=F KetDBF=T FulRan=T
         wScrn=  0.000000 ICntrl=       500 IOpCl=  0 I1Cent=   200000004 NGrid=           0
         NMat0=    1 NMatS0=      1 NMatT0=    0 NMatD0=    1 NMtDS0=    0 NMtDT0=    0
 Symmetry not used in FoFCou.
 Harris En= -1758.79341306975    
 JPrj=0 DoOrth=F DoCkMO=F.
 Leave Link  401 at Sat Nov  5 11:30:56 2022, MaxMem=   402653184 cpu:              64.9 elap:               9.9
 (Enter /home/wykgroup/appl/g16/l502.exe)
 Two-electron integral symmetry not used.
 Closed shell SCF:
 Using DIIS extrapolation, IDIIS=  1040.
 NGot=   402653184 LenX=   401912452 LenY=   401548240
 Requested convergence on RMS density matrix=1.00D-08 within  32 cycles.
 Requested convergence on MAX density matrix=1.00D-06.
 Requested convergence on             energy=1.00D-06.
 No special actions if energy rises.
 Fock matrices will be formed incrementally for  20 cycles.
 Integral accuracy reduced to 1.0D-05 until final iterations.

 Cycle   1  Pass 0  IDiag  1:
 FoFJK:  IHMeth= 1 ICntrl=       0 DoSepK=F KAlg= 0 I1Cent=           0 FoldK=F
 IRaf= 750000000 NMat=       1 IRICut=       1 DoRegI=T DoRafI=F ISym2E= 0 IDoP0=0 IntGTp=1.
 FoFCou: FMM=T IPFlag=           0 FMFlag=      100000 FMFlg1=        2001
         NFxFlg=           0 DoJE=F BraDBF=F KetDBF=F FulRan=T
         wScrn=  0.000000 ICntrl=         0 IOpCl=  0 I1Cent=           0 NGrid=           0
         NMat0=    1 NMatS0=      1 NMatT0=    0 NMatD0=    1 NMtDS0=    0 NMtDT0=    0
 Symmetry not used in FoFCou.
 FMM levels:  10  Number of levels for PrismC:   9
 E= -1758.00269265687    
 DIIS: error= 2.77D-02 at cycle   1 NSaved=   1.
 NSaved= 1 IEnMin= 1 EnMin= -1758.00269265687     IErMin= 1 ErrMin= 2.77D-02
 ErrMax= 2.77D-02  0.00D+00 EMaxC= 1.00D-01 BMatC= 9.18D-01 BMatP= 9.18D-01
 IDIUse=3 WtCom= 7.23D-01 WtEn= 2.77D-01
 Coeff-Com:  0.100D+01
 Coeff-En:   0.100D+01
 Coeff:      0.100D+01
 Gap=     0.174 Goal=   None    Shift=    0.000
 GapD=    0.174 DampG=1.000 DampE=0.500 DampFc=0.5000 IDamp=-1.
 Damping current iteration by 5.00D-01
 RMSDP=4.09D-03 MaxDP=2.60D-01              OVMax= 2.85D-01

 Cycle   2  Pass 0  IDiag  1:
 RMSU=  2.03D-03    CP:  9.84D-01
 E= -1758.18869257343     Delta-E=       -0.185999916561 Rises=F Damp=T
 DIIS: error= 1.15D-02 at cycle   2 NSaved=   2.
 NSaved= 2 IEnMin= 2 EnMin= -1758.18869257343     IErMin= 2 ErrMin= 1.15D-02
 ErrMax= 1.15D-02  0.00D+00 EMaxC= 1.00D-01 BMatC= 1.99D-01 BMatP= 9.18D-01
 IDIUse=3 WtCom= 8.85D-01 WtEn= 1.15D-01
 Coeff-Com:  0.250D+00 0.750D+00
 Coeff-En:   0.377D+00 0.623D+00
 Coeff:      0.265D+00 0.735D+00
 Gap=     0.209 Goal=   None    Shift=    0.000
 RMSDP=1.41D-03 MaxDP=1.47D-01 DE=-1.86D-01 OVMax= 2.04D-01

 Cycle   3  Pass 0  IDiag  1:
 RMSU=  1.22D-03    CP:  9.72D-01  6.60D-01
 E= -1758.68216778880     Delta-E=       -0.493475215368 Rises=F Damp=F
 DIIS: error= 1.13D-02 at cycle   3 NSaved=   3.
 NSaved= 3 IEnMin= 3 EnMin= -1758.68216778880     IErMin= 3 ErrMin= 1.13D-02
 ErrMax= 1.13D-02  0.00D+00 EMaxC= 1.00D-01 BMatC= 1.68D-01 BMatP= 1.99D-01
 IDIUse=3 WtCom= 8.87D-01 WtEn= 1.13D-01
 Coeff-Com:  0.660D-01 0.468D+00 0.466D+00
 Coeff-En:   0.000D+00 0.000D+00 0.100D+01
 Coeff:      0.585D-01 0.415D+00 0.527D+00
 Gap=     0.164 Goal=   None    Shift=    0.000
 RMSDP=9.03D-04 MaxDP=7.35D-02 DE=-4.93D-01 OVMax= 9.58D-02

 Cycle   4  Pass 0  IDiag  1:
 RMSU=  5.07D-04    CP:  9.78D-01  8.06D-01  4.41D-01
 E= -1758.80556859536     Delta-E=       -0.123400806564 Rises=F Damp=F
 DIIS: error= 4.22D-03 at cycle   4 NSaved=   4.
 NSaved= 4 IEnMin= 4 EnMin= -1758.80556859536     IErMin= 4 ErrMin= 4.22D-03
 ErrMax= 4.22D-03  0.00D+00 EMaxC= 1.00D-01 BMatC= 2.72D-02 BMatP= 1.68D-01
 IDIUse=3 WtCom= 9.58D-01 WtEn= 4.22D-02
 Coeff-Com:  0.125D-01 0.980D-01 0.303D+00 0.586D+00
 Coeff-En:   0.000D+00 0.000D+00 0.156D+00 0.844D+00
 Coeff:      0.119D-01 0.939D-01 0.297D+00 0.597D+00
 Gap=     0.158 Goal=   None    Shift=    0.000
 RMSDP=3.09D-04 MaxDP=2.68D-02 DE=-1.23D-01 OVMax= 3.15D-02

 Cycle   5  Pass 0  IDiag  1:
 RMSU=  1.50D-04    CP:  9.77D-01  7.55D-01  5.83D-01  6.47D-01
 E= -1758.82598489550     Delta-E=       -0.020416300144 Rises=F Damp=F
 DIIS: error= 1.09D-03 at cycle   5 NSaved=   5.
 NSaved= 5 IEnMin= 5 EnMin= -1758.82598489550     IErMin= 5 ErrMin= 1.09D-03
 ErrMax= 1.09D-03  0.00D+00 EMaxC= 1.00D-01 BMatC= 2.34D-03 BMatP= 2.72D-02
 IDIUse=3 WtCom= 9.89D-01 WtEn= 1.09D-02
 Coeff-Com:  0.171D-02 0.151D-01 0.133D+00 0.357D+00 0.494D+00
 Coeff-En:   0.000D+00 0.000D+00 0.000D+00 0.182D-01 0.982D+00
 Coeff:      0.169D-02 0.149D-01 0.131D+00 0.353D+00 0.499D+00
 Gap=     0.158 Goal=   None    Shift=    0.000
 RMSDP=1.00D-04 MaxDP=5.59D-03 DE=-2.04D-02 OVMax= 1.26D-02

 Cycle   6  Pass 0  IDiag  1:
 RMSU=  5.53D-05    CP:  9.77D-01  7.62D-01  5.81D-01  7.01D-01  4.85D-01
 E= -1758.82782911794     Delta-E=       -0.001844222438 Rises=F Damp=F
 DIIS: error= 4.94D-04 at cycle   6 NSaved=   6.
 NSaved= 6 IEnMin= 6 EnMin= -1758.82782911794     IErMin= 6 ErrMin= 4.94D-04
 ErrMax= 4.94D-04  0.00D+00 EMaxC= 1.00D-01 BMatC= 3.01D-04 BMatP= 2.34D-03
 IDIUse=3 WtCom= 9.95D-01 WtEn= 4.94D-03
 Coeff-Com:  0.767D-04-0.618D-03 0.503D-01 0.154D+00 0.316D+00 0.480D+00
 Coeff-En:   0.000D+00 0.000D+00 0.000D+00 0.000D+00 0.962D-01 0.904D+00
 Coeff:      0.763D-04-0.615D-03 0.501D-01 0.154D+00 0.315D+00 0.482D+00
 Gap=     0.158 Goal=   None    Shift=    0.000
 RMSDP=3.53D-05 MaxDP=2.68D-03 DE=-1.84D-03 OVMax= 4.05D-03

 Cycle   7  Pass 0  IDiag  1:
 RMSU=  2.05D-05    CP:  9.77D-01  7.63D-01  5.83D-01  6.93D-01  5.72D-01
                    CP:  5.43D-01
 E= -1758.82807393119     Delta-E=       -0.000244813245 Rises=F Damp=F
 DIIS: error= 1.96D-04 at cycle   7 NSaved=   7.
 NSaved= 7 IEnMin= 7 EnMin= -1758.82807393119     IErMin= 7 ErrMin= 1.96D-04
 ErrMax= 1.96D-04  0.00D+00 EMaxC= 1.00D-01 BMatC= 3.40D-05 BMatP= 3.01D-04
 IDIUse=3 WtCom= 9.98D-01 WtEn= 1.96D-03
 Coeff-Com: -0.424D-04-0.210D-02 0.156D-01 0.521D-01 0.140D+00 0.309D+00
 Coeff-Com:  0.486D+00
 Coeff-En:   0.000D+00 0.000D+00 0.000D+00 0.000D+00 0.000D+00 0.585D-01
 Coeff-En:   0.942D+00
 Coeff:     -0.423D-04-0.210D-02 0.156D-01 0.520D-01 0.139D+00 0.309D+00
 Coeff:      0.487D+00
 Gap=     0.158 Goal=   None    Shift=    0.000
 RMSDP=1.14D-05 MaxDP=8.40D-04 DE=-2.45D-04 OVMax= 1.29D-03

 Cycle   8  Pass 0  IDiag  1:
 RMSU=  5.70D-06    CP:  9.77D-01  7.62D-01  5.83D-01  6.97D-01  5.73D-01
                    CP:  5.89D-01  5.54D-01
 E= -1758.82810246144     Delta-E=       -0.000028530253 Rises=F Damp=F
 DIIS: error= 4.01D-05 at cycle   8 NSaved=   8.
 NSaved= 8 IEnMin= 8 EnMin= -1758.82810246144     IErMin= 8 ErrMin= 4.01D-05
 ErrMax= 4.01D-05  0.00D+00 EMaxC= 1.00D-01 BMatC= 2.39D-06 BMatP= 3.40D-05
 IDIUse=1 WtCom= 1.00D+00 WtEn= 0.00D+00
 Coeff-Com:  0.183D-04-0.123D-02 0.476D-02 0.165D-01 0.547D-01 0.140D+00
 Coeff-Com:  0.281D+00 0.505D+00
 Coeff:      0.183D-04-0.123D-02 0.476D-02 0.165D-01 0.547D-01 0.140D+00
 Coeff:      0.281D+00 0.505D+00
 Gap=     0.158 Goal=   None    Shift=    0.000
 RMSDP=3.28D-06 MaxDP=1.75D-04 DE=-2.85D-05 OVMax= 4.09D-04

 Initial convergence to 1.0D-05 achieved.  Increase integral accuracy.
 Cycle   9  Pass 1  IDiag  1:
 E= -1758.82804562110     Delta-E=        0.000056840337 Rises=F Damp=F
 DIIS: error= 1.03D-04 at cycle   1 NSaved=   1.
 NSaved= 1 IEnMin= 1 EnMin= -1758.82804562110     IErMin= 1 ErrMin= 1.03D-04
 ErrMax= 1.03D-04  0.00D+00 EMaxC= 1.00D-01 BMatC= 5.39D-06 BMatP= 5.39D-06
 IDIUse=3 WtCom= 9.99D-01 WtEn= 1.03D-03
 Coeff-Com:  0.100D+01
 Coeff-En:   0.100D+01
 Coeff:      0.100D+01
 Gap=     0.158 Goal=   None    Shift=    0.000
 RMSDP=3.28D-06 MaxDP=1.75D-04 DE= 5.68D-05 OVMax= 4.60D-04

 Cycle  10  Pass 1  IDiag  1:
 RMSU=  5.35D-05    CP:  1.00D+00
 E= -1758.82804947807     Delta-E=       -0.000003856963 Rises=F Damp=F
 DIIS: error= 3.40D-05 at cycle   2 NSaved=   2.
 NSaved= 2 IEnMin= 2 EnMin= -1758.82804947807     IErMin= 2 ErrMin= 3.40D-05
 ErrMax= 3.40D-05  0.00D+00 EMaxC= 1.00D-01 BMatC= 9.59D-07 BMatP= 5.39D-06
 IDIUse=1 WtCom= 1.00D+00 WtEn= 0.00D+00
 Coeff-Com:  0.193D+00 0.807D+00
 Coeff:      0.193D+00 0.807D+00
 Gap=     0.158 Goal=   None    Shift=    0.000
 RMSDP=4.22D-06 MaxDP=1.90D-04 DE=-3.86D-06 OVMax= 6.38D-04

 Cycle  11  Pass 1  IDiag  1:
 RMSU=  4.20D-06    CP:  1.00D+00  1.01D+00
 E= -1758.82804824531     Delta-E=        0.000001232755 Rises=F Damp=F
 DIIS: error= 4.97D-05 at cycle   3 NSaved=   3.
 NSaved= 3 IEnMin= 2 EnMin= -1758.82804947807     IErMin= 2 ErrMin= 3.40D-05
 ErrMax= 4.97D-05  0.00D+00 EMaxC= 1.00D-01 BMatC= 2.17D-06 BMatP= 9.59D-07
 IDIUse=1 WtCom= 1.00D+00 WtEn= 0.00D+00
 Coeff-Com: -0.229D-02 0.602D+00 0.400D+00
 Coeff:     -0.229D-02 0.602D+00 0.400D+00
 Gap=     0.158 Goal=   None    Shift=    0.000
 RMSDP=2.57D-06 MaxDP=1.37D-04 DE= 1.23D-06 OVMax= 3.75D-04

 Cycle  12  Pass 1  IDiag  1:
 RMSU=  4.43D-07    CP:  1.00D+00  1.01D+00  4.00D-01
 E= -1758.82805045684     Delta-E=       -0.000002211535 Rises=F Damp=F
 DIIS: error= 4.60D-06 at cycle   4 NSaved=   4.
 NSaved= 4 IEnMin= 4 EnMin= -1758.82805045684     IErMin= 4 ErrMin= 4.60D-06
 ErrMax= 4.60D-06  0.00D+00 EMaxC= 1.00D-01 BMatC= 2.03D-08 BMatP= 9.59D-07
 IDIUse=1 WtCom= 1.00D+00 WtEn= 0.00D+00
 Coeff-Com: -0.341D-02 0.372D+00 0.253D+00 0.379D+00
 Coeff:     -0.341D-02 0.372D+00 0.253D+00 0.379D+00
 Gap=     0.158 Goal=   None    Shift=    0.000
 RMSDP=2.62D-07 MaxDP=1.93D-05 DE=-2.21D-06 OVMax= 3.38D-05

 Cycle  13  Pass 1  IDiag  1:
 RMSU=  1.29D-07    CP:  1.00D+00  1.01D+00  4.03D-01  4.88D-01
 E= -1758.82805047391     Delta-E=       -0.000000017068 Rises=F Damp=F
 DIIS: error= 7.79D-07 at cycle   5 NSaved=   5.
 NSaved= 5 IEnMin= 5 EnMin= -1758.82805047391     IErMin= 5 ErrMin= 7.79D-07
 ErrMax= 7.79D-07  0.00D+00 EMaxC= 1.00D-01 BMatC= 7.04D-10 BMatP= 2.03D-08
 IDIUse=1 WtCom= 1.00D+00 WtEn= 0.00D+00
 Coeff-Com: -0.188D-02 0.184D+00 0.126D+00 0.224D+00 0.468D+00
 Coeff:     -0.188D-02 0.184D+00 0.126D+00 0.224D+00 0.468D+00
 Gap=     0.158 Goal=   None    Shift=    0.000
 RMSDP=5.03D-08 MaxDP=3.42D-06 DE=-1.71D-08 OVMax= 6.80D-06

 Cycle  14  Pass 1  IDiag  1:
 RMSU=  3.84D-08    CP:  1.00D+00  1.01D+00  4.06D-01  5.04D-01  7.69D-01
 E= -1758.82805047449     Delta-E=       -0.000000000578 Rises=F Damp=F
 DIIS: error= 1.64D-07 at cycle   6 NSaved=   6.
 NSaved= 6 IEnMin= 6 EnMin= -1758.82805047449     IErMin= 6 ErrMin= 1.64D-07
 ErrMax= 1.64D-07  0.00D+00 EMaxC= 1.00D-01 BMatC= 3.90D-11 BMatP= 7.04D-10
 IDIUse=1 WtCom= 1.00D+00 WtEn= 0.00D+00
 Coeff-Com: -0.684D-03 0.634D-01 0.435D-01 0.861D-01 0.249D+00 0.559D+00
 Coeff:     -0.684D-03 0.634D-01 0.435D-01 0.861D-01 0.249D+00 0.559D+00
 Gap=     0.158 Goal=   None    Shift=    0.000
 RMSDP=1.17D-08 MaxDP=7.52D-07 DE=-5.78D-10 OVMax= 1.28D-06

 Cycle  15  Pass 1  IDiag  1:
 RMSU=  1.02D-08    CP:  1.00D+00  1.01D+00  4.05D-01  5.04D-01  7.89D-01
                    CP:  8.76D-01
 E= -1758.82805047453     Delta-E=       -0.000000000036 Rises=F Damp=F
 DIIS: error= 5.05D-08 at cycle   7 NSaved=   7.
 NSaved= 7 IEnMin= 7 EnMin= -1758.82805047453     IErMin= 7 ErrMin= 5.05D-08
 ErrMax= 5.05D-08  0.00D+00 EMaxC= 1.00D-01 BMatC= 3.12D-12 BMatP= 3.90D-11
 IDIUse=1 WtCom= 1.00D+00 WtEn= 0.00D+00
 Coeff-Com: -0.133D-03 0.114D-01 0.777D-02 0.192D-01 0.698D-01 0.265D+00
 Coeff-Com:  0.627D+00
 Coeff:     -0.133D-03 0.114D-01 0.777D-02 0.192D-01 0.698D-01 0.265D+00
 Coeff:      0.627D+00
 Gap=     0.158 Goal=   None    Shift=    0.000
 RMSDP=4.55D-09 MaxDP=2.70D-07 DE=-3.64D-11 OVMax= 5.34D-07

 SCF Done:  E(RB3LYP) =  -1758.82805047     A.U. after   15 cycles
            NFock= 15  Conv=0.45D-08     -V/T= 2.0092
 KE= 1.742834828693D+03 PE=-1.161280362243D+04 EE= 4.355097737679D+03
 Leave Link  502 at Sat Nov  5 11:33:34 2022, MaxMem=   402653184 cpu:            1101.8 elap:             158.6
 (Enter /home/wykgroup/appl/g16/l508.exe)
 QCSCF skips out because SCF is already converged.
 Leave Link  508 at Sat Nov  5 11:33:34 2022, MaxMem=   402653184 cpu:               0.3 elap:               0.2
 (Enter /home/wykgroup/appl/g16/l801.exe)
 DoSCS=F DFT=T ScalE2(SS,OS)=  1.000000  1.000000
 ExpMin= 1.61D-01 ExpMax= 7.00D+03 ExpMxC= 1.05D+03 IAcc=3 IRadAn=         5 AccDes= 0.00D+00
 HarFok:  IExCor=  205 AccDes= 0.00D+00 IRadAn=         5 IDoV=-2 UseB2=F ITyADJ=14
 ICtDFT= 12500011 ScaDFX=  1.000000  1.000000  1.000000  1.000000
 GSVD:  LWork=       -1665 too small for GESVD, short by        7400 words or        7400 for optimal perf.
 Largest valence mixing into a core orbital is  5.85D-05
 Largest core mixing into a valence orbital is  1.50D-05
 Range of M.O.s used for correlation:    38   603
 NBasis=   603 NAE=   132 NBE=   132 NFC=    37 NFV=     0
 NROrb=    566 NOA=    95 NOB=    95 NVA=   471 NVB=   471

 **** Warning!!: The largest alpha MO coefficient is  0.12557168D+02

 Leave Link  801 at Sat Nov  5 11:33:35 2022, MaxMem=   402653184 cpu:               4.7 elap:               0.8
 (Enter /home/wykgroup/appl/g16/l914.exe)
 RHF ground state
 Two-electron integral symmetry not used.
 MDV=   402653184 DFT=T DoStab=F Mixed=T DoRPA=T DoScal=F NonHer=T
 Making orbital integer symmetry assigments:
    16 initial guesses have been made.
 Convergence on wavefunction:    0.001000000000000
 Davidson Disk Diagonalization:  ConvIn= 1.00D-03 SkipCon=T Conv= 1.00D-03.
 Max sub-space:  2000 roots to seek:    16 dimension of matrix:        89490
 Iteration     1 Dimension    16 NMult     0 NNew     16
 CISAX will form    16 AO SS matrices at one time.
 NMat=    16 NSing=     8 JSym2X= 0.
 FoFJK:  IHMeth= 1 ICntrl=       0 DoSepK=F KAlg= 0 I1Cent=           0 FoldK=F
 IRaf= 750000000 NMat=      32 IRICut=       1 DoRegI=T DoRafI=F ISym2E= 0 IDoP0=0 IntGTp=1.
 FoFCou: FMM=T IPFlag=           0 FMFlag=      100000 FMFlg1=        2001
         NFxFlg=           0 DoJE=F BraDBF=F KetDBF=F FulRan=T
         wScrn=  0.000000 ICntrl=         0 IOpCl=  0 I1Cent=           0 NGrid=           0
         NMat0=   32 NMatS0=      8 NMatT0=    8 NMatD0=   32 NMtDS0=    0 NMtDT0=    0
 Symmetry not used in FoFCou.
 FMM levels:  10  Number of levels for PrismC:   9
 New state      1 was old state      6
 New state      3 was old state      1
 New state      4 was old state     12
 New state      5 was old state      4
 New state      6 was old state      3
 New state      7 was old state     10
 New state      8 was old state      9
 Excitation Energies [eV] at current iteration:
 Root      1 :     3.661063605578167
 Root      2 :     3.947503770118629
 Root      3 :     3.957225063590103
 Root      4 :     4.372284052798740
 Root      5 :     4.567947532853505
 Root      6 :     4.581717477896474
 Root      7 :     5.005688478793792
 Root      8 :     5.007394874807733
 Root      9 :     5.010276946281433
 Root     10 :     5.010831861192489
 Root     11 :     5.029787026117742
 Root     12 :     5.053702084557022
 Root     13 :     5.175290885909427
 Root     14 :     5.178579989190691
 Root     15 :     5.200774564388483
 Root     16 :     5.485743829753779
 Vector   4 SDiff=1.64D+00 TDiff=1.07D+01 assumed to be singlet.
 Vector   8 SDiff=1.67D+00 TDiff=1.02D+01 assumed to be singlet.
 Iteration     2 Dimension    24 NMult    16 NNew      8
 CISAX will form     8 AO SS matrices at one time.
 NMat=     8 NSing=     4 JSym2X= 0.
 Root      1 not converged, maximum delta is    0.184179759679923
 Root      2 not converged, maximum delta is    0.244534379831902
 Root      3 not converged, maximum delta is    0.035987678131626
 New state      4 was old state      6
 Root      4 not converged, maximum delta is    0.011480246488706
 Excitation Energies [eV] at current iteration:
 Root      1 :     3.315650586595929   Change is   -0.345413018982237
 Root      2 :     3.900611760892197   Change is   -0.046892009226432
 Root      3 :     3.947217292427116   Change is   -0.010007771162987
 Root      4 :     4.575041847404623   Change is   -0.006675630491851
 Iteration     3 Dimension    32 NMult    24 NNew      8
 CISAX will form     8 AO SS matrices at one time.
 NMat=     8 NSing=     4 JSym2X= 0.
 Root      1 not converged, maximum delta is    0.083540576950542
 Root      2 not converged, maximum delta is    0.443137082143140
 Root      3 not converged, maximum delta is    0.001943396259767
 Root      4 not converged, maximum delta is    0.027746444127370
 Excitation Energies [eV] at current iteration:
 Root      1 :     3.257818241568699   Change is   -0.057832345027230
 Root      2 :     3.689613069084769   Change is   -0.210998691807427
 Root      3 :     3.946815406591394   Change is   -0.000401885835722
 Root      4 :     4.566959399119990   Change is   -0.008082448284632
 Iteration     4 Dimension    40 NMult    32 NNew      8
 CISAX will form     8 AO SS matrices at one time.
 NMat=     8 NSing=     4 JSym2X= 0.
 Root      1 not converged, maximum delta is    0.012609977488364
 Root      2 not converged, maximum delta is    0.102029483284426
 Root      3 has converged.
 Root      4 not converged, maximum delta is    0.005493402492453
 Excitation Energies [eV] at current iteration:
 Root      1 :     3.251880506739475   Change is   -0.005937734829224
 Root      2 :     3.600292670060628   Change is   -0.089320399024142
 Root      3 :     3.946751345731854   Change is   -0.000064060859541
 Root      4 :     4.566283407794757   Change is   -0.000675991325232
 Iteration     5 Dimension    46 NMult    40 NNew      6
 CISAX will form     6 AO SS matrices at one time.
 NMat=     6 NSing=     2 JSym2X= 0.
 Root      1 not converged, maximum delta is    0.002139993034788
 Root      2 not converged, maximum delta is    0.027352125305132
 Root      3 has converged.
 Root      4 not converged, maximum delta is    0.002867470329939
 Excitation Energies [eV] at current iteration:
 Root      1 :     3.251309679077634   Change is   -0.000570827661841
 Root      2 :     3.586440716072423   Change is   -0.013851953988205
 Root      3 :     3.946750379017232   Change is   -0.000000966714622
 Root      4 :     4.566085045424180   Change is   -0.000198362370577
 Iteration     6 Dimension    52 NMult    46 NNew      6
 CISAX will form     6 AO SS matrices at one time.
 NMat=     6 NSing=     2 JSym2X= 0.
 Root      1 has converged.
 Root      2 not converged, maximum delta is    0.003370161268642
 Root      3 has converged.
 Root      4 not converged, maximum delta is    0.001039007857271
 Excitation Energies [eV] at current iteration:
 Root      1 :     3.251257342369005   Change is   -0.000052336708629
 Root      2 :     3.584582928217816   Change is   -0.001857787854607
 Root      3 :     3.946750158660008   Change is   -0.000000220357223
 Root      4 :     4.566023624789586   Change is   -0.000061420634594
 Iteration     7 Dimension    56 NMult    52 NNew      4
 CISAX will form     4 AO SS matrices at one time.
 NMat=     4 NSing=     2 JSym2X= 0.
 Root      1 has converged.
 Root      2 not converged, maximum delta is    0.001880627931090
 Root      3 has converged.
 Root      4 has converged.
 Excitation Energies [eV] at current iteration:
 Root      1 :     3.251257267028859   Change is   -0.000000075340146
 Root      2 :     3.584385968429551   Change is   -0.000196959788265
 Root      3 :     3.946749307507567   Change is   -0.000000851152442
 Root      4 :     4.566009504769847   Change is   -0.000014120019738
 Iteration     8 Dimension    58 NMult    56 NNew      2
 CISAX will form     2 AO SS matrices at one time.
 NMat=     2 NSing=     0 JSym2X= 0.
 Root      1 has converged.
 Root      2 has converged.
 Root      3 has converged.
 Root      4 has converged.
 Excitation Energies [eV] at current iteration:
 Root      1 :     3.251257262400748   Change is   -0.000000004628112
 Root      2 :     3.584353538261335   Change is   -0.000032430168216
 Root      3 :     3.946749307507650   Change is    0.000000000000083
 Root      4 :     4.566009504769973   Change is    0.000000000000125
 Convergence achieved on expansion vectors.
 ***********************************************************************
 Excited states from <AA,BB:AA,BB> singles matrix:
 ***********************************************************************
 
 1PDM for each excited state written to RWF  633
 Ground to excited state transition densities written to RWF  633
 Ground to excited state transition electric dipole moments (Au):
       state          X           Y           Z        Dip. S.      Osc.
         1         0.0000      0.0000     -0.0000      0.0000      0.0000
         2         0.0000     -0.0000      0.0000      0.0000      0.0000
         3         0.1364      0.0846     -0.0822      0.0325      0.0031
         4         0.0891      0.3000     -0.0888      0.1059      0.0118
 Ground to excited state transition velocity dipole moments (Au):
       state          X           Y           Z        Dip. S.      Osc.
         1         0.0000      0.0000      0.0000      0.0000      0.0000
         2        -0.0000      0.0000     -0.0000      0.0000      0.0000
         3        -0.0186     -0.0113      0.0102      0.0006      0.0027
         4        -0.0138     -0.0489      0.0145      0.0028      0.0111
 Ground to excited state transition magnetic dipole moments (Au):
       state          X           Y           Z
         1         0.0000      0.0000     -0.0000
         2        -0.0000     -0.0000      0.0000
         3         0.0110      0.0758      0.0289
         4         0.0328      0.0404      0.1034
 Ground to excited state transition velocity quadrupole moments (Au):
       state          XX          YY          ZZ          XY          XZ          YZ
         1        -0.0000     -0.0000      0.0000      0.0000     -0.0000      0.0000
         2         0.0000      0.0000     -0.0000     -0.0000      0.0000     -0.0000
         3        -0.0056      0.0778      0.0287      0.1341     -0.0774     -0.0609
         4         0.0198     -0.0214      0.0524      0.4132     -0.1461     -0.0778
 <0|del|b> * <b|rxdel|0> + <0|del|b> * <b|delr+rdel|0>
 Rotatory Strengths (R) in cgs (10**-40 erg-esu-cm/Gauss)
       state          XX          YY          ZZ    R(velocity)    E-M Angle
         1         0.0000      0.0000     -0.0000      0.0000       90.00
         2        -0.0000      0.0000     -0.0000      0.0000       90.00
         3        -0.1468     -0.3607     -3.2126     -1.2400      112.84
         4        -3.4998     -8.1256      7.6801     -1.3151       98.80
 1/2[<0|r|b>*<b|rxdel|0> + (<0|rxdel|b>*<b|r|0>)*]
 Rotatory Strengths (R) in cgs (10**-40 erg-esu-cm/Gauss)
       state          XX          YY          ZZ     R(length)
         1        -0.0000     -0.0000     -0.0000     -0.0000
         2         0.0000     -0.0000     -0.0000     -0.0000
         3        -1.0605     -4.5366      1.6805     -1.3055
         4        -2.0670     -8.5723      6.4907     -1.3829
  1/2[<0|del|b>*<b|r|0> + (<0|r|b>*<b|del|0>)*] (Au)
       state          X           Y           Z        Dip. S.   Osc.(frdel)
         1         0.0000      0.0000     -0.0000     -0.0000     -0.0000
         2        -0.0000     -0.0000     -0.0000      0.0000      0.0000
         3        -0.0025     -0.0010     -0.0008      0.0043      0.0029
         4        -0.0012     -0.0147     -0.0013      0.0172      0.0115

 Excitation energies and oscillator strengths:
 
 Excited state symmetry could not be determined.
 Excited State   1:      Triplet-?Sym    3.2513 eV  381.34 nm  f=0.0000  <S**2>=2.000
     126 ->135         0.21829
     131 ->133         0.64869
 This state for optimization and/or second-order correction.
 Total Energy, E(TD-HF/TD-DFT) =  -1758.70856897    
 Copying the excited state density for this state as the 1-particle RhoCI density.
 
 Excited state symmetry could not be determined.
 Excited State   2:      Triplet-?Sym    3.5844 eV  345.90 nm  f=0.0000  <S**2>=2.000
     130 ->138         0.32390
     132 ->136         0.32944
     132 ->137        -0.17504
     132 ->138        -0.11016
     132 ->139         0.15773
     132 ->140         0.41169
 
 Excited state symmetry could not be determined.
 Excited State   3:      Singlet-?Sym    3.9467 eV  314.14 nm  f=0.0031  <S**2>=0.000
     132 ->133         0.70478
 
 Excited state symmetry could not be determined.
 Excited State   4:      Singlet-?Sym    4.5660 eV  271.54 nm  f=0.0118  <S**2>=0.000
     132 ->134         0.70374
 SavETr:  write IOETrn=   770 NScale= 10 NData=  16 NLR=1 NState=    4 LETran=      82.
 Leave Link  914 at Sat Nov  5 11:55:42 2022, MaxMem=   402653184 cpu:            9350.8 elap:            1327.2
 (Enter /home/wykgroup/appl/g16/l601.exe)
 Copying SCF densities to generalized density rwf, IOpCl= 0 IROHF=0.

 **********************************************************************

            Population analysis using the SCF Density.

 **********************************************************************

 Alpha  occ. eigenvalues --  -24.70875 -19.19122 -19.17548 -19.14183 -19.13651
 Alpha  occ. eigenvalues --  -19.13149 -19.12793 -14.39917 -14.39020 -14.37719
 Alpha  occ. eigenvalues --  -10.32529 -10.31668 -10.31327 -10.30720 -10.28047
 Alpha  occ. eigenvalues --  -10.25768 -10.25601 -10.24442 -10.24297 -10.23960
 Alpha  occ. eigenvalues --  -10.23916 -10.22793 -10.22495 -10.21711 -10.21106
 Alpha  occ. eigenvalues --  -10.20751 -10.20591 -10.20583 -10.20505 -10.20451
 Alpha  occ. eigenvalues --  -10.20345 -10.20250 -10.19607 -10.19012 -10.18783
 Alpha  occ. eigenvalues --  -10.18612 -10.18158  -1.22074  -1.09915  -1.07633
 Alpha  occ. eigenvalues --   -1.06136  -1.06071  -1.04601  -1.00940  -0.98022
 Alpha  occ. eigenvalues --   -0.96326  -0.93689  -0.87362  -0.86481  -0.84619
 Alpha  occ. eigenvalues --   -0.81392  -0.78903  -0.77336  -0.76048  -0.75997
 Alpha  occ. eigenvalues --   -0.75714  -0.74671  -0.72918  -0.71880  -0.69407
 Alpha  occ. eigenvalues --   -0.69159  -0.65146  -0.63695  -0.63203  -0.62827
 Alpha  occ. eigenvalues --   -0.62238  -0.60654  -0.59488  -0.58749  -0.57131
 Alpha  occ. eigenvalues --   -0.56881  -0.55462  -0.54221  -0.53867  -0.53147
 Alpha  occ. eigenvalues --   -0.52632  -0.51680  -0.50683  -0.49857  -0.49423
 Alpha  occ. eigenvalues --   -0.48685  -0.47939  -0.47524  -0.47141  -0.47011
 Alpha  occ. eigenvalues --   -0.46601  -0.46262  -0.45763  -0.45467  -0.45208
 Alpha  occ. eigenvalues --   -0.44488  -0.44368  -0.43920  -0.43876  -0.43580
 Alpha  occ. eigenvalues --   -0.43285  -0.42582  -0.42273  -0.42211  -0.41707
 Alpha  occ. eigenvalues --   -0.41110  -0.40967  -0.40396  -0.39927  -0.39406
 Alpha  occ. eigenvalues --   -0.39151  -0.38836  -0.38712  -0.37802  -0.37386
 Alpha  occ. eigenvalues --   -0.36740  -0.36414  -0.36312  -0.36092  -0.35525
 Alpha  occ. eigenvalues --   -0.35054  -0.32826  -0.32323  -0.31982  -0.30022
 Alpha  occ. eigenvalues --   -0.29051  -0.28307  -0.27623  -0.27210  -0.26945
 Alpha  occ. eigenvalues --   -0.26431  -0.26117  -0.25457  -0.25368  -0.24684
 Alpha  occ. eigenvalues --   -0.23617  -0.20838
 Alpha virt. eigenvalues --   -0.05034  -0.02543  -0.01226  -0.01188  -0.00761
 Alpha virt. eigenvalues --    0.00351   0.00576   0.01116   0.04193   0.06603
 Alpha virt. eigenvalues --    0.07097   0.07727   0.09174   0.09615   0.09716
 Alpha virt. eigenvalues --    0.11113   0.11619   0.12033   0.12258   0.13058
 Alpha virt. eigenvalues --    0.13206   0.13556   0.14112   0.14782   0.14984
 Alpha virt. eigenvalues --    0.15168   0.15556   0.15723   0.15970   0.16196
 Alpha virt. eigenvalues --    0.16390   0.16749   0.16904   0.17077   0.17254
 Alpha virt. eigenvalues --    0.17425   0.18077   0.18268   0.18455   0.19164
 Alpha virt. eigenvalues --    0.19990   0.20760   0.21173   0.21363   0.22455
 Alpha virt. eigenvalues --    0.23190   0.24219   0.25666   0.25989   0.26419
 Alpha virt. eigenvalues --    0.27199   0.27618   0.27960   0.28641   0.29144
 Alpha virt. eigenvalues --    0.30540   0.30987   0.31804   0.32567   0.32996
 Alpha virt. eigenvalues --    0.33739   0.34126   0.34390   0.35386   0.35951
 Alpha virt. eigenvalues --    0.37447   0.38100   0.38946   0.39504   0.42491
 Alpha virt. eigenvalues --    0.43023   0.44244   0.47573   0.48032   0.48270
 Alpha virt. eigenvalues --    0.48640   0.49482   0.49985   0.50311   0.50706
 Alpha virt. eigenvalues --    0.51136   0.51796   0.51937   0.52085   0.52526
 Alpha virt. eigenvalues --    0.52568   0.53284   0.53643   0.53861   0.54152
 Alpha virt. eigenvalues --    0.54724   0.55190   0.55560   0.55850   0.56485
 Alpha virt. eigenvalues --    0.56603   0.57402   0.57730   0.57852   0.58056
 Alpha virt. eigenvalues --    0.58267   0.58648   0.58903   0.59165   0.59262
 Alpha virt. eigenvalues --    0.59374   0.59585   0.60073   0.60574   0.61019
 Alpha virt. eigenvalues --    0.61324   0.61479   0.62022   0.62550   0.62808
 Alpha virt. eigenvalues --    0.63455   0.63651   0.64173   0.64488   0.65194
 Alpha virt. eigenvalues --    0.65676   0.66036   0.66380   0.67590   0.67946
 Alpha virt. eigenvalues --    0.68329   0.69362   0.69648   0.70576   0.71313
 Alpha virt. eigenvalues --    0.71883   0.72993   0.74178   0.74694   0.76398
 Alpha virt. eigenvalues --    0.77008   0.77264   0.77557   0.77935   0.78550
 Alpha virt. eigenvalues --    0.79672   0.80265   0.80585   0.80824   0.81098
 Alpha virt. eigenvalues --    0.81306   0.81913   0.82771   0.83195   0.83566
 Alpha virt. eigenvalues --    0.83993   0.84275   0.84524   0.84812   0.85053
 Alpha virt. eigenvalues --    0.85137   0.85623   0.85729   0.86037   0.86912
 Alpha virt. eigenvalues --    0.87252   0.87954   0.88310   0.88605   0.89053
 Alpha virt. eigenvalues --    0.89501   0.90751   0.91204   0.92191   0.92339
 Alpha virt. eigenvalues --    0.92608   0.92996   0.93313   0.93884   0.94813
 Alpha virt. eigenvalues --    0.95445   0.95740   0.96152   0.97023   0.97770
 Alpha virt. eigenvalues --    0.98164   0.98437   0.99017   0.99298   1.00430
 Alpha virt. eigenvalues --    1.00723   1.01654   1.02575   1.04355   1.05483
 Alpha virt. eigenvalues --    1.05671   1.05876   1.06940   1.07338   1.07958
 Alpha virt. eigenvalues --    1.08166   1.08897   1.09389   1.10761   1.11072
 Alpha virt. eigenvalues --    1.12279   1.12668   1.13809   1.13969   1.15281
 Alpha virt. eigenvalues --    1.16133   1.16534   1.17745   1.17981   1.19301
 Alpha virt. eigenvalues --    1.20297   1.21471   1.22136   1.22781   1.23319
 Alpha virt. eigenvalues --    1.23656   1.24775   1.25195   1.25417   1.26167
 Alpha virt. eigenvalues --    1.28023   1.29460   1.29839   1.30348   1.30873
 Alpha virt. eigenvalues --    1.31031   1.32162   1.34372   1.35484   1.36724
 Alpha virt. eigenvalues --    1.37533   1.37565   1.37861   1.38399   1.38817
 Alpha virt. eigenvalues --    1.39911   1.40864   1.41682   1.42710   1.42970
 Alpha virt. eigenvalues --    1.43588   1.43881   1.44316   1.44540   1.45395
 Alpha virt. eigenvalues --    1.45908   1.46595   1.47404   1.47737   1.48025
 Alpha virt. eigenvalues --    1.49456   1.49787   1.49927   1.50870   1.51772
 Alpha virt. eigenvalues --    1.52572   1.53015   1.54231   1.55233   1.56585
 Alpha virt. eigenvalues --    1.59187   1.59954   1.61068   1.64618   1.65866
 Alpha virt. eigenvalues --    1.67332   1.67461   1.69117   1.70581   1.71365
 Alpha virt. eigenvalues --    1.73537   1.74191   1.74460   1.74617   1.75651
 Alpha virt. eigenvalues --    1.76125   1.76413   1.77516   1.77798   1.77910
 Alpha virt. eigenvalues --    1.79542   1.80063   1.80464   1.80929   1.81500
 Alpha virt. eigenvalues --    1.82428   1.82560   1.83267   1.84120   1.84920
 Alpha virt. eigenvalues --    1.85438   1.85596   1.86099   1.86536   1.86983
 Alpha virt. eigenvalues --    1.87541   1.88172   1.89175   1.89624   1.90095
 Alpha virt. eigenvalues --    1.90941   1.92045   1.92562   1.94047   1.94403
 Alpha virt. eigenvalues --    1.94954   1.95775   1.96188   1.96767   1.97587
 Alpha virt. eigenvalues --    1.97904   1.98334   1.98723   1.99392   2.00278
 Alpha virt. eigenvalues --    2.01033   2.01161   2.01690   2.03312   2.03477
 Alpha virt. eigenvalues --    2.04390   2.04760   2.05488   2.06222   2.07753
 Alpha virt. eigenvalues --    2.08609   2.09267   2.09613   2.10109   2.10675
 Alpha virt. eigenvalues --    2.10767   2.11362   2.12459   2.12804   2.13276
 Alpha virt. eigenvalues --    2.14197   2.14534   2.15716   2.15988   2.16319
 Alpha virt. eigenvalues --    2.17683   2.17943   2.18727   2.19527   2.19804
 Alpha virt. eigenvalues --    2.22564   2.24534   2.24837   2.26053   2.26337
 Alpha virt. eigenvalues --    2.27053   2.27953   2.28473   2.29296   2.29878
 Alpha virt. eigenvalues --    2.30453   2.31123   2.31468   2.31787   2.33562
 Alpha virt. eigenvalues --    2.34547   2.35363   2.35384   2.36914   2.37259
 Alpha virt. eigenvalues --    2.38610   2.39075   2.40077   2.40669   2.42059
 Alpha virt. eigenvalues --    2.44443   2.46094   2.46911   2.47330   2.49200
 Alpha virt. eigenvalues --    2.49446   2.52086   2.52506   2.53847   2.54489
 Alpha virt. eigenvalues --    2.55210   2.56437   2.58139   2.59142   2.59615
 Alpha virt. eigenvalues --    2.61112   2.62810   2.63559   2.64179   2.64606
 Alpha virt. eigenvalues --    2.65740   2.66412   2.67297   2.68120   2.68364
 Alpha virt. eigenvalues --    2.71299   2.72144   2.72262   2.72997   2.73973
 Alpha virt. eigenvalues --    2.75200   2.75479   2.76223   2.76875   2.77778
 Alpha virt. eigenvalues --    2.78121   2.81080   2.81756   2.82877   2.84191
 Alpha virt. eigenvalues --    2.85125   2.87167   2.90188   2.91173   2.93702
 Alpha virt. eigenvalues --    2.95383   2.97050   2.97349   2.98763   2.99275
 Alpha virt. eigenvalues --    3.00418   3.04316   3.08785   3.10090   3.13083
 Alpha virt. eigenvalues --    3.14952   3.16413   3.17916   3.23038   3.30157
 Alpha virt. eigenvalues --    3.34218   3.39804   3.44033   3.45444   3.96945
 Alpha virt. eigenvalues --    4.01904   4.05418   4.06370   4.07816   4.08274
 Alpha virt. eigenvalues --    4.08872   4.10511   4.11277   4.11899   4.13333
 Alpha virt. eigenvalues --    4.13543   4.14798   4.17022   4.23231   4.23752
 Alpha virt. eigenvalues --    4.24664   4.25861   4.29804   4.31399   4.31838
 Alpha virt. eigenvalues --    4.32439   4.35921   4.36539   4.39106   4.41875
 Alpha virt. eigenvalues --    4.43670   4.46639   4.51142   4.54430   4.57644
 Alpha virt. eigenvalues --    4.65504   4.68682   4.74701   4.82903   4.93618
 Alpha virt. eigenvalues --    5.30590
          Condensed to atoms (all electrons):
 Mulliken charges:
               1
     1  C   -0.215737
     2  O   -0.467584
     3  C    0.589641
     4  O   -0.495567
     5  C    0.059920
     6  C   -0.179602
     7  C   -0.166932
     8  C    0.369012
     9  N   -0.734054
    10  C    0.659273
    11  O   -0.491693
    12  C   -0.406552
    13  C   -0.041710
    14  C    0.634435
    15  O   -0.502012
    16  N   -0.639092
    17  C    0.297749
    18  C   -0.130519
    19  C   -0.192190
    20  C    0.387377
    21  O   -0.507633
    22  C   -0.215440
    23  C   -0.212999
    24  C   -0.146183
    25  C    0.824854
    26  O   -0.532417
    27  N   -0.474623
    28  C   -0.244665
    29  C    0.158047
    30  C   -0.191052
    31  C   -0.127687
    32  C   -0.194251
    33  C    0.386790
    34  F   -0.293691
    35  C   -0.258621
    36  C   -0.206897
    37  C   -0.158857
    38  H    0.164447
    39  H    0.170946
    40  H    0.171066
    41  H    0.163247
    42  H    0.194522
    43  H    0.334743
    44  H    0.212945
    45  H    0.151574
    46  H    0.184675
    47  H    0.162533
    48  H    0.142382
    49  H    0.152191
    50  H    0.153398
    51  H    0.169819
    52  H    0.134644
    53  H    0.154582
    54  H    0.206219
    55  H    0.150218
    56  H    0.122238
    57  H    0.141557
    58  H    0.150975
    59  H    0.178582
    60  H    0.127863
    61  H    0.165792
 Sum of Mulliken charges =  -0.00000
 Mulliken charges with hydrogens summed into heavy atoms:
               1
     1  C    0.290723
     2  O   -0.467584
     3  C    0.589641
     4  O   -0.495567
     5  C    0.059920
     6  C   -0.016354
     7  C    0.027590
     8  C    0.369012
     9  N   -0.399310
    10  C    0.659273
    11  O   -0.491693
    12  C   -0.042032
    13  C    0.142964
    14  C    0.634435
    15  O   -0.502012
    16  N   -0.639092
    17  C    0.297749
    18  C    0.032014
    19  C   -0.049808
    20  C    0.387377
    21  O   -0.507633
    22  C    0.259968
    23  C   -0.078354
    24  C    0.008399
    25  C    0.824854
    26  O   -0.532417
    27  N   -0.474623
    28  C    0.111772
    29  C    0.158047
    30  C   -0.068814
    31  C    0.013870
    32  C   -0.043276
    33  C    0.386790
    34  F   -0.293691
    35  C   -0.080039
    36  C   -0.079034
    37  C    0.006935
 Electronic spatial extent (au):  <R**2>=          28114.4970
 Charge=             -0.0000 electrons
 Dipole moment (field-independent basis, Debye):
    X=              0.1154    Y=              1.7790    Z=             -3.4454  Tot=              3.8793
 Quadrupole moment (field-independent basis, Debye-Ang):
   XX=           -215.4298   YY=           -189.4886   ZZ=           -201.3380
   XY=              8.1584   XZ=             10.9357   YZ=            -23.9225
 Traceless Quadrupole moment (field-independent basis, Debye-Ang):
   XX=            -13.3443   YY=             12.5969   ZZ=              0.7474
   XY=              8.1584   XZ=             10.9357   YZ=            -23.9225
 Octapole moment (field-independent basis, Debye-Ang**2):
  XXX=           -142.6876  YYY=            -98.4735  ZZZ=            -54.5292  XYY=            -35.9177
  XXY=           -214.3651  XXZ=             91.8837  XZZ=             70.7428  YZZ=              9.4561
  YYZ=            -27.9758  XYZ=             11.0548
 Hexadecapole moment (field-independent basis, Debye-Ang**3):
 XXXX=         -23881.2247 YYYY=          -9370.2731 ZZZZ=          -3266.9625 XXXY=           1072.2830
 XXXZ=           1722.5569 YYYX=           1409.4556 YYYZ=           1321.5848 ZZZX=            756.7556
 ZZZY=           1684.4130 XXYY=          -4621.7779 XXZZ=          -4131.5980 YYZZ=          -2055.5495
 XXYZ=             -7.5372 YYXZ=            278.9943 ZZXY=            300.8422
 N-N= 3.756043005588D+03 E-N=-1.161280367344D+04  KE= 1.742834828693D+03
 Leave Link  601 at Sat Nov  5 11:55:43 2022, MaxMem=   402653184 cpu:               1.9 elap:               0.4
 (Enter /home/wykgroup/appl/g16/l9999.exe)
 Electronic transition elements 
                 1             2             3             4 
      1  -0.175871D+04 -0.175870D+04 -0.175868D+04 -0.175866D+04
      2   0.000000D+00  0.000000D+00  0.136443D+00  0.891440D-01
      3   0.000000D+00  0.000000D+00  0.846449D-01  0.300043D+00
      4   0.000000D+00  0.000000D+00 -0.822436D-01 -0.888060D-01
      5   0.000000D+00  0.000000D+00 -0.185820D-01 -0.138057D-01
      6   0.000000D+00  0.000000D+00 -0.112695D-01 -0.489369D-01
      7   0.000000D+00  0.000000D+00  0.102209D-01  0.144515D-01
      8   0.000000D+00  0.000000D+00  0.109913D-01  0.327886D-01
      9   0.000000D+00  0.000000D+00  0.757888D-01  0.404010D-01
     10   0.000000D+00  0.000000D+00  0.288949D-01  0.103354D+00
     11   0.000000D+00  0.000000D+00 -0.557078D-02  0.198124D-01
     12   0.000000D+00  0.000000D+00  0.778300D-01 -0.213894D-01
     13   0.000000D+00  0.000000D+00  0.287438D-01  0.523573D-01
     14   0.000000D+00  0.000000D+00  0.134086D+00  0.413175D+00
     15   0.000000D+00  0.000000D+00 -0.773732D-01 -0.146074D+00
     16   0.000000D+00  0.000000D+00 -0.608892D-01 -0.777891D-01
 1\1\GINC-NODE72\SP\RB3LYP TD-FC\6-31G(d)\C27H24F1N3O6\WYKGROUP\05-Nov-
 2022\0\\#p b3lyp/6-31g(d) 6D 10F nosymm GFInput td=(50-50,nstate=2) SC
 F=XQC\\Gaussian input prepared by ASE\\0,1\C,0,8.7759408067,-2.3609954
 312,1.7602341992\O,0,7.4849921582,-1.9655831047,1.2738327399\C,0,7.500
 6442294,-1.0944643945,0.2375748006\O,0,8.528567264,-0.669191901,-0.255
 0828396\C,0,6.1342589074,-0.7270169672,-0.2171837286\C,0,4.9704723526,
 -1.235667816,0.3741476671\C,0,3.7083532815,-0.8657097953,-0.0811012931
 \C,0,3.5995667624,0.0337581305,-1.1541629329\N,0,2.3660798571,0.466754
 7881,-1.680001824\C,0,1.0878434558,0.1071751616,-1.3102123295\O,0,0.82
 51095764,-0.6545654937,-0.3923975717\C,0,-0.0035263082,0.729950531,-2.
 181577022\C,0,-1.3453126967,0.862702432,-1.4496630742\C,0,-1.944418321
 9,-0.5013334806,-1.0835325529\O,0,-2.1098208046,-1.4238774593,-1.85330
 88525\N,0,-2.3002611239,-0.4312542672,0.2552445574\C,0,-2.8849884941,-
 1.496177733,1.0067940062\C,0,-2.4408124098,-1.7710474348,2.3074679408\
 C,0,-3.0127302863,-2.8080972134,3.0295408471\C,0,-4.0234032688,-3.5983
 877717,2.4624878428\O,0,-4.5107281586,-4.5965134556,3.2558159859\C,0,-
 5.532788,-5.4295256942,2.7332901321\C,0,-4.459274173,-3.3300298321,1.1
 604401349\C,0,-3.8934100593,-2.2756158784,0.4410943636\C,0,-1.93700798
 07,0.8207306079,0.815480367\O,0,-2.1596060165,1.1867654617,1.954410073
 \N,0,-1.3068165118,1.5449380002,-0.1711042499\C,0,-1.0323427454,2.9666
 854121,-0.0027744511\C,0,-2.0920340799,3.8724647608,-0.6079337933\C,0,
 -1.8014516293,4.6877663268,-1.7070432016\C,0,-2.7850743983,5.512583252
 5,-2.2604617964\C,0,-4.0716549848,5.5311076776,-1.7258636665\C,0,-4.34
 34225974,4.7135302973,-0.6318955227\F,0,-5.584195735,4.7300008294,-0.1
 038011468\C,0,-3.3840918869,3.8878709955,-0.0630219325\C,0,4.764992573
 5,0.5465489771,-1.750969651\C,0,6.0160387121,0.1702351955,-1.287473884
 8\H,0,8.5796986997,-3.0521508785,2.5805534976\H,0,9.3361789027,-1.4917
 197625,2.1150384286\H,0,9.3500556928,-2.8536762316,0.9708989051\H,0,5.
 0532496393,-1.9307438008,1.2020952174\H,0,2.813680091,-1.2609554628,0.
 3779136917\H,0,2.4407146809,1.1011105716,-2.4644008971\H,0,-0.17596320
 07,0.0684066694,-3.0408804952\H,0,0.3075241759,1.7026995853,-2.5814520
 383\H,0,-2.0504700908,1.3580310593,-2.1344254938\H,0,-1.6611753934,-1.
 1648041938,2.7514224402\H,0,-2.6846338561,-3.0305661054,4.0397902274\H
 ,0,-6.4356312928,-4.85514277,2.4862735825\H,0,-5.1952830376,-5.9712256
 186,1.8396430208\H,0,-5.7670895513,-6.1466980773,3.5221598701\H,0,-5.2
 358380167,-3.9256137419,0.6950115718\H,0,-4.2294701658,-2.0755058465,-
 0.569080513\H,0,-0.9587349699,3.1276252001,1.0760753473\H,0,-0.0527328
 105,3.1926104943,-0.4395752885\H,0,-0.7986160626,4.6867856241,-2.12779
 61588\H,0,-2.5484503047,6.1434657315,-3.1126289047\H,0,-4.8558027878,6
 .1606438293,-2.13309011\H,0,-3.6383711419,3.2756841707,0.7969462491\H,
 0,4.6842787522,1.2434130865,-2.5830951161\H,0,6.9191927818,0.561811753
 3,-1.7434423741\\Version=ES64L-G16RevB.01\HF=-1758.8280505\RMSD=4.547e
 -09\PG=C01 [X(C27H24F1N3O6)]\\@


 ERROR IS THE FORCE THAT WELDS MEN TOGETHER....
 TRUTH IS COMMUNICATED TO MEN ONLY BY DEEDS OF TRUTH.
           TOLSTOI,MY RELIGION
 Job cpu time:       0 days  2 hours 56 minutes 24.5 seconds.
 Elapsed time:       0 days  0 hours 25 minutes  7.1 seconds.
 File lengths (MBytes):  RWF=   2190 Int=      0 D2E=      0 Chk=     76 Scr=      1
 Normal termination of Gaussian 16 at Sat Nov  5 11:55:44 2022.
