 Entering Gaussian System, Link 0=/home/wykgroup/appl/g16/g16
 Input=./calculation/no_transfer_pubchem_sampling_1_b3lyp/39192369.com
 Output=./calculation/no_transfer_pubchem_sampling_1_b3lyp/39192369.log
 Initial command:
 /home/wykgroup/appl/g16/l1.exe "/userdata/scratch/wykgroup/khs/./calculation/no_transfer_pubchem_sampling_1_b3lyp/39192369/Gau-20394.inp" -scrdir="/userdata/scratch/wykgroup/khs/./calculation/no_transfer_pubchem_sampling_1_b3lyp/39192369/"
 Entering Link 1 = /home/wykgroup/appl/g16/l1.exe PID=     20395.
  
 Copyright (c) 1988-2017, Gaussian, Inc.  All Rights Reserved.
  
 This is part of the Gaussian(R) 16 program.  It is based on
 the Gaussian(R) 09 system (copyright 2009, Gaussian, Inc.),
 the Gaussian(R) 03 system (copyright 2003, Gaussian, Inc.),
 the Gaussian(R) 98 system (copyright 1998, Gaussian, Inc.),
 the Gaussian(R) 94 system (copyright 1995, Gaussian, Inc.),
 the Gaussian 92(TM) system (copyright 1992, Gaussian, Inc.),
 the Gaussian 90(TM) system (copyright 1990, Gaussian, Inc.),
 the Gaussian 88(TM) system (copyright 1988, Gaussian, Inc.),
 the Gaussian 86(TM) system (copyright 1986, Carnegie Mellon
 University), and the Gaussian 82(TM) system (copyright 1983,
 Carnegie Mellon University). Gaussian is a federally registered
 trademark of Gaussian, Inc.
  
 This software contains proprietary and confidential information,
 including trade secrets, belonging to Gaussian, Inc.
  
 This software is provided under written license and may be
 used, copied, transmitted, or stored only in accord with that
 written license.
  
 The following legend is applicable only to US Government
 contracts under FAR:
  
                    RESTRICTED RIGHTS LEGEND
  
 Use, reproduction and disclosure by the US Government is
 subject to restrictions as set forth in subparagraphs (a)
 and (c) of the Commercial Computer Software - Restricted
 Rights clause in FAR 52.227-19.
  
 Gaussian, Inc.
 340 Quinnipiac St., Bldg. 40, Wallingford CT 06492
  
  
 ---------------------------------------------------------------
 Warning -- This program may not be used in any manner that
 competes with the business of Gaussian, Inc. or will provide
 assistance to any competitor of Gaussian, Inc.  The licensee
 of this program is prohibited from giving any competitor of
 Gaussian, Inc. access to this program.  By using this program,
 the user acknowledges that Gaussian, Inc. is engaged in the
 business of creating and licensing software in the field of
 computational chemistry and represents and warrants to the
 licensee that it is not a competitor of Gaussian, Inc. and that
 it will not use this program in any manner prohibited above.
 ---------------------------------------------------------------
  

 Cite this work as:
 Gaussian 16, Revision B.01,
 M. J. Frisch, G. W. Trucks, H. B. Schlegel, G. E. Scuseria, 
 M. A. Robb, J. R. Cheeseman, G. Scalmani, V. Barone, 
 G. A. Petersson, H. Nakatsuji, X. Li, M. Caricato, A. V. Marenich, 
 J. Bloino, B. G. Janesko, R. Gomperts, B. Mennucci, H. P. Hratchian, 
 J. V. Ortiz, A. F. Izmaylov, J. L. Sonnenberg, D. Williams-Young, 
 F. Ding, F. Lipparini, F. Egidi, J. Goings, B. Peng, A. Petrone, 
 T. Henderson, D. Ranasinghe, V. G. Zakrzewski, J. Gao, N. Rega, 
 G. Zheng, W. Liang, M. Hada, M. Ehara, K. Toyota, R. Fukuda, 
 J. Hasegawa, M. Ishida, T. Nakajima, Y. Honda, O. Kitao, H. Nakai, 
 T. Vreven, K. Throssell, J. A. Montgomery, Jr., J. E. Peralta, 
 F. Ogliaro, M. J. Bearpark, J. J. Heyd, E. N. Brothers, K. N. Kudin, 
 V. N. Staroverov, T. A. Keith, R. Kobayashi, J. Normand, 
 K. Raghavachari, A. P. Rendell, J. C. Burant, S. S. Iyengar, 
 J. Tomasi, M. Cossi, J. M. Millam, M. Klene, C. Adamo, R. Cammi, 
 J. W. Ochterski, R. L. Martin, K. Morokuma, O. Farkas, 
 J. B. Foresman, and D. J. Fox, Gaussian, Inc., Wallingford CT, 2016.
 
 ******************************************
 Gaussian 16:  ES64L-G16RevB.01 20-Dec-2017
                 4-Nov-2022 
 ******************************************
 %chk=./calculation/no_transfer_pubchem_sampling_1_b3lyp/39192369.chk
 %nprocshared=7
 Will use up to    7 processors via shared memory.
 %mem=6GB
 -----------------------------
 #p b3lyp/6-31g(d) opt SCF=XQC
 -----------------------------
 1/18=20,19=15,26=3,38=1/1,3;
 2/9=110,12=2,17=6,18=5,40=1/2;
 3/5=1,6=6,7=1,11=2,25=1,30=1,71=1,74=-5/1,2,3;
 4//1;
 5/5=2,8=3,13=1,38=5/2,8;
 6/7=2,8=2,9=2,10=2,28=1/1;
 7//1,2,3,16;
 1/18=20,19=15,26=3/3(2);
 2/9=110/2;
 99//99;
 2/9=110/2;
 3/5=1,6=6,7=1,11=2,25=1,30=1,71=1,74=-5/1,2,3;
 4/5=5,16=3,69=1/1;
 5/5=2,8=3,13=1,38=5/2,8;
 7//1,2,3,16;
 1/18=20,19=15,26=3/3(-5);
 2/9=110/2;
 6/7=2,8=2,9=2,10=2,19=2,28=1/1;
 99/9=1/99;
 Leave Link    1 at Fri Nov  4 18:37:18 2022, MaxMem=   805306368 cpu:               1.1 elap:               0.2
 (Enter /home/wykgroup/appl/g16/l101.exe)
 ------------------------------
 Gaussian input prepared by ASE
 ------------------------------
 Symbolic Z-matrix:
 Charge =  0 Multiplicity = 1
 O                    -1.7252    0.78201   3.50978 
 C                    -0.58091   0.39236   3.34955 
 C                    -0.19516  -1.07996   3.50993 
 C                     0.1421   -1.59379   2.14962 
 C                    -0.47575  -2.57389   1.44251 
 S                     0.20405  -2.70822  -0.14363 
 C                     1.28636  -1.38121   0.2829 
 N                     2.15128  -0.85665  -0.62881 
 C                     2.76793   0.37239  -0.45639 
 O                     2.80459   0.9492    0.60391 
 C                     3.41652   0.87633  -1.69356 
 C                     4.65479   1.50369  -1.59114 
 C                     5.27894   1.9952   -2.72245 
 C                     4.66085   1.88485  -3.95764 
 C                     3.41292   1.29136  -4.05884 
 C                     2.79019   0.78289  -2.93314 
 N                     1.13986  -0.95324   1.48002 
 N                     0.44496   1.19314   3.01263 
 C                     0.21288   2.5616    2.61387 
 C                    -0.03351   2.67139   1.10323 
 N                    -1.12441   1.80635   0.71623 
 C                    -1.00655   0.87357  -0.24359 
 O                    -0.05606   0.81502  -1.00982 
 C                    -2.13038  -0.11218  -0.34658 
 C                    -2.30814  -0.74302  -1.575 
 C                    -3.26274  -1.72775  -1.73659 
 C                    -4.04417  -2.0931   -0.64968 
 C                    -5.07627  -3.17791  -0.76546 
 F                    -5.17599  -3.69326  -1.99755 
 F                    -6.30741  -2.74806  -0.43245 
 F                    -4.81213  -4.21199   0.0576 
 C                    -3.87547  -1.47538   0.58352 
 C                    -2.922    -0.48585   0.73659 
 H                     0.67635  -1.15378   4.16187 
 H                    -1.03079  -1.63079   3.93859 
 H                    -1.27511  -3.22035   1.73978 
 H                     2.12154  -1.24497  -1.56045 
 H                     5.11719   1.59014  -0.61947 
 H                     6.24528   2.46998  -2.64148 
 H                     5.14633   2.27264  -4.84089 
 H                     2.92231   1.22737  -5.01874 
 H                     1.79718   0.36471  -3.00575 
 H                     1.27677   0.75232   2.62884 
 H                    -0.66396   2.9176    3.16254 
 H                     1.08263   3.16264   2.88345 
 H                     0.85254   2.34713   0.55199 
 H                    -0.26105   3.71014   0.84145 
 H                    -1.91705   1.78693   1.34125 
 H                    -1.67438  -0.45134  -2.39861 
 H                    -3.39564  -2.215    -2.68992 
 H                    -4.48604  -1.77612   1.42146 
 H                    -2.79008  -0.04514   1.71307 
 
 ITRead=  0  0  0  0  0  0  0  0  0  0  0  0  0  0  0  0  0  0  0  0
 ITRead=  0  0  0  0  0  0  0  0  0  0  0  0  0  0  0  0  0  0  0  0
 ITRead=  0  0  0  0  0  0  0  0  0  0  0  0
 MicOpt= -1 -1 -1 -1 -1 -1 -1 -1 -1 -1 -1 -1 -1 -1 -1 -1 -1 -1 -1 -1
 MicOpt= -1 -1 -1 -1 -1 -1 -1 -1 -1 -1 -1 -1 -1 -1 -1 -1 -1 -1 -1 -1
 MicOpt= -1 -1 -1 -1 -1 -1 -1 -1 -1 -1 -1 -1
 NAtoms=     52 NQM=       52 NQMF=       0 NMMI=      0 NMMIF=      0
                NMic=       0 NMicF=      0.
                    Isotopes and Nuclear Properties:
 (Nuclear quadrupole moments (NQMom) in fm**2, nuclear magnetic moments (NMagM)
  in nuclear magnetons)

  Atom         1           2           3           4           5           6           7           8           9          10
 IAtWgt=          16          12          12          12          12          32          12          14          12          16
 AtmWgt=  15.9949146  12.0000000  12.0000000  12.0000000  12.0000000  31.9720718  12.0000000  14.0030740  12.0000000  15.9949146
 NucSpn=           0           0           0           0           0           0           0           2           0           0
 AtZEff=  -0.0000000  -0.0000000  -0.0000000  -0.0000000  -0.0000000  -0.0000000  -0.0000000  -0.0000000  -0.0000000  -0.0000000
 NQMom=    0.0000000   0.0000000   0.0000000   0.0000000   0.0000000   0.0000000   0.0000000   2.0440000   0.0000000   0.0000000
 NMagM=    0.0000000   0.0000000   0.0000000   0.0000000   0.0000000   0.0000000   0.0000000   0.4037610   0.0000000   0.0000000
 AtZNuc=   8.0000000   6.0000000   6.0000000   6.0000000   6.0000000  16.0000000   6.0000000   7.0000000   6.0000000   8.0000000

  Atom        11          12          13          14          15          16          17          18          19          20
 IAtWgt=          12          12          12          12          12          12          14          14          12          12
 AtmWgt=  12.0000000  12.0000000  12.0000000  12.0000000  12.0000000  12.0000000  14.0030740  14.0030740  12.0000000  12.0000000
 NucSpn=           0           0           0           0           0           0           2           2           0           0
 AtZEff=  -0.0000000  -0.0000000  -0.0000000  -0.0000000  -0.0000000  -0.0000000  -0.0000000  -0.0000000  -0.0000000  -0.0000000
 NQMom=    0.0000000   0.0000000   0.0000000   0.0000000   0.0000000   0.0000000   2.0440000   2.0440000   0.0000000   0.0000000
 NMagM=    0.0000000   0.0000000   0.0000000   0.0000000   0.0000000   0.0000000   0.4037610   0.4037610   0.0000000   0.0000000
 AtZNuc=   6.0000000   6.0000000   6.0000000   6.0000000   6.0000000   6.0000000   7.0000000   7.0000000   6.0000000   6.0000000

  Atom        21          22          23          24          25          26          27          28          29          30
 IAtWgt=          14          12          16          12          12          12          12          12          19          19
 AtmWgt=  14.0030740  12.0000000  15.9949146  12.0000000  12.0000000  12.0000000  12.0000000  12.0000000  18.9984032  18.9984032
 NucSpn=           2           0           0           0           0           0           0           0           1           1
 AtZEff=  -0.0000000  -0.0000000  -0.0000000  -0.0000000  -0.0000000  -0.0000000  -0.0000000  -0.0000000  -0.0000000  -0.0000000
 NQMom=    2.0440000   0.0000000   0.0000000   0.0000000   0.0000000   0.0000000   0.0000000   0.0000000   0.0000000   0.0000000
 NMagM=    0.4037610   0.0000000   0.0000000   0.0000000   0.0000000   0.0000000   0.0000000   0.0000000   2.6288670   2.6288670
 AtZNuc=   7.0000000   6.0000000   8.0000000   6.0000000   6.0000000   6.0000000   6.0000000   6.0000000   9.0000000   9.0000000

  Atom        31          32          33          34          35          36          37          38          39          40
 IAtWgt=          19          12          12           1           1           1           1           1           1           1
 AtmWgt=  18.9984032  12.0000000  12.0000000   1.0078250   1.0078250   1.0078250   1.0078250   1.0078250   1.0078250   1.0078250
 NucSpn=           1           0           0           1           1           1           1           1           1           1
 AtZEff=  -0.0000000  -0.0000000  -0.0000000  -0.0000000  -0.0000000  -0.0000000  -0.0000000  -0.0000000  -0.0000000  -0.0000000
 NQMom=    0.0000000   0.0000000   0.0000000   0.0000000   0.0000000   0.0000000   0.0000000   0.0000000   0.0000000   0.0000000
 NMagM=    2.6288670   0.0000000   0.0000000   2.7928460   2.7928460   2.7928460   2.7928460   2.7928460   2.7928460   2.7928460
 AtZNuc=   9.0000000   6.0000000   6.0000000   1.0000000   1.0000000   1.0000000   1.0000000   1.0000000   1.0000000   1.0000000

  Atom        41          42          43          44          45          46          47          48          49          50
 IAtWgt=           1           1           1           1           1           1           1           1           1           1
 AtmWgt=   1.0078250   1.0078250   1.0078250   1.0078250   1.0078250   1.0078250   1.0078250   1.0078250   1.0078250   1.0078250
 NucSpn=           1           1           1           1           1           1           1           1           1           1
 AtZEff=  -0.0000000  -0.0000000  -0.0000000  -0.0000000  -0.0000000  -0.0000000  -0.0000000  -0.0000000  -0.0000000  -0.0000000
 NQMom=    0.0000000   0.0000000   0.0000000   0.0000000   0.0000000   0.0000000   0.0000000   0.0000000   0.0000000   0.0000000
 NMagM=    2.7928460   2.7928460   2.7928460   2.7928460   2.7928460   2.7928460   2.7928460   2.7928460   2.7928460   2.7928460
 AtZNuc=   1.0000000   1.0000000   1.0000000   1.0000000   1.0000000   1.0000000   1.0000000   1.0000000   1.0000000   1.0000000

  Atom        51          52
 IAtWgt=           1           1
 AtmWgt=   1.0078250   1.0078250
 NucSpn=           1           1
 AtZEff=  -0.0000000  -0.0000000
 NQMom=    0.0000000   0.0000000
 NMagM=    2.7928460   2.7928460
 AtZNuc=   1.0000000   1.0000000
 Leave Link  101 at Fri Nov  4 18:37:18 2022, MaxMem=   805306368 cpu:               2.4 elap:               0.4
 (Enter /home/wykgroup/appl/g16/l103.exe)

 GradGradGradGradGradGradGradGradGradGradGradGradGradGradGradGradGradGrad
 Berny optimization.
 Initialization pass.
                           ----------------------------
                           !    Initial Parameters    !
                           ! (Angstroms and Degrees)  !
 --------------------------                            --------------------------
 ! Name  Definition              Value          Derivative Info.                !
 --------------------------------------------------------------------------------
 ! R1    R(1,2)                  1.2194         estimate D2E/DX2                !
 ! R2    R(2,3)                  1.5304         estimate D2E/DX2                !
 ! R3    R(2,18)                 1.3443         estimate D2E/DX2                !
 ! R4    R(3,4)                  1.4927         estimate D2E/DX2                !
 ! R5    R(3,34)                 1.0909         estimate D2E/DX2                !
 ! R6    R(3,35)                 1.0888         estimate D2E/DX2                !
 ! R7    R(4,5)                  1.3573         estimate D2E/DX2                !
 ! R8    R(4,17)                 1.3617         estimate D2E/DX2                !
 ! R9    R(5,6)                  1.7309         estimate D2E/DX2                !
 ! R10   R(5,36)                 1.0702         estimate D2E/DX2                !
 ! R11   R(6,7)                  1.7647         estimate D2E/DX2                !
 ! R12   R(7,8)                  1.3618         estimate D2E/DX2                !
 ! R13   R(7,17)                 1.2797         estimate D2E/DX2                !
 ! R14   R(8,9)                  1.3858         estimate D2E/DX2                !
 ! R15   R(8,37)                 1.0098         estimate D2E/DX2                !
 ! R16   R(9,10)                 1.2076         estimate D2E/DX2                !
 ! R17   R(9,11)                 1.485          estimate D2E/DX2                !
 ! R18   R(11,12)                1.3919         estimate D2E/DX2                !
 ! R19   R(11,16)                1.392          estimate D2E/DX2                !
 ! R20   R(12,13)                1.3824         estimate D2E/DX2                !
 ! R21   R(12,38)                1.0795         estimate D2E/DX2                !
 ! R22   R(13,14)                1.3856         estimate D2E/DX2                !
 ! R23   R(13,39)                1.0797         estimate D2E/DX2                !
 ! R24   R(14,15)                1.3856         estimate D2E/DX2                !
 ! R25   R(14,40)                1.0799         estimate D2E/DX2                !
 ! R26   R(15,16)                1.3833         estimate D2E/DX2                !
 ! R27   R(15,41)                1.0799         estimate D2E/DX2                !
 ! R28   R(16,42)                1.0799         estimate D2E/DX2                !
 ! R29   R(18,19)                1.4442         estimate D2E/DX2                !
 ! R30   R(18,43)                1.0166         estimate D2E/DX2                !
 ! R31   R(19,20)                1.5345         estimate D2E/DX2                !
 ! R32   R(19,44)                1.0939         estimate D2E/DX2                !
 ! R33   R(19,45)                1.091          estimate D2E/DX2                !
 ! R34   R(20,21)                1.445          estimate D2E/DX2                !
 ! R35   R(20,46)                1.0928         estimate D2E/DX2                !
 ! R36   R(20,47)                1.0951         estimate D2E/DX2                !
 ! R37   R(21,22)                1.3436         estimate D2E/DX2                !
 ! R38   R(21,48)                1.0096         estimate D2E/DX2                !
 ! R39   R(22,23)                1.2223         estimate D2E/DX2                !
 ! R40   R(22,24)                1.4984         estimate D2E/DX2                !
 ! R41   R(24,25)                1.3923         estimate D2E/DX2                !
 ! R42   R(24,33)                1.3927         estimate D2E/DX2                !
 ! R43   R(25,26)                1.381          estimate D2E/DX2                !
 ! R44   R(25,49)                1.0794         estimate D2E/DX2                !
 ! R45   R(26,27)                1.3876         estimate D2E/DX2                !
 ! R46   R(26,50)                1.0789         estimate D2E/DX2                !
 ! R47   R(27,28)                1.5018         estimate D2E/DX2                !
 ! R48   R(27,32)                1.3895         estimate D2E/DX2                !
 ! R49   R(28,29)                1.3392         estimate D2E/DX2                !
 ! R50   R(28,30)                1.3459         estimate D2E/DX2                !
 ! R51   R(28,31)                1.3478         estimate D2E/DX2                !
 ! R52   R(32,33)                1.3826         estimate D2E/DX2                !
 ! R53   R(32,51)                1.0795         estimate D2E/DX2                !
 ! R54   R(33,52)                1.0794         estimate D2E/DX2                !
 ! A1    A(1,2,3)              122.0173         estimate D2E/DX2                !
 ! A2    A(1,2,18)             123.9665         estimate D2E/DX2                !
 ! A3    A(3,2,18)             114.0147         estimate D2E/DX2                !
 ! A4    A(2,3,4)              107.0142         estimate D2E/DX2                !
 ! A5    A(2,3,34)             109.214          estimate D2E/DX2                !
 ! A6    A(2,3,35)             109.5429         estimate D2E/DX2                !
 ! A7    A(4,3,34)             109.9268         estimate D2E/DX2                !
 ! A8    A(4,3,35)             110.9796         estimate D2E/DX2                !
 ! A9    A(34,3,35)            110.0981         estimate D2E/DX2                !
 ! A10   A(3,4,5)              128.3499         estimate D2E/DX2                !
 ! A11   A(3,4,17)             116.8555         estimate D2E/DX2                !
 ! A12   A(5,4,17)             114.6477         estimate D2E/DX2                !
 ! A13   A(4,5,6)              110.7719         estimate D2E/DX2                !
 ! A14   A(4,5,36)             129.1595         estimate D2E/DX2                !
 ! A15   A(6,5,36)             120.0686         estimate D2E/DX2                !
 ! A16   A(5,6,7)               87.767          estimate D2E/DX2                !
 ! A17   A(6,7,8)              121.1559         estimate D2E/DX2                !
 ! A18   A(6,7,17)             114.0387         estimate D2E/DX2                !
 ! A19   A(8,7,17)             124.7621         estimate D2E/DX2                !
 ! A20   A(7,8,9)              122.7472         estimate D2E/DX2                !
 ! A21   A(7,8,37)             116.7991         estimate D2E/DX2                !
 ! A22   A(9,8,37)             117.9658         estimate D2E/DX2                !
 ! A23   A(8,9,10)             123.1173         estimate D2E/DX2                !
 ! A24   A(8,9,11)             113.0573         estimate D2E/DX2                !
 ! A25   A(10,9,11)            123.7898         estimate D2E/DX2                !
 ! A26   A(9,11,12)            118.6992         estimate D2E/DX2                !
 ! A27   A(9,11,16)            121.5065         estimate D2E/DX2                !
 ! A28   A(12,11,16)           119.741          estimate D2E/DX2                !
 ! A29   A(11,12,13)           120.1129         estimate D2E/DX2                !
 ! A30   A(11,12,38)           118.9059         estimate D2E/DX2                !
 ! A31   A(13,12,38)           120.9792         estimate D2E/DX2                !
 ! A32   A(12,13,14)           119.9871         estimate D2E/DX2                !
 ! A33   A(12,13,39)           119.9382         estimate D2E/DX2                !
 ! A34   A(14,13,39)           120.0737         estimate D2E/DX2                !
 ! A35   A(13,14,15)           120.0659         estimate D2E/DX2                !
 ! A36   A(13,14,40)           119.9976         estimate D2E/DX2                !
 ! A37   A(15,14,40)           119.9321         estimate D2E/DX2                !
 ! A38   A(14,15,16)           120.2292         estimate D2E/DX2                !
 ! A39   A(14,15,41)           119.9659         estimate D2E/DX2                !
 ! A40   A(16,15,41)           119.8047         estimate D2E/DX2                !
 ! A41   A(11,16,15)           119.8315         estimate D2E/DX2                !
 ! A42   A(11,16,42)           119.9749         estimate D2E/DX2                !
 ! A43   A(15,16,42)           120.1038         estimate D2E/DX2                !
 ! A44   A(4,17,7)             112.7408         estimate D2E/DX2                !
 ! A45   A(2,18,19)            120.7319         estimate D2E/DX2                !
 ! A46   A(2,18,43)            117.4333         estimate D2E/DX2                !
 ! A47   A(19,18,43)           115.9853         estimate D2E/DX2                !
 ! A48   A(18,19,20)           111.4336         estimate D2E/DX2                !
 ! A49   A(18,19,44)           107.3801         estimate D2E/DX2                !
 ! A50   A(18,19,45)           109.0059         estimate D2E/DX2                !
 ! A51   A(20,19,44)           109.9851         estimate D2E/DX2                !
 ! A52   A(20,19,45)           109.3795         estimate D2E/DX2                !
 ! A53   A(44,19,45)           109.6201         estimate D2E/DX2                !
 ! A54   A(19,20,21)           110.0005         estimate D2E/DX2                !
 ! A55   A(19,20,46)           110.1924         estimate D2E/DX2                !
 ! A56   A(19,20,47)           109.6665         estimate D2E/DX2                !
 ! A57   A(21,20,46)           107.4211         estimate D2E/DX2                !
 ! A58   A(21,20,47)           110.3006         estimate D2E/DX2                !
 ! A59   A(46,20,47)           109.2292         estimate D2E/DX2                !
 ! A60   A(20,21,22)           122.7313         estimate D2E/DX2                !
 ! A61   A(20,21,48)           116.0028         estimate D2E/DX2                !
 ! A62   A(22,21,48)           119.8516         estimate D2E/DX2                !
 ! A63   A(21,22,23)           123.3187         estimate D2E/DX2                !
 ! A64   A(21,22,24)           116.1055         estimate D2E/DX2                !
 ! A65   A(23,22,24)           120.5728         estimate D2E/DX2                !
 ! A66   A(22,24,25)           117.0297         estimate D2E/DX2                !
 ! A67   A(22,24,33)           123.3238         estimate D2E/DX2                !
 ! A68   A(25,24,33)           119.4764         estimate D2E/DX2                !
 ! A69   A(24,25,26)           120.9682         estimate D2E/DX2                !
 ! A70   A(24,25,49)           118.4127         estimate D2E/DX2                !
 ! A71   A(26,25,49)           120.6162         estimate D2E/DX2                !
 ! A72   A(25,26,27)           119.0374         estimate D2E/DX2                !
 ! A73   A(25,26,50)           120.7032         estimate D2E/DX2                !
 ! A74   A(27,26,50)           120.2568         estimate D2E/DX2                !
 ! A75   A(26,27,28)           121.119          estimate D2E/DX2                !
 ! A76   A(26,27,32)           120.6467         estimate D2E/DX2                !
 ! A77   A(28,27,32)           118.2269         estimate D2E/DX2                !
 ! A78   A(27,28,29)           113.5819         estimate D2E/DX2                !
 ! A79   A(27,28,30)           112.264          estimate D2E/DX2                !
 ! A80   A(27,28,31)           111.8664         estimate D2E/DX2                !
 ! A81   A(29,28,30)           106.4044         estimate D2E/DX2                !
 ! A82   A(29,28,31)           106.3298         estimate D2E/DX2                !
 ! A83   A(30,28,31)           105.8559         estimate D2E/DX2                !
 ! A84   A(27,32,33)           120.0082         estimate D2E/DX2                !
 ! A85   A(27,32,51)           119.7599         estimate D2E/DX2                !
 ! A86   A(33,32,51)           120.2304         estimate D2E/DX2                !
 ! A87   A(24,33,32)           119.8616         estimate D2E/DX2                !
 ! A88   A(24,33,52)           121.6394         estimate D2E/DX2                !
 ! A89   A(32,33,52)           118.4653         estimate D2E/DX2                !
 ! D1    D(1,2,3,4)            110.7032         estimate D2E/DX2                !
 ! D2    D(1,2,3,34)          -130.344          estimate D2E/DX2                !
 ! D3    D(1,2,3,35)            -9.69           estimate D2E/DX2                !
 ! D4    D(18,2,3,4)           -68.8717         estimate D2E/DX2                !
 ! D5    D(18,2,3,34)           50.0811         estimate D2E/DX2                !
 ! D6    D(18,2,3,35)          170.7351         estimate D2E/DX2                !
 ! D7    D(1,2,18,19)           -9.6325         estimate D2E/DX2                !
 ! D8    D(1,2,18,43)         -161.6274         estimate D2E/DX2                !
 ! D9    D(3,2,18,19)          169.9329         estimate D2E/DX2                !
 ! D10   D(3,2,18,43)           17.938          estimate D2E/DX2                !
 ! D11   D(2,3,4,5)           -117.2852         estimate D2E/DX2                !
 ! D12   D(2,3,4,17)            58.0394         estimate D2E/DX2                !
 ! D13   D(34,3,4,5)           124.2245         estimate D2E/DX2                !
 ! D14   D(34,3,4,17)          -60.451          estimate D2E/DX2                !
 ! D15   D(35,3,4,5)             2.1869         estimate D2E/DX2                !
 ! D16   D(35,3,4,17)          177.5114         estimate D2E/DX2                !
 ! D17   D(3,4,5,6)            175.012          estimate D2E/DX2                !
 ! D18   D(3,4,5,36)            -4.9974         estimate D2E/DX2                !
 ! D19   D(17,4,5,6)            -0.3989         estimate D2E/DX2                !
 ! D20   D(17,4,5,36)          179.5918         estimate D2E/DX2                !
 ! D21   D(3,4,17,7)          -174.367          estimate D2E/DX2                !
 ! D22   D(5,4,17,7)             1.5999         estimate D2E/DX2                !
 ! D23   D(4,5,6,7)             -0.5777         estimate D2E/DX2                !
 ! D24   D(36,5,6,7)           179.4306         estimate D2E/DX2                !
 ! D25   D(5,6,7,8)           -176.1848         estimate D2E/DX2                !
 ! D26   D(5,6,7,17)             1.5293         estimate D2E/DX2                !
 ! D27   D(6,7,8,9)            163.4662         estimate D2E/DX2                !
 ! D28   D(6,7,8,37)             1.7489         estimate D2E/DX2                !
 ! D29   D(17,7,8,9)           -13.9924         estimate D2E/DX2                !
 ! D30   D(17,7,8,37)         -175.7097         estimate D2E/DX2                !
 ! D31   D(6,7,17,4)            -2.0482         estimate D2E/DX2                !
 ! D32   D(8,7,17,4)           175.5705         estimate D2E/DX2                !
 ! D33   D(7,8,9,10)            15.1015         estimate D2E/DX2                !
 ! D34   D(7,8,9,11)          -166.9971         estimate D2E/DX2                !
 ! D35   D(37,8,9,10)          176.618          estimate D2E/DX2                !
 ! D36   D(37,8,9,11)           -5.4806         estimate D2E/DX2                !
 ! D37   D(8,9,11,12)         -139.8239         estimate D2E/DX2                !
 ! D38   D(8,9,11,16)           42.8399         estimate D2E/DX2                !
 ! D39   D(10,9,11,12)          38.0612         estimate D2E/DX2                !
 ! D40   D(10,9,11,16)        -139.275          estimate D2E/DX2                !
 ! D41   D(9,11,12,13)        -179.3826         estimate D2E/DX2                !
 ! D42   D(9,11,12,38)           1.1246         estimate D2E/DX2                !
 ! D43   D(16,11,12,13)         -1.9981         estimate D2E/DX2                !
 ! D44   D(16,11,12,38)        178.509          estimate D2E/DX2                !
 ! D45   D(9,11,16,15)         178.5167         estimate D2E/DX2                !
 ! D46   D(9,11,16,42)           1.9579         estimate D2E/DX2                !
 ! D47   D(12,11,16,15)          1.2077         estimate D2E/DX2                !
 ! D48   D(12,11,16,42)       -175.3511         estimate D2E/DX2                !
 ! D49   D(11,12,13,14)          1.1492         estimate D2E/DX2                !
 ! D50   D(11,12,13,39)       -179.2102         estimate D2E/DX2                !
 ! D51   D(38,12,13,14)       -179.3686         estimate D2E/DX2                !
 ! D52   D(38,12,13,39)          0.2719         estimate D2E/DX2                !
 ! D53   D(12,13,14,15)          0.4922         estimate D2E/DX2                !
 ! D54   D(12,13,14,40)        179.7313         estimate D2E/DX2                !
 ! D55   D(39,13,14,15)       -179.1478         estimate D2E/DX2                !
 ! D56   D(39,13,14,40)          0.0913         estimate D2E/DX2                !
 ! D57   D(13,14,15,16)         -1.2836         estimate D2E/DX2                !
 ! D58   D(13,14,15,41)        178.5402         estimate D2E/DX2                !
 ! D59   D(40,14,15,16)        179.4768         estimate D2E/DX2                !
 ! D60   D(40,14,15,41)         -0.6994         estimate D2E/DX2                !
 ! D61   D(14,15,16,11)          0.4269         estimate D2E/DX2                !
 ! D62   D(14,15,16,42)        176.9812         estimate D2E/DX2                !
 ! D63   D(41,15,16,11)       -179.3971         estimate D2E/DX2                !
 ! D64   D(41,15,16,42)         -2.8428         estimate D2E/DX2                !
 ! D65   D(2,18,19,20)         -88.5729         estimate D2E/DX2                !
 ! D66   D(2,18,19,44)          31.9317         estimate D2E/DX2                !
 ! D67   D(2,18,19,45)         150.6134         estimate D2E/DX2                !
 ! D68   D(43,18,19,20)         63.8063         estimate D2E/DX2                !
 ! D69   D(43,18,19,44)       -175.6891         estimate D2E/DX2                !
 ! D70   D(43,18,19,45)        -57.0074         estimate D2E/DX2                !
 ! D71   D(18,19,20,21)         55.378          estimate D2E/DX2                !
 ! D72   D(18,19,20,46)        -62.8731         estimate D2E/DX2                !
 ! D73   D(18,19,20,47)        176.8557         estimate D2E/DX2                !
 ! D74   D(44,19,20,21)        -63.5843         estimate D2E/DX2                !
 ! D75   D(44,19,20,46)        178.1647         estimate D2E/DX2                !
 ! D76   D(44,19,20,47)         57.8935         estimate D2E/DX2                !
 ! D77   D(45,19,20,21)        175.9727         estimate D2E/DX2                !
 ! D78   D(45,19,20,46)         57.7216         estimate D2E/DX2                !
 ! D79   D(45,19,20,47)        -62.5496         estimate D2E/DX2                !
 ! D80   D(19,20,21,22)       -125.1027         estimate D2E/DX2                !
 ! D81   D(19,20,21,48)         41.2791         estimate D2E/DX2                !
 ! D82   D(46,20,21,22)         -5.1557         estimate D2E/DX2                !
 ! D83   D(46,20,21,48)        161.226          estimate D2E/DX2                !
 ! D84   D(47,20,21,22)        113.799          estimate D2E/DX2                !
 ! D85   D(47,20,21,48)        -79.8192         estimate D2E/DX2                !
 ! D86   D(20,21,22,23)        -12.0329         estimate D2E/DX2                !
 ! D87   D(20,21,22,24)        168.5998         estimate D2E/DX2                !
 ! D88   D(48,21,22,23)       -177.9107         estimate D2E/DX2                !
 ! D89   D(48,21,22,24)          2.722          estimate D2E/DX2                !
 ! D90   D(21,22,24,25)        156.5183         estimate D2E/DX2                !
 ! D91   D(21,22,24,33)        -28.2557         estimate D2E/DX2                !
 ! D92   D(23,22,24,25)        -22.8677         estimate D2E/DX2                !
 ! D93   D(23,22,24,33)        152.3583         estimate D2E/DX2                !
 ! D94   D(22,24,25,26)        175.7976         estimate D2E/DX2                !
 ! D95   D(22,24,25,49)         -3.5956         estimate D2E/DX2                !
 ! D96   D(33,24,25,26)          0.3794         estimate D2E/DX2                !
 ! D97   D(33,24,25,49)       -179.0138         estimate D2E/DX2                !
 ! D98   D(22,24,33,32)       -175.1901         estimate D2E/DX2                !
 ! D99   D(22,24,33,52)          2.6663         estimate D2E/DX2                !
 ! D100  D(25,24,33,32)         -0.0753         estimate D2E/DX2                !
 ! D101  D(25,24,33,52)        177.7812         estimate D2E/DX2                !
 ! D102  D(24,25,26,27)         -0.4755         estimate D2E/DX2                !
 ! D103  D(24,25,26,50)       -179.8892         estimate D2E/DX2                !
 ! D104  D(49,25,26,27)        178.9042         estimate D2E/DX2                !
 ! D105  D(49,25,26,50)         -0.5094         estimate D2E/DX2                !
 ! D106  D(25,26,27,28)       -178.7169         estimate D2E/DX2                !
 ! D107  D(25,26,27,32)          0.2731         estimate D2E/DX2                !
 ! D108  D(50,26,27,28)          0.6995         estimate D2E/DX2                !
 ! D109  D(50,26,27,32)        179.6895         estimate D2E/DX2                !
 ! D110  D(26,27,28,29)         -2.0129         estimate D2E/DX2                !
 ! D111  D(26,27,28,30)       -122.7887         estimate D2E/DX2                !
 ! D112  D(26,27,28,31)        118.3682         estimate D2E/DX2                !
 ! D113  D(32,27,28,29)        178.9733         estimate D2E/DX2                !
 ! D114  D(32,27,28,30)         58.1975         estimate D2E/DX2                !
 ! D115  D(32,27,28,31)        -60.6456         estimate D2E/DX2                !
 ! D116  D(26,27,32,33)          0.0236         estimate D2E/DX2                !
 ! D117  D(26,27,32,51)       -179.5299         estimate D2E/DX2                !
 ! D118  D(28,27,32,33)        179.0422         estimate D2E/DX2                !
 ! D119  D(28,27,32,51)         -0.5113         estimate D2E/DX2                !
 ! D120  D(27,32,33,24)         -0.1225         estimate D2E/DX2                !
 ! D121  D(27,32,33,52)       -178.0467         estimate D2E/DX2                !
 ! D122  D(51,32,33,24)        179.4288         estimate D2E/DX2                !
 ! D123  D(51,32,33,52)          1.5047         estimate D2E/DX2                !
 --------------------------------------------------------------------------------
 Trust Radius=3.00D-01 FncErr=1.00D-07 GrdErr=1.00D-06 EigMax=2.50D+02 EigMin=1.00D-04
 Number of steps in this run=    276 maximum allowed number of steps=    312.
 GradGradGradGradGradGradGradGradGradGradGradGradGradGradGradGradGradGrad

 Leave Link  103 at Fri Nov  4 18:37:19 2022, MaxMem=   805306368 cpu:               0.1 elap:               0.0
 (Enter /home/wykgroup/appl/g16/l202.exe)
 Stoichiometry    C22H19F3N4O3S
 Framework group  C1[X(C22H19F3N4O3S)]
 Deg. of freedom   150
 Full point group                 C1      NOp   1
 Largest Abelian subgroup         C1      NOp   1
 Largest concise Abelian subgroup C1      NOp   1
                         Standard orientation:                         
 ---------------------------------------------------------------------
 Center     Atomic      Atomic             Coordinates (Angstroms)
 Number     Number       Type             X           Y           Z
 ---------------------------------------------------------------------
      1          8           0       -1.224728    3.726836   -0.668233
      2          6           0       -0.362848    3.461630    0.152574
      3          6           0       -0.701546    3.142775    1.610607
      4          6           0       -0.413165    1.693088    1.819040
      5          6           0       -1.278822    0.701229    2.149494
      6         16           0       -0.483754   -0.836221    2.138993
      7          6           0        0.990429    0.006818    1.659063
      8          7           0        2.132402   -0.677867    1.373459
      9          6           0        3.193456   -0.111856    0.684742
     10          8           0        3.310966    1.078126    0.516150
     11          6           0        4.187929   -1.113529    0.223349
     12          6           0        5.541470   -0.801212    0.311438
     13          6           0        6.491847   -1.706955   -0.121502
     14          6           0        6.096713   -2.918210   -0.666140
     15          6           0        4.749481   -3.218558   -0.786771
     16          6           0        3.793741   -2.323575   -0.340543
     17          7           0        0.858414    1.276380    1.566784
     18          7           0        0.951048    3.411770   -0.127381
     19          6           0        1.417534    3.473124   -1.492739
     20          6           0        1.492096    2.076058   -2.123155
     21          7           0        0.208876    1.419298   -2.022538
     22          6           0        0.053544    0.211277   -1.455280
     23          8           0        0.988937   -0.522821   -1.172219
     24          6           0       -1.357956   -0.215924   -1.189847
     25          6           0       -1.596782   -1.583957   -1.089631
     26          6           0       -2.849200   -2.064504   -0.761611
     27          6           0       -3.875145   -1.161782   -0.520776
     28          6           0       -5.247640   -1.632061   -0.132809
     29          9           0       -5.365858   -2.965496   -0.093382
     30          9           0       -6.196078   -1.191270   -0.979883
     31          9           0       -5.605842   -1.183643    1.086674
     32          6           0       -3.650892    0.206449   -0.612956
     33          6           0       -2.395972    0.680470   -0.947907
     34          1           0       -0.070801    3.745263    2.265716
     35          1           0       -1.751613    3.362073    1.796936
     36          1           0       -2.318174    0.765717    2.396163
     37          1           0        2.083888   -1.685216    1.423669
     38          1           0        5.831135    0.151266    0.728938
     39          1           0        7.541404   -1.467013   -0.040082
     40          1           0        6.838898   -3.624065   -1.008388
     41          1           0        4.443008   -4.152954   -1.233072
     42          1           0        2.744417   -2.537635   -0.479543
     43          1           0        1.550701    2.915158    0.526306
     44          1           0        0.714023    4.097980   -2.050637
     45          1           0        2.407581    3.931281   -1.509715
     46          1           0        2.218222    1.459101   -1.588168
     47          1           0        1.794317    2.160800   -3.172336
     48          1           0       -0.599191    1.996253   -2.205426
     49          1           0       -0.776086   -2.262782   -1.264885
     50          1           0       -3.029054   -3.125383   -0.683386
     51          1           0       -4.457462    0.896157   -0.415173
     52          1           0       -2.241339    1.748235   -0.981192
 ---------------------------------------------------------------------
 Rotational constants (GHZ):           0.1973550           0.0812373           0.0690297
 Leave Link  202 at Fri Nov  4 18:37:19 2022, MaxMem=   805306368 cpu:               0.3 elap:               0.1
 (Enter /home/wykgroup/appl/g16/l301.exe)
 Standard basis: 6-31G(d) (6D, 7F)
 Ernie: Thresh=  0.10000D-02 Tol=  0.10000D-05 Strict=F.
 There are   537 symmetry adapted cartesian basis functions of A   symmetry.
 There are   537 symmetry adapted basis functions of A   symmetry.
   537 basis functions,  1024 primitive gaussians,   537 cartesian basis functions
   123 alpha electrons      123 beta electrons
       nuclear repulsion energy      3770.0993318980 Hartrees.
 IExCor=  402 DFT=T Ex+Corr=B3LYP ExCW=0 ScaHFX=  0.200000
 ScaDFX=  0.800000  0.720000  1.000000  0.810000 ScalE2=  1.000000  1.000000
 IRadAn=      5 IRanWt=     -1 IRanGd=            0 ICorTp=0 IEmpDi=  4
 NAtoms=   52 NActive=   52 NUniq=   52 SFac= 1.00D+00 NAtFMM=   60 NAOKFM=F Big=F
 Integral buffers will be    131072 words long.
 Raffenetti 2 integral format.
 Two-electron integral symmetry is turned on.
 Leave Link  301 at Fri Nov  4 18:37:19 2022, MaxMem=   805306368 cpu:               0.4 elap:               0.1
 (Enter /home/wykgroup/appl/g16/l302.exe)
 NPDir=0 NMtPBC=     1 NCelOv=     1 NCel=       1 NClECP=     1 NCelD=      1
         NCelK=      1 NCelE2=     1 NClLst=     1 CellRange=     0.0.
 One-electron integrals computed using PRISM.
 One-electron integral symmetry used in STVInt
 NBasis=   537 RedAO= T EigKep=  3.68D-04  NBF=   537
 NBsUse=   537 1.00D-06 EigRej= -1.00D+00 NBFU=   537
 Precomputing XC quadrature grid using
 IXCGrd= 4 IRadAn=           5 IRanWt=          -1 IRanGd=           0 AccXCQ= 0.00D+00.
 Generated NRdTot=       0 NPtTot=           0 NUsed=           0 NTot=          32
 NSgBfM=   526   524   524   525   526 MxSgAt=    52 MxSgA2=    52.
 Leave Link  302 at Fri Nov  4 18:37:20 2022, MaxMem=   805306368 cpu:               7.2 elap:               1.1
 (Enter /home/wykgroup/appl/g16/l303.exe)
 DipDrv:  MaxL=1.
 Leave Link  303 at Fri Nov  4 18:37:20 2022, MaxMem=   805306368 cpu:               1.3 elap:               0.2
 (Enter /home/wykgroup/appl/g16/l401.exe)
 ExpMin= 1.17D-01 ExpMax= 2.19D+04 ExpMxC= 3.30D+03 IAcc=3 IRadAn=         5 AccDes= 0.00D+00
 Harris functional with IExCor=  402 and IRadAn=       5 diagonalized for initial guess.
 HarFok:  IExCor=  402 AccDes= 0.00D+00 IRadAn=         5 IDoV= 1 UseB2=F ITyADJ=14
 ICtDFT=  3500011 ScaDFX=  1.000000  1.000000  1.000000  1.000000
 FoFCou: FMM=F IPFlag=           0 FMFlag=      100000 FMFlg1=           0
         NFxFlg=           0 DoJE=T BraDBF=F KetDBF=T FulRan=T
         wScrn=  0.000000 ICntrl=       500 IOpCl=  0 I1Cent=   200000004 NGrid=           0
         NMat0=    1 NMatS0=      1 NMatT0=    0 NMatD0=    1 NMtDS0=    0 NMtDT0=    0
 Petite list used in FoFCou.
 Harris En= -1992.13417838388    
 JPrj=0 DoOrth=F DoCkMO=F.
 Leave Link  401 at Fri Nov  4 18:37:25 2022, MaxMem=   805306368 cpu:              30.1 elap:               4.5
 (Enter /home/wykgroup/appl/g16/l502.exe)
 Integral symmetry usage will be decided dynamically.
 Closed shell SCF:
 Using DIIS extrapolation, IDIIS=  1040.
 NGot=   805306368 LenX=   804720163 LenY=   804431257
 Requested convergence on RMS density matrix=1.00D-08 within  32 cycles.
 Requested convergence on MAX density matrix=1.00D-06.
 Requested convergence on             energy=1.00D-06.
 No special actions if energy rises.
 Fock matrices will be formed incrementally for  20 cycles.
 Integral accuracy reduced to 1.0D-05 until final iterations.

 Cycle   1  Pass 0  IDiag  1:
 FoFJK:  IHMeth= 1 ICntrl=       0 DoSepK=F KAlg= 0 I1Cent=           0 FoldK=F
 IRaf= 690000000 NMat=       1 IRICut=       1 DoRegI=T DoRafI=F ISym2E= 0 IDoP0=0 IntGTp=1.
 FoFCou: FMM=F IPFlag=           0 FMFlag=      100000 FMFlg1=           0
         NFxFlg=           0 DoJE=F BraDBF=F KetDBF=F FulRan=T
         wScrn=  0.000000 ICntrl=         0 IOpCl=  0 I1Cent=           0 NGrid=           0
         NMat0=    1 NMatS0=      1 NMatT0=    0 NMatD0=    1 NMtDS0=    0 NMtDT0=    0
 Symmetry not used in FoFCou.
 E= -1991.44846328518    
 DIIS: error= 2.56D-02 at cycle   1 NSaved=   1.
 NSaved= 1 IEnMin= 1 EnMin= -1991.44846328518     IErMin= 1 ErrMin= 2.56D-02
 ErrMax= 2.56D-02  0.00D+00 EMaxC= 1.00D-01 BMatC= 8.66D-01 BMatP= 8.66D-01
 IDIUse=3 WtCom= 7.44D-01 WtEn= 2.56D-01
 Coeff-Com:  0.100D+01
 Coeff-En:   0.100D+01
 Coeff:      0.100D+01
 Gap=     0.263 Goal=   None    Shift=    0.000
 GapD=    0.263 DampG=1.000 DampE=0.500 DampFc=0.5000 IDamp=-1.
 Damping current iteration by 5.00D-01
 RMSDP=4.95D-03 MaxDP=2.24D-01              OVMax= 3.06D-01

 Cycle   2  Pass 0  IDiag  1:
 RMSU=  2.46D-03    CP:  9.87D-01
 E= -1991.61396371186     Delta-E=       -0.165500426682 Rises=F Damp=T
 DIIS: error= 9.32D-03 at cycle   2 NSaved=   2.
 NSaved= 2 IEnMin= 2 EnMin= -1991.61396371186     IErMin= 2 ErrMin= 9.32D-03
 ErrMax= 9.32D-03  0.00D+00 EMaxC= 1.00D-01 BMatC= 1.53D-01 BMatP= 8.66D-01
 IDIUse=3 WtCom= 9.07D-01 WtEn= 9.32D-02
 Coeff-Com:  0.228D+00 0.772D+00
 Coeff-En:   0.386D+00 0.614D+00
 Coeff:      0.242D+00 0.758D+00
 Gap=     0.238 Goal=   None    Shift=    0.000
 RMSDP=1.87D-03 MaxDP=1.35D-01 DE=-1.66D-01 OVMax= 2.96D-01

 Cycle   3  Pass 0  IDiag  1:
 RMSU=  1.45D-03    CP:  9.76D-01  5.29D-01
 E= -1992.08414624739     Delta-E=       -0.470182535532 Rises=F Damp=F
 DIIS: error= 1.25D-02 at cycle   3 NSaved=   3.
 NSaved= 3 IEnMin= 3 EnMin= -1992.08414624739     IErMin= 2 ErrMin= 9.32D-03
 ErrMax= 1.25D-02  0.00D+00 EMaxC= 1.00D-01 BMatC= 1.47D-01 BMatP= 1.53D-01
 IDIUse=3 WtCom= 8.75D-01 WtEn= 1.25D-01
 Coeff-Com:  0.711D-01 0.486D+00 0.442D+00
 Coeff-En:   0.000D+00 0.000D+00 0.100D+01
 Coeff:      0.622D-01 0.425D+00 0.512D+00
 Gap=     0.177 Goal=   None    Shift=    0.000
 RMSDP=1.07D-03 MaxDP=7.74D-02 DE=-4.70D-01 OVMax= 1.27D-01

 Cycle   4  Pass 0  IDiag  1:
 RMSU=  7.06D-04    CP:  9.81D-01  6.81D-01  5.09D-01
 E= -1992.19431884171     Delta-E=       -0.110172594320 Rises=F Damp=F
 DIIS: error= 5.09D-03 at cycle   4 NSaved=   4.
 NSaved= 4 IEnMin= 4 EnMin= -1992.19431884171     IErMin= 4 ErrMin= 5.09D-03
 ErrMax= 5.09D-03  0.00D+00 EMaxC= 1.00D-01 BMatC= 3.34D-02 BMatP= 1.47D-01
 IDIUse=3 WtCom= 9.49D-01 WtEn= 5.09D-02
 Coeff-Com:  0.678D-02 0.130D+00 0.330D+00 0.533D+00
 Coeff-En:   0.000D+00 0.000D+00 0.209D+00 0.791D+00
 Coeff:      0.644D-02 0.124D+00 0.324D+00 0.546D+00
 Gap=     0.170 Goal=   None    Shift=    0.000
 RMSDP=4.06D-04 MaxDP=2.86D-02 DE=-1.10D-01 OVMax= 4.73D-02

 Cycle   5  Pass 0  IDiag  1:
 RMSU=  2.12D-04    CP:  9.80D-01  6.36D-01  6.57D-01  6.47D-01
 E= -1992.22026210865     Delta-E=       -0.025943266942 Rises=F Damp=F
 DIIS: error= 1.58D-03 at cycle   5 NSaved=   5.
 NSaved= 5 IEnMin= 5 EnMin= -1992.22026210865     IErMin= 5 ErrMin= 1.58D-03
 ErrMax= 1.58D-03  0.00D+00 EMaxC= 1.00D-01 BMatC= 3.88D-03 BMatP= 3.34D-02
 IDIUse=3 WtCom= 9.84D-01 WtEn= 1.58D-02
 Coeff-Com: -0.266D-02 0.225D-01 0.149D+00 0.352D+00 0.479D+00
 Coeff-En:   0.000D+00 0.000D+00 0.000D+00 0.712D-01 0.929D+00
 Coeff:     -0.262D-02 0.221D-01 0.146D+00 0.348D+00 0.486D+00
 Gap=     0.173 Goal=   None    Shift=    0.000
 RMSDP=1.46D-04 MaxDP=9.25D-03 DE=-2.59D-02 OVMax= 1.34D-02

 Cycle   6  Pass 0  IDiag  1:
 RMSU=  9.44D-05    CP:  9.80D-01  6.40D-01  6.44D-01  7.08D-01  5.26D-01
 E= -1992.22311559964     Delta-E=       -0.002853490986 Rises=F Damp=F
 DIIS: error= 6.01D-04 at cycle   6 NSaved=   6.
 NSaved= 6 IEnMin= 6 EnMin= -1992.22311559964     IErMin= 6 ErrMin= 6.01D-04
 ErrMax= 6.01D-04  0.00D+00 EMaxC= 1.00D-01 BMatC= 5.11D-04 BMatP= 3.88D-03
 IDIUse=3 WtCom= 9.94D-01 WtEn= 6.01D-03
 Coeff-Com: -0.199D-02-0.127D-02 0.478D-01 0.142D+00 0.315D+00 0.498D+00
 Coeff-En:   0.000D+00 0.000D+00 0.000D+00 0.000D+00 0.116D+00 0.884D+00
 Coeff:     -0.197D-02-0.126D-02 0.476D-01 0.141D+00 0.314D+00 0.501D+00
 Gap=     0.173 Goal=   None    Shift=    0.000
 RMSDP=5.33D-05 MaxDP=3.59D-03 DE=-2.85D-03 OVMax= 6.06D-03

 Cycle   7  Pass 0  IDiag  1:
 RMSU=  2.81D-05    CP:  9.80D-01  6.40D-01  6.54D-01  7.04D-01  6.09D-01
                    CP:  5.85D-01
 E= -1992.22352239799     Delta-E=       -0.000406798353 Rises=F Damp=F
 DIIS: error= 1.31D-04 at cycle   7 NSaved=   7.
 NSaved= 7 IEnMin= 7 EnMin= -1992.22352239799     IErMin= 7 ErrMin= 1.31D-04
 ErrMax= 1.31D-04  0.00D+00 EMaxC= 1.00D-01 BMatC= 3.72D-05 BMatP= 5.11D-04
 IDIUse=3 WtCom= 9.99D-01 WtEn= 1.31D-03
 Coeff-Com: -0.772D-03-0.277D-02 0.134D-01 0.464D-01 0.134D+00 0.289D+00
 Coeff-Com:  0.520D+00
 Coeff-En:   0.000D+00 0.000D+00 0.000D+00 0.000D+00 0.000D+00 0.000D+00
 Coeff-En:   0.100D+01
 Coeff:     -0.771D-03-0.277D-02 0.134D-01 0.464D-01 0.134D+00 0.289D+00
 Coeff:      0.521D+00
 Gap=     0.173 Goal=   None    Shift=    0.000
 RMSDP=1.40D-05 MaxDP=8.14D-04 DE=-4.07D-04 OVMax= 1.38D-03

 Cycle   8  Pass 0  IDiag  1:
 RMSU=  8.63D-06    CP:  9.80D-01  6.38D-01  6.53D-01  7.07D-01  6.12D-01
                    CP:  6.10D-01  6.47D-01
 E= -1992.22355405168     Delta-E=       -0.000031653690 Rises=F Damp=F
 DIIS: error= 3.39D-05 at cycle   8 NSaved=   8.
 NSaved= 8 IEnMin= 8 EnMin= -1992.22355405168     IErMin= 8 ErrMin= 3.39D-05
 ErrMax= 3.39D-05  0.00D+00 EMaxC= 1.00D-01 BMatC= 2.44D-06 BMatP= 3.72D-05
 IDIUse=1 WtCom= 1.00D+00 WtEn= 0.00D+00
 Coeff-Com: -0.111D-03-0.129D-02 0.189D-02 0.835D-02 0.359D-01 0.950D-01
 Coeff-Com:  0.256D+00 0.604D+00
 Coeff:     -0.111D-03-0.129D-02 0.189D-02 0.835D-02 0.359D-01 0.950D-01
 Coeff:      0.256D+00 0.604D+00
 Gap=     0.173 Goal=   None    Shift=    0.000
 RMSDP=4.37D-06 MaxDP=3.17D-04 DE=-3.17D-05 OVMax= 7.62D-04

 Initial convergence to 1.0D-05 achieved.  Increase integral accuracy.
 Cycle   9  Pass 1  IDiag  1:
 E= -1992.22361283581     Delta-E=       -0.000058784124 Rises=F Damp=F
 DIIS: error= 7.09D-05 at cycle   1 NSaved=   1.
 NSaved= 1 IEnMin= 1 EnMin= -1992.22361283581     IErMin= 1 ErrMin= 7.09D-05
 ErrMax= 7.09D-05  0.00D+00 EMaxC= 1.00D-01 BMatC= 2.67D-06 BMatP= 2.67D-06
 IDIUse=1 WtCom= 1.00D+00 WtEn= 0.00D+00
 Coeff-Com:  0.100D+01
 Coeff:      0.100D+01
 Gap=     0.173 Goal=   None    Shift=    0.000
 RMSDP=4.37D-06 MaxDP=3.17D-04 DE=-5.88D-05 OVMax= 8.15D-04

 Cycle  10  Pass 1  IDiag  1:
 RMSU=  3.82D-05    CP:  1.00D+00
 E= -1992.22361161121     Delta-E=        0.000001224595 Rises=F Damp=F
 DIIS: error= 5.25D-05 at cycle   2 NSaved=   2.
 NSaved= 2 IEnMin= 1 EnMin= -1992.22361283581     IErMin= 2 ErrMin= 5.25D-05
 ErrMax= 5.25D-05  0.00D+00 EMaxC= 1.00D-01 BMatC= 3.93D-06 BMatP= 2.67D-06
 IDIUse=1 WtCom= 1.00D+00 WtEn= 0.00D+00
 Coeff-Com:  0.563D+00 0.437D+00
 Coeff:      0.563D+00 0.437D+00
 Gap=     0.173 Goal=   None    Shift=    0.000
 RMSDP=5.82D-06 MaxDP=3.39D-04 DE= 1.22D-06 OVMax= 8.48D-04

 Cycle  11  Pass 1  IDiag  1:
 RMSU=  5.79D-06    CP:  1.00D+00  9.85D-01
 E= -1992.22361456824     Delta-E=       -0.000002957025 Rises=F Damp=F
 DIIS: error= 2.56D-05 at cycle   3 NSaved=   3.
 NSaved= 3 IEnMin= 3 EnMin= -1992.22361456824     IErMin= 3 ErrMin= 2.56D-05
 ErrMax= 2.56D-05  0.00D+00 EMaxC= 1.00D-01 BMatC= 8.35D-07 BMatP= 2.67D-06
 IDIUse=1 WtCom= 1.00D+00 WtEn= 0.00D+00
 Coeff-Com:  0.162D-01 0.313D+00 0.670D+00
 Coeff:      0.162D-01 0.313D+00 0.670D+00
 Gap=     0.173 Goal=   None    Shift=    0.000
 RMSDP=2.01D-06 MaxDP=1.41D-04 DE=-2.96D-06 OVMax= 2.27D-04

 Cycle  12  Pass 1  IDiag  1:
 RMSU=  7.24D-07    CP:  1.00D+00  9.98D-01  6.88D-01
 E= -1992.22361529783     Delta-E=       -0.000000729591 Rises=F Damp=F
 DIIS: error= 7.36D-06 at cycle   4 NSaved=   4.
 NSaved= 4 IEnMin= 4 EnMin= -1992.22361529783     IErMin= 4 ErrMin= 7.36D-06
 ErrMax= 7.36D-06  0.00D+00 EMaxC= 1.00D-01 BMatC= 5.06D-08 BMatP= 8.35D-07
 IDIUse=1 WtCom= 1.00D+00 WtEn= 0.00D+00
 Coeff-Com: -0.288D-02 0.192D+00 0.431D+00 0.380D+00
 Coeff:     -0.288D-02 0.192D+00 0.431D+00 0.380D+00
 Gap=     0.173 Goal=   None    Shift=    0.000
 RMSDP=4.65D-07 MaxDP=2.66D-05 DE=-7.30D-07 OVMax= 5.02D-05

 Cycle  13  Pass 1  IDiag  1:
 RMSU=  1.62D-07    CP:  1.00D+00  9.98D-01  6.93D-01  4.00D-01
 E= -1992.22361534213     Delta-E=       -0.000000044302 Rises=F Damp=F
 DIIS: error= 8.26D-07 at cycle   5 NSaved=   5.
 NSaved= 5 IEnMin= 5 EnMin= -1992.22361534213     IErMin= 5 ErrMin= 8.26D-07
 ErrMax= 8.26D-07  0.00D+00 EMaxC= 1.00D-01 BMatC= 1.31D-09 BMatP= 5.06D-08
 IDIUse=1 WtCom= 1.00D+00 WtEn= 0.00D+00
 Coeff-Com: -0.237D-02 0.996D-01 0.226D+00 0.223D+00 0.454D+00
 Coeff:     -0.237D-02 0.996D-01 0.226D+00 0.223D+00 0.454D+00
 Gap=     0.173 Goal=   None    Shift=    0.000
 RMSDP=8.17D-08 MaxDP=5.42D-06 DE=-4.43D-08 OVMax= 7.27D-06

 Cycle  14  Pass 1  IDiag  1:
 RMSU=  5.47D-08    CP:  1.00D+00  9.98D-01  6.94D-01  4.25D-01  6.50D-01
 E= -1992.22361534327     Delta-E=       -0.000000001145 Rises=F Damp=F
 DIIS: error= 2.50D-07 at cycle   6 NSaved=   6.
 NSaved= 6 IEnMin= 6 EnMin= -1992.22361534327     IErMin= 6 ErrMin= 2.50D-07
 ErrMax= 2.50D-07  0.00D+00 EMaxC= 1.00D-01 BMatC= 9.60D-11 BMatP= 1.31D-09
 IDIUse=1 WtCom= 1.00D+00 WtEn= 0.00D+00
 Coeff-Com: -0.118D-02 0.441D-01 0.999D-01 0.103D+00 0.270D+00 0.484D+00
 Coeff:     -0.118D-02 0.441D-01 0.999D-01 0.103D+00 0.270D+00 0.484D+00
 Gap=     0.173 Goal=   None    Shift=    0.000
 RMSDP=2.26D-08 MaxDP=1.84D-06 DE=-1.15D-09 OVMax= 2.22D-06

 Cycle  15  Pass 1  IDiag  1:
 RMSU=  1.97D-08    CP:  1.00D+00  9.98D-01  6.94D-01  4.24D-01  6.82D-01
                    CP:  8.22D-01
 E= -1992.22361534332     Delta-E=       -0.000000000045 Rises=F Damp=F
 DIIS: error= 1.16D-07 at cycle   7 NSaved=   7.
 NSaved= 7 IEnMin= 7 EnMin= -1992.22361534332     IErMin= 7 ErrMin= 1.16D-07
 ErrMax= 1.16D-07  0.00D+00 EMaxC= 1.00D-01 BMatC= 1.32D-11 BMatP= 9.60D-11
 IDIUse=1 WtCom= 1.00D+00 WtEn= 0.00D+00
 Coeff-Com: -0.333D-03 0.108D-01 0.243D-01 0.268D-01 0.923D-01 0.297D+00
 Coeff-Com:  0.549D+00
 Coeff:     -0.333D-03 0.108D-01 0.243D-01 0.268D-01 0.923D-01 0.297D+00
 Coeff:      0.549D+00
 Gap=     0.173 Goal=   None    Shift=    0.000
 RMSDP=9.69D-09 MaxDP=6.06D-07 DE=-4.55D-11 OVMax= 1.11D-06

 SCF Done:  E(RB3LYP) =  -1992.22361534     A.U. after   15 cycles
            NFock= 15  Conv=0.97D-08     -V/T= 2.0071
 KE= 1.978140237755D+03 PE=-1.221276953389D+04 EE= 4.472306348898D+03
 Leave Link  502 at Fri Nov  4 18:39:20 2022, MaxMem=   805306368 cpu:             800.4 elap:             115.8
 (Enter /home/wykgroup/appl/g16/l508.exe)
 QCSCF skips out because SCF is already converged.
 Leave Link  508 at Fri Nov  4 18:39:20 2022, MaxMem=   805306368 cpu:               0.2 elap:               0.1
 (Enter /home/wykgroup/appl/g16/l601.exe)
 Copying SCF densities to generalized density rwf, IOpCl= 0 IROHF=0.

 **********************************************************************

            Population analysis using the SCF Density.

 **********************************************************************

 Orbital symmetries:
       Occupied  (A) (A) (A) (A) (A) (A) (A) (A) (A) (A) (A) (A)
                 (A) (A) (A) (A) (A) (A) (A) (A) (A) (A) (A) (A)
                 (A) (A) (A) (A) (A) (A) (A) (A) (A) (A) (A) (A)
                 (A) (A) (A) (A) (A) (A) (A) (A) (A) (A) (A) (A)
                 (A) (A) (A) (A) (A) (A) (A) (A) (A) (A) (A) (A)
                 (A) (A) (A) (A) (A) (A) (A) (A) (A) (A) (A) (A)
                 (A) (A) (A) (A) (A) (A) (A) (A) (A) (A) (A) (A)
                 (A) (A) (A) (A) (A) (A) (A) (A) (A) (A) (A) (A)
                 (A) (A) (A) (A) (A) (A) (A) (A) (A) (A) (A) (A)
                 (A) (A) (A) (A) (A) (A) (A) (A) (A) (A) (A) (A)
                 (A) (A) (A)
       Virtual   (A) (A) (A) (A) (A) (A) (A) (A) (A) (A) (A) (A)
                 (A) (A) (A) (A) (A) (A) (A) (A) (A) (A) (A) (A)
                 (A) (A) (A) (A) (A) (A) (A) (A) (A) (A) (A) (A)
                 (A) (A) (A) (A) (A) (A) (A) (A) (A) (A) (A) (A)
                 (A) (A) (A) (A) (A) (A) (A) (A) (A) (A) (A) (A)
                 (A) (A) (A) (A) (A) (A) (A) (A) (A) (A) (A) (A)
                 (A) (A) (A) (A) (A) (A) (A) (A) (A) (A) (A) (A)
                 (A) (A) (A) (A) (A) (A) (A) (A) (A) (A) (A) (A)
                 (A) (A) (A) (A) (A) (A) (A) (A) (A) (A) (A) (A)
                 (A) (A) (A) (A) (A) (A) (A) (A) (A) (A) (A) (A)
                 (A) (A) (A) (A) (A) (A) (A) (A) (A) (A) (A) (A)
                 (A) (A) (A) (A) (A) (A) (A) (A) (A) (A) (A) (A)
                 (A) (A) (A) (A) (A) (A) (A) (A) (A) (A) (A) (A)
                 (A) (A) (A) (A) (A) (A) (A) (A) (A) (A) (A) (A)
                 (A) (A) (A) (A) (A) (A) (A) (A) (A) (A) (A) (A)
                 (A) (A) (A) (A) (A) (A) (A) (A) (A) (A) (A) (A)
                 (A) (A) (A) (A) (A) (A) (A) (A) (A) (A) (A) (A)
                 (A) (A) (A) (A) (A) (A) (A) (A) (A) (A) (A) (A)
                 (A) (A) (A) (A) (A) (A) (A) (A) (A) (A) (A) (A)
                 (A) (A) (A) (A) (A) (A) (A) (A) (A) (A) (A) (A)
                 (A) (A) (A) (A) (A) (A) (A) (A) (A) (A) (A) (A)
                 (A) (A) (A) (A) (A) (A) (A) (A) (A) (A) (A) (A)
                 (A) (A) (A) (A) (A) (A) (A) (A) (A) (A) (A) (A)
                 (A) (A) (A) (A) (A) (A) (A) (A) (A) (A) (A) (A)
                 (A) (A) (A) (A) (A) (A) (A) (A) (A) (A) (A) (A)
                 (A) (A) (A) (A) (A) (A) (A) (A) (A) (A) (A) (A)
                 (A) (A) (A) (A) (A) (A) (A) (A) (A) (A) (A) (A)
                 (A) (A) (A) (A) (A) (A) (A) (A) (A) (A) (A) (A)
                 (A) (A) (A) (A) (A) (A) (A) (A) (A) (A) (A) (A)
                 (A) (A) (A) (A) (A) (A) (A) (A) (A) (A) (A) (A)
                 (A) (A) (A) (A) (A) (A) (A) (A) (A) (A) (A) (A)
                 (A) (A) (A) (A) (A) (A) (A) (A) (A) (A) (A) (A)
                 (A) (A) (A) (A) (A) (A) (A) (A) (A) (A) (A) (A)
                 (A) (A) (A) (A) (A) (A) (A) (A) (A) (A) (A) (A)
                 (A) (A) (A) (A) (A) (A)
 The electronic state is 1-A.
 Alpha  occ. eigenvalues --  -88.91733 -24.72478 -24.71729 -24.71713 -19.13140
 Alpha  occ. eigenvalues --  -19.11405 -19.11310 -14.39074 -14.35800 -14.34684
 Alpha  occ. eigenvalues --  -14.32857 -10.42848 -10.30408 -10.29248 -10.28703
 Alpha  occ. eigenvalues --  -10.28465 -10.23004 -10.21927 -10.21703 -10.21571
 Alpha  occ. eigenvalues --  -10.21519 -10.20709 -10.20686 -10.20593 -10.20569
 Alpha  occ. eigenvalues --  -10.20349 -10.20186 -10.20085 -10.20068 -10.20065
 Alpha  occ. eigenvalues --  -10.20045 -10.20045 -10.19956  -7.97915  -5.94330
 Alpha  occ. eigenvalues --   -5.93977  -5.93565  -1.30419  -1.21481  -1.20865
 Alpha  occ. eigenvalues --   -1.06181  -1.04180  -1.03781  -0.99732  -0.94293
 Alpha  occ. eigenvalues --   -0.93463  -0.91369  -0.88027  -0.87273  -0.80704
 Alpha  occ. eigenvalues --   -0.80089  -0.79444  -0.77477  -0.76557  -0.76145
 Alpha  occ. eigenvalues --   -0.74995  -0.71190  -0.70021  -0.66371  -0.65030
 Alpha  occ. eigenvalues --   -0.63187  -0.62405  -0.62255  -0.61907  -0.60437
 Alpha  occ. eigenvalues --   -0.59433  -0.57796  -0.57690  -0.57584  -0.56676
 Alpha  occ. eigenvalues --   -0.55280  -0.54825  -0.54042  -0.52277  -0.50735
 Alpha  occ. eigenvalues --   -0.49349  -0.48900  -0.48071  -0.47113  -0.46708
 Alpha  occ. eigenvalues --   -0.45927  -0.45879  -0.45553  -0.45474  -0.45272
 Alpha  occ. eigenvalues --   -0.44857  -0.44685  -0.44001  -0.43684  -0.43539
 Alpha  occ. eigenvalues --   -0.42786  -0.42530  -0.41769  -0.41351  -0.41026
 Alpha  occ. eigenvalues --   -0.40835  -0.40477  -0.40000  -0.39742  -0.39309
 Alpha  occ. eigenvalues --   -0.38596  -0.38029  -0.37573  -0.37059  -0.36970
 Alpha  occ. eigenvalues --   -0.36395  -0.35927  -0.35893  -0.35514  -0.34790
 Alpha  occ. eigenvalues --   -0.31817  -0.30142  -0.29105  -0.27180  -0.26838
 Alpha  occ. eigenvalues --   -0.26753  -0.26603  -0.26187  -0.25631  -0.25383
 Alpha  occ. eigenvalues --   -0.24935  -0.24111  -0.21868
 Alpha virt. eigenvalues --   -0.04585  -0.04578  -0.01609  -0.01356  -0.00962
 Alpha virt. eigenvalues --   -0.00057   0.02023   0.04817   0.05225   0.07391
 Alpha virt. eigenvalues --    0.08203   0.09348   0.09999   0.10816   0.11271
 Alpha virt. eigenvalues --    0.12301   0.13005   0.13734   0.13908   0.14334
 Alpha virt. eigenvalues --    0.14519   0.14756   0.15274   0.15671   0.15815
 Alpha virt. eigenvalues --    0.16045   0.16996   0.17613   0.18049   0.18167
 Alpha virt. eigenvalues --    0.18884   0.19497   0.20314   0.20858   0.22099
 Alpha virt. eigenvalues --    0.22686   0.23077   0.23696   0.24041   0.24623
 Alpha virt. eigenvalues --    0.24855   0.25829   0.26385   0.26522   0.26875
 Alpha virt. eigenvalues --    0.28637   0.29674   0.29976   0.30589   0.30811
 Alpha virt. eigenvalues --    0.31605   0.32644   0.33419   0.34040   0.35126
 Alpha virt. eigenvalues --    0.35486   0.36624   0.37743   0.39271   0.39851
 Alpha virt. eigenvalues --    0.40478   0.40925   0.41961   0.42370   0.45189
 Alpha virt. eigenvalues --    0.45475   0.47754   0.48349   0.48689   0.49592
 Alpha virt. eigenvalues --    0.50356   0.51128   0.51497   0.51965   0.52750
 Alpha virt. eigenvalues --    0.53325   0.53649   0.54343   0.55142   0.55193
 Alpha virt. eigenvalues --    0.55874   0.55881   0.56555   0.56834   0.57267
 Alpha virt. eigenvalues --    0.57771   0.58070   0.58405   0.58595   0.59240
 Alpha virt. eigenvalues --    0.59406   0.59599   0.59958   0.60498   0.60710
 Alpha virt. eigenvalues --    0.60873   0.61660   0.62672   0.63013   0.64132
 Alpha virt. eigenvalues --    0.64943   0.65198   0.66323   0.66904   0.68250
 Alpha virt. eigenvalues --    0.68644   0.68769   0.69472   0.69841   0.70785
 Alpha virt. eigenvalues --    0.71589   0.71759   0.72607   0.72786   0.73305
 Alpha virt. eigenvalues --    0.74496   0.74915   0.75551   0.76670   0.77797
 Alpha virt. eigenvalues --    0.78454   0.78601   0.79287   0.79973   0.80330
 Alpha virt. eigenvalues --    0.81614   0.81672   0.82280   0.82474   0.82925
 Alpha virt. eigenvalues --    0.83444   0.83823   0.84441   0.84763   0.85049
 Alpha virt. eigenvalues --    0.86250   0.86513   0.87644   0.87896   0.88933
 Alpha virt. eigenvalues --    0.89407   0.89862   0.90404   0.90724   0.91252
 Alpha virt. eigenvalues --    0.91564   0.92510   0.93072   0.93706   0.94877
 Alpha virt. eigenvalues --    0.95054   0.96254   0.96852   0.97325   0.97917
 Alpha virt. eigenvalues --    0.98233   0.98939   0.99577   0.99780   1.00638
 Alpha virt. eigenvalues --    1.01070   1.02852   1.03119   1.04361   1.05504
 Alpha virt. eigenvalues --    1.07363   1.07667   1.08501   1.09359   1.09508
 Alpha virt. eigenvalues --    1.10259   1.10891   1.11980   1.13001   1.13725
 Alpha virt. eigenvalues --    1.14486   1.15297   1.15659   1.16289   1.17174
 Alpha virt. eigenvalues --    1.18188   1.18501   1.19840   1.20827   1.21397
 Alpha virt. eigenvalues --    1.22397   1.23412   1.23980   1.24905   1.26064
 Alpha virt. eigenvalues --    1.27861   1.28113   1.29325   1.31005   1.31684
 Alpha virt. eigenvalues --    1.33138   1.33502   1.34249   1.34662   1.34727
 Alpha virt. eigenvalues --    1.36015   1.37065   1.37580   1.38327   1.38778
 Alpha virt. eigenvalues --    1.39349   1.40418   1.40823   1.41610   1.42935
 Alpha virt. eigenvalues --    1.43257   1.43474   1.43566   1.45096   1.45903
 Alpha virt. eigenvalues --    1.46161   1.46806   1.47205   1.48241   1.48480
 Alpha virt. eigenvalues --    1.49522   1.50160   1.50608   1.50792   1.52128
 Alpha virt. eigenvalues --    1.52717   1.54696   1.55652   1.58749   1.59879
 Alpha virt. eigenvalues --    1.61736   1.62538   1.65149   1.66655   1.67175
 Alpha virt. eigenvalues --    1.67865   1.68615   1.69982   1.71515   1.72999
 Alpha virt. eigenvalues --    1.74607   1.75614   1.76408   1.77163   1.77627
 Alpha virt. eigenvalues --    1.78066   1.79077   1.79638   1.80329   1.80703
 Alpha virt. eigenvalues --    1.81340   1.83414   1.83551   1.84159   1.84639
 Alpha virt. eigenvalues --    1.86286   1.87004   1.87178   1.88381   1.89315
 Alpha virt. eigenvalues --    1.89858   1.90184   1.90583   1.90920   1.91808
 Alpha virt. eigenvalues --    1.93401   1.94000   1.95414   1.96191   1.96658
 Alpha virt. eigenvalues --    1.97533   1.97760   1.98172   1.98521   1.99411
 Alpha virt. eigenvalues --    2.00402   2.02188   2.02389   2.02721   2.03463
 Alpha virt. eigenvalues --    2.04318   2.05534   2.05656   2.06082   2.06584
 Alpha virt. eigenvalues --    2.07647   2.08960   2.09588   2.09641   2.09841
 Alpha virt. eigenvalues --    2.11213   2.12640   2.13169   2.14395   2.14497
 Alpha virt. eigenvalues --    2.14969   2.15731   2.16229   2.16804   2.17361
 Alpha virt. eigenvalues --    2.17792   2.19718   2.20772   2.21758   2.22989
 Alpha virt. eigenvalues --    2.24632   2.26005   2.28083   2.28803   2.29055
 Alpha virt. eigenvalues --    2.29621   2.30539   2.30732   2.31325   2.31663
 Alpha virt. eigenvalues --    2.32057   2.33759   2.36273   2.36995   2.38250
 Alpha virt. eigenvalues --    2.39080   2.39469   2.41004   2.41490   2.43109
 Alpha virt. eigenvalues --    2.44541   2.45711   2.46455   2.47911   2.51636
 Alpha virt. eigenvalues --    2.52348   2.54618   2.55794   2.56180   2.56814
 Alpha virt. eigenvalues --    2.58235   2.59567   2.60816   2.61552   2.63126
 Alpha virt. eigenvalues --    2.64275   2.65177   2.65474   2.65973   2.67758
 Alpha virt. eigenvalues --    2.67925   2.69355   2.72050   2.72954   2.73874
 Alpha virt. eigenvalues --    2.74429   2.74694   2.75597   2.76350   2.77732
 Alpha virt. eigenvalues --    2.78003   2.78219   2.82747   2.83574   2.84707
 Alpha virt. eigenvalues --    2.87181   2.88345   2.91673   2.95309   2.95824
 Alpha virt. eigenvalues --    3.01047   3.03372   3.04160   3.04433   3.04898
 Alpha virt. eigenvalues --    3.05558   3.08447   3.12497   3.13462   3.15825
 Alpha virt. eigenvalues --    3.17063   3.18327   3.21498   3.30642   3.45295
 Alpha virt. eigenvalues --    3.45714   3.93872   3.97134   4.03715   4.08071
 Alpha virt. eigenvalues --    4.08606   4.09036   4.09174   4.10759   4.11047
 Alpha virt. eigenvalues --    4.15399   4.15935   4.17966   4.21025   4.23009
 Alpha virt. eigenvalues --    4.27651   4.30639   4.31368   4.31760   4.32558
 Alpha virt. eigenvalues --    4.35925   4.37380   4.39630   4.42862   4.50271
 Alpha virt. eigenvalues --    4.50335   4.51807   4.56132   4.62265   4.63427
 Alpha virt. eigenvalues --    4.73009   4.76193   4.79751   5.63417
          Condensed to atoms (all electrons):
 Mulliken charges:
               1
     1  O   -0.545853
     2  C    0.596395
     3  C   -0.416978
     4  C    0.331624
     5  C   -0.395609
     6  S    0.217457
     7  C    0.310406
     8  N   -0.635028
     9  C    0.571591
    10  O   -0.488518
    11  C    0.050933
    12  C   -0.148660
    13  C   -0.134722
    14  C   -0.116620
    15  C   -0.134342
    16  C   -0.176164
    17  N   -0.462640
    18  N   -0.561179
    19  C   -0.172585
    20  C   -0.143582
    21  N   -0.602173
    22  C    0.576550
    23  O   -0.557582
    24  C    0.071549
    25  C   -0.155429
    26  C   -0.169532
    27  C    0.000217
    28  C    0.776004
    29  F   -0.266188
    30  F   -0.265378
    31  F   -0.268656
    32  C   -0.180490
    33  C   -0.199275
    34  H    0.180793
    35  H    0.171727
    36  H    0.179594
    37  H    0.348494
    38  H    0.153467
    39  H    0.138519
    40  H    0.136947
    41  H    0.137289
    42  H    0.160934
    43  H    0.385979
    44  H    0.174502
    45  H    0.160533
    46  H    0.214933
    47  H    0.147213
    48  H    0.348487
    49  H    0.151815
    50  H    0.153675
    51  H    0.157261
    52  H    0.192295
 Sum of Mulliken charges =  -0.00000
 Mulliken charges with hydrogens summed into heavy atoms:
               1
     1  O   -0.545853
     2  C    0.596395
     3  C   -0.064458
     4  C    0.331624
     5  C   -0.216016
     6  S    0.217457
     7  C    0.310406
     8  N   -0.286534
     9  C    0.571591
    10  O   -0.488518
    11  C    0.050933
    12  C    0.004806
    13  C    0.003797
    14  C    0.020327
    15  C    0.002947
    16  C   -0.015230
    17  N   -0.462640
    18  N   -0.175201
    19  C    0.162450
    20  C    0.218565
    21  N   -0.253686
    22  C    0.576550
    23  O   -0.557582
    24  C    0.071549
    25  C   -0.003614
    26  C   -0.015858
    27  C    0.000217
    28  C    0.776004
    29  F   -0.266188
    30  F   -0.265378
    31  F   -0.268656
    32  C   -0.023229
    33  C   -0.006980
 Electronic spatial extent (au):  <R**2>=          15339.7413
 Charge=             -0.0000 electrons
 Dipole moment (field-independent basis, Debye):
    X=              3.5248    Y=             -1.9292    Z=              0.3474  Tot=              4.0332
 Quadrupole moment (field-independent basis, Debye-Ang):
   XX=           -192.7147   YY=           -185.6959   ZZ=           -189.7160
   XY=            -10.2828   XZ=             -4.0775   YZ=              1.0148
 Traceless Quadrupole moment (field-independent basis, Debye-Ang):
   XX=             -3.3392   YY=              3.6796   ZZ=             -0.3405
   XY=            -10.2828   XZ=             -4.0775   YZ=              1.0148
 Octapole moment (field-independent basis, Debye-Ang**2):
  XXX=            123.6727  YYY=            -67.5202  ZZZ=            -12.2057  XYY=             23.8985
  XXY=            -17.3191  XXZ=             -1.5612  XZZ=            -37.2808  YZZ=             15.9352
  YYZ=             -4.4212  XYZ=             -9.3799
 Hexadecapole moment (field-independent basis, Debye-Ang**3):
 XXXX=         -12230.2708 YYYY=          -4663.3111 ZZZZ=          -2032.7999 XXXY=           -311.6698
 XXXZ=            -85.3052 YYYX=            214.4046 YYYZ=             90.7130 ZZZX=            -15.1956
 ZZZY=            -46.4607 XXYY=          -2788.8801 XXZZ=          -2484.2037 YYZZ=          -1047.8761
 XXYZ=             67.7014 YYXZ=           -104.4340 ZZXY=             79.5098
 N-N= 3.770099331898D+03 E-N=-1.221276955241D+04  KE= 1.978140237755D+03
 No NMR shielding tensors so no spin-rotation constants.
 Leave Link  601 at Fri Nov  4 18:39:21 2022, MaxMem=   805306368 cpu:               2.9 elap:               0.5
 (Enter /home/wykgroup/appl/g16/l701.exe)
 ... and contract with generalized density number  0.
 Compute integral first derivatives.
 Leave Link  701 at Fri Nov  4 18:39:21 2022, MaxMem=   805306368 cpu:               2.1 elap:               0.3
 (Enter /home/wykgroup/appl/g16/l702.exe)
 L702 exits ... SP integral derivatives will be done elsewhere.
 Leave Link  702 at Fri Nov  4 18:39:21 2022, MaxMem=   805306368 cpu:               0.1 elap:               0.0
 (Enter /home/wykgroup/appl/g16/l703.exe)
 Integral derivatives from FoFJK, PRISM(SPDF).
 Compute integral first derivatives, UseDBF=F ICtDFT=           0.
 Calling FoFJK, ICntrl=      2127 FMM=F ISym2X=0 I1Cent= 0 IOpClX= 0 NMat=1 NMatS=1 NMatT=0.
 FoFJK:  IHMeth= 1 ICntrl=    2127 DoSepK=F KAlg= 0 I1Cent=           0 FoldK=F
 IRaf=         0 NMat=       1 IRICut=       1 DoRegI=T DoRafI=F ISym2E= 0 IDoP0=0 IntGTp=1.
 FoFCou: FMM=F IPFlag=           0 FMFlag=      100000 FMFlg1=         800
         NFxFlg=           0 DoJE=F BraDBF=F KetDBF=F FulRan=T
         wScrn=  0.000000 ICntrl=      2127 IOpCl=  0 I1Cent=           0 NGrid=           0
         NMat0=    1 NMatS0=      1 NMatT0=    0 NMatD0=    1 NMtDS0=    0 NMtDT0=    0
 Symmetry not used in FoFCou.
 Leave Link  703 at Fri Nov  4 18:40:06 2022, MaxMem=   805306368 cpu:             307.7 elap:              45.0
 (Enter /home/wykgroup/appl/g16/l716.exe)
 Dipole        = 1.38676972D+00-7.59009784D-01 1.36660768D-01
 ***** Axes restored to original set *****
 -------------------------------------------------------------------
 Center     Atomic                   Forces (Hartrees/Bohr)
 Number     Number              X              Y              Z
 -------------------------------------------------------------------
      1        8          -0.023914691    0.007823732    0.003982365
      2        6           0.010931716   -0.011361938    0.007528229
      3        6          -0.002251609    0.000130252   -0.001441128
      4        6          -0.003458476   -0.011012082    0.000089562
      5        6          -0.001460231   -0.005666341    0.002235884
      6       16           0.003288730   -0.004242471   -0.004937480
      7        6          -0.005578834   -0.013158410   -0.005446540
      8        7           0.005838577   -0.004374615   -0.006366797
      9        6           0.001624896   -0.007201754   -0.014460736
     10        8           0.006870263    0.013993894    0.016429977
     11        6          -0.000100662    0.001751553    0.001548281
     12        6           0.001111241   -0.000179666    0.005704556
     13        6           0.005484236    0.002583349    0.001243223
     14        6           0.002136994    0.002335412   -0.005736968
     15        6          -0.002075027   -0.000750371   -0.006830041
     16        6          -0.003851961   -0.002680457    0.000097124
     17        7           0.010679104    0.007920185    0.012149434
     18        7           0.010474127    0.009310348    0.003303812
     19        6          -0.002738745    0.003087724   -0.002055033
     20        6           0.004406666    0.002466486    0.000399276
     21        7          -0.003363460    0.008512920    0.005932394
     22        6          -0.015097919   -0.002300101    0.001827256
     23        8           0.012996518    0.001394208   -0.015871601
     24        6           0.001560465    0.001696725   -0.002614874
     25        6           0.002991444    0.003878215   -0.003936078
     26        6          -0.002147094   -0.001840034   -0.002583868
     27        6          -0.007003553   -0.007334231   -0.000637143
     28        6          -0.003313438   -0.002679150    0.000961674
     29        9           0.003295095   -0.000767942   -0.012051719
     30        9          -0.006138271    0.006842925    0.003609895
     31        9           0.005085509   -0.004653955    0.007323243
     32        6          -0.003619075   -0.001435017    0.000731037
     33        6          -0.002678617    0.003059714    0.002830931
     34        1           0.002268712   -0.001909809    0.003403959
     35        1          -0.001025020    0.001157357    0.002239947
     36        1          -0.005943115   -0.004278072    0.002720909
     37        1           0.001602034    0.001341899   -0.000308273
     38        1           0.001752257    0.000680427    0.004103761
     39        1           0.004545349    0.001968697    0.000468785
     40        1           0.002190560    0.001811192   -0.004047090
     41        1          -0.002408534   -0.000108673   -0.004253479
     42        1          -0.004561061   -0.001432291   -0.000296411
     43        1           0.000451948   -0.001806338   -0.000903400
     44        1           0.002142930    0.001626254    0.001580430
     45        1           0.000656355    0.002788828    0.001323486
     46        1          -0.001493571    0.002584282   -0.000066824
     47        1           0.001316836    0.002731669   -0.000776194
     48        1          -0.001893762   -0.002104820    0.000350082
     49        1           0.002629066    0.000905715   -0.002665039
     50        1          -0.000901541   -0.001754626   -0.003526728
     51        1          -0.002536591   -0.001059892    0.003780444
     52        1           0.001223231    0.001709093    0.003913488
 -------------------------------------------------------------------
 Cartesian Forces:  Max     0.023914691 RMS     0.005523781
 Leave Link  716 at Fri Nov  4 18:40:07 2022, MaxMem=   805306368 cpu:               0.3 elap:               0.1
 (Enter /home/wykgroup/appl/g16/l103.exe)

 GradGradGradGradGradGradGradGradGradGradGradGradGradGradGradGradGradGrad
 Berny optimization.
 FormGI is forming the generalized inverse of G from B-inverse, IUseBI=4.
 GSVD:  received Info=                   1 from GESDD.
 Internal  Forces:  Max     0.079044054 RMS     0.012139010
 Search for a local minimum.
 Step number   1 out of a maximum of  276
 All quantities printed in internal units (Hartrees-Bohrs-Radians)
 RMS Force = .12139D-01 SwitMx=.10000D-02 MixMth= 1
 Mixed Optimization -- RFO/linear search
 Second derivative matrix not updated -- first step.
 ITU=  0
     Eigenvalues ---    0.00309   0.00363   0.00742   0.00787   0.00862
     Eigenvalues ---    0.00964   0.01096   0.01108   0.01211   0.01423
     Eigenvalues ---    0.01559   0.01637   0.01637   0.01748   0.01792
     Eigenvalues ---    0.01826   0.01879   0.01966   0.02038   0.02113
     Eigenvalues ---    0.02197   0.02202   0.02209   0.02234   0.02242
     Eigenvalues ---    0.02252   0.02252   0.02263   0.02270   0.02273
     Eigenvalues ---    0.02276   0.02280   0.02283   0.02289   0.02291
     Eigenvalues ---    0.02296   0.02302   0.02303   0.02428   0.02438
     Eigenvalues ---    0.02546   0.04434   0.04549   0.05489   0.05516
     Eigenvalues ---    0.05652   0.06690   0.09014   0.09128   0.09336
     Eigenvalues ---    0.10367   0.10730   0.12575   0.12660   0.12717
     Eigenvalues ---    0.14900   0.15598   0.15714   0.15972   0.15989
     Eigenvalues ---    0.15999   0.15999   0.15999   0.15999   0.16000
     Eigenvalues ---    0.16000   0.16000   0.16000   0.21984   0.21991
     Eigenvalues ---    0.21998   0.22000   0.22000   0.22035   0.22070
     Eigenvalues ---    0.22127   0.22287   0.22970   0.23473   0.23660
     Eigenvalues ---    0.23982   0.24912   0.24937   0.24973   0.24980
     Eigenvalues ---    0.24986   0.24990   0.24996   0.24999   0.24999
     Eigenvalues ---    0.25000   0.25000   0.25000   0.25000   0.25000
     Eigenvalues ---    0.25000   0.28678   0.29009   0.29383   0.31805
     Eigenvalues ---    0.32188   0.32543   0.33154   0.34004   0.34227
     Eigenvalues ---    0.34365   0.34497   0.34692   0.34712   0.34954
     Eigenvalues ---    0.36004   0.36005   0.36005   0.36030   0.36049
     Eigenvalues ---    0.36052   0.36065   0.36070   0.36133   0.37209
     Eigenvalues ---    0.38903   0.39021   0.43025   0.43091   0.43461
     Eigenvalues ---    0.43469   0.44882   0.46012   0.46039   0.47132
     Eigenvalues ---    0.47260   0.47291   0.47596   0.47933   0.48051
     Eigenvalues ---    0.48204   0.48590   0.48787   0.50091   0.51668
     Eigenvalues ---    0.52588   0.55495   0.55910   0.56249   0.56409
     Eigenvalues ---    0.57374   0.69847   0.94378   0.95657   1.01097
 RFO step:  Lambda=-1.32957650D-01 EMin= 3.09200481D-03
 Linear search not attempted -- first point.
 Maximum step size (   0.300) exceeded in Quadratic search.
    -- Step size scaled by   0.645
 Iteration  1 RMS(Cart)=  0.18156791 RMS(Int)=  0.02312520
 Iteration  2 RMS(Cart)=  0.19666728 RMS(Int)=  0.01666200
 Iteration  3 RMS(Cart)=  0.25498049 RMS(Int)=  0.00991803
[...]
     38          1           0        6.079142   -0.244416    0.212070
     39          1           0        7.432951   -2.219816   -0.482159
     40          1           0        6.308903   -4.389619   -0.935871
     41          1           0        3.841405   -4.578199   -0.717768
     42          1           0        2.500660   -2.606580   -0.040019
     43          1           0        1.755083    3.122109   -0.078837
     44          1           0        0.536523    3.830571   -2.690028
     45          1           0        2.276807    3.676289   -2.412716
     46          1           0        2.019395    1.228720   -1.941521
     47          1           0        1.462760    1.665234   -3.564058
     48          1           0       -0.849657    1.788022   -2.264704
     49          1           0       -1.069459   -2.465349   -1.243216
     50          1           0       -3.355202   -3.252127   -0.620018
     51          1           0       -4.638246    0.835033   -0.270467
     52          1           0       -2.386522    1.613397   -0.883119
 ---------------------------------------------------------------------
 Rotational constants (GHZ):           0.1667555           0.0763133           0.0647355
 Leave Link  202 at Fri Nov  4 19:51:56 2022, MaxMem=   805306368 cpu:               0.5 elap:               0.1
 (Enter /home/wykgroup/appl/g16/l601.exe)
 Copying SCF densities to generalized density rwf, IOpCl= 0 IROHF=0.

 **********************************************************************

            Population analysis using the SCF Density.

 **********************************************************************

 Orbital symmetries:
       Occupied  (A) (A) (A) (A) (A) (A) (A) (A) (A) (A) (A) (A)
                 (A) (A) (A) (A) (A) (A) (A) (A) (A) (A) (A) (A)
                 (A) (A) (A) (A) (A) (A) (A) (A) (A) (A) (A) (A)
                 (A) (A) (A) (A) (A) (A) (A) (A) (A) (A) (A) (A)
                 (A) (A) (A) (A) (A) (A) (A) (A) (A) (A) (A) (A)
                 (A) (A) (A) (A) (A) (A) (A) (A) (A) (A) (A) (A)
                 (A) (A) (A) (A) (A) (A) (A) (A) (A) (A) (A) (A)
                 (A) (A) (A) (A) (A) (A) (A) (A) (A) (A) (A) (A)
                 (A) (A) (A) (A) (A) (A) (A) (A) (A) (A) (A) (A)
                 (A) (A) (A) (A) (A) (A) (A) (A) (A) (A) (A) (A)
                 (A) (A) (A)
       Virtual   (A) (A) (A) (A) (A) (A) (A) (A) (A) (A) (A) (A)
                 (A) (A) (A) (A) (A) (A) (A) (A) (A) (A) (A) (A)
                 (A) (A) (A) (A) (A) (A) (A) (A) (A) (A) (A) (A)
                 (A) (A) (A) (A) (A) (A) (A) (A) (A) (A) (A) (A)
                 (A) (A) (A) (A) (A) (A) (A) (A) (A) (A) (A) (A)
                 (A) (A) (A) (A) (A) (A) (A) (A) (A) (A) (A) (A)
                 (A) (A) (A) (A) (A) (A) (A) (A) (A) (A) (A) (A)
                 (A) (A) (A) (A) (A) (A) (A) (A) (A) (A) (A) (A)
                 (A) (A) (A) (A) (A) (A) (A) (A) (A) (A) (A) (A)
                 (A) (A) (A) (A) (A) (A) (A) (A) (A) (A) (A) (A)
                 (A) (A) (A) (A) (A) (A) (A) (A) (A) (A) (A) (A)
                 (A) (A) (A) (A) (A) (A) (A) (A) (A) (A) (A) (A)
                 (A) (A) (A) (A) (A) (A) (A) (A) (A) (A) (A) (A)
                 (A) (A) (A) (A) (A) (A) (A) (A) (A) (A) (A) (A)
                 (A) (A) (A) (A) (A) (A) (A) (A) (A) (A) (A) (A)
                 (A) (A) (A) (A) (A) (A) (A) (A) (A) (A) (A) (A)
                 (A) (A) (A) (A) (A) (A) (A) (A) (A) (A) (A) (A)
                 (A) (A) (A) (A) (A) (A) (A) (A) (A) (A) (A) (A)
                 (A) (A) (A) (A) (A) (A) (A) (A) (A) (A) (A) (A)
                 (A) (A) (A) (A) (A) (A) (A) (A) (A) (A) (A) (A)
                 (A) (A) (A) (A) (A) (A) (A) (A) (A) (A) (A) (A)
                 (A) (A) (A) (A) (A) (A) (A) (A) (A) (A) (A) (A)
                 (A) (A) (A) (A) (A) (A) (A) (A) (A) (A) (A) (A)
                 (A) (A) (A) (A) (A) (A) (A) (A) (A) (A) (A) (A)
                 (A) (A) (A) (A) (A) (A) (A) (A) (A) (A) (A) (A)
                 (A) (A) (A) (A) (A) (A) (A) (A) (A) (A) (A) (A)
                 (A) (A) (A) (A) (A) (A) (A) (A) (A) (A) (A) (A)
                 (A) (A) (A) (A) (A) (A) (A) (A) (A) (A) (A) (A)
                 (A) (A) (A) (A) (A) (A) (A) (A) (A) (A) (A) (A)
                 (A) (A) (A) (A) (A) (A) (A) (A) (A) (A) (A) (A)
                 (A) (A) (A) (A) (A) (A) (A) (A) (A) (A) (A) (A)
                 (A) (A) (A) (A) (A) (A) (A) (A) (A) (A) (A) (A)
                 (A) (A) (A) (A) (A) (A) (A) (A) (A) (A) (A) (A)
                 (A) (A) (A) (A) (A) (A) (A) (A) (A) (A) (A) (A)
                 (A) (A) (A) (A) (A) (A)
 The electronic state is 1-A.
 Alpha  occ. eigenvalues --  -88.92420 -24.72341 -24.72336 -24.71752 -19.13482
 Alpha  occ. eigenvalues --  -19.11856 -19.11356 -14.39784 -14.35989 -14.35310
 Alpha  occ. eigenvalues --  -14.33928 -10.43143 -10.31003 -10.30341 -10.29159
 Alpha  occ. eigenvalues --  -10.29019 -10.23945 -10.22527 -10.22500 -10.22124
 Alpha  occ. eigenvalues --  -10.21902 -10.21218 -10.21190 -10.20934 -10.20902
 Alpha  occ. eigenvalues --  -10.20730 -10.20702 -10.20622 -10.20575 -10.20418
 Alpha  occ. eigenvalues --  -10.20399 -10.20365 -10.20314  -7.98592  -5.95011
 Alpha  occ. eigenvalues --   -5.94655  -5.94235  -1.29882  -1.21368  -1.20860
 Alpha  occ. eigenvalues --   -1.05472  -1.03434  -1.02946  -0.99380  -0.93895
 Alpha  occ. eigenvalues --   -0.93027  -0.91057  -0.87549  -0.86738  -0.80856
 Alpha  occ. eigenvalues --   -0.79845  -0.79254  -0.77176  -0.76246  -0.75827
 Alpha  occ. eigenvalues --   -0.75063  -0.71276  -0.70016  -0.66356  -0.65039
 Alpha  occ. eigenvalues --   -0.63007  -0.62198  -0.62147  -0.61673  -0.60415
 Alpha  occ. eigenvalues --   -0.59071  -0.57710  -0.57482  -0.57444  -0.56404
 Alpha  occ. eigenvalues --   -0.55163  -0.54730  -0.53760  -0.52211  -0.50713
 Alpha  occ. eigenvalues --   -0.49278  -0.48437  -0.47777  -0.46903  -0.46611
 Alpha  occ. eigenvalues --   -0.45987  -0.45573  -0.45472  -0.45182  -0.45070
 Alpha  occ. eigenvalues --   -0.44856  -0.44498  -0.43834  -0.43527  -0.43344
 Alpha  occ. eigenvalues --   -0.42787  -0.42491  -0.41915  -0.41449  -0.41101
 Alpha  occ. eigenvalues --   -0.40853  -0.40403  -0.39850  -0.39725  -0.39522
 Alpha  occ. eigenvalues --   -0.38908  -0.37966  -0.37290  -0.36959  -0.36879
 Alpha  occ. eigenvalues --   -0.36441  -0.36010  -0.35791  -0.35531  -0.35083
 Alpha  occ. eigenvalues --   -0.32117  -0.30242  -0.29185  -0.27007  -0.26940
 Alpha  occ. eigenvalues --   -0.26801  -0.26437  -0.26274  -0.25809  -0.25385
 Alpha  occ. eigenvalues --   -0.25200  -0.24425  -0.22571
 Alpha virt. eigenvalues --   -0.05126  -0.04663  -0.01811  -0.01618  -0.01566
 Alpha virt. eigenvalues --   -0.00645   0.01317   0.04054   0.04858   0.06605
 Alpha virt. eigenvalues --    0.07727   0.08522   0.09774   0.10271   0.10957
 Alpha virt. eigenvalues --    0.11584   0.12181   0.13270   0.13755   0.13933
 Alpha virt. eigenvalues --    0.14147   0.14478   0.14741   0.15204   0.15390
 Alpha virt. eigenvalues --    0.15510   0.16300   0.17030   0.17305   0.17723
 Alpha virt. eigenvalues --    0.18099   0.18588   0.19304   0.19653   0.21161
 Alpha virt. eigenvalues --    0.21453   0.22010   0.22143   0.23268   0.24148
 Alpha virt. eigenvalues --    0.24535   0.24900   0.25732   0.25928   0.26142
 Alpha virt. eigenvalues --    0.27861   0.28808   0.29477   0.29863   0.30126
 Alpha virt. eigenvalues --    0.30800   0.31828   0.32530   0.33274   0.34173
 Alpha virt. eigenvalues --    0.34605   0.35602   0.36696   0.38159   0.38748
 Alpha virt. eigenvalues --    0.39382   0.39523   0.40961   0.41870   0.44143
 Alpha virt. eigenvalues --    0.45476   0.46914   0.48028   0.48336   0.49255
 Alpha virt. eigenvalues --    0.49849   0.51242   0.51343   0.51739   0.52406
 Alpha virt. eigenvalues --    0.52589   0.53084   0.54138   0.54384   0.54844
 Alpha virt. eigenvalues --    0.55166   0.55668   0.55992   0.56225   0.56641
 Alpha virt. eigenvalues --    0.56770   0.57613   0.57936   0.58125   0.58439
 Alpha virt. eigenvalues --    0.58834   0.59052   0.59321   0.59690   0.60132
 Alpha virt. eigenvalues --    0.60363   0.60549   0.61089   0.61930   0.62451
 Alpha virt. eigenvalues --    0.63424   0.64047   0.64482   0.64811   0.65637
 Alpha virt. eigenvalues --    0.67459   0.67801   0.68112   0.68288   0.68985
 Alpha virt. eigenvalues --    0.69671   0.70329   0.70876   0.72581   0.72726
 Alpha virt. eigenvalues --    0.73072   0.73675   0.74365   0.74506   0.76026
 Alpha virt. eigenvalues --    0.76884   0.77677   0.78000   0.78787   0.79537
 Alpha virt. eigenvalues --    0.79810   0.80299   0.80979   0.81446   0.82558
 Alpha virt. eigenvalues --    0.82723   0.82801   0.83283   0.83826   0.84077
 Alpha virt. eigenvalues --    0.84444   0.85370   0.85936   0.86471   0.87196
 Alpha virt. eigenvalues --    0.88024   0.88580   0.89416   0.89584   0.90360
 Alpha virt. eigenvalues --    0.90770   0.91295   0.91948   0.92267   0.93895
 Alpha virt. eigenvalues --    0.94224   0.95067   0.95844   0.95912   0.96430
 Alpha virt. eigenvalues --    0.97221   0.97357   0.97744   0.97999   0.98925
 Alpha virt. eigenvalues --    0.99006   0.99986   1.01097   1.02821   1.02948
 Alpha virt. eigenvalues --    1.04004   1.05203   1.07100   1.07912   1.08463
 Alpha virt. eigenvalues --    1.08699   1.09516   1.10177   1.10733   1.11369
 Alpha virt. eigenvalues --    1.12399   1.12706   1.13432   1.14072   1.15435
 Alpha virt. eigenvalues --    1.15633   1.16134   1.16709   1.18294   1.18611
 Alpha virt. eigenvalues --    1.20549   1.21380   1.21537   1.22364   1.23212
 Alpha virt. eigenvalues --    1.24461   1.26010   1.26825   1.27956   1.29646
 Alpha virt. eigenvalues --    1.30626   1.31920   1.32325   1.32894   1.33495
 Alpha virt. eigenvalues --    1.34224   1.34951   1.35902   1.36641   1.37984
 Alpha virt. eigenvalues --    1.38507   1.38553   1.39373   1.40779   1.40886
 Alpha virt. eigenvalues --    1.41446   1.41764   1.42642   1.43494   1.44338
 Alpha virt. eigenvalues --    1.44785   1.45371   1.45812   1.46532   1.46852
 Alpha virt. eigenvalues --    1.47921   1.48401   1.49820   1.50161   1.50704
 Alpha virt. eigenvalues --    1.51171   1.52168   1.53573   1.57151   1.58106
 Alpha virt. eigenvalues --    1.59426   1.61984   1.63484   1.65085   1.65606
 Alpha virt. eigenvalues --    1.66386   1.67447   1.67746   1.69356   1.71447
 Alpha virt. eigenvalues --    1.72538   1.73599   1.74939   1.75185   1.75795
 Alpha virt. eigenvalues --    1.76415   1.76862   1.77586   1.78112   1.78913
 Alpha virt. eigenvalues --    1.79063   1.81402   1.82646   1.83281   1.84307
 Alpha virt. eigenvalues --    1.84389   1.85095   1.85898   1.86822   1.87733
 Alpha virt. eigenvalues --    1.88329   1.88767   1.88920   1.89448   1.90374
 Alpha virt. eigenvalues --    1.91208   1.91661   1.91898   1.93626   1.93684
 Alpha virt. eigenvalues --    1.94791   1.96546   1.96914   1.97304   1.97760
 Alpha virt. eigenvalues --    1.98980   1.99237   1.99363   1.99903   2.00865
 Alpha virt. eigenvalues --    2.01369   2.02792   2.03514   2.04308   2.04578
 Alpha virt. eigenvalues --    2.05641   2.06171   2.06941   2.07766   2.08826
 Alpha virt. eigenvalues --    2.09770   2.10198   2.10539   2.11444   2.12768
 Alpha virt. eigenvalues --    2.12969   2.13646   2.13673   2.14248   2.15516
 Alpha virt. eigenvalues --    2.16304   2.16501   2.17589   2.18273   2.21007
 Alpha virt. eigenvalues --    2.23649   2.24096   2.24564   2.26087   2.27390
 Alpha virt. eigenvalues --    2.28357   2.28907   2.29274   2.29650   2.29683
 Alpha virt. eigenvalues --    2.31130   2.31634   2.33969   2.35498   2.36389
 Alpha virt. eigenvalues --    2.36503   2.37686   2.38333   2.39127   2.40322
 Alpha virt. eigenvalues --    2.41357   2.43577   2.43959   2.48603   2.49322
 Alpha virt. eigenvalues --    2.50278   2.51615   2.51779   2.53037   2.54104
 Alpha virt. eigenvalues --    2.55610   2.57533   2.58964   2.59080   2.60747
 Alpha virt. eigenvalues --    2.61841   2.61974   2.63033   2.63582   2.65361
 Alpha virt. eigenvalues --    2.66359   2.67890   2.68860   2.70426   2.71408
 Alpha virt. eigenvalues --    2.71925   2.72976   2.73217   2.75000   2.75413
 Alpha virt. eigenvalues --    2.75782   2.77621   2.79681   2.82411   2.82553
 Alpha virt. eigenvalues --    2.84814   2.85050   2.88231   2.91735   2.93625
 Alpha virt. eigenvalues --    2.98531   3.00714   3.01000   3.02126   3.02482
 Alpha virt. eigenvalues --    3.03716   3.05093   3.07763   3.09721   3.12140
 Alpha virt. eigenvalues --    3.14157   3.14957   3.18452   3.26251   3.41319
 Alpha virt. eigenvalues --    3.42146   3.92438   3.94611   4.00947   4.04499
 Alpha virt. eigenvalues --    4.06530   4.07539   4.07624   4.09502   4.09821
 Alpha virt. eigenvalues --    4.10503   4.11184   4.12114   4.16142   4.17668
 Alpha virt. eigenvalues --    4.20234   4.27010   4.28476   4.30835   4.31175
 Alpha virt. eigenvalues --    4.33515   4.35114   4.37143   4.42691   4.44770
 Alpha virt. eigenvalues --    4.47119   4.49293   4.53270   4.55115   4.59211
 Alpha virt. eigenvalues --    4.61318   4.70880   4.76314   5.47524
          Condensed to atoms (all electrons):
 Mulliken charges:
               1
     1  O   -0.542019
     2  C    0.596850
     3  C   -0.425657
     4  C    0.335287
     5  C   -0.396166
     6  S    0.227602
     7  C    0.318622
     8  N   -0.658119
     9  C    0.574310
    10  O   -0.485547
    11  C    0.043891
    12  C   -0.147700
    13  C   -0.135940
    14  C   -0.118302
    15  C   -0.135478
    16  C   -0.176296
    17  N   -0.468013
    18  N   -0.566717
    19  C   -0.174371
    20  C   -0.127624
    21  N   -0.609434
    22  C    0.564927
    23  O   -0.552720
    24  C    0.075106
    25  C   -0.161608
    26  C   -0.167500
    27  C    0.000119
    28  C    0.783193
    29  F   -0.269970
    30  F   -0.269316
    31  F   -0.262753
    32  C   -0.177268
    33  C   -0.205588
    34  H    0.182345
    35  H    0.175759
    36  H    0.183474
    37  H    0.349863
    38  H    0.157626
    39  H    0.140231
    40  H    0.138951
    41  H    0.140025
    42  H    0.167518
    43  H    0.374956
    44  H    0.177235
    45  H    0.162576
    46  H    0.206551
    47  H    0.150452
    48  H    0.350521
    49  H    0.159266
    50  H    0.154953
    51  H    0.158456
    52  H    0.183442
 Sum of Mulliken charges =  -0.00000
 Mulliken charges with hydrogens summed into heavy atoms:
               1
     1  O   -0.542019
     2  C    0.596850
     3  C   -0.067553
     4  C    0.335287
     5  C   -0.212692
     6  S    0.227602
     7  C    0.318622
     8  N   -0.308256
     9  C    0.574310
    10  O   -0.485547
    11  C    0.043891
    12  C    0.009926
    13  C    0.004291
    14  C    0.020649
    15  C    0.004546
    16  C   -0.008778
    17  N   -0.468013
    18  N   -0.191761
    19  C    0.165440
    20  C    0.229379
    21  N   -0.258913
    22  C    0.564927
    23  O   -0.552720
    24  C    0.075106
    25  C   -0.002342
    26  C   -0.012546
    27  C    0.000119
    28  C    0.783193
    29  F   -0.269970
    30  F   -0.269316
    31  F   -0.262753
    32  C   -0.018812
    33  C   -0.022145
 Electronic spatial extent (au):  <R**2>=          16564.9547
 Charge=              0.0000 electrons
 Dipole moment (field-independent basis, Debye):
    X=              3.0497    Y=             -1.6372    Z=              0.9094  Tot=              3.5789
 Quadrupole moment (field-independent basis, Debye-Ang):
   XX=           -196.7197   YY=           -184.6572   ZZ=           -187.2007
   XY=            -12.8000   XZ=             -3.3248   YZ=              1.0089
 Traceless Quadrupole moment (field-independent basis, Debye-Ang):
   XX=             -7.1938   YY=              4.8686   ZZ=              2.3252
   XY=            -12.8000   XZ=             -3.3248   YZ=              1.0089
 Octapole moment (field-independent basis, Debye-Ang**2):
  XXX=            103.6475  YYY=            -75.2260  ZZZ=            -12.9449  XYY=             26.0955
  XXY=            -28.3259  XXZ=            -11.6287  XZZ=            -38.2443  YZZ=             20.5265
  YYZ=              3.5160  XYZ=            -18.2625
 Hexadecapole moment (field-independent basis, Debye-Ang**3):
 XXXX=         -12775.8326 YYYY=          -5261.6437 ZZZZ=          -2477.5462 XXXY=           -385.5213
 XXXZ=           -119.7972 YYYX=            176.9842 YYYZ=            118.2900 ZZZX=            -60.9541
 ZZZY=            -92.5194 XXYY=          -2957.0078 XXZZ=          -2621.5147 YYZZ=          -1265.8242
 XXYZ=             70.1005 YYXZ=           -118.0565 ZZXY=             92.0358
 N-N= 3.630641292333D+03 E-N=-1.193258601101D+04  KE= 1.976863397227D+03
 No NMR shielding tensors so no spin-rotation constants.
 Leave Link  601 at Fri Nov  4 19:51:57 2022, MaxMem=   805306368 cpu:               2.1 elap:               0.4
 (Enter /home/wykgroup/appl/g16/l9999.exe)
 1\1\GINC-NODE58\FOpt\RB3LYP\6-31G(d)\C22H19F3N4O3S1\WYKGROUP\04-Nov-20
 22\0\\#p b3lyp/6-31g(d) opt SCF=XQC\\Gaussian input prepared by ASE\\0
 ,1\O,-1.7203541207,0.6359038361,3.6629313778\C,-0.5187225681,0.3886347
 278,3.5457115046\C,0.0425170158,-1.0284101975,3.7759139221\C,0.5147526
 791,-1.6238589138,2.4734323344\C,0.0632389438,-2.757128287,1.866935704
 4\S,0.8157502997,-2.9436101002,0.3014617766\C,1.6811758801,-1.42799001
 82,0.6007643963\N,2.4799172145,-0.8830748647,-0.3873340086\C,3.0513379
 815,0.3957203599,-0.3739937738\O,3.17024291,1.0700722521,0.6339108478\
 C,3.548285175,0.8412622338,-1.7157249697\C,4.7429607479,1.5712911465,-
 1.7684115872\C,5.2363226832,2.0147250601,-2.9929469573\C,4.5273789739,
 1.7539702323,-4.1691007882\C,3.3192688275,1.0565228283,-4.1167224076\C
 ,2.8285371343,0.596955402,-2.8941216237\N,1.4518490899,-0.8991068562,1
 .76077485\N,0.4176876554,1.3174992054,3.2034106547\C,0.0298776971,2.62
 74225587,2.7009346178\C,-0.191756149,2.6436824633,1.180117511\N,-1.239
 6009984,1.7109459562,0.7906463431\C,-1.1328695455,0.8673292417,-0.2707
 169891\O,-0.1959680144,0.9043424819,-1.07264194\C,-2.2607349915,-0.120
 7418437,-0.4427888434\C,-2.5074282226,-0.5896290977,-1.7396201524\C,-3
 .5274146944,-1.5036223171,-1.9809281028\C,-4.304957556,-1.972381598,-0
 .9174625803\C,-5.3661102271,-3.0104095175,-1.1641372516\F,-5.908063103
 2,-2.8945973613,-2.396942339\F,-6.3735932369,-2.9267567458,-0.26746442
 45\F,-4.8650901517,-4.2662054893,-1.0738076495\C,-4.0549559524,-1.5256
 516263,0.3818746013\C,-3.0385038745,-0.6018943727,0.6206309819\H,0.878
 6219025,-0.9767827546,4.4853238772\H,-0.7535615513,-1.6299914847,4.217
 1775015\H,-0.6619651863,-3.4759799222,2.2204752437\H,2.4804665005,-1.3
 591836843,-1.278703852\H,5.2720000954,1.7791095563,-0.8435981026\H,6.1
 709563436,2.5673863154,-3.0316232405\H,4.9103506855,2.1056948266,-5.12
 32965058\H,2.7510663865,0.8810751627,-5.0259621171\H,1.8570856017,0.11
 20854878,-2.845669116\H,1.2943481215,0.9433188907,2.8435872469\H,-0.87
 94883003,2.9258446371,3.2297907965\H,0.8153476544,3.3486181064,2.95035
 40399\H,0.7199495529,2.354676165,0.6521239597\H,-0.4484213399,3.666595
 7596,0.8684363752\H,-2.0116738291,1.5961136747,1.4341365824\H,-1.88650
 22064,-0.2209646982,-2.5490126752\H,-3.7264077518,-1.8495540502,-2.989
 9918604\H,-4.6551342501,-1.8965595435,1.2062587182\H,-2.842011931,-0.2
 927142237,1.644119094\\Version=ES64L-G16RevB.01\State=1-A\HF=-1992.239
 3383\RMSD=3.146e-09\RMSF=4.263e-06\Dipole=1.2251455,0.0394068,-0.69285
 24\Quadrupole=-6.3770094,0.7089701,5.6680394,-2.6842869,-7.7504495,-3.
 9576184\PG=C01 [X(C22H19F3N4O3S1)]\\@


 YOU CAN LEAD A BOY TO COLLEGE....
 BUT YOU CANNOT MAKE HIM THINK....
           ELBERT HUBBARD
 Job cpu time:       0 days  8 hours 35 minutes 30.6 seconds.
 Elapsed time:       0 days  1 hours 14 minutes 34.0 seconds.
 File lengths (MBytes):  RWF=    183 Int=      0 D2E=      0 Chk=     24 Scr=      1
 Normal termination of Gaussian 16 at Fri Nov  4 19:51:57 2022.
