 Entering Gaussian System, Link 0=/home/wykgroup/appl/g16/g16
 Input=./calculation/no_transfer_pubchem_sampling_1_b3lyp/95202689.com
 Output=./calculation/no_transfer_pubchem_sampling_1_b3lyp/95202689.log
 Initial command:
 /home/wykgroup/appl/g16/l1.exe "/userdata/scratch/wykgroup/khs/./calculation/no_transfer_pubchem_sampling_1_b3lyp/95202689/Gau-20711.inp" -scrdir="/userdata/scratch/wykgroup/khs/./calculation/no_transfer_pubchem_sampling_1_b3lyp/95202689/"
 Entering Link 1 = /home/wykgroup/appl/g16/l1.exe PID=     20712.
  
 Copyright (c) 1988-2017, Gaussian, Inc.  All Rights Reserved.
  
 This is part of the Gaussian(R) 16 program.  It is based on
 the Gaussian(R) 09 system (copyright 2009, Gaussian, Inc.),
 the Gaussian(R) 03 system (copyright 2003, Gaussian, Inc.),
 the Gaussian(R) 98 system (copyright 1998, Gaussian, Inc.),
 the Gaussian(R) 94 system (copyright 1995, Gaussian, Inc.),
 the Gaussian 92(TM) system (copyright 1992, Gaussian, Inc.),
 the Gaussian 90(TM) system (copyright 1990, Gaussian, Inc.),
 the Gaussian 88(TM) system (copyright 1988, Gaussian, Inc.),
 the Gaussian 86(TM) system (copyright 1986, Carnegie Mellon
 University), and the Gaussian 82(TM) system (copyright 1983,
 Carnegie Mellon University). Gaussian is a federally registered
 trademark of Gaussian, Inc.
  
 This software contains proprietary and confidential information,
 including trade secrets, belonging to Gaussian, Inc.
  
 This software is provided under written license and may be
 used, copied, transmitted, or stored only in accord with that
 written license.
  
 The following legend is applicable only to US Government
 contracts under FAR:
  
                    RESTRICTED RIGHTS LEGEND
  
 Use, reproduction and disclosure by the US Government is
 subject to restrictions as set forth in subparagraphs (a)
 and (c) of the Commercial Computer Software - Restricted
 Rights clause in FAR 52.227-19.
  
 Gaussian, Inc.
 340 Quinnipiac St., Bldg. 40, Wallingford CT 06492
  
  
 ---------------------------------------------------------------
 Warning -- This program may not be used in any manner that
 competes with the business of Gaussian, Inc. or will provide
 assistance to any competitor of Gaussian, Inc.  The licensee
 of this program is prohibited from giving any competitor of
 Gaussian, Inc. access to this program.  By using this program,
 the user acknowledges that Gaussian, Inc. is engaged in the
 business of creating and licensing software in the field of
 computational chemistry and represents and warrants to the
 licensee that it is not a competitor of Gaussian, Inc. and that
 it will not use this program in any manner prohibited above.
 ---------------------------------------------------------------
  

 Cite this work as:
 Gaussian 16, Revision B.01,
 M. J. Frisch, G. W. Trucks, H. B. Schlegel, G. E. Scuseria, 
 M. A. Robb, J. R. Cheeseman, G. Scalmani, V. Barone, 
 G. A. Petersson, H. Nakatsuji, X. Li, M. Caricato, A. V. Marenich, 
 J. Bloino, B. G. Janesko, R. Gomperts, B. Mennucci, H. P. Hratchian, 
 J. V. Ortiz, A. F. Izmaylov, J. L. Sonnenberg, D. Williams-Young, 
 F. Ding, F. Lipparini, F. Egidi, J. Goings, B. Peng, A. Petrone, 
 T. Henderson, D. Ranasinghe, V. G. Zakrzewski, J. Gao, N. Rega, 
 G. Zheng, W. Liang, M. Hada, M. Ehara, K. Toyota, R. Fukuda, 
 J. Hasegawa, M. Ishida, T. Nakajima, Y. Honda, O. Kitao, H. Nakai, 
 T. Vreven, K. Throssell, J. A. Montgomery, Jr., J. E. Peralta, 
 F. Ogliaro, M. J. Bearpark, J. J. Heyd, E. N. Brothers, K. N. Kudin, 
 V. N. Staroverov, T. A. Keith, R. Kobayashi, J. Normand, 
 K. Raghavachari, A. P. Rendell, J. C. Burant, S. S. Iyengar, 
 J. Tomasi, M. Cossi, J. M. Millam, M. Klene, C. Adamo, R. Cammi, 
 J. W. Ochterski, R. L. Martin, K. Morokuma, O. Farkas, 
 J. B. Foresman, and D. J. Fox, Gaussian, Inc., Wallingford CT, 2016.
 
 ******************************************
 Gaussian 16:  ES64L-G16RevB.01 20-Dec-2017
                 4-Nov-2022 
 ******************************************
 %chk=./calculation/no_transfer_pubchem_sampling_1_b3lyp/95202689.chk
 %nprocshared=7
 Will use up to    7 processors via shared memory.
 %mem=6GB
 -----------------------------
 #p b3lyp/6-31g(d) opt SCF=XQC
 -----------------------------
 1/18=20,19=15,26=3,38=1/1,3;
 2/9=110,12=2,17=6,18=5,40=1/2;
 3/5=1,6=6,7=1,11=2,25=1,30=1,71=1,74=-5/1,2,3;
 4//1;
 5/5=2,8=3,13=1,38=5/2,8;
 6/7=2,8=2,9=2,10=2,28=1/1;
 7//1,2,3,16;
 1/18=20,19=15,26=3/3(2);
 2/9=110/2;
 99//99;
 2/9=110/2;
 3/5=1,6=6,7=1,11=2,25=1,30=1,71=1,74=-5/1,2,3;
 4/5=5,16=3,69=1/1;
 5/5=2,8=3,13=1,38=5/2,8;
 7//1,2,3,16;
 1/18=20,19=15,26=3/3(-5);
 2/9=110/2;
 6/7=2,8=2,9=2,10=2,19=2,28=1/1;
 99/9=1/99;
 Leave Link    1 at Fri Nov  4 18:31:41 2022, MaxMem=   805306368 cpu:               1.8 elap:               0.3
 (Enter /home/wykgroup/appl/g16/l101.exe)
 ------------------------------
 Gaussian input prepared by ASE
 ------------------------------
 Symbolic Z-matrix:
 Charge =  0 Multiplicity = 1
 C                    -1.82578  -0.96691   2.49446 
 C                    -1.34502   0.17644   1.6825 
 N                    -0.95405   1.2951    2.23035 
 O                    -0.59068   2.1371    1.22854 
 C                    -0.76269   1.52792   0.04429 
 C                    -0.39421   2.27561  -1.18147 
 C                    -1.24183   0.26046   0.26287 
 C                    -1.56315  -0.80114  -0.73738 
 C                    -2.87707  -0.54243  -1.49398 
 C                    -2.62164  -1.15059  -2.87081 
 C                    -1.15985  -0.80099  -3.12158 
 N                    -0.56714  -0.86578  -1.79891 
 C                     0.76911  -0.89592  -1.63751 
 O                     1.54324  -0.80458  -2.57153 
 C                     1.23981  -1.07167  -0.23541 
 S                     0.97823  -2.54847   0.63452 
 C                     1.88626  -1.99226   1.98562 
 C                     2.37602  -0.74257   1.775 
 C                     2.00995  -0.21485   0.49857 
 O                     2.34001   1.04567   0.10608 
 C                     2.77821   1.8422    1.19353 
 C                     3.76763   1.07004   2.06409 
 O                     3.14357  -0.05153   2.66184 
 H                    -1.25036  -1.86212   2.26526 
 H                    -1.72001  -0.72796   3.54813 
 H                    -2.87364  -1.16622   2.27486 
 H                     0.50678   1.8469   -1.61982 
 H                    -0.19943   3.31282  -0.92216 
 H                    -1.19456   2.22898  -1.91664 
 H                    -1.6135   -1.76972  -0.22188 
 H                    -3.04769   0.5315   -1.58121 
 H                    -3.72957  -0.98684  -0.98481 
 H                    -2.74643  -2.23304  -2.83065 
 H                    -3.28205  -0.7491   -3.63613 
 H                    -1.05243   0.20768  -3.53699 
 H                    -0.64524  -1.49702  -3.78614 
 H                     2.01115  -2.61149   2.8486 
 H                     1.91579   2.14602   1.8019 
 H                     3.2473    2.72234   0.75287 
 H                     4.13163   1.68816   2.88535 
 H                     4.61331   0.73825   1.44582 
 
 ITRead=  0  0  0  0  0  0  0  0  0  0  0  0  0  0  0  0  0  0  0  0
 ITRead=  0  0  0  0  0  0  0  0  0  0  0  0  0  0  0  0  0  0  0  0
 ITRead=  0
 MicOpt= -1 -1 -1 -1 -1 -1 -1 -1 -1 -1 -1 -1 -1 -1 -1 -1 -1 -1 -1 -1
 MicOpt= -1 -1 -1 -1 -1 -1 -1 -1 -1 -1 -1 -1 -1 -1 -1 -1 -1 -1 -1 -1
 MicOpt= -1
 NAtoms=     41 NQM=       41 NQMF=       0 NMMI=      0 NMMIF=      0
                NMic=       0 NMicF=      0.
                    Isotopes and Nuclear Properties:
 (Nuclear quadrupole moments (NQMom) in fm**2, nuclear magnetic moments (NMagM)
  in nuclear magnetons)

  Atom         1           2           3           4           5           6           7           8           9          10
 IAtWgt=          12          12          14          16          12          12          12          12          12          12
 AtmWgt=  12.0000000  12.0000000  14.0030740  15.9949146  12.0000000  12.0000000  12.0000000  12.0000000  12.0000000  12.0000000
 NucSpn=           0           0           2           0           0           0           0           0           0           0
 AtZEff=  -0.0000000  -0.0000000  -0.0000000  -0.0000000  -0.0000000  -0.0000000  -0.0000000  -0.0000000  -0.0000000  -0.0000000
 NQMom=    0.0000000   0.0000000   2.0440000   0.0000000   0.0000000   0.0000000   0.0000000   0.0000000   0.0000000   0.0000000
 NMagM=    0.0000000   0.0000000   0.4037610   0.0000000   0.0000000   0.0000000   0.0000000   0.0000000   0.0000000   0.0000000
 AtZNuc=   6.0000000   6.0000000   7.0000000   8.0000000   6.0000000   6.0000000   6.0000000   6.0000000   6.0000000   6.0000000

  Atom        11          12          13          14          15          16          17          18          19          20
 IAtWgt=          12          14          12          16          12          32          12          12          12          16
 AtmWgt=  12.0000000  14.0030740  12.0000000  15.9949146  12.0000000  31.9720718  12.0000000  12.0000000  12.0000000  15.9949146
 NucSpn=           0           2           0           0           0           0           0           0           0           0
 AtZEff=  -0.0000000  -0.0000000  -0.0000000  -0.0000000  -0.0000000  -0.0000000  -0.0000000  -0.0000000  -0.0000000  -0.0000000
 NQMom=    0.0000000   2.0440000   0.0000000   0.0000000   0.0000000   0.0000000   0.0000000   0.0000000   0.0000000   0.0000000
 NMagM=    0.0000000   0.4037610   0.0000000   0.0000000   0.0000000   0.0000000   0.0000000   0.0000000   0.0000000   0.0000000
 AtZNuc=   6.0000000   7.0000000   6.0000000   8.0000000   6.0000000  16.0000000   6.0000000   6.0000000   6.0000000   8.0000000

  Atom        21          22          23          24          25          26          27          28          29          30
 IAtWgt=          12          12          16           1           1           1           1           1           1           1
 AtmWgt=  12.0000000  12.0000000  15.9949146   1.0078250   1.0078250   1.0078250   1.0078250   1.0078250   1.0078250   1.0078250
 NucSpn=           0           0           0           1           1           1           1           1           1           1
 AtZEff=  -0.0000000  -0.0000000  -0.0000000  -0.0000000  -0.0000000  -0.0000000  -0.0000000  -0.0000000  -0.0000000  -0.0000000
 NQMom=    0.0000000   0.0000000   0.0000000   0.0000000   0.0000000   0.0000000   0.0000000   0.0000000   0.0000000   0.0000000
 NMagM=    0.0000000   0.0000000   0.0000000   2.7928460   2.7928460   2.7928460   2.7928460   2.7928460   2.7928460   2.7928460
 AtZNuc=   6.0000000   6.0000000   8.0000000   1.0000000   1.0000000   1.0000000   1.0000000   1.0000000   1.0000000   1.0000000

  Atom        31          32          33          34          35          36          37          38          39          40
 IAtWgt=           1           1           1           1           1           1           1           1           1           1
 AtmWgt=   1.0078250   1.0078250   1.0078250   1.0078250   1.0078250   1.0078250   1.0078250   1.0078250   1.0078250   1.0078250
 NucSpn=           1           1           1           1           1           1           1           1           1           1
 AtZEff=  -0.0000000  -0.0000000  -0.0000000  -0.0000000  -0.0000000  -0.0000000  -0.0000000  -0.0000000  -0.0000000  -0.0000000
 NQMom=    0.0000000   0.0000000   0.0000000   0.0000000   0.0000000   0.0000000   0.0000000   0.0000000   0.0000000   0.0000000
 NMagM=    2.7928460   2.7928460   2.7928460   2.7928460   2.7928460   2.7928460   2.7928460   2.7928460   2.7928460   2.7928460
 AtZNuc=   1.0000000   1.0000000   1.0000000   1.0000000   1.0000000   1.0000000   1.0000000   1.0000000   1.0000000   1.0000000

  Atom        41
 IAtWgt=           1
 AtmWgt=   1.0078250
 NucSpn=           1
 AtZEff=  -0.0000000
 NQMom=    0.0000000
 NMagM=    2.7928460
 AtZNuc=   1.0000000
 Leave Link  101 at Fri Nov  4 18:31:41 2022, MaxMem=   805306368 cpu:               1.2 elap:               0.2
 (Enter /home/wykgroup/appl/g16/l103.exe)

 GradGradGradGradGradGradGradGradGradGradGradGradGradGradGradGradGradGrad
 Berny optimization.
 Initialization pass.
                           ----------------------------
                           !    Initial Parameters    !
                           ! (Angstroms and Degrees)  !
 --------------------------                            --------------------------
 ! Name  Definition              Value          Derivative Info.                !
 --------------------------------------------------------------------------------
 ! R1    R(1,2)                  1.4824         estimate D2E/DX2                !
 ! R2    R(1,24)                 1.0886         estimate D2E/DX2                !
 ! R3    R(1,25)                 1.0856         estimate D2E/DX2                !
 ! R4    R(1,26)                 1.089          estimate D2E/DX2                !
 ! R5    R(2,3)                  1.3055         estimate D2E/DX2                !
 ! R6    R(2,7)                  1.4259         estimate D2E/DX2                !
 ! R7    R(3,4)                  1.3582         estimate D2E/DX2                !
 ! R8    R(4,5)                  1.3428         estimate D2E/DX2                !
 ! R9    R(5,6)                  1.4823         estimate D2E/DX2                !
 ! R10   R(5,7)                  1.3725         estimate D2E/DX2                !
 ! R11   R(6,27)                 1.0898         estimate D2E/DX2                !
 ! R12   R(6,28)                 1.0867         estimate D2E/DX2                !
 ! R13   R(6,29)                 1.0878         estimate D2E/DX2                !
 ! R14   R(7,8)                  1.4936         estimate D2E/DX2                !
 ! R15   R(8,9)                  1.5381         estimate D2E/DX2                !
 ! R16   R(8,12)                 1.4571         estimate D2E/DX2                !
 ! R17   R(8,30)                 1.0984         estimate D2E/DX2                !
 ! R18   R(9,10)                 1.5267         estimate D2E/DX2                !
 ! R19   R(9,31)                 1.0909         estimate D2E/DX2                !
 ! R20   R(9,32)                 1.0879         estimate D2E/DX2                !
 ! R21   R(10,11)                1.5238         estimate D2E/DX2                !
 ! R22   R(10,33)                1.0904         estimate D2E/DX2                !
 ! R23   R(10,34)                1.0877         estimate D2E/DX2                !
 ! R24   R(11,12)                1.4508         estimate D2E/DX2                !
 ! R25   R(11,35)                1.0961         estimate D2E/DX2                !
 ! R26   R(11,36)                1.0913         estimate D2E/DX2                !
 ! R27   R(12,13)                1.3463         estimate D2E/DX2                !
 ! R28   R(13,14)                1.2166         estimate D2E/DX2                !
 ! R29   R(13,15)                1.4894         estimate D2E/DX2                !
 ! R30   R(15,16)                1.7338         estimate D2E/DX2                !
 ! R31   R(15,19)                1.366          estimate D2E/DX2                !
 ! R32   R(16,17)                1.7203         estimate D2E/DX2                !
 ! R33   R(17,18)                1.3587         estimate D2E/DX2                !
 ! R34   R(17,37)                1.0695         estimate D2E/DX2                !
 ! R35   R(18,19)                1.4289         estimate D2E/DX2                !
 ! R36   R(18,23)                1.3613         estimate D2E/DX2                !
 ! R37   R(19,20)                1.3608         estimate D2E/DX2                !
 ! R38   R(20,21)                1.4174         estimate D2E/DX2                !
 ! R39   R(21,22)                1.5274         estimate D2E/DX2                !
 ! R40   R(21,38)                1.0983         estimate D2E/DX2                !
 ! R41   R(21,39)                1.0904         estimate D2E/DX2                !
 ! R42   R(22,23)                1.4159         estimate D2E/DX2                !
 ! R43   R(22,40)                1.0904         estimate D2E/DX2                !
 ! R44   R(22,41)                1.0989         estimate D2E/DX2                !
 ! A1    A(2,1,24)             110.3345         estimate D2E/DX2                !
 ! A2    A(2,1,25)             109.2842         estimate D2E/DX2                !
 ! A3    A(2,1,26)             110.045          estimate D2E/DX2                !
 ! A4    A(24,1,25)            109.5031         estimate D2E/DX2                !
 ! A5    A(24,1,26)            108.4004         estimate D2E/DX2                !
 ! A6    A(25,1,26)            109.2534         estimate D2E/DX2                !
 ! A7    A(1,2,3)              121.88           estimate D2E/DX2                !
 ! A8    A(1,2,7)              127.8969         estimate D2E/DX2                !
 ! A9    A(3,2,7)              110.2209         estimate D2E/DX2                !
 ! A10   A(2,3,4)              107.5663         estimate D2E/DX2                !
 ! A11   A(3,4,5)              109.5725         estimate D2E/DX2                !
 ! A12   A(4,5,6)              117.9434         estimate D2E/DX2                !
 ! A13   A(4,5,7)              108.8567         estimate D2E/DX2                !
 ! A14   A(6,5,7)              133.1778         estimate D2E/DX2                !
 ! A15   A(5,6,27)             109.8584         estimate D2E/DX2                !
 ! A16   A(5,6,28)             109.1875         estimate D2E/DX2                !
 ! A17   A(5,6,29)             110.7537         estimate D2E/DX2                !
 ! A18   A(27,6,28)            108.8597         estimate D2E/DX2                !
 ! A19   A(27,6,29)            108.6371         estimate D2E/DX2                !
 ! A20   A(28,6,29)            109.5153         estimate D2E/DX2                !
 ! A21   A(2,7,5)              103.7827         estimate D2E/DX2                !
 ! A22   A(2,7,8)              127.5413         estimate D2E/DX2                !
 ! A23   A(5,7,8)              128.669          estimate D2E/DX2                !
 ! A24   A(7,8,9)              113.1819         estimate D2E/DX2                !
 ! A25   A(7,8,12)             111.8627         estimate D2E/DX2                !
 ! A26   A(7,8,30)             108.8043         estimate D2E/DX2                !
 ! A27   A(9,8,12)             103.4755         estimate D2E/DX2                !
 ! A28   A(9,8,30)             109.8787         estimate D2E/DX2                !
 ! A29   A(12,8,30)            109.5202         estimate D2E/DX2                !
 ! A30   A(8,9,10)             103.5142         estimate D2E/DX2                !
 ! A31   A(8,9,31)             109.7874         estimate D2E/DX2                !
 ! A32   A(8,9,32)             111.7448         estimate D2E/DX2                !
 ! A33   A(10,9,31)            110.2563         estimate D2E/DX2                !
 ! A34   A(10,9,32)            112.9836         estimate D2E/DX2                !
 ! A35   A(31,9,32)            108.4825         estimate D2E/DX2                !
 ! A36   A(9,10,11)            102.5637         estimate D2E/DX2                !
 ! A37   A(9,10,33)            110.0661         estimate D2E/DX2                !
 ! A38   A(9,10,34)            112.7013         estimate D2E/DX2                !
 ! A39   A(11,10,33)           110.0976         estimate D2E/DX2                !
 ! A40   A(11,10,34)           112.4567         estimate D2E/DX2                !
 ! A41   A(33,10,34)           108.8366         estimate D2E/DX2                !
 ! A42   A(10,11,12)           103.3927         estimate D2E/DX2                !
 ! A43   A(10,11,35)           111.5614         estimate D2E/DX2                !
 ! A44   A(10,11,36)           113.9699         estimate D2E/DX2                !
 ! A45   A(12,11,35)           110.2765         estimate D2E/DX2                !
 ! A46   A(12,11,36)           109.5147         estimate D2E/DX2                !
 ! A47   A(35,11,36)           108.0541         estimate D2E/DX2                !
 ! A48   A(8,12,11)            112.5161         estimate D2E/DX2                !
 ! A49   A(8,12,13)            126.3074         estimate D2E/DX2                !
 ! A50   A(11,12,13)           121.0487         estimate D2E/DX2                !
 ! A51   A(12,13,14)           122.5375         estimate D2E/DX2                !
 ! A52   A(12,13,15)           115.415          estimate D2E/DX2                !
 ! A53   A(14,13,15)           122.0403         estimate D2E/DX2                !
 ! A54   A(13,15,16)           121.6791         estimate D2E/DX2                !
 ! A55   A(13,15,19)           127.588          estimate D2E/DX2                !
 ! A56   A(16,15,19)           110.4703         estimate D2E/DX2                !
 ! A57   A(15,16,17)            92.2375         estimate D2E/DX2                !
 ! A58   A(16,17,18)           111.4635         estimate D2E/DX2                !
 ! A59   A(16,17,37)           120.5428         estimate D2E/DX2                !
 ! A60   A(18,17,37)           127.9931         estimate D2E/DX2                !
 ! A61   A(17,18,19)           112.6951         estimate D2E/DX2                !
 ! A62   A(17,18,23)           124.6923         estimate D2E/DX2                !
 ! A63   A(19,18,23)           122.6102         estimate D2E/DX2                !
 ! A64   A(15,19,18)           113.1268         estimate D2E/DX2                !
 ! A65   A(15,19,20)           124.2477         estimate D2E/DX2                !
 ! A66   A(18,19,20)           122.5199         estimate D2E/DX2                !
 ! A67   A(19,20,21)           111.9775         estimate D2E/DX2                !
 ! A68   A(20,21,22)           110.698          estimate D2E/DX2                !
 ! A69   A(20,21,38)           109.7353         estimate D2E/DX2                !
 ! A70   A(20,21,39)           106.055          estimate D2E/DX2                !
 ! A71   A(22,21,38)           109.4388         estimate D2E/DX2                !
 ! A72   A(22,21,39)           111.0836         estimate D2E/DX2                !
 ! A73   A(38,21,39)           109.7791         estimate D2E/DX2                !
 ! A74   A(21,22,23)           110.8279         estimate D2E/DX2                !
 ! A75   A(21,22,40)           111.0343         estimate D2E/DX2                !
 ! A76   A(21,22,41)           109.298          estimate D2E/DX2                !
 ! A77   A(23,22,40)           106.1527         estimate D2E/DX2                !
 ! A78   A(23,22,41)           109.7283         estimate D2E/DX2                !
 ! A79   A(40,22,41)           109.7558         estimate D2E/DX2                !
 ! A80   A(18,23,22)           112.0612         estimate D2E/DX2                !
 ! D1    D(24,1,2,3)          -124.5153         estimate D2E/DX2                !
 ! D2    D(24,1,2,7)            56.0839         estimate D2E/DX2                !
 ! D3    D(25,1,2,3)            -4.0592         estimate D2E/DX2                !
 ! D4    D(25,1,2,7)           176.54           estimate D2E/DX2                !
 ! D5    D(26,1,2,3)           115.91           estimate D2E/DX2                !
 ! D6    D(26,1,2,7)           -63.4908         estimate D2E/DX2                !
 ! D7    D(1,2,3,4)           -179.3976         estimate D2E/DX2                !
 ! D8    D(7,2,3,4)              0.0985         estimate D2E/DX2                !
 ! D9    D(1,2,7,5)            179.2064         estimate D2E/DX2                !
 ! D10   D(1,2,7,8)             -1.6937         estimate D2E/DX2                !
 ! D11   D(3,2,7,5)             -0.2514         estimate D2E/DX2                !
 ! D12   D(3,2,7,8)            178.8485         estimate D2E/DX2                !
 ! D13   D(2,3,4,5)              0.101          estimate D2E/DX2                !
 ! D14   D(3,4,5,6)           -178.7796         estimate D2E/DX2                !
 ! D15   D(3,4,5,7)             -0.2661         estimate D2E/DX2                !
 ! D16   D(4,5,6,27)           108.8251         estimate D2E/DX2                !
 ! D17   D(4,5,6,28)           -10.4887         estimate D2E/DX2                !
 ! D18   D(4,5,6,29)          -131.1604         estimate D2E/DX2                !
 ! D19   D(7,5,6,27)           -69.2458         estimate D2E/DX2                !
 ! D20   D(7,5,6,28)           171.4405         estimate D2E/DX2                !
 ! D21   D(7,5,6,29)            50.7687         estimate D2E/DX2                !
 ! D22   D(4,5,7,2)              0.3067         estimate D2E/DX2                !
 ! D23   D(4,5,7,8)           -178.7792         estimate D2E/DX2                !
 ! D24   D(6,5,7,2)            178.5058         estimate D2E/DX2                !
 ! D25   D(6,5,7,8)             -0.5801         estimate D2E/DX2                !
 ! D26   D(2,7,8,9)            105.7604         estimate D2E/DX2                !
 ! D27   D(2,7,8,12)          -137.8185         estimate D2E/DX2                !
 ! D28   D(2,7,8,30)           -16.6899         estimate D2E/DX2                !
 ! D29   D(5,7,8,9)            -75.3592         estimate D2E/DX2                !
 ! D30   D(5,7,8,12)            41.0618         estimate D2E/DX2                !
 ! D31   D(5,7,8,30)           162.1904         estimate D2E/DX2                !
 ! D32   D(7,8,9,10)           148.1382         estimate D2E/DX2                !
 ! D33   D(7,8,9,31)            30.4349         estimate D2E/DX2                !
 ! D34   D(7,8,9,32)           -89.9771         estimate D2E/DX2                !
 ! D35   D(12,8,9,10)           26.8613         estimate D2E/DX2                !
 ! D36   D(12,8,9,31)          -90.8419         estimate D2E/DX2                !
 ! D37   D(12,8,9,32)          148.7461         estimate D2E/DX2                !
 ! D38   D(30,8,9,10)          -90.0115         estimate D2E/DX2                !
 ! D39   D(30,8,9,31)          152.2852         estimate D2E/DX2                !
 ! D40   D(30,8,9,32)           31.8732         estimate D2E/DX2                !
 ! D41   D(7,8,12,11)         -127.6838         estimate D2E/DX2                !
 ! D42   D(7,8,12,13)           48.2104         estimate D2E/DX2                !
 ! D43   D(9,8,12,11)           -5.5219         estimate D2E/DX2                !
 ! D44   D(9,8,12,13)          170.3723         estimate D2E/DX2                !
 ! D45   D(30,8,12,11)         111.603          estimate D2E/DX2                !
 ! D46   D(30,8,12,13)         -72.5029         estimate D2E/DX2                !
 ! D47   D(8,9,10,11)          -37.7112         estimate D2E/DX2                !
 ! D48   D(8,9,10,33)           79.4315         estimate D2E/DX2                !
 ! D49   D(8,9,10,34)         -158.8727         estimate D2E/DX2                !
 ! D50   D(31,9,10,11)          79.6643         estimate D2E/DX2                !
 ! D51   D(31,9,10,33)        -163.193          estimate D2E/DX2                !
 ! D52   D(31,9,10,34)         -41.4972         estimate D2E/DX2                !
 ! D53   D(32,9,10,11)        -158.7631         estimate D2E/DX2                !
 ! D54   D(32,9,10,33)         -41.6204         estimate D2E/DX2                !
 ! D55   D(32,9,10,34)          80.0753         estimate D2E/DX2                !
 ! D56   D(9,10,11,12)          34.0825         estimate D2E/DX2                !
 ! D57   D(9,10,11,35)         -84.4154         estimate D2E/DX2                !
 ! D58   D(9,10,11,36)         152.8761         estimate D2E/DX2                !
 ! D59   D(33,10,11,12)        -83.0376         estimate D2E/DX2                !
 ! D60   D(33,10,11,35)        158.4645         estimate D2E/DX2                !
 ! D61   D(33,10,11,36)         35.7559         estimate D2E/DX2                !
 ! D62   D(34,10,11,12)        155.4117         estimate D2E/DX2                !
 ! D63   D(34,10,11,35)         36.9138         estimate D2E/DX2                !
 ! D64   D(34,10,11,36)        -85.7948         estimate D2E/DX2                !
 ! D65   D(10,11,12,8)         -18.1022         estimate D2E/DX2                !
 ! D66   D(10,11,12,13)        165.7594         estimate D2E/DX2                !
 ! D67   D(35,11,12,8)         101.2838         estimate D2E/DX2                !
 ! D68   D(35,11,12,13)        -74.8545         estimate D2E/DX2                !
 ! D69   D(36,11,12,8)        -139.9355         estimate D2E/DX2                !
 ! D70   D(36,11,12,13)         43.9261         estimate D2E/DX2                !
 ! D71   D(8,12,13,14)        -171.8543         estimate D2E/DX2                !
 ! D72   D(8,12,13,15)           9.1068         estimate D2E/DX2                !
 ! D73   D(11,12,13,14)          3.718          estimate D2E/DX2                !
 ! D74   D(11,12,13,15)       -175.3209         estimate D2E/DX2                !
 ! D75   D(12,13,15,16)         67.3582         estimate D2E/DX2                !
 ! D76   D(12,13,15,19)       -119.1076         estimate D2E/DX2                !
 ! D77   D(14,13,15,16)       -111.686          estimate D2E/DX2                !
 ! D78   D(14,13,15,19)         61.8482         estimate D2E/DX2                !
 ! D79   D(13,15,16,17)        175.3186         estimate D2E/DX2                !
 ! D80   D(19,15,16,17)          0.7842         estimate D2E/DX2                !
 ! D81   D(13,15,19,18)       -174.9371         estimate D2E/DX2                !
 ! D82   D(13,15,19,20)          8.7259         estimate D2E/DX2                !
 ! D83   D(16,15,19,18)         -0.8082         estimate D2E/DX2                !
 ! D84   D(16,15,19,20)       -177.1452         estimate D2E/DX2                !
 ! D85   D(15,16,17,18)         -0.565          estimate D2E/DX2                !
 ! D86   D(15,16,17,37)        179.7063         estimate D2E/DX2                !
 ! D87   D(16,17,18,19)          0.2073         estimate D2E/DX2                !
 ! D88   D(16,17,18,23)       -179.2539         estimate D2E/DX2                !
 ! D89   D(37,17,18,19)        179.9107         estimate D2E/DX2                !
 ! D90   D(37,17,18,23)          0.4495         estimate D2E/DX2                !
 ! D91   D(17,18,19,15)          0.4            estimate D2E/DX2                !
 ! D92   D(17,18,19,20)        176.8092         estimate D2E/DX2                !
 ! D93   D(23,18,19,15)        179.8741         estimate D2E/DX2                !
 ! D94   D(23,18,19,20)         -3.7167         estimate D2E/DX2                !
 ! D95   D(17,18,23,22)        165.9319         estimate D2E/DX2                !
 ! D96   D(19,18,23,22)        -13.478          estimate D2E/DX2                !
 ! D97   D(15,19,20,21)        161.8519         estimate D2E/DX2                !
 ! D98   D(18,19,20,21)        -14.1525         estimate D2E/DX2                !
 ! D99   D(19,20,21,22)         45.5202         estimate D2E/DX2                !
 ! D100  D(19,20,21,38)        -75.3776         estimate D2E/DX2                !
 ! D101  D(19,20,21,39)        166.1103         estimate D2E/DX2                !
 ! D102  D(20,21,22,23)        -64.0065         estimate D2E/DX2                !
 ! D103  D(20,21,22,40)        178.271          estimate D2E/DX2                !
 ! D104  D(20,21,22,41)         57.049          estimate D2E/DX2                !
 ! D105  D(38,21,22,23)         57.067          estimate D2E/DX2                !
 ! D106  D(38,21,22,40)        -60.6555         estimate D2E/DX2                !
 ! D107  D(38,21,22,41)        178.1225         estimate D2E/DX2                !
 ! D108  D(39,21,22,23)        178.4435         estimate D2E/DX2                !
 ! D109  D(39,21,22,40)         60.721          estimate D2E/DX2                !
 ! D110  D(39,21,22,41)        -60.501          estimate D2E/DX2                !
 ! D111  D(21,22,23,18)         44.9111         estimate D2E/DX2                !
 ! D112  D(40,22,23,18)        165.574          estimate D2E/DX2                !
 ! D113  D(41,22,23,18)        -75.8899         estimate D2E/DX2                !
 --------------------------------------------------------------------------------
 Trust Radius=3.00D-01 FncErr=1.00D-07 GrdErr=1.00D-06 EigMax=2.50D+02 EigMin=1.00D-04
 Number of steps in this run=    246 maximum allowed number of steps=    246.
 GradGradGradGradGradGradGradGradGradGradGradGradGradGradGradGradGradGrad

 Leave Link  103 at Fri Nov  4 18:31:41 2022, MaxMem=   805306368 cpu:               0.1 elap:               0.0
 (Enter /home/wykgroup/appl/g16/l202.exe)
                          Input orientation:                          
 ---------------------------------------------------------------------
 Center     Atomic      Atomic             Coordinates (Angstroms)
 Number     Number       Type             X           Y           Z
 ---------------------------------------------------------------------
      1          6           0       -1.825784   -0.966910    2.494456
      2          6           0       -1.345021    0.176436    1.682497
      3          7           0       -0.954048    1.295098    2.230345
      4          8           0       -0.590683    2.137096    1.228545
      5          6           0       -0.762693    1.527916    0.044289
      6          6           0       -0.394207    2.275610   -1.181465
      7          6           0       -1.241833    0.260458    0.262870
      8          6           0       -1.563146   -0.801137   -0.737385
      9          6           0       -2.877070   -0.542426   -1.493980
     10          6           0       -2.621638   -1.150594   -2.870812
     11          6           0       -1.159846   -0.800992   -3.121583
     12          7           0       -0.567144   -0.865776   -1.798913
     13          6           0        0.769114   -0.895918   -1.637511
     14          8           0        1.543236   -0.804581   -2.571530
     15          6           0        1.239810   -1.071668   -0.235415
     16         16           0        0.978231   -2.548468    0.634520
     17          6           0        1.886263   -1.992263    1.985624
     18          6           0        2.376024   -0.742565    1.775000
     19          6           0        2.009954   -0.214847    0.498567
     20          8           0        2.340014    1.045671    0.106080
     21          6           0        2.778215    1.842203    1.193533
     22          6           0        3.767634    1.070043    2.064085
     23          8           0        3.143574   -0.051532    2.661837
     24          1           0       -1.250358   -1.862124    2.265256
     25          1           0       -1.720013   -0.727963    3.548128
     26          1           0       -2.873641   -1.166217    2.274865
     27          1           0        0.506781    1.846898   -1.619825
     28          1           0       -0.199432    3.312818   -0.922156
     29          1           0       -1.194561    2.228982   -1.916643
     30          1           0       -1.613495   -1.769722   -0.221884
     31          1           0       -3.047694    0.531502   -1.581208
     32          1           0       -3.729573   -0.986841   -0.984808
     33          1           0       -2.746430   -2.233037   -2.830653
     34          1           0       -3.282049   -0.749105   -3.636132
     35          1           0       -1.052429    0.207685   -3.536994
     36          1           0       -0.645242   -1.497018   -3.786141
     37          1           0        2.011146   -2.611493    2.848596
     38          1           0        1.915789    2.146022    1.801902
     39          1           0        3.247296    2.722343    0.752874
     40          1           0        4.131634    1.688164    2.885350
     41          1           0        4.613315    0.738251    1.445818
 ---------------------------------------------------------------------
                    Distance matrix (angstroms):
                    1          2          3          4          5
     1  C    0.000000
     2  C    1.482447   0.000000
     3  N    2.438515   1.305527   0.000000
     4  O    3.572515   2.149253   1.358160   0.000000
     5  C    3.654810   2.202120   2.206731   1.342814   0.000000
     6  C    5.106442   3.675984   3.593783   2.421970   1.482330
     7  C    2.612931   1.425851   2.241486   2.208687   1.372517
     8  C    3.246730   2.618980   3.684104   3.666576   2.583840
     9  C    4.146446   3.599159   4.576582   4.451915   3.335143
    10  C    5.427083   4.911556   5.897802   5.633686   4.373546
    11  C    5.657817   4.906001   5.751442   5.280144   3.950227
    12  N    4.475201   3.716385   4.588463   4.264188   3.027441
    13  C    4.879722   4.079456   4.767615   4.388906   3.324133
    14  O    6.086120   5.234613   5.805436   5.258102   4.195279
    15  C    4.106219   3.452174   4.061351   3.973670   3.293341
    16  S    3.717955   3.731067   4.588394   4.976833   4.471700
    17  C    3.884527   3.903375   4.351321   4.874427   4.814293
    18  C    4.268857   3.833966   3.930495   4.170422   4.242876
    19  C    4.388856   3.579196   3.750239   3.581594   3.306231
    20  O    5.206601   4.101236   3.927539   3.322667   3.140568
    21  C    5.548001   4.473806   3.912044   3.381961   3.735983
    22  C    5.968309   5.204170   4.729965   4.564171   4.981274
    23  O    5.055734   4.599844   4.334756   4.559506   4.960357
    24  H    1.088603   2.122333   3.171288   4.183743   4.082020
    25  H    1.085590   2.106925   2.532988   3.855440   4.275785
    26  H    1.089012   2.119032   3.121680   4.149525   4.085330
    27  H    5.503243   4.138229   4.154794   3.066243   2.117212
    28  H    5.712646   4.234794   3.818233   2.482118   2.106455
    29  H    5.483609   4.146010   4.257640   3.203953   2.126795
    30  H    2.840437   2.736107   3.980129   4.291051   3.416011
    31  H    4.511024   3.698235   4.415243   4.063194   2.975955
    32  H    3.966118   3.762157   4.821618   4.950813   4.023111
    33  H    5.550447   5.304530   6.424491   6.342114   5.132765
    34  H    6.304939   5.735549   6.634298   6.264079   5.007742
    35  H    6.193234   5.227779   5.869783   5.161996   3.827865
    36  H    6.412535   5.761610   6.639984   6.193290   4.882235
    37  H    4.189523   4.516214   4.943285   5.651830   5.717782
    38  H    4.916233   3.811352   3.023839   2.571229   3.262748
    39  H    6.509980   5.332468   4.676670   3.911376   4.243674
    40  H    6.533991   5.807403   5.142732   5.024622   5.661426
    41  H    6.743086   5.989442   5.649875   5.393104   5.611534
                    6          7          8          9         10
     6  C    0.000000
     7  C    2.620193   0.000000
     8  C    3.321145   1.493564   0.000000
     9  C    3.768766   2.530838   1.538104   0.000000
    10  C    4.422015   3.703362   2.407081   1.526690   0.000000
    11  C    3.716953   3.547945   2.418068   2.380085   1.523792
    12  N    3.206159   2.444290   1.457066   2.352297   2.334745
    13  C    3.408795   2.998760   2.501729   3.666090   3.617055
    14  O    3.895323   4.113969   3.607452   4.557296   4.189925
    15  C    3.843084   2.860315   2.860371   4.337371   4.675717
    16  S    5.334147   3.599566   3.375483   4.839222   5.215406
    17  C    5.783229   4.222276   4.553238   6.074455   6.679412
    18  C    5.052153   4.047405   4.672533   6.190418   6.835691
    19  C    3.847710   3.294781   3.826010   5.287774   5.803445
    20  O    3.262895   3.670255   4.399635   5.683327   6.188978
    21  C    3.986568   4.419145   5.437196   6.700106   7.391491
    22  C    5.413678   5.384660   6.306089   7.707916   8.373006
    23  O    5.718607   5.008411   5.854044   7.332117   8.065718
    24  H    5.452864   2.918044   3.199903   4.303447   5.363383
    25  H    5.757453   3.463893   4.289006   5.176490   6.495716
    26  H    5.471744   2.957418   3.305197   3.820120   5.151868
    27  H    1.089831   3.019765   3.474966   4.144291   4.509649
    28  H    1.086728   3.436246   4.338027   4.728597   5.439337
    29  H    1.087762   2.937277   3.272328   3.269585   3.790584
    30  H    4.332687   2.120083   1.098377   2.172810   2.901119
    31  H    3.200422   2.595230   2.166068   1.090891   2.161956
    32  H    4.669789   3.049804   2.188404   1.087898   2.193478
    33  H    5.346090   4.248672   2.798620   2.159151   1.090353
    34  H    4.849115   4.514855   3.370471   2.189872   1.087682
    35  H    3.202825   3.804947   3.019332   2.840051   2.179710
    36  H    4.591305   4.454114   3.259097   3.338608   2.205442
    37  H    6.775758   5.051332   5.377007   6.858109   7.503902
    38  H    3.775361   3.986797   5.218880   6.407970   7.300012
    39  H    4.147504   5.143274   6.146230   7.294856   7.910444
    40  H    6.112882   6.147349   7.193841   8.560140   9.316578
    41  H    5.860151   5.992530   6.729395   8.147908   8.633977
                   11         12         13         14         15
    11  C    0.000000
    12  N    1.450844   0.000000
    13  C    2.435645   1.346307   0.000000
    14  O    2.758482   2.248196   1.216552   0.000000
    15  C    3.763187   2.398333   1.489402   2.370830   0.000000
    16  S    4.661905   3.337849   2.817229   3.693119   1.733825
    17  C    6.064772   4.648752   3.946784   4.721854   2.489660
    18  C    6.040059   4.631444   3.775037   4.426025   2.332607
    19  C    4.847337   3.513339   2.562493   3.160871   1.366014
    20  O    5.106563   3.966634   3.045916   3.350803   2.410434
    21  C    6.412100   5.242071   4.421380   4.765116   3.591549
    22  C    7.394051   6.120494   5.153440   5.472759   4.032930
    23  O    7.247694   5.859242   4.983517   5.524156   3.613733
    24  H    5.491105   4.239925   4.499268   5.684810   3.616506
    25  H    6.693591   5.471649   5.754547   6.935767   4.816002
    26  H    5.673811   4.691041   5.352514   6.567124   4.819847
    27  H    3.470482   2.923010   2.755390   3.001720   3.312394
    28  H    4.762699   4.285389   4.377587   4.765532   4.665485
    29  H    3.260955   3.159911   3.701207   4.138467   4.432492
    30  H    3.090710   2.097377   2.905918   4.051825   2.937484
    31  H    2.777097   2.855330   4.075380   4.882878   4.771164
    32  H    3.347214   3.267780   4.546699   5.509394   5.026287
    33  H    2.156999   2.771856   3.945951   4.528672   4.896341
    34  H    2.184308   3.280198   4.519730   4.941643   5.667110
    35  H    1.096145   2.099701   2.853768   2.948607   4.218001
    36  H    1.091287   2.086538   2.641654   2.596958   4.042524
    37  H    6.998295   5.594144   4.960947   5.732507   3.532300
    38  H    6.510386   5.310532   4.732634   5.288833   3.867963
    39  H    6.844575   5.825476   4.994711   5.137575   4.404684
    40  H    8.383251   7.109391   6.200024   6.533844   5.071341
    41  H    7.520625   6.319678   5.191850   5.286283   4.181254
                   16         17         18         19         20
    16  S    0.000000
    17  C    1.720281   0.000000
    18  C    2.552607   1.358666   0.000000
    19  C    2.555136   2.320743   1.428907   0.000000
    20  O    3.879631   3.601058   2.446299   1.360842   0.000000
    21  C    4.778120   4.015734   2.679718   2.303184   1.417406
    22  C    4.787279   3.594918   2.303410   2.681647   2.423320
    23  O    3.877294   2.409260   1.361301   2.447755   2.895075
    24  H    2.845519   3.151748   3.826801   4.057628   5.099812
    25  H    4.368508   4.128570   4.463375   4.845179   5.610462
    26  H    4.408885   4.839700   5.290400   5.282976   6.064509
    27  H    4.962215   5.444391   4.660925   3.316309   2.642244
    28  H    6.177767   6.399155   5.509424   4.398210   3.556122
    29  H    5.835537   6.522122   5.933582   4.698345   4.240855
    30  H    2.838472   4.143781   4.578085   4.008250   4.864590
    31  H    5.532065   6.590570   6.504160   5.519266   5.669101
    32  H    5.217694   6.432103   6.704814   5.978172   6.493152
    33  H    5.097061   6.687028   7.047914   6.146543   6.726533
    34  H    6.294932   7.736991   7.829060   6.736948   6.988058
    35  H    5.396433   6.631364   6.393320   5.083549   5.048057
    36  H    4.825294   6.321951   6.373660   5.201226   5.525071
    37  H    2.443976   1.069468   2.186009   3.356568   4.583055
    38  H    4.927477   4.142467   2.925146   2.698379   2.065563
    39  H    5.739696   5.059604   3.716106   3.197307   2.013140
    40  H    5.741013   4.404174   3.197419   3.717488   3.368538
    41  H    4.967349   3.896654   2.703081   2.929705   2.656559
                   21         22         23         24         25
    21  C    0.000000
    22  C    1.527430   0.000000
    23  O    2.423971   1.415871   0.000000
    24  H    5.576740   5.815351   4.768873   0.000000
    25  H    5.690687   5.962338   4.989744   1.775572   0.000000
    26  H    6.493330   7.010835   6.131814   1.766190   1.773167
    27  H    3.615856   4.980749   5.374881   5.651392   6.188396
    28  H    3.937668   5.448420   5.944708   6.167987   6.214781
    29  H    5.060211   6.466275   6.706910   5.850517   6.235651
    30  H    5.859738   6.499729   5.822176   2.515209   3.912748
    31  H    6.584705   7.747702   7.528291   4.873926   5.446015
    32  H    7.422935   8.350727   7.836643   4.180377   4.965165
    33  H    7.957598   8.792146   8.343774   5.323918   6.633825
    34  H    8.171129   9.246611   9.024393   6.339792   7.352142
    35  H    6.302648   7.439675   7.489937   6.163554   7.177747
    36  H    6.904174   7.764563   7.617151   6.092527   7.452387
    37  H    4.812799   4.153843   2.805471   3.396947   4.237756
    38  H    1.098270   2.157731   2.660112   5.128783   4.952590
    39  H    1.090350   2.172584   3.368870   6.597994   6.662748
    40  H    2.172031   1.090434   2.013148   6.477260   6.365431
    41  H    2.156374   1.098871   2.064606   6.466536   6.832315
                   26         27         28         29         30
    26  H    0.000000
    27  H    5.972832   0.000000
    28  H    6.118340   1.770423   0.000000
    29  H    5.649374   1.768799   1.775946   0.000000
    30  H    2.861108   4.419248   5.321857   4.363181   0.000000
    31  H    4.216852   3.790257   4.035178   2.535362   3.033203
    32  H    3.374947   5.136148   5.563532   4.199539   2.381752
    33  H    5.217337   5.356805   6.394222   4.811791   2.881645
    34  H    5.939753   5.015971   5.776453   4.022841   3.934822
    35  H    6.243566   2.965417   4.148112   2.594491   3.900627
    36  H    6.466141   4.147513   5.615663   4.204741   3.703486
    37  H    5.126318   6.489002   7.362247   7.510942   4.824360
    38  H    5.842367   3.712545   3.640887   4.848580   5.646646
    39  H    7.409671   3.729146   3.877412   5.205749   6.690000
    40  H    7.589075   5.784579   5.991222   7.191660   7.390426
    41  H    7.769737   5.243175   5.949641   6.874579   6.916959
                   31         32         33         34         35
    31  H    0.000000
    32  H    1.768055   0.000000
    33  H    3.048697   2.434485   0.000000
    34  H    2.432610   2.699317   1.771367   0.000000
    35  H    2.812657   3.886855   3.053798   2.428267   0.000000
    36  H    3.840364   4.197719   2.422741   2.744928   1.770278
    37  H    7.422496   7.091568   7.418331   8.575436   7.622927
    38  H    6.219989   7.032119   7.897659   8.060489   6.408688
    39  H    7.062197   8.090383   8.562840   8.599226   6.573745
    40  H    8.534094   9.161461   9.765054  10.170187   8.385275
    41  H    8.239945   8.859326   9.015687   9.506588   7.563767
                   36         37         38         39         40
    36  H    0.000000
    37  H    7.233132   0.000000
    38  H    7.145407   4.872229   0.000000
    39  H    7.318301   5.862586   1.790395   0.000000
    40  H    8.801860   4.794253   2.508678   2.529631   0.000000
    41  H    7.747403   4.467644   3.063538   2.506551   1.790700
                   41
    41  H    0.000000
 Stoichiometry    C16H18N2O4S
 Framework group  C1[X(C16H18N2O4S)]
 Deg. of freedom   117
 Full point group                 C1      NOp   1
 Largest Abelian subgroup         C1      NOp   1
 Largest concise Abelian subgroup C1      NOp   1
                         Standard orientation:                         
 ---------------------------------------------------------------------
 Center     Atomic      Atomic             Coordinates (Angstroms)
 Number     Number       Type             X           Y           Z
 ---------------------------------------------------------------------
      1          6           0       -0.208080    1.960661    2.618754
      2          6           0       -0.205601    1.976763    1.136396
      3          7           0        0.603243    2.743547    0.456533
      4          8           0        0.351509    2.537804   -0.862140
      5          6           0       -0.629840    1.631156   -0.996655
      6          6           0       -1.035885    1.245502   -2.369135
      7          6           0       -1.031912    1.224247    0.250969
      8          6           0       -2.072107    0.215600    0.613406
      9          6           0       -3.508425    0.733940    0.428801
     10          6           0       -4.293213   -0.518389    0.045967
     11          6           0       -3.307742   -1.268689   -0.841636
     12          7           0       -2.019156   -0.954073   -0.253833
     13          6           0       -0.916963   -1.654405   -0.581320
     14          8           0       -0.925596   -2.531809   -1.423987
     15          6           0        0.315261   -1.297821    0.175509
     16         16           0        0.466296   -1.618693    1.872677
     17          6           0        2.099759   -1.079684    1.897830
     18          6           0        2.512359   -0.685846    0.664694
     19          6           0        1.490697   -0.815179   -0.325889
     20          8           0        1.667729   -0.418553   -1.615555
     21          6           0        2.813461    0.402321   -1.765557
     22          6           0        4.005466   -0.192727   -1.018507
     23          8           0        3.760444   -0.225566    0.375615
     24          1           0       -0.053996    0.947641    2.986321
     25          1           0        0.585682    2.603982    2.985612
     26          1           0       -1.164711    2.320839    2.994356
     27          1           0       -0.704918    0.229043   -2.581278
     28          1           0       -0.572181    1.921943   -3.082146
     29          1           0       -2.117359    1.288721   -2.477629
     30          1           0       -1.917642   -0.093293    1.656074
     31          1           0       -3.537089    1.460843   -0.384115
     32          1           0       -3.883849    1.211097    1.331520
     33          1           0       -4.517765   -1.105988    0.936570
     34          1           0       -5.224222   -0.289635   -0.467790
     35          1           0       -3.349013   -0.914716   -1.878233
     36          1           0       -3.451302   -2.350474   -0.847690
     37          1           0        2.660478   -1.086875    2.808492
     38          1           0        2.603010    1.407535   -1.376389
     39          1           0        3.008589    0.454863   -2.837018
     40          1           0        4.897947    0.418665   -1.155338
     41          1           0        4.192915   -1.211122   -1.386272
 ---------------------------------------------------------------------
 Rotational constants (GHZ):           0.3880784           0.2351513           0.2209097
 Leave Link  202 at Fri Nov  4 18:31:41 2022, MaxMem=   805306368 cpu:               0.1 elap:               0.0
 (Enter /home/wykgroup/appl/g16/l301.exe)
 Standard basis: 6-31G(d) (6D, 7F)
 Ernie: Thresh=  0.10000D-02 Tol=  0.10000D-05 Strict=F.
 There are   385 symmetry adapted cartesian basis functions of A   symmetry.
 There are   385 symmetry adapted basis functions of A   symmetry.
   385 basis functions,   740 primitive gaussians,   385 cartesian basis functions
    88 alpha electrons       88 beta electrons
       nuclear repulsion energy      2333.4812156174 Hartrees.
 IExCor=  402 DFT=T Ex+Corr=B3LYP ExCW=0 ScaHFX=  0.200000
 ScaDFX=  0.800000  0.720000  1.000000  0.810000 ScalE2=  1.000000  1.000000
 IRadAn=      5 IRanWt=     -1 IRanGd=            0 ICorTp=0 IEmpDi=  4
 NAtoms=   41 NActive=   41 NUniq=   41 SFac= 1.00D+00 NAtFMM=   60 NAOKFM=F Big=F
 Integral buffers will be    131072 words long.
 Raffenetti 2 integral format.
 Two-electron integral symmetry is turned on.
 Leave Link  301 at Fri Nov  4 18:31:41 2022, MaxMem=   805306368 cpu:               0.3 elap:               0.1
 (Enter /home/wykgroup/appl/g16/l302.exe)
 NPDir=0 NMtPBC=     1 NCelOv=     1 NCel=       1 NClECP=     1 NCelD=      1
         NCelK=      1 NCelE2=     1 NClLst=     1 CellRange=     0.0.
 One-electron integrals computed using PRISM.
 One-electron integral symmetry used in STVInt
 NBasis=   385 RedAO= T EigKep=  6.64D-04  NBF=   385
 NBsUse=   385 1.00D-06 EigRej= -1.00D+00 NBFU=   385
 Precomputing XC quadrature grid using
 IXCGrd= 4 IRadAn=           5 IRanWt=          -1 IRanGd=           0 AccXCQ= 0.00D+00.
 Generated NRdTot=       0 NPtTot=           0 NUsed=           0 NTot=          32
 NSgBfM=   383   383   383   383   383 MxSgAt=    41 MxSgA2=    41.
 Leave Link  302 at Fri Nov  4 18:31:42 2022, MaxMem=   805306368 cpu:               3.7 elap:               0.5
 (Enter /home/wykgroup/appl/g16/l303.exe)
 DipDrv:  MaxL=1.
 Leave Link  303 at Fri Nov  4 18:31:42 2022, MaxMem=   805306368 cpu:               0.3 elap:               0.1
 (Enter /home/wykgroup/appl/g16/l401.exe)
 ExpMin= 1.17D-01 ExpMax= 2.19D+04 ExpMxC= 3.30D+03 IAcc=3 IRadAn=         5 AccDes= 0.00D+00
 Harris functional with IExCor=  402 and IRadAn=       5 diagonalized for initial guess.
 HarFok:  IExCor=  402 AccDes= 0.00D+00 IRadAn=         5 IDoV= 1 UseB2=F ITyADJ=14
 ICtDFT=  3500011 ScaDFX=  1.000000  1.000000  1.000000  1.000000
 FoFCou: FMM=F IPFlag=           0 FMFlag=      100000 FMFlg1=           0
         NFxFlg=           0 DoJE=T BraDBF=F KetDBF=T FulRan=T
         wScrn=  0.000000 ICntrl=       500 IOpCl=  0 I1Cent=   200000004 NGrid=           0
         NMat0=    1 NMatS0=      1 NMatT0=    0 NMatD0=    1 NMtDS0=    0 NMtDT0=    0
 Petite list used in FoFCou.
 Harris En= -1428.98063187546    
 JPrj=0 DoOrth=F DoCkMO=F.
 Leave Link  401 at Fri Nov  4 18:31:44 2022, MaxMem=   805306368 cpu:              19.3 elap:               2.8
 (Enter /home/wykgroup/appl/g16/l502.exe)
 Integral symmetry usage will be decided dynamically.
 Closed shell SCF:
 Using DIIS extrapolation, IDIIS=  1040.
 NGot=   805306368 LenX=   805002962 LenY=   804854296
 Requested convergence on RMS density matrix=1.00D-08 within  32 cycles.
 Requested convergence on MAX density matrix=1.00D-06.
 Requested convergence on             energy=1.00D-06.
 No special actions if energy rises.
 Fock matrices will be formed incrementally for  20 cycles.
 Integral accuracy reduced to 1.0D-05 until final iterations.

 Cycle   1  Pass 0  IDiag  1:
 FoFJK:  IHMeth= 1 ICntrl=       0 DoSepK=F KAlg= 0 I1Cent=           0 FoldK=F
 IRaf= 850000000 NMat=       1 IRICut=       1 DoRegI=T DoRafI=F ISym2E= 0 IDoP0=0 IntGTp=1.
 FoFCou: FMM=F IPFlag=           0 FMFlag=      100000 FMFlg1=           0
         NFxFlg=           0 DoJE=F BraDBF=F KetDBF=F FulRan=T
         wScrn=  0.000000 ICntrl=         0 IOpCl=  0 I1Cent=           0 NGrid=           0
         NMat0=    1 NMatS0=      1 NMatT0=    0 NMatD0=    1 NMtDS0=    0 NMtDT0=    0
 Symmetry not used in FoFCou.
 E= -1428.52550505616    
 DIIS: error= 2.12D-02 at cycle   1 NSaved=   1.
 NSaved= 1 IEnMin= 1 EnMin= -1428.52550505616     IErMin= 1 ErrMin= 2.12D-02
 ErrMax= 2.12D-02  0.00D+00 EMaxC= 1.00D-01 BMatC= 5.47D-01 BMatP= 5.47D-01
 IDIUse=3 WtCom= 7.88D-01 WtEn= 2.12D-01
 Coeff-Com:  0.100D+01
 Coeff-En:   0.100D+01
 Coeff:      0.100D+01
 Gap=     0.236 Goal=   None    Shift=    0.000
 GapD=    0.236 DampG=1.000 DampE=0.500 DampFc=0.5000 IDamp=-1.
 Damping current iteration by 5.00D-01
 RMSDP=5.04D-03 MaxDP=2.07D-01              OVMax= 2.96D-01

 Cycle   2  Pass 0  IDiag  1:
 RMSU=  2.51D-03    CP:  9.86D-01
 E= -1428.70030424240     Delta-E=       -0.174799186238 Rises=F Damp=T
 DIIS: error= 8.34D-03 at cycle   2 NSaved=   2.
 NSaved= 2 IEnMin= 2 EnMin= -1428.70030424240     IErMin= 2 ErrMin= 8.34D-03
 ErrMax= 8.34D-03  0.00D+00 EMaxC= 1.00D-01 BMatC= 7.63D-02 BMatP= 5.47D-01
 IDIUse=3 WtCom= 9.17D-01 WtEn= 8.34D-02
 Coeff-Com:  0.171D+00 0.829D+00
 Coeff-En:   0.281D+00 0.719D+00
 Coeff:      0.181D+00 0.819D+00
 Gap=     0.298 Goal=   None    Shift=    0.000
 RMSDP=1.73D-03 MaxDP=1.08D-01 DE=-1.75D-01 OVMax= 2.21D-01

 Cycle   3  Pass 0  IDiag  1:
 RMSU=  1.47D-03    CP:  9.77D-01  6.42D-01
 E= -1428.97733219294     Delta-E=       -0.277027950547 Rises=F Damp=F
 DIIS: error= 1.27D-02 at cycle   3 NSaved=   3.
 NSaved= 3 IEnMin= 3 EnMin= -1428.97733219294     IErMin= 2 ErrMin= 8.34D-03
 ErrMax= 1.27D-02  0.00D+00 EMaxC= 1.00D-01 BMatC= 8.72D-02 BMatP= 7.63D-02
 IDIUse=2 WtCom= 0.00D+00 WtEn= 1.00D+00
 Coeff-En:   0.000D+00 0.000D+00 0.100D+01
 Coeff:      0.000D+00 0.000D+00 0.100D+01
 Gap=     0.194 Goal=   None    Shift=    0.000
 RMSDP=2.72D-03 MaxDP=2.15D-01 DE=-2.77D-01 OVMax= 2.77D-01

 Cycle   4  Pass 0  IDiag  1:
 RMSU=  1.58D-03    CP:  9.85D-01  1.18D+00 -1.97D-01
 E= -1428.60660637586     Delta-E=        0.370725817088 Rises=F Damp=F
 DIIS: error= 3.63D-02 at cycle   4 NSaved=   4.
 NSaved= 4 IEnMin= 3 EnMin= -1428.97733219294     IErMin= 2 ErrMin= 8.34D-03
 ErrMax= 3.63D-02  0.00D+00 EMaxC= 1.00D-01 BMatC= 5.44D-01 BMatP= 7.63D-02
 IDIUse=2 WtCom= 0.00D+00 WtEn= 1.00D+00
 Coeff-En:   0.000D+00 0.000D+00 0.804D+00 0.196D+00
 Coeff:      0.000D+00 0.000D+00 0.804D+00 0.196D+00
 Gap=     0.199 Goal=   None    Shift=    0.000
 RMSDP=1.55D-03 MaxDP=1.38D-01 DE= 3.71D-01 OVMax= 1.38D-01

 Cycle   5  Pass 0  IDiag  1:
 RMSU=  3.22D-04    CP:  9.82D-01  8.50D-01  4.09D-01  4.30D-01
 E= -1429.01644175190     Delta-E=       -0.409835376041 Rises=F Damp=F
 DIIS: error= 8.42D-03 at cycle   5 NSaved=   5.
 NSaved= 5 IEnMin= 5 EnMin= -1429.01644175190     IErMin= 2 ErrMin= 8.34D-03
 ErrMax= 8.42D-03  0.00D+00 EMaxC= 1.00D-01 BMatC= 4.15D-02 BMatP= 7.63D-02
 IDIUse=3 WtCom= 9.16D-01 WtEn= 8.42D-02
 Coeff-Com:  0.714D-02 0.185D-01 0.379D+00-0.235D-01 0.619D+00
 Coeff-En:   0.000D+00 0.000D+00 0.359D+00 0.000D+00 0.641D+00
 Coeff:      0.654D-02 0.170D-01 0.377D+00-0.215D-01 0.621D+00
 Gap=     0.196 Goal=   None    Shift=    0.000
 RMSDP=5.29D-04 MaxDP=3.43D-02 DE=-4.10D-01 OVMax= 4.20D-02

 Cycle   6  Pass 0  IDiag  1:
 RMSU=  1.23D-04    CP:  9.80D-01  7.53D-01  6.47D-01  2.64D-01  6.22D-01
 E= -1429.04969359170     Delta-E=       -0.033251839806 Rises=F Damp=F
 DIIS: error= 1.86D-03 at cycle   6 NSaved=   6.
 NSaved= 6 IEnMin= 6 EnMin= -1429.04969359170     IErMin= 6 ErrMin= 1.86D-03
 ErrMax= 1.86D-03  0.00D+00 EMaxC= 1.00D-01 BMatC= 8.52D-04 BMatP= 4.15D-02
 IDIUse=3 WtCom= 9.81D-01 WtEn= 1.86D-02
 Coeff-Com: -0.652D-03 0.821D-02 0.167D+00-0.527D-01 0.425D+00 0.454D+00
 Coeff-En:   0.000D+00 0.000D+00 0.000D+00 0.000D+00 0.000D+00 0.100D+01
 Coeff:     -0.640D-03 0.806D-02 0.163D+00-0.517D-01 0.417D+00 0.464D+00
 Gap=     0.192 Goal=   None    Shift=    0.000
 RMSDP=7.84D-05 MaxDP=4.34D-03 DE=-3.33D-02 OVMax= 9.65D-03

 Cycle   7  Pass 0  IDiag  1:
 RMSU=  3.11D-05    CP:  9.80D-01  7.58D-01  6.42D-01  2.59D-01  7.22D-01
                    CP:  4.97D-01
 E= -1429.05040030670     Delta-E=       -0.000706715003 Rises=F Damp=F
 DIIS: error= 3.29D-04 at cycle   7 NSaved=   7.
 NSaved= 7 IEnMin= 7 EnMin= -1429.05040030670     IErMin= 7 ErrMin= 3.29D-04
 ErrMax= 3.29D-04  0.00D+00 EMaxC= 1.00D-01 BMatC= 2.92D-05 BMatP= 8.52D-04
 IDIUse=3 WtCom= 9.97D-01 WtEn= 3.29D-03
 Coeff-Com:  0.553D-04 0.116D-02 0.596D-01-0.218D-01 0.155D+00 0.214D+00
 Coeff-Com:  0.592D+00
 Coeff-En:   0.000D+00 0.000D+00 0.000D+00 0.000D+00 0.000D+00 0.000D+00
 Coeff-En:   0.100D+01
 Coeff:      0.551D-04 0.116D-02 0.594D-01-0.217D-01 0.155D+00 0.213D+00
 Coeff:      0.593D+00
 Gap=     0.192 Goal=   None    Shift=    0.000
 RMSDP=1.80D-05 MaxDP=7.67D-04 DE=-7.07D-04 OVMax= 1.82D-03

 Cycle   8  Pass 0  IDiag  1:
 RMSU=  1.22D-05    CP:  9.80D-01  7.58D-01  6.44D-01  2.57D-01  7.24D-01
                    CP:  5.33D-01  6.14D-01
 E= -1429.05041972705     Delta-E=       -0.000019420341 Rises=F Damp=F
 DIIS: error= 9.25D-05 at cycle   8 NSaved=   8.
 NSaved= 8 IEnMin= 8 EnMin= -1429.05041972705     IErMin= 8 ErrMin= 9.25D-05
 ErrMax= 9.25D-05  0.00D+00 EMaxC= 1.00D-01 BMatC= 7.11D-06 BMatP= 2.92D-05
 IDIUse=1 WtCom= 1.00D+00 WtEn= 0.00D+00
 Coeff-Com:  0.351D-03-0.852D-03 0.172D-01-0.712D-02 0.433D-01 0.730D-01
 Coeff-Com:  0.388D+00 0.487D+00
 Coeff:      0.351D-03-0.852D-03 0.172D-01-0.712D-02 0.433D-01 0.730D-01
 Coeff:      0.388D+00 0.487D+00
 Gap=     0.192 Goal=   None    Shift=    0.000
 RMSDP=9.56D-06 MaxDP=5.81D-04 DE=-1.94D-05 OVMax= 1.11D-03

 Initial convergence to 1.0D-05 achieved.  Increase integral accuracy.
 Cycle   9  Pass 1  IDiag  1:
 E= -1429.05042645155     Delta-E=       -0.000006724505 Rises=F Damp=F
 DIIS: error= 2.71D-05 at cycle   1 NSaved=   1.
 NSaved= 1 IEnMin= 1 EnMin= -1429.05042645155     IErMin= 1 ErrMin= 2.71D-05
 ErrMax= 2.71D-05  0.00D+00 EMaxC= 1.00D-01 BMatC= 1.04D-06 BMatP= 1.04D-06
 IDIUse=1 WtCom= 1.00D+00 WtEn= 0.00D+00
 Coeff-Com:  0.100D+01
 Coeff:      0.100D+01
 Gap=     0.192 Goal=   None    Shift=    0.000
 RMSDP=9.56D-06 MaxDP=5.81D-04 DE=-6.72D-06 OVMax= 6.45D-04

 Cycle  10  Pass 1  IDiag  1:
 RMSU=  1.58D-05    CP:  1.00D+00
 E= -1429.05042538179     Delta-E=        0.000001069763 Rises=F Damp=F
 DIIS: error= 6.25D-05 at cycle   2 NSaved=   2.
 NSaved= 2 IEnMin= 1 EnMin= -1429.05042645155     IErMin= 1 ErrMin= 2.71D-05
 ErrMax= 6.25D-05  0.00D+00 EMaxC= 1.00D-01 BMatC= 2.14D-06 BMatP= 1.04D-06
 IDIUse=1 WtCom= 1.00D+00 WtEn= 0.00D+00
 Coeff-Com:  0.603D+00 0.397D+00
 Coeff:      0.603D+00 0.397D+00
 Gap=     0.192 Goal=   None    Shift=    0.000
 RMSDP=5.07D-06 MaxDP=2.01D-04 DE= 1.07D-06 OVMax= 4.97D-04

 Cycle  11  Pass 1  IDiag  1:
 RMSU=  4.70D-06    CP:  1.00D+00  8.80D-01
 E= -1429.05042725522     Delta-E=       -0.000001873434 Rises=F Damp=F
 DIIS: error= 2.05D-05 at cycle   3 NSaved=   3.
 NSaved= 3 IEnMin= 3 EnMin= -1429.05042725522     IErMin= 3 ErrMin= 2.05D-05
 ErrMax= 2.05D-05  0.00D+00 EMaxC= 1.00D-01 BMatC= 1.41D-07 BMatP= 1.04D-06
 IDIUse=1 WtCom= 1.00D+00 WtEn= 0.00D+00
 Coeff-Com:  0.991D-01 0.209D+00 0.692D+00
 Coeff:      0.991D-01 0.209D+00 0.692D+00
 Gap=     0.192 Goal=   None    Shift=    0.000
 RMSDP=1.41D-06 MaxDP=6.40D-05 DE=-1.87D-06 OVMax= 1.36D-04

 Cycle  12  Pass 1  IDiag  1:
 RMSU=  1.02D-06    CP:  1.00D+00  9.08D-01  8.16D-01
 E= -1429.05042735605     Delta-E=       -0.000000100832 Rises=F Damp=F
 DIIS: error= 9.48D-06 at cycle   4 NSaved=   4.
 NSaved= 4 IEnMin= 4 EnMin= -1429.05042735605     IErMin= 4 ErrMin= 9.48D-06
 ErrMax= 9.48D-06  0.00D+00 EMaxC= 1.00D-01 BMatC= 3.54D-08 BMatP= 1.41D-07
 IDIUse=1 WtCom= 1.00D+00 WtEn= 0.00D+00
 Coeff-Com:  0.184D-02 0.919D-01 0.440D+00 0.467D+00
 Coeff:      0.184D-02 0.919D-01 0.440D+00 0.467D+00
 Gap=     0.192 Goal=   None    Shift=    0.000
 RMSDP=5.50D-07 MaxDP=2.12D-05 DE=-1.01D-07 OVMax= 5.42D-05

 Cycle  13  Pass 1  IDiag  1:
 RMSU=  2.03D-07    CP:  1.00D+00  9.10D-01  8.36D-01  5.11D-01
 E= -1429.05042738695     Delta-E=       -0.000000030891 Rises=F Damp=F
 DIIS: error= 2.40D-06 at cycle   5 NSaved=   5.
 NSaved= 5 IEnMin= 5 EnMin= -1429.05042738695     IErMin= 5 ErrMin= 2.40D-06
 ErrMax= 2.40D-06  0.00D+00 EMaxC= 1.00D-01 BMatC= 1.97D-09 BMatP= 3.54D-08
 IDIUse=1 WtCom= 1.00D+00 WtEn= 0.00D+00
 Coeff-Com: -0.262D-02 0.524D-01 0.262D+00 0.305D+00 0.383D+00
 Coeff:     -0.262D-02 0.524D-01 0.262D+00 0.305D+00 0.383D+00
 Gap=     0.192 Goal=   None    Shift=    0.000
 RMSDP=1.28D-07 MaxDP=5.45D-06 DE=-3.09D-08 OVMax= 1.09D-05

 Cycle  14  Pass 1  IDiag  1:
 RMSU=  6.99D-08    CP:  1.00D+00  9.10D-01  8.36D-01  5.09D-01  4.72D-01
 E= -1429.05042738855     Delta-E=       -0.000000001603 Rises=F Damp=F
 DIIS: error= 3.16D-07 at cycle   6 NSaved=   6.
 NSaved= 6 IEnMin= 6 EnMin= -1429.05042738855     IErMin= 6 ErrMin= 3.16D-07
 ErrMax= 3.16D-07  0.00D+00 EMaxC= 1.00D-01 BMatC= 8.05D-11 BMatP= 1.97D-09
 IDIUse=1 WtCom= 1.00D+00 WtEn= 0.00D+00
 Coeff-Com: -0.167D-02 0.268D-01 0.135D+00 0.160D+00 0.232D+00 0.448D+00
 Coeff:     -0.167D-02 0.268D-01 0.135D+00 0.160D+00 0.232D+00 0.448D+00
 Gap=     0.192 Goal=   None    Shift=    0.000
 RMSDP=3.13D-08 MaxDP=2.00D-06 DE=-1.60D-09 OVMax= 2.68D-06

 Cycle  15  Pass 1  IDiag  1:
 RMSU=  2.39D-08    CP:  1.00D+00  9.10D-01  8.35D-01  5.09D-01  5.10D-01
                    CP:  7.35D-01
 E= -1429.05042738861     Delta-E=       -0.000000000058 Rises=F Damp=F
 DIIS: error= 9.31D-08 at cycle   7 NSaved=   7.
 NSaved= 7 IEnMin= 7 EnMin= -1429.05042738861     IErMin= 7 ErrMin= 9.31D-08
 ErrMax= 9.31D-08  0.00D+00 EMaxC= 1.00D-01 BMatC= 7.03D-12 BMatP= 8.05D-11
 IDIUse=1 WtCom= 1.00D+00 WtEn= 0.00D+00
 Coeff-Com: -0.448D-03 0.568D-02 0.285D-01 0.351D-01 0.552D-01 0.245D+00
 Coeff-Com:  0.630D+00
 Coeff:     -0.448D-03 0.568D-02 0.285D-01 0.351D-01 0.552D-01 0.245D+00
 Coeff:      0.630D+00
 Gap=     0.192 Goal=   None    Shift=    0.000
 RMSDP=1.17D-08 MaxDP=6.26D-07 DE=-5.82D-11 OVMax= 1.31D-06

 Cycle  16  Pass 1  IDiag  1:
 RMSU=  9.39D-09    CP:  1.00D+00  9.10D-01  8.35D-01  5.12D-01  5.09D-01
                    CP:  7.97D-01  8.46D-01
 E= -1429.05042738861     Delta-E=       -0.000000000005 Rises=F Damp=F
 DIIS: error= 3.69D-08 at cycle   8 NSaved=   8.
 NSaved= 8 IEnMin= 8 EnMin= -1429.05042738861     IErMin= 8 ErrMin= 3.69D-08
 ErrMax= 3.69D-08  0.00D+00 EMaxC= 1.00D-01 BMatC= 2.06D-12 BMatP= 7.03D-12
 IDIUse=1 WtCom= 1.00D+00 WtEn= 0.00D+00
 Coeff-Com: -0.216D-04-0.747D-03-0.362D-02-0.346D-02-0.352D-02 0.911D-01
 Coeff-Com:  0.425D+00 0.495D+00
 Coeff:     -0.216D-04-0.747D-03-0.362D-02-0.346D-02-0.352D-02 0.911D-01
 Coeff:      0.425D+00 0.495D+00
 Gap=     0.192 Goal=   None    Shift=    0.000
 RMSDP=5.17D-09 MaxDP=3.19D-07 DE=-4.55D-12 OVMax= 4.53D-07

 SCF Done:  E(RB3LYP) =  -1429.05042739     A.U. after   16 cycles
            NFock= 16  Conv=0.52D-08     -V/T= 2.0070
 KE= 1.419164430965D+03 PE=-8.014388231591D+03 EE= 2.832692157620D+03
 Leave Link  502 at Fri Nov  4 18:32:56 2022, MaxMem=   805306368 cpu:             500.9 elap:              71.6
 (Enter /home/wykgroup/appl/g16/l508.exe)
 QCSCF skips out because SCF is already converged.
 Leave Link  508 at Fri Nov  4 18:32:56 2022, MaxMem=   805306368 cpu:               0.2 elap:               0.1
 (Enter /home/wykgroup/appl/g16/l601.exe)
 Copying SCF densities to generalized density rwf, IOpCl= 0 IROHF=0.

 **********************************************************************

            Population analysis using the SCF Density.

 **********************************************************************

 Orbital symmetries:
       Occupied  (A) (A) (A) (A) (A) (A) (A) (A) (A) (A) (A) (A)
                 (A) (A) (A) (A) (A) (A) (A) (A) (A) (A) (A) (A)
                 (A) (A) (A) (A) (A) (A) (A) (A) (A) (A) (A) (A)
                 (A) (A) (A) (A) (A) (A) (A) (A) (A) (A) (A) (A)
                 (A) (A) (A) (A) (A) (A) (A) (A) (A) (A) (A) (A)
                 (A) (A) (A) (A) (A) (A) (A) (A) (A) (A) (A) (A)
                 (A) (A) (A) (A) (A) (A) (A) (A) (A) (A) (A) (A)
                 (A) (A) (A) (A)
       Virtual   (A) (A) (A) (A) (A) (A) (A) (A) (A) (A) (A) (A)
                 (A) (A) (A) (A) (A) (A) (A) (A) (A) (A) (A) (A)
                 (A) (A) (A) (A) (A) (A) (A) (A) (A) (A) (A) (A)
                 (A) (A) (A) (A) (A) (A) (A) (A) (A) (A) (A) (A)
                 (A) (A) (A) (A) (A) (A) (A) (A) (A) (A) (A) (A)
                 (A) (A) (A) (A) (A) (A) (A) (A) (A) (A) (A) (A)
                 (A) (A) (A) (A) (A) (A) (A) (A) (A) (A) (A) (A)
                 (A) (A) (A) (A) (A) (A) (A) (A) (A) (A) (A) (A)
                 (A) (A) (A) (A) (A) (A) (A) (A) (A) (A) (A) (A)
                 (A) (A) (A) (A) (A) (A) (A) (A) (A) (A) (A) (A)
                 (A) (A) (A) (A) (A) (A) (A) (A) (A) (A) (A) (A)
                 (A) (A) (A) (A) (A) (A) (A) (A) (A) (A) (A) (A)
                 (A) (A) (A) (A) (A) (A) (A) (A) (A) (A) (A) (A)
                 (A) (A) (A) (A) (A) (A) (A) (A) (A) (A) (A) (A)
                 (A) (A) (A) (A) (A) (A) (A) (A) (A) (A) (A) (A)
                 (A) (A) (A) (A) (A) (A) (A) (A) (A) (A) (A) (A)
                 (A) (A) (A) (A) (A) (A) (A) (A) (A) (A) (A) (A)
                 (A) (A) (A) (A) (A) (A) (A) (A) (A) (A) (A) (A)
                 (A) (A) (A) (A) (A) (A) (A) (A) (A) (A) (A) (A)
                 (A) (A) (A) (A) (A) (A) (A) (A) (A) (A) (A) (A)
                 (A) (A) (A) (A) (A) (A) (A) (A) (A) (A) (A) (A)
                 (A) (A) (A) (A) (A) (A) (A) (A) (A) (A) (A) (A)
                 (A) (A) (A) (A) (A) (A) (A) (A) (A) (A) (A) (A)
                 (A) (A) (A) (A) (A) (A) (A) (A) (A) (A) (A) (A)
                 (A) (A) (A) (A) (A) (A) (A) (A) (A)
 The electronic state is 1-A.
 Alpha  occ. eigenvalues --  -88.91193 -19.23133 -19.18753 -19.18431 -19.10807
 Alpha  occ. eigenvalues --  -14.36234 -14.36148 -10.28568 -10.25115 -10.25028
 Alpha  occ. eigenvalues --  -10.24990 -10.24964 -10.24839 -10.24142 -10.22093
 Alpha  occ. eigenvalues --  -10.21783 -10.21139 -10.20770 -10.20019 -10.19752
 Alpha  occ. eigenvalues --  -10.19452 -10.18781 -10.18695  -7.97234  -5.93671
 Alpha  occ. eigenvalues --   -5.93308  -5.92887  -1.15004  -1.09626  -1.06201
 Alpha  occ. eigenvalues --   -1.03818  -0.95665  -0.88717  -0.87114  -0.82056
 Alpha  occ. eigenvalues --   -0.80753  -0.77843  -0.75904  -0.74534  -0.72522
 Alpha  occ. eigenvalues --   -0.71249  -0.70844  -0.67472  -0.64768  -0.61939
 Alpha  occ. eigenvalues --   -0.60260  -0.59611  -0.57165  -0.55380  -0.54810
 Alpha  occ. eigenvalues --   -0.53387  -0.51717  -0.51348  -0.49645  -0.48503
 Alpha  occ. eigenvalues --   -0.47985  -0.45779  -0.44788  -0.44461  -0.44269
 Alpha  occ. eigenvalues --   -0.43862  -0.43511  -0.42932  -0.42434  -0.42125
 Alpha  occ. eigenvalues --   -0.41529  -0.41191  -0.40806  -0.40293  -0.39624
 Alpha  occ. eigenvalues --   -0.38912  -0.38328  -0.37520  -0.36945  -0.36764
 Alpha  occ. eigenvalues --   -0.36088  -0.34995  -0.34733  -0.33782  -0.32332
 Alpha  occ. eigenvalues --   -0.30710  -0.28764  -0.27832  -0.25768  -0.24711
 Alpha  occ. eigenvalues --   -0.23329  -0.21788  -0.21159
 Alpha virt. eigenvalues --   -0.01965   0.00163   0.01944   0.02808   0.05301
 Alpha virt. eigenvalues --    0.06902   0.07941   0.08269   0.09185   0.11369
 Alpha virt. eigenvalues --    0.11713   0.12434   0.12798   0.13497   0.13863
 Alpha virt. eigenvalues --    0.14144   0.14563   0.14877   0.15285   0.15709
 Alpha virt. eigenvalues --    0.16137   0.16753   0.17054   0.17723   0.18200
 Alpha virt. eigenvalues --    0.18614   0.19067   0.19292   0.20619   0.21237
 Alpha virt. eigenvalues --    0.21494   0.21852   0.22340   0.23981   0.25641
 Alpha virt. eigenvalues --    0.26940   0.27423   0.27983   0.28581   0.30237
 Alpha virt. eigenvalues --    0.30945   0.31480   0.32950   0.35083   0.36093
 Alpha virt. eigenvalues --    0.37556   0.38411   0.40625   0.42899   0.43810
 Alpha virt. eigenvalues --    0.44242   0.45994   0.47322   0.47640   0.48937
 Alpha virt. eigenvalues --    0.49967   0.50299   0.50977   0.52208   0.52869
 Alpha virt. eigenvalues --    0.53166   0.54451   0.55251   0.55714   0.56399
 Alpha virt. eigenvalues --    0.57090   0.58136   0.58382   0.59063   0.59691
 Alpha virt. eigenvalues --    0.60813   0.61614   0.61929   0.62918   0.63154
 Alpha virt. eigenvalues --    0.64038   0.65260   0.65684   0.67064   0.67311
 Alpha virt. eigenvalues --    0.68153   0.70242   0.70651   0.72348   0.72551
 Alpha virt. eigenvalues --    0.74029   0.75211   0.76340   0.76710   0.77092
 Alpha virt. eigenvalues --    0.78038   0.78598   0.80657   0.80938   0.81191
 Alpha virt. eigenvalues --    0.81840   0.82200   0.82579   0.83600   0.84575
 Alpha virt. eigenvalues --    0.84613   0.85197   0.86004   0.86593   0.87008
 Alpha virt. eigenvalues --    0.87682   0.88164   0.88285   0.90199   0.90466
 Alpha virt. eigenvalues --    0.90984   0.91414   0.91950   0.92170   0.93925
 Alpha virt. eigenvalues --    0.94599   0.94890   0.95379   0.96306   0.97616
 Alpha virt. eigenvalues --    0.97919   0.98986   1.00608   1.01166   1.02499
 Alpha virt. eigenvalues --    1.03194   1.03877   1.04671   1.06826   1.07663
 Alpha virt. eigenvalues --    1.08434   1.09426   1.10655   1.11397   1.12762
 Alpha virt. eigenvalues --    1.13554   1.15237   1.15691   1.17801   1.18305
 Alpha virt. eigenvalues --    1.20746   1.21503   1.25418   1.26358   1.29015
 Alpha virt. eigenvalues --    1.29498   1.31601   1.32841   1.34317   1.36054
 Alpha virt. eigenvalues --    1.36610   1.38241   1.38906   1.39324   1.42038
 Alpha virt. eigenvalues --    1.42878   1.43871   1.45092   1.46626   1.46969
 Alpha virt. eigenvalues --    1.49325   1.50007   1.51349   1.51722   1.54875
 Alpha virt. eigenvalues --    1.55997   1.56542   1.59363   1.63007   1.64332
 Alpha virt. eigenvalues --    1.67242   1.68506   1.70232   1.71044   1.72034
 Alpha virt. eigenvalues --    1.74058   1.75451   1.75744   1.77245   1.78573
 Alpha virt. eigenvalues --    1.79528   1.80744   1.81515   1.82557   1.83441
 Alpha virt. eigenvalues --    1.84168   1.84737   1.86796   1.87606   1.88578
 Alpha virt. eigenvalues --    1.89676   1.90415   1.92522   1.93498   1.94219
 Alpha virt. eigenvalues --    1.95885   1.96227   1.96800   1.97956   1.98545
 Alpha virt. eigenvalues --    1.99478   2.00090   2.00879   2.02808   2.04607
 Alpha virt. eigenvalues --    2.05161   2.06059   2.08830   2.10206   2.11051
 Alpha virt. eigenvalues --    2.11730   2.12679   2.13299   2.14178   2.14870
 Alpha virt. eigenvalues --    2.17670   2.18718   2.19467   2.22157   2.23256
 Alpha virt. eigenvalues --    2.24808   2.25086   2.27368   2.28306   2.29767
 Alpha virt. eigenvalues --    2.30843   2.32299   2.33455   2.34780   2.35388
 Alpha virt. eigenvalues --    2.35628   2.35890   2.36587   2.39704   2.41258
 Alpha virt. eigenvalues --    2.44598   2.45401   2.47109   2.48223   2.48625
 Alpha virt. eigenvalues --    2.49635   2.50337   2.51772   2.53445   2.54428
 Alpha virt. eigenvalues --    2.57401   2.58453   2.61570   2.62506   2.63864
 Alpha virt. eigenvalues --    2.64804   2.66596   2.67397   2.70959   2.71582
 Alpha virt. eigenvalues --    2.75030   2.76015   2.77570   2.79258   2.81556
 Alpha virt. eigenvalues --    2.82011   2.83508   2.85317   2.89731   2.93300
 Alpha virt. eigenvalues --    2.98481   3.02201   3.07322   3.08754   3.17588
 Alpha virt. eigenvalues --    3.20043   3.22861   3.25535   3.28891   3.90099
 Alpha virt. eigenvalues --    3.94352   4.04684   4.07463   4.11399   4.16875
 Alpha virt. eigenvalues --    4.18675   4.19628   4.23467   4.24499   4.26600
 Alpha virt. eigenvalues --    4.30370   4.34650   4.39200   4.42467   4.45320
 Alpha virt. eigenvalues --    4.50007   4.52737   4.54841   4.61619   4.75154
 Alpha virt. eigenvalues --    4.77776   4.86329
          Condensed to atoms (all electrons):
               1          2          3          4          5          6
     1  C    5.229780   0.362666  -0.076884   0.006058   0.007147  -0.000229
     2  C    0.362666   4.706649   0.424548  -0.090896  -0.021978   0.004229
     3  N   -0.076884   0.424548   6.844285   0.159487  -0.135511   0.005556
     4  O    0.006058  -0.090896   0.159487   8.131866   0.226450  -0.053239
     5  C    0.007147  -0.021978  -0.135511   0.226450   4.827046   0.365831
     6  C   -0.000229   0.004229   0.005556  -0.053239   0.365831   5.212436
     7  C   -0.062385   0.435545   0.006292  -0.024436   0.523983  -0.057182
     8  C   -0.008686  -0.049351   0.009873   0.005067  -0.072405  -0.005412
     9  C    0.000060   0.003223  -0.000092   0.000007  -0.008447   0.000247
    10  C   -0.000005  -0.000165   0.000003   0.000001   0.000495  -0.000312
    11  C    0.000001  -0.000183   0.000002   0.000001   0.000908  -0.001272
    12  N    0.000042   0.003226  -0.000116  -0.000002  -0.011582   0.006576
    13  C   -0.000007   0.000133  -0.000015  -0.000079  -0.001264  -0.000293
    14  O   -0.000000  -0.000008   0.000000   0.000000   0.000050  -0.001509
    15  C    0.000065  -0.004542  -0.000423  -0.000057  -0.003925  -0.000095
    16  S   -0.008792   0.000932   0.000145  -0.000051   0.000597   0.000006
    17  C   -0.000825   0.000798  -0.000059  -0.000001   0.000017  -0.000001
    18  C    0.000368   0.001227   0.000264  -0.000204  -0.000263  -0.000005
    19  C    0.000219   0.000959   0.000517   0.001290  -0.001526  -0.000301
    20  O   -0.000002  -0.000029   0.000050  -0.000816   0.004951  -0.001180
    21  C    0.000004   0.000025  -0.000480  -0.002185   0.000336   0.000418
    22  C   -0.000001  -0.000015  -0.000043   0.000063   0.000061   0.000003
    23  O   -0.000005  -0.000075  -0.000039   0.000001  -0.000005   0.000000
    24  H    0.358364  -0.028068   0.001246  -0.000067  -0.000057  -0.000000
    25  H    0.359066  -0.024393   0.003127  -0.000210   0.000172   0.000003
    26  H    0.361205  -0.028069   0.000418  -0.000066  -0.000147   0.000000
    27  H    0.000002   0.000030  -0.000023   0.000527  -0.026762   0.357423
    28  H    0.000003  -0.000005  -0.000126   0.000762  -0.021695   0.353778
    29  H    0.000000   0.000135  -0.000115   0.001555  -0.029561   0.361482
    30  H    0.005310  -0.010052  -0.000021  -0.000075   0.005167   0.000013
    31  H    0.000029   0.000045  -0.000040  -0.000103   0.004529   0.000151
    32  H   -0.000051   0.000197  -0.000004  -0.000000  -0.000022   0.000021
    33  H    0.000000   0.000004  -0.000000  -0.000000  -0.000004  -0.000002
    34  H    0.000000   0.000001  -0.000000   0.000000  -0.000019   0.000006
    35  H   -0.000000  -0.000003  -0.000000   0.000000  -0.000175  -0.000080
    36  H   -0.000000   0.000004  -0.000000   0.000000  -0.000026   0.000079
    37  H    0.000008   0.000002   0.000002   0.000000  -0.000000  -0.000000
    38  H   -0.000010   0.000245   0.002077   0.007664  -0.001963  -0.000125
    39  H   -0.000000  -0.000002   0.000019   0.000024  -0.000031   0.000038
    40  H    0.000000  -0.000000  -0.000001   0.000000  -0.000001  -0.000000
    41  H   -0.000000  -0.000000   0.000000  -0.000001  -0.000001   0.000000
               7          8          9         10         11         12
     1  C   -0.062385  -0.008686   0.000060  -0.000005   0.000001   0.000042
     2  C    0.435545  -0.049351   0.003223  -0.000165  -0.000183   0.003226
     3  N    0.006292   0.009873  -0.000092   0.000003   0.000002  -0.000116
     4  O   -0.024436   0.005067   0.000007   0.000001   0.000001  -0.000002
     5  C    0.523983  -0.072405  -0.008447   0.000495   0.000908  -0.011582
     6  C   -0.057182  -0.005412   0.000247  -0.000312  -0.001272   0.006576
     7  C    5.005259   0.342283  -0.038381   0.002917   0.001450  -0.044207
     8  C    0.342283   5.029078   0.348238  -0.051972  -0.070216   0.250916
     9  C   -0.038381   0.348238   5.130564   0.342218  -0.064952  -0.050221
    10  C    0.002917  -0.051972   0.342218   5.084730   0.358462  -0.056520
    11  C    0.001450  -0.070216  -0.064952   0.358462   4.912640   0.280847
    12  N   -0.044207   0.250916  -0.050221  -0.056520   0.280847   7.163591
    13  C   -0.005191  -0.026831   0.003731   0.007754  -0.030867   0.276055
    14  O   -0.000286   0.004299  -0.000213   0.000877   0.006819  -0.104947
    15  C   -0.005620   0.004261   0.000192  -0.000101   0.008220  -0.137113
[...]
    22  C    0.000016  -0.000001   0.000313  -0.000291   0.003422  -0.029621
    23  O   -0.000040   0.000000   0.005039   0.004342  -0.066746   0.255803
    24  H   -0.000012  -0.000000  -0.000462   0.003480   0.001979   0.000231
    25  H    0.000000  -0.000000   0.000002   0.000035   0.000003  -0.000008
    26  H   -0.000001  -0.000000  -0.000008  -0.000009   0.000013   0.000003
    27  H    0.002716   0.001341  -0.000999  -0.000006  -0.000000   0.000049
    28  H    0.000038   0.000000  -0.000001   0.000000  -0.000000   0.000000
    29  H   -0.000223  -0.000029  -0.000035   0.000001  -0.000000   0.000000
    30  H   -0.003749  -0.000014   0.001202   0.006272  -0.000271  -0.000056
    31  H   -0.000272   0.000003  -0.000002  -0.000003   0.000000   0.000000
    32  H   -0.000019   0.000001   0.000010  -0.000009   0.000000  -0.000000
    33  H   -0.000300  -0.000004  -0.000005   0.000021   0.000000  -0.000000
    34  H   -0.000062  -0.000001   0.000005   0.000000   0.000000   0.000000
    35  H   -0.004512   0.002228  -0.000219   0.000004   0.000000  -0.000000
    36  H   -0.000041   0.007055   0.000281  -0.000032  -0.000000   0.000000
    37  H   -0.000032   0.000000   0.001802  -0.033083   0.347411  -0.015786
    38  H    0.000034  -0.000001   0.000736  -0.000077  -0.000312   0.002244
    39  H   -0.000021   0.000002  -0.000182   0.000013   0.000014   0.000625
    40  H   -0.000000   0.000000   0.000031   0.000011  -0.000224   0.002275
    41  H    0.000000   0.000000  -0.000316  -0.000012   0.000478  -0.000593
              19         20         21         22         23         24
     1  C    0.000117  -0.000000   0.000003  -0.000001  -0.000001   0.361374
     2  C    0.001172   0.000033   0.000027  -0.000019  -0.000014  -0.026683
     3  N    0.000046   0.000004  -0.000846  -0.000008  -0.000003   0.000609
     4  O    0.000094  -0.000452  -0.000486   0.000032   0.000000  -0.000061
     5  C    0.000259   0.004303   0.000520   0.000036  -0.000002   0.000012
     6  C   -0.000162  -0.002783   0.000321  -0.000005   0.000000   0.000000
     7  C   -0.001560  -0.001473   0.000074  -0.000004   0.000006  -0.001107
     8  C   -0.000836  -0.000035   0.000004   0.000000   0.000000   0.000008
     9  C    0.000002  -0.000001  -0.000000  -0.000000   0.000000  -0.000037
    10  C    0.000001   0.000000   0.000000   0.000000   0.000000   0.000002
    11  C   -0.000027  -0.000002  -0.000000   0.000000  -0.000000  -0.000000
    12  N   -0.001137  -0.000074  -0.000008  -0.000000   0.000000   0.000010
    13  C   -0.018411   0.002497  -0.000165   0.000016  -0.000040  -0.000012
    14  O   -0.000529  -0.000467   0.000008  -0.000001   0.000000  -0.000000
    15  C    0.515976  -0.083770   0.003461   0.000313   0.005039  -0.000462
    16  S   -0.067574   0.004062  -0.000169  -0.000291   0.004342   0.003480
    17  C   -0.056632   0.004954   0.000475   0.003422  -0.066746   0.001979
    18  C    0.397972  -0.049195  -0.017565  -0.029621   0.255803   0.000231
    19  C    4.658490   0.265040  -0.030013  -0.020271  -0.041031  -0.000049
    20  O    0.265040   8.243746   0.238706  -0.038427  -0.003935  -0.000000
    21  C   -0.030013   0.238706   4.938629   0.337299  -0.039216   0.000000
    22  C   -0.020271  -0.038427   0.337299   4.907489   0.246723   0.000001
    23  O   -0.041031  -0.003935  -0.039216   0.246723   8.228448  -0.000009
    24  H   -0.000049  -0.000000   0.000000   0.000001  -0.000009   0.527531
    25  H   -0.000004   0.000000  -0.000001   0.000000   0.000000  -0.022690
    26  H    0.000001  -0.000000  -0.000000  -0.000000  -0.000000  -0.032491
    27  H    0.000232   0.008182  -0.000461   0.000027  -0.000000  -0.000001
    28  H   -0.000005   0.000030   0.000015   0.000000  -0.000000   0.000000
    29  H    0.000007   0.000052   0.000001   0.000000   0.000000   0.000000
    30  H   -0.000317   0.000006  -0.000000   0.000000   0.000000   0.001447
    31  H    0.000001   0.000000  -0.000000   0.000000  -0.000000   0.000000
    32  H   -0.000000   0.000000  -0.000000   0.000000  -0.000000  -0.000003
    33  H    0.000001  -0.000000   0.000000   0.000000  -0.000000  -0.000000
    34  H    0.000000  -0.000000  -0.000000  -0.000000  -0.000000  -0.000000
    35  H    0.000035  -0.000001   0.000000  -0.000000   0.000000  -0.000000
    36  H   -0.000025   0.000000  -0.000000   0.000000  -0.000000   0.000000
    37  H    0.005114  -0.000041   0.000016  -0.000054  -0.000948   0.000027
    38  H   -0.000885  -0.039038   0.355059  -0.042012  -0.001328  -0.000004
    39  H    0.002909  -0.033387   0.366707  -0.027945   0.002786  -0.000000
    40  H    0.000864   0.002768  -0.027526   0.368258  -0.033607   0.000000
    41  H    0.001556  -0.001107  -0.044573   0.358292  -0.040841  -0.000000
              25         26         27         28         29         30
     1  C    0.360710   0.360916   0.000002   0.000003  -0.000001   0.005404
     2  C   -0.024424  -0.025921  -0.000003  -0.000002   0.000090  -0.010155
     3  N    0.003069   0.000838   0.000019  -0.000089  -0.000126  -0.000050
     4  O   -0.000178  -0.000072  -0.000156   0.000353   0.001971  -0.000075
     5  C    0.000136  -0.000170  -0.025077  -0.021547  -0.025484   0.005357
     6  C    0.000003  -0.000001   0.358504   0.353496   0.362053  -0.000011
     7  C    0.003816  -0.002323  -0.002772   0.004123  -0.003864  -0.043576
     8  C    0.000042   0.000876   0.000027  -0.000024   0.000318   0.363717
     9  C   -0.000002   0.000123  -0.000099   0.000020   0.000906  -0.041738
    10  C   -0.000000  -0.000004   0.000018  -0.000002  -0.000385  -0.000661
    11  C    0.000000   0.000000   0.000025   0.000017   0.000710   0.005277
    12  N    0.000000   0.000009  -0.000997   0.000114  -0.001353  -0.048155
    13  C    0.000000  -0.000001   0.002716   0.000038  -0.000223  -0.003749
    14  O   -0.000000  -0.000000   0.001341   0.000000  -0.000029  -0.000014
    15  C    0.000002  -0.000008  -0.000999  -0.000001  -0.000035   0.001202
    16  S    0.000035  -0.000009  -0.000006   0.000000   0.000001   0.006272
    17  C    0.000003   0.000013  -0.000000  -0.000000  -0.000000  -0.000271
    18  C   -0.000008   0.000003   0.000049   0.000000   0.000000  -0.000056
    19  C   -0.000004   0.000001   0.000232  -0.000005   0.000007  -0.000317
    20  O    0.000000  -0.000000   0.008182   0.000030   0.000052   0.000006
    21  C   -0.000001  -0.000000  -0.000461   0.000015   0.000001  -0.000000
    22  C    0.000000  -0.000000   0.000027   0.000000   0.000000   0.000000
    23  O    0.000000  -0.000000  -0.000000  -0.000000   0.000000   0.000000
    24  H   -0.022690  -0.032491  -0.000001   0.000000   0.000000   0.001447
    25  H    0.521382  -0.025102  -0.000000  -0.000000   0.000000  -0.000043
    26  H   -0.025102   0.560974   0.000000   0.000000  -0.000000  -0.000016
    27  H   -0.000000   0.000000   0.498559  -0.024098  -0.027398   0.000010
    28  H   -0.000000   0.000000  -0.024098   0.535177  -0.024847   0.000003
    29  H    0.000000  -0.000000  -0.027398  -0.024847   0.542865  -0.000009
    30  H   -0.000043  -0.000016   0.000010   0.000003  -0.000009   0.602730
    31  H    0.000000  -0.000012   0.000030   0.000005   0.001894   0.005114
    32  H   -0.000002   0.000454  -0.000000  -0.000000  -0.000018  -0.004978
    33  H   -0.000000  -0.000000   0.000000   0.000000   0.000009   0.001190
    34  H   -0.000000   0.000000  -0.000001  -0.000000  -0.000005  -0.000214
    35  H   -0.000000  -0.000000   0.000206  -0.000051   0.004119  -0.000365
    36  H    0.000000  -0.000000  -0.000004  -0.000000  -0.000034   0.000080
    37  H    0.000000   0.000000   0.000000   0.000000   0.000000   0.000002
    38  H    0.000007   0.000000   0.000074  -0.000015  -0.000000   0.000001
    39  H    0.000000   0.000000  -0.000037  -0.000002  -0.000000   0.000000
    40  H   -0.000000   0.000000  -0.000001  -0.000000  -0.000000  -0.000000
    41  H    0.000000  -0.000000   0.000000  -0.000000   0.000000   0.000000
              31         32         33         34         35         36
     1  C    0.000028  -0.000059   0.000000   0.000000  -0.000000  -0.000000
     2  C   -0.000062   0.000276   0.000001   0.000001  -0.000004   0.000003
     3  N   -0.000037  -0.000003  -0.000000  -0.000000  -0.000000  -0.000000
     4  O   -0.000093   0.000000  -0.000000   0.000000   0.000000   0.000000
     5  C    0.004950  -0.000067  -0.000000  -0.000019  -0.000105  -0.000019
     6  C    0.000042   0.000014  -0.000002   0.000008  -0.000568   0.000065
     7  C   -0.004533   0.000596   0.000261  -0.000075   0.000598  -0.000145
     8  C   -0.036818  -0.025501   0.001271   0.004301   0.005606   0.002574
     9  C    0.369953   0.367230  -0.037870  -0.027056  -0.004662   0.005178
    10  C   -0.036391  -0.025510   0.373749   0.370147  -0.040872  -0.025987
    11  C    0.001870   0.004448  -0.032694  -0.029460   0.375157   0.381833
    12  N   -0.002080   0.003702  -0.001260   0.003913  -0.049217  -0.041686
    13  C   -0.000272  -0.000019  -0.000300  -0.000062  -0.004512  -0.000041
    14  O    0.000003   0.000001  -0.000004  -0.000001   0.002228   0.007055
    15  C   -0.000002   0.000010  -0.000005   0.000005  -0.000219   0.000281
    16  S   -0.000003  -0.000009   0.000021   0.000000   0.000004  -0.000032
    17  C    0.000000   0.000000   0.000000   0.000000   0.000000  -0.000000
    18  C    0.000000  -0.000000  -0.000000   0.000000  -0.000000   0.000000
    19  C    0.000001  -0.000000   0.000001   0.000000   0.000035  -0.000025
    20  O    0.000000   0.000000  -0.000000  -0.000000  -0.000001   0.000000
    21  C   -0.000000  -0.000000   0.000000  -0.000000   0.000000  -0.000000
    22  C    0.000000   0.000000   0.000000  -0.000000  -0.000000   0.000000
    23  O   -0.000000  -0.000000  -0.000000  -0.000000   0.000000  -0.000000
    24  H    0.000000  -0.000003  -0.000000  -0.000000  -0.000000   0.000000
    25  H    0.000000  -0.000002  -0.000000  -0.000000  -0.000000   0.000000
    26  H   -0.000012   0.000454  -0.000000   0.000000  -0.000000  -0.000000
    27  H    0.000030  -0.000000   0.000000  -0.000001   0.000206  -0.000004
    28  H    0.000005  -0.000000   0.000000  -0.000000  -0.000051  -0.000000
    29  H    0.001894  -0.000018   0.000009  -0.000005   0.004119  -0.000034
    30  H    0.005114  -0.004978   0.001190  -0.000214  -0.000365   0.000080
    31  H    0.575019  -0.032095   0.004890  -0.006268   0.001386  -0.000034
    32  H   -0.032095   0.562979  -0.005891   0.000594  -0.000143  -0.000112
    33  H    0.004890  -0.005891   0.578212  -0.032873   0.005002  -0.006573
    34  H   -0.006268   0.000594  -0.032873   0.568090  -0.002837   0.000832
    35  H    0.001386  -0.000143   0.005002  -0.002837   0.600259  -0.042585
    36  H   -0.000034  -0.000112  -0.006573   0.000832  -0.042585   0.542963
    37  H   -0.000000  -0.000000  -0.000000  -0.000000  -0.000000  -0.000000
    38  H    0.000000   0.000000  -0.000000   0.000000  -0.000000   0.000000
    39  H    0.000000  -0.000000   0.000000   0.000000   0.000000  -0.000000
    40  H   -0.000000  -0.000000  -0.000000   0.000000   0.000000  -0.000000
    41  H   -0.000000  -0.000000  -0.000000   0.000000  -0.000000   0.000000
              37         38         39         40         41
     1  C   -0.000006  -0.000013   0.000000   0.000000  -0.000000
     2  C    0.000001   0.000265   0.000001  -0.000000  -0.000000
     3  N    0.000000   0.003539   0.000015  -0.000001  -0.000000
     4  O    0.000000   0.004305  -0.000019   0.000000  -0.000000
     5  C    0.000000  -0.001438  -0.000038  -0.000001  -0.000000
     6  C   -0.000000  -0.000004   0.000059   0.000000  -0.000000
     7  C   -0.000002  -0.000315  -0.000002   0.000000   0.000000
     8  C   -0.000000  -0.000012  -0.000000   0.000000   0.000000
     9  C    0.000000   0.000000   0.000000   0.000000   0.000000
    10  C   -0.000000  -0.000000  -0.000000   0.000000  -0.000000
    11  C   -0.000000   0.000000  -0.000000   0.000000   0.000000
    12  N    0.000000   0.000004  -0.000000   0.000000  -0.000000
    13  C   -0.000032   0.000034  -0.000021  -0.000000   0.000000
    14  O    0.000000  -0.000001   0.000002   0.000000   0.000000
    15  C    0.001802   0.000736  -0.000182   0.000031  -0.000316
    16  S   -0.033083  -0.000077   0.000013   0.000011  -0.000012
    17  C    0.347411  -0.000312   0.000014  -0.000224   0.000478
    18  C   -0.015786   0.002244   0.000625   0.002275  -0.000593
    19  C    0.005114  -0.000885   0.002909   0.000864   0.001556
    20  O   -0.000041  -0.039038  -0.033387   0.002768  -0.001107
    21  C    0.000016   0.355059   0.366707  -0.027526  -0.044573
    22  C   -0.000054  -0.042012  -0.027945   0.368258   0.358292
    23  O   -0.000948  -0.001328   0.002786  -0.033607  -0.040841
    24  H    0.000027  -0.000004  -0.000000   0.000000  -0.000000
    25  H    0.000000   0.000007   0.000000  -0.000000   0.000000
    26  H    0.000000   0.000000   0.000000   0.000000  -0.000000
    27  H    0.000000   0.000074  -0.000037  -0.000001   0.000000
    28  H    0.000000  -0.000015  -0.000002  -0.000000  -0.000000
    29  H    0.000000  -0.000000  -0.000000  -0.000000   0.000000
    30  H    0.000002   0.000001   0.000000  -0.000000   0.000000
    31  H   -0.000000   0.000000   0.000000  -0.000000  -0.000000
    32  H   -0.000000   0.000000  -0.000000  -0.000000  -0.000000
    33  H   -0.000000  -0.000000   0.000000  -0.000000  -0.000000
    34  H   -0.000000   0.000000   0.000000   0.000000   0.000000
    35  H   -0.000000  -0.000000   0.000000   0.000000  -0.000000
    36  H   -0.000000   0.000000  -0.000000  -0.000000   0.000000
    37  H    0.516321   0.000000  -0.000000  -0.000008   0.000008
    38  H    0.000000   0.561109  -0.033853  -0.001483   0.005582
    39  H   -0.000000  -0.033853   0.560153   0.000120  -0.001594
    40  H   -0.000008  -0.001483   0.000120   0.560222  -0.036961
    41  H    0.000008   0.005582  -0.001594  -0.036961   0.596037
 Mulliken charges:
               1
     1  C   -0.535859
     2  C    0.307341
     3  N   -0.243117
     4  O   -0.381204
     5  C    0.376864
     6  C   -0.544281
     7  C   -0.010520
     8  C   -0.021113
     9  C   -0.301980
    10  C   -0.296840
    11  C   -0.112468
    12  N   -0.450407
    13  C    0.546296
    14  O   -0.498481
    15  C   -0.312694
    16  S    0.259847
    17  C   -0.420169
    18  C    0.381962
    19  C    0.389581
    20  O   -0.520194
    21  C   -0.080296
    22  C   -0.063248
    23  O   -0.515425
    24  H    0.186898
    25  H    0.183250
    26  H    0.161925
    27  H    0.212087
    28  H    0.177289
    29  H    0.168816
    30  H    0.156642
    31  H    0.153513
    32  H    0.154107
    33  H    0.152867
    34  H    0.150981
    35  H    0.151543
    36  H    0.176412
    37  H    0.179258
    38  H    0.187831
    39  H    0.163680
    40  H    0.165264
    41  H    0.164044
 Sum of Mulliken charges =  -0.00000
 Mulliken charges with hydrogens summed into heavy atoms:
               1
     1  C   -0.003786
     2  C    0.307341
     3  N   -0.243117
     4  O   -0.381204
     5  C    0.376864
     6  C    0.013910
     7  C   -0.010520
     8  C    0.135528
     9  C    0.005640
    10  C    0.007008
    11  C    0.215487
    12  N   -0.450407
    13  C    0.546296
    14  O   -0.498481
    15  C   -0.312694
    16  S    0.259847
    17  C   -0.240911
    18  C    0.381962
    19  C    0.389581
    20  O   -0.520194
    21  C    0.271215
    22  C    0.266061
    23  O   -0.515425
 Electronic spatial extent (au):  <R**2>=           6266.6687
 Charge=             -0.0000 electrons
 Dipole moment (field-independent basis, Debye):
    X=             -1.5458    Y=              1.0632    Z=              1.1220  Tot=              2.1861
 Quadrupole moment (field-independent basis, Debye-Ang):
   XX=           -118.9258   YY=           -155.8975   ZZ=           -135.3017
   XY=              0.4096   XZ=             -6.4427   YZ=            -11.6509
 Traceless Quadrupole moment (field-independent basis, Debye-Ang):
   XX=             17.7826   YY=            -19.1892   ZZ=              1.4066
   XY=              0.4096   XZ=             -6.4427   YZ=            -11.6509
 Octapole moment (field-independent basis, Debye-Ang**2):
  XXX=              7.2573  YYY=            -19.3705  ZZZ=              9.0878  XYY=              0.0683
  XXY=              6.6875  XXZ=            -35.2990  XZZ=             15.7428  YZZ=             25.0338
  YYZ=              1.7911  XYZ=             -7.4351
 Hexadecapole moment (field-independent basis, Debye-Ang**3):
 XXXX=          -4068.9705 YYYY=          -2459.2213 ZZZZ=          -1592.5488 XXXY=             95.7557
 XXXZ=           -105.6956 YYYX=              2.3215 YYYZ=            -68.5063 ZZZX=             -3.4975
 ZZZY=            -46.9253 XXYY=          -1063.9129 XXZZ=           -920.7099 YYZZ=           -649.1388
 XXYZ=            -34.8917 YYXZ=             -4.9515 ZZXY=            -24.2693
 N-N= 2.279589340944D+03 E-N=-7.906052163221D+03  KE= 1.418330699044D+03
 No NMR shielding tensors so no spin-rotation constants.
 Leave Link  601 at Fri Nov  4 19:07:40 2022, MaxMem=   805306368 cpu:               1.1 elap:               0.2
 (Enter /home/wykgroup/appl/g16/l9999.exe)
 1\1\GINC-NODE50\FOpt\RB3LYP\6-31G(d)\C16H18N2O4S1\WYKGROUP\04-Nov-2022
 \0\\#p b3lyp/6-31g(d) opt SCF=XQC\\Gaussian input prepared by ASE\\0,1
 \C,-1.8810289003,-0.7615757749,2.5497934481\C,-1.4591012694,0.37924541
 81,1.6745619879\N,-1.1560470893,1.5370695155,2.2184295815\O,-0.7973956
 403,2.3690770222,1.1464133351\C,-0.9028529778,1.6830236469,-0.01264839
 87\C,-0.5031812129,2.4199186238,-1.2467176086\C,-1.3169362239,0.404509
 2593,0.2489364565\C,-1.5736665915,-0.731531674,-0.7076915246\C,-2.9045
 375982,-0.5972490256,-1.4987390447\C,-2.6171052906,-1.2540600717,-2.85
 61908109\C,-1.1680954805,-0.8401557199,-3.1312770091\N,-0.5658877929,-
 0.8510921477,-1.7929770607\C,0.7964982526,-0.8796819201,-1.6625273542\
 O,1.5399515392,-0.7284142652,-2.6277671504\C,1.339846939,-1.1537200066
 ,-0.2934015246\S,1.1875557618,-2.724673154,0.4662149762\C,2.133917041,
 -2.230105739,1.8388162601\C,2.5448454913,-0.9347591214,1.7089552014\C,
 2.0989819729,-0.3233119257,0.4866498845\O,2.3848075061,0.9754299886,0.
 1779858763\C,2.7815018829,1.7347624877,1.3333393978\C,3.8218874055,0.9
 708829341,2.1374575813\O,3.2819341542,-0.2598925206,2.6390554301\H,-1.
 2000110859,-1.6127604221,2.4373088422\H,-1.8745746612,-0.4459901629,3.
 5960526605\H,-2.8910757786,-1.1057115641,2.2980942576\H,0.5433020458,2
 .2111275777,-1.4971166631\H,-0.6134284439,3.4969033416,-1.0903599148\H
 ,-1.1179943127,2.1261700624,-2.1018998948\H,-1.5911158459,-1.663901282
 3,-0.1304512731\H,-3.1406372362,0.4641922848,-1.6344912678\H,-3.739195
 4008,-1.0513044566,-0.9563112214\H,-2.685926485,-2.3456346143,-2.77785
 14668\H,-3.3054488843,-0.9285837402,-3.6419952885\H,-1.1101799963,0.16
 12909829,-3.5819293087\H,-0.6193813955,-1.5211067528,-3.7862981186\H,2
 .3501062267,-2.9138665555,2.6467362354\H,1.8988156569,1.9529247091,1.9
 471512057\H,3.196230977,2.6698162073,0.9495026291\H,4.1343699644,1.542
 6379842,3.0147542145\H,4.7002507767,0.760100571,1.5124324422\\Version=
 ES64L-G16RevB.01\State=1-A\HF=-1429.0605039\RMSD=3.048e-09\RMSF=3.385e
 -06\Dipole=-0.8546977,-0.0055815,0.0958892\Quadrupole=5.1742951,1.0406
 449,-6.21494,9.1368483,12.1976679,-4.719792\PG=C01 [X(C16H18N2O4S1)]\\
 @


 ... SUBJECTS WHICH DISCLOSE THEIR FULL POWER, MEANING AND BEAUTY AS SOON
 AS THEY ARE PRESENTED TO THE MIND HAVE VERY LITTLE OF THOSE QUALITIES
 TO DISCLOSE.
                           -- CHARLES DUTTON (1882)
 Job cpu time:       0 days  4 hours  8 minutes 31.2 seconds.
 Elapsed time:       0 days  0 hours 35 minutes 55.9 seconds.
 File lengths (MBytes):  RWF=     98 Int=      0 D2E=      0 Chk=     14 Scr=      1
 Normal termination of Gaussian 16 at Fri Nov  4 19:07:40 2022.
